13   
From optimize.out: Frame 1 / 2, Energy=    -286.8516735490
C       -0.0941220000   -0.0448830000    0.0000000000
C       -0.0882920000    0.0406680000   -0.0000000000
C       -0.0960860000    0.0795430000   -0.0000000000
C       -0.2459940000   -0.0437010000    0.0000000000
C        0.0923090000   -0.0087580000   -0.0000000000
N       -0.3252230000    0.0215710000   -0.0000000000
H        0.1397660000    0.0030370000    0.0000000000
H        0.1461620000    0.0008330000   -0.0000000000
H        0.1456620000    0.0003080000   -0.0000000000
H        0.1339410000    0.0028740000    0.0000000000
H        0.1496920000   -0.0001790000   -0.0000000000
C       -0.0965300000    0.9750810000    0.0000000000
H        0.1387150000   -0.0263940000    0.0000000000
