
Running Job 1 of 1 optimize.in
qchem optimize.in_57791.0 ./optimize.d/ 1
/home/leeping/opt/qchem/5.0.2-openmp/exe/qcprog.exe_s optimize.in_57791.0 ./optimize.d/
Check license passed

                  Welcome to Q-Chem
     A Quantum Leap Into The Future Of Chemistry


 Q-Chem 5.0, Q-Chem, Inc., Pleasanton, CA (2017)

 Yihan Shao,  Zhengting Gan,  E. Epifanovsky,  A. T. B. Gilbert,  M. Wormit,  
 J. Kussmann,  A. W. Lange,  A. Behn,  Jia Deng,  Xintian Feng,  D. Ghosh,  
 M. Goldey,  P. R. Horn,  L. D. Jacobson,  I. Kaliman,  T. Kus,  A. Landau,  
 Jie Liu,  E. I. Proynov,  R. M. Richard,  R. P. Steele,  E. J. Sundstrom,  
 H. L. Woodcock III,  P. M. Zimmerman,  D. Zuev,  B. Albrecht,  E. Alguire,  
 S. A. Baeppler,  D. Barton,  Z. Benda,  Y. A. Bernard,  E. J. Berquist,  
 K. B. Bravaya,  H. Burton,  D. Casanova,  Chun-Min Chang,  Yunqing Chen,  
 A. Chien,  K. D. Closser,  M. P. Coons,  S. Dasgupta,  A. L. Dempwolff,  
 M. Diedenhofen,  Hainam Do,  R. G. Edgar,  Po-Tung Fang,  S. Fatehi,  
 Qingguo Feng,  J. Fosso-Tande,  Qinghui Ge,  A. Ghysels,  G. Gidofalvi,  
 J. Gomes,  J. Gonthier,  A. Gunina,  M. W. D. Hanson-Heine,  
 P. H. P. Harbach,  A. W. Hauser,  J. E. Herr,  E. G. Hohenstein,  
 Z. C. Holden,  Kerwin Hui,  T.-C. Jagau,  Hyunjun Ji,  B. Kaduk,  
 K. Khistyaev,  Jaehoon Kim,  P. Klunzinger,  K. Koh,  D. Kosenkov,  
 L. Koulias,  T. Kowalczyk,  C. M. Krauter,  A. Kunitsa,  Ka Un Lao,  
 A. Laurent,  K. V. Lawler,  Joonho Lee,  D. Lefrancois,  S. Lehtola,  
 D. S. Levine,  Yi-Pei Li,  You-Sheng Lin,  Fenglai Liu,  E. Livshits,  
 A. Luenser,  P. Manohar,  E. Mansoor,  S. F. Manzer,  Shan-Ping Mao,  
 Yuezhi Mao,  N. Mardirossian,  A. V. Marenich,  T. Markovich,  
 L. A. Martinez-Martinez,  S. A. Maurer,  N. J. Mayhall,  S. C. McKenzie,  
 J.-M. Mewes,  A. F. Morrison,  J. W. Mullinax,  K. Nanda,  
 T. S. Nguyen-Beck,  R. Olivares-Amaya,  J. A. Parkhill,  T. M. Perrine,  
 F. Plasser,  S. Prager,  A. Prociuk,  E. Ramos,  D. R. Rehn,  F. Rob,  
 M. Schneider,  N. Sergueev,  S. M. Sharada,  S. Sharma,  D. W. Small,  
 T. Stauch,  T. Stein,  Yu-Chuan Su,  A. J. W. Thom,  A. Tkatchenko,  
 T. Tsuchimochi,  L. Vogt,  O. Vydrov,  M. A. Watson,  J. Wenzel,  
 M. de Wergifosse,  T. A. Wesolowski,  A. White,  J. Witte,  A. Yamada,  
 Jun Yang,  K. Yao,  S. Yeganeh,  S. R. Yost,  Zhi-Qiang You,  A. Zech,  
 Igor Ying Zhang,  Xing Zhang,  Yan Zhao,  Ying Zhu,  B. R. Brooks,  
 G. K. L. Chan,  C. J. Cramer,  M. S. Gordon,  W. J. Hehre,  A. Klamt,  
 M. W. Schmidt,  C. D. Sherrill,  D. G. Truhlar,  A. Aspuru-Guzik,  R. Baer,  
 A. T. Bell,  N. A. Besley,  Jeng-Da Chai,  R. A. DiStasio Jr.,  A. Dreuw,  
 B. D. Dunietz,  T. R. Furlani,  Chao-Ping Hsu,  Yousung Jung,  Jing Kong,  
 D. S. Lambrecht,  WanZhen Liang,  C. Ochsenfeld,  V. A. Rassolov,  
 L. V. Slipchenko,  J. E. Subotnik,  T. Van Voorhis,  J. M. Herbert,  
 A. I. Krylov,  P. M. W. Gill,  M. Head-Gordon

 Contributors to earlier versions of Q-Chem not listed above: 
 R. D. Adamson,  B. Austin,  J. Baker,  G. J. O. Beran,  K. Brandhorst,  
 S. T. Brown,  E. F. C. Byrd,  A. K. Chakraborty,  C.-L. Cheng,  
 Siu Hung Chien,  D. M. Chipman,  D. L. Crittenden,  H. Dachsel,  
 R. J. Doerksen,  A. D. Dutoi,  L. Fusti-Molnar,  W. A. Goddard III,  
 A. Golubeva-Zadorozhnaya,  S. R. Gwaltney,  G. Hawkins,  A. Heyden,  
 S. Hirata,  G. Kedziora,  F. J. Keil,  C. Kelley,  Jihan Kim,  R. A. King,  
 R. Z. Khaliullin,  P. P. Korambath,  W. Kurlancheek,  A. M. Lee,  M. S. Lee,  
 S. V. Levchenko,  Ching Yeh Lin,  D. Liotard,  R. C. Lochan,  I. Lotan,  
 P. E. Maslen,  N. Nair,  D. P. O'Neill,  D. Neuhauser,  E. Neuscamman,  
 C. M. Oana,  R. Olson,  B. Peters,  R. Peverati,  P. A. Pieniazek,  
 Y. M. Rhee,  J. Ritchie,  M. A. Rohrdanz,  E. Rosta,  N. J. Russ,  
 H. F. Schaefer III,  N. E. Schultz,  N. Shenvi,  A. C. Simmonett,  A. Sodt,  
 D. Stuck,  K. S. Thanthiriwatte,  V. Vanovschi,  Tao Wang,  A. Warshel,  
 C. F. Williams,  Q. Wu,  X. Xu,  W. Zhang

 Please cite Q-Chem as follows:
 Y. Shao et al., Mol. Phys. 113, 184-215 (2015)
 DOI: 10.1080/00268976.2014.952696

 Q-Chem 5.0.2 for Intel X86 EM64T Linux

 Parts of Q-Chem use Armadillo 5.200.1 (Boston Tea Smuggler).
 http://arma.sourceforge.net/

 Q-Chem begins on Thu Mar  3 00:46:10 2022  

Host: 
0

     Scratch files written to ./optimize.d//
 Dec517 15110_ 26548  26544 5633   
Processing $rem in /home/leeping/opt/qchem/5.0.2-openmp/config/preferences.
 MEM_STATIC 2000
 MEM_TOTAL  8000
 SYMMETRY   OFF
 SYM_IGNORE TRUE 

Checking the input file for inconsistencies... 	...done.

--------------------------------------------------------------
User input:
--------------------------------------------------------------
$molecule
0 2
C        1.9550676156    0.1927511669   -0.1342143524
C        1.0112677044   -0.7635189424   -0.1506493285
C       -0.2837335802   -0.1068214979   -0.5495998634
C       -1.4593266966   -0.2720668775    0.3972687432
C        0.1901430512    1.3297838852   -0.6896206311
N        1.4478652376    1.4867130491   -0.4662748554
H        3.0100881771    0.0947807031    0.0942580900
H        1.1277699937   -1.8179010152    0.0638178521
H       -0.5958440926   -0.4559383199   -1.5506994954
H       -2.3901558252    0.2091705270    0.0690180838
H       -0.4549434834    2.1627133590   -0.9619288473
C       -1.4303535273   -0.9149156917    1.5415988095
H       -2.1278445744   -1.1447503455    2.3370257949
$end

$rem
method                b3lyp
basis                 6-31g(d)
unrestricted          true
symmetry              off
sym_ignore            true
incdft                false
incfock               0
scf_convergence       8
thresh                14
jobtype               opt
scf_guess             read
scf_algorithm         diis
max_scf_cycles        100
geom_opt_tol_gradient 600
geom_opt_tol_displacement 2400
geom_opt_tol_energy   200
geom_opt_max_cycles   100
$end

--------------------------------------------------------------
 ----------------------------------------------------------------
             Standard Nuclear Orientation (Angstroms)
    I     Atom           X                Y                Z
 ----------------------------------------------------------------
    1      C       1.9550676156     0.1927511669    -0.1342143524
    2      C       1.0112677044    -0.7635189424    -0.1506493285
    3      C      -0.2837335802    -0.1068214979    -0.5495998634
    4      C      -1.4593266966    -0.2720668775     0.3972687432
    5      C       0.1901430512     1.3297838852    -0.6896206311
    6      N       1.4478652376     1.4867130491    -0.4662748554
    7      H       3.0100881771     0.0947807031     0.0942580900
    8      H       1.1277699937    -1.8179010152     0.0638178521
    9      H      -0.5958440926    -0.4559383199    -1.5506994954
   10      H      -2.3901558252     0.2091705270     0.0690180838
   11      H      -0.4549434834     2.1627133590    -0.9619288473
   12      C      -1.4303535273    -0.9149156917     1.5415988095
   13      H      -2.1278445744    -1.1447503455     2.3370257949
 ----------------------------------------------------------------
 Nuclear Repulsion Energy =   259.1912952455 hartrees
 There are       25 alpha and       24 beta electrons
 Requested basis set is 6-31G(d)
 There are 40 shells and 117 basis functions

 Total QAlloc Memory Limit   8000 MB
 Mega-Array Size      1956 MB
 MEM_STATIC part      2000 MB
 A cutoff of  1.0D-14 yielded    792 shell pairs
 There are      7033 function pairs
 
 -------------------------------------------------------
 OpenMP Integral Computing Module                       
 Release: version 1.0, May 2013, Q-Chem Inc. Pittsburgh 
 -------------------------------------------------------
 Integral Job Info:
 Integral job number is                      11
 Integral operator is                         1
 short-range coefficients                     0
 long-range coefficients              100000000
 Omega coefficients                           0
 if combine SR and LR in K                    0
 Integral screening is                        0
 Integral computing path is                   2
 max size of driver memory is            800000
 size of driver memory is                593474
 size of scratch memory is              2361544
 max col of scratch BK array               1296
 max len of scratch array in speh3          155
 max len of scratch index in speh4           18
 max int batch size is                      520
 min int batch size is                       52
 fixed nKL is                                52
 max L of basis functions is                  2
 order of int derivative is                   0
 number of shells is                         40
 number of basis is                         117
 number of cartesian basis is               117
 number of contracted shell pairs           792
 number of primitive shell pairs           3363
 maxK2 (contraction) of shell pair           36
 max number of K2 of shell pair               1
 max number of CS2 of shell pair             86
 max number of PS2 of shell pair            372
 mem total for path MDJ                  531564
 -------------------------------------------------------
 Smallest overlap matrix eigenvalue = 1.61E-03

 Scale SEOQF with 1.000000e-01/1.000000e-01/1.000000e-01

 Standard Electronic Orientation quadrupole field applied
 Nucleus-field energy     =     0.0000000032 hartrees
 Guess MOs from SCF MO coefficient file
 Reading MOs from coefficient file
 Reading MOs from coefficient file
 An unrestricted hybrid HF-DFT SCF calculation will be
 performed using Pulay DIIS extrapolation
 Exchange:     0.2000 Hartree-Fock + 0.0800 Slater + 0.7200 B88
 Correlation:  0.1900 VWN1RPA + 0.8100 LYP
 Using SG-1 standard quadrature grid
 SCF converges when DIIS error is below 1.0E-08
Using Q-Chem read-in guess as SCF_GUESS READ specified.

 using 4 threads for integral computing
 -------------------------------------------------------
 OpenMP Integral computing Module                
 Release: version 1.0, May 2013, Q-Chem Inc. Pittsburgh 
 -------------------------------------------------------
 -------------------------------------------------------
 OpenMP BLAS3 based DFT computing Module                
 Release: version 1.0, May 2013, Q-Chem Inc. Pittsburgh 
 -------------------------------------------------------
 ---------------------------------------
  Cycle       Energy         DIIS Error
 ---------------------------------------
    1    -286.8443305167      2.21E-09
    2    -286.8443305168      2.75E-09 Convergence criterion met
 ---------------------------------------
 <S^2> = 0.7611
 SCF time:  CPU 5.06 s  wall 1.52 s
 SCF   energy in the final basis set = -286.84433052
 Total energy in the final basis set = -286.84433052
 
 --------------------------------------------------------------
 
                    Orbital Energies (a.u.)
 --------------------------------------------------------------
 
 Alpha MOs
 -- Occupied --
-14.329 -10.228 -10.216 -10.213 -10.210 -10.209 -10.190  -0.948
 -0.809  -0.745  -0.713  -0.598  -0.555  -0.544  -0.502  -0.479
 -0.442  -0.414  -0.393  -0.368  -0.344  -0.290  -0.257  -0.245
 -0.233
 -- Virtual --
 -0.034   0.013   0.068   0.110   0.128   0.140   0.146   0.164
  0.169   0.192   0.234   0.280   0.298   0.377   0.386   0.441
  0.489   0.502   0.533   0.544   0.566   0.579   0.592   0.615
  0.627   0.637   0.652   0.673   0.706   0.720   0.735   0.804
  0.809   0.830   0.839   0.855   0.873   0.874   0.901   0.916
  0.948   0.976   1.009   1.032   1.102   1.139   1.211   1.342
  1.398   1.442   1.468   1.477   1.495   1.521   1.547   1.631
  1.662   1.742   1.763   1.853   1.872   1.922   1.947   1.970
  2.045   2.069   2.094   2.160   2.184   2.265   2.293   2.307
  2.367   2.402   2.441   2.543   2.571   2.576   2.631   2.721
  2.740   2.835   2.924   2.944   3.035   3.933   4.058   4.136
  4.167   4.311   4.347   4.576
 
 Beta MOs
 -- Occupied --
-14.329 -10.228 -10.215 -10.212 -10.209 -10.198 -10.190  -0.948
 -0.803  -0.741  -0.703  -0.590  -0.554  -0.534  -0.500  -0.468
 -0.436  -0.412  -0.393  -0.364  -0.342  -0.285  -0.253  -0.238
 -- Virtual --
 -0.075  -0.034   0.025   0.069   0.116   0.129   0.141   0.152
  0.166   0.171   0.194   0.235   0.284   0.301   0.378   0.403
  0.448   0.495   0.506   0.543   0.558   0.570   0.583   0.603
  0.628   0.631   0.643   0.653   0.674   0.706   0.722   0.742
  0.807   0.811   0.830   0.839   0.855   0.875   0.888   0.904
  0.921   0.955   0.977   1.018   1.041   1.104   1.150   1.212
  1.343   1.400   1.445   1.471   1.478   1.499   1.528   1.548
  1.644   1.698   1.763   1.774   1.873   1.882   1.929   1.952
  1.994   2.049   2.071   2.097   2.168   2.187   2.270   2.294
  2.311   2.369   2.411   2.445   2.544   2.573   2.579   2.635
  2.722   2.747   2.846   2.932   2.948   3.036   3.934   4.082
  4.136   4.178   4.312   4.347   4.577
 --------------------------------------------------------------
 
          Ground-State Mulliken Net Atomic Charges

     Atom                 Charge (a.u.)    Spin (a.u.)
  --------------------------------------------------------
      1 C                     0.007849       0.001206
      2 C                    -0.123025       0.002716
      3 C                    -0.228326       0.042993
      4 C                    -0.119246      -0.167568
      5 C                     0.085448      -0.006798
      6 N                    -0.370529       0.006824
      7 H                     0.141624      -0.000003
      8 H                     0.146967       0.000258
      9 H                     0.180683      -0.004683
     10 H                     0.149310       0.078497
     11 H                     0.145862      -0.000023
     12 C                    -0.181767       1.042840
     13 H                     0.165150       0.003742
  --------------------------------------------------------
  Sum of atomic charges =     0.000000
  Sum of spin   charges =     1.000000

 -----------------------------------------------------------------
                    Cartesian Multipole Moments
 -----------------------------------------------------------------
    Charge (ESU x 10^10)
                 0.0000
    Dipole Moment (Debye)
         X      -2.0084      Y      -1.4238      Z      -0.2729
       Tot       2.4770
    Quadrupole Moments (Debye-Ang)
        XX     -38.2958     XY      -4.5811     YY     -43.4336
        XZ       0.5662     YZ      -0.5309     ZZ     -39.9116
    Octopole Moments (Debye-Ang^2)
       XXX     -20.7878    XXY     -11.3561    XYY     -14.7763
       YYY     -20.0239    XXZ       7.2998    XYZ       4.7826
       YYZ       0.7120    XZZ     -14.4765    YZZ      -7.1680
       ZZZ       2.9290
    Hexadecapole Moments (Debye-Ang^3)
      XXXX    -440.1633   XXXY     -69.1749   XXYY    -139.2126
      XYYY     -86.3022   YYYY    -267.2058   XXXZ      64.5542
      XXYZ      15.2436   XYYZ      27.3789   YYYZ      56.2636
      XXZZ    -103.3580   XYZZ     -12.8924   YYZZ     -73.7937
      XZZZ      56.5921   YZZZ      50.5909   ZZZZ    -179.4346
 -----------------------------------------------------------------
 Calculating analytic gradient of the SCF energy
 Gradient of SCF Energy
            1           2           3           4           5           6
    1  -0.0000622  -0.0000182  -0.0003743   0.0001579   0.0000495   0.0001200
    2   0.0002091   0.0000754   0.0001866  -0.0003789   0.0000725  -0.0003035
    3  -0.0002012   0.0003260  -0.0003782   0.0001269  -0.0000538   0.0001730
            7           8           9          10          11          12
    1   0.0000016   0.0001085   0.0000857   0.0000227   0.0000018  -0.0000547
    2  -0.0000286  -0.0000267  -0.0000697   0.0000646   0.0000023   0.0003081
    3  -0.0000008  -0.0000972   0.0000707   0.0000579  -0.0000256   0.0000387
           13
    1  -0.0000383
    2  -0.0001111
    3  -0.0000365
 Max gradient component =       3.789E-04
 RMS gradient           =       1.612E-04
 Gradient time:  CPU 7.10 s  wall 2.02 s
 Geometry Optimization Parameters
   NAtoms,    NIC,     NZ,  NCons,   NDum,   NFix, NCnnct, MaxDiis
       13      87       0       0       0       0       0       0


** GEOMETRY OPTIMIZATION IN DELOCALIZED INTERNAL COORDINATES **
   Searching for a Minimum

   Optimization Cycle:   1

                       Coordinates (Angstroms)
     ATOM                X               Y               Z
      1  C         1.9550676156    0.1927511669   -0.1342143524
      2  C         1.0112677044   -0.7635189424   -0.1506493285
      3  C        -0.2837335802   -0.1068214979   -0.5495998634
      4  C        -1.4593266966   -0.2720668775    0.3972687432
      5  C         0.1901430512    1.3297838852   -0.6896206311
      6  N         1.4478652376    1.4867130491   -0.4662748554
      7  H         3.0100881771    0.0947807031    0.0942580900
      8  H         1.1277699937   -1.8179010152    0.0638178521
      9  H        -0.5958440926   -0.4559383199   -1.5506994954
     10  H        -2.3901558252    0.2091705270    0.0690180838
     11  H        -0.4549434834    2.1627133590   -0.9619288473
     12  C        -1.4303535273   -0.9149156917    1.5415988095
     13  H        -2.1278445744   -1.1447503455    2.3370257949
   Point Group: c1    Number of degrees of freedom:    33


   Energy is   -286.844330517


 Attempting to Generate Delocalized Internal Coordinates

 33 Hessian modes will be used to form the next step
  Hessian Eigenvalues:
     0.006730    0.010195    0.011880    0.013968    0.016510    0.020382
     0.025393    0.033935    0.052850    0.057567    0.074910    0.137349
     0.159980    0.159995    0.159996    0.160000    0.160000    0.207612
     0.220002    0.228408    0.292550    0.305101    0.309161    0.331121
     0.338953    0.350279    0.355257    0.356821    0.357224    0.393821
     0.529611    0.637462    0.676033

 Minimum Search - Taking Simple RFO Step
 Searching for Lamda that Minimizes Along All modes
 Value Taken    Lamda =  -0.00000344
 Step Taken.  Stepsize is  0.011207

                             Maximum     Tolerance    Cnvgd?
         Gradient           0.000210      0.000600     YES
         Displacement       0.007450      0.002400      NO
         Energy change     *********      0.000002      NO


 New Cartesian Coordinates Obtained by Inverse Iteration

 Displacement from previous Coordinates is:  0.008105
 ----------------------------------------------------------------
             Standard Nuclear Orientation (Angstroms)
    I     Atom           X                Y                Z
 ----------------------------------------------------------------
    1      C       1.9550875318     0.1926868471    -0.1340663045
    2      C       1.0114775892    -0.7638604318    -0.1514074081
    3      C      -0.2834204738    -0.1068387817    -0.5492643580
    4      C      -1.4590547928    -0.2710665640     0.3975690545
    5      C       0.1901517138     1.3296256010    -0.6898692160
    6      N       1.4480854256     1.4866631016    -0.4680895456
    7      H       3.0098782545     0.0952026882     0.0956382617
    8      H       1.1268506686    -1.8178623115     0.0653907484
    9      H      -0.5967871758    -0.4551145450    -1.5503819190
   10      H      -2.3898874109     0.2101540380     0.0692654800
   11      H      -0.4552169260     2.1623486794    -0.9620994596
   12      C      -1.4301041502    -0.9162773332     1.5406648196
   13      H      -2.1270602542    -1.1456609879     2.3366498464
 ----------------------------------------------------------------
 Nuclear Repulsion Energy =   259.1939667620 hartrees
 There are       25 alpha and       24 beta electrons
 Applying Cartesian multipole field
    Component          Value
    ---------          -----
     (2,0,0)        1.00000E-11
     (0,2,0)        2.00000E-11
     (0,0,2)       -3.00000E-11
 Nucleus-field energy     =     0.0000000032 hartrees
 Requested basis set is 6-31G(d)
 There are 40 shells and 117 basis functions
 A cutoff of  1.0D-14 yielded    791 shell pairs
 There are      7029 function pairs
 Smallest overlap matrix eigenvalue = 1.62E-03
 Guess MOs from SCF MO coefficient file
 Reading MOs from coefficient file
 Reading MOs from coefficient file
 An unrestricted hybrid HF-DFT SCF calculation will be
 performed using Pulay DIIS extrapolation
 Exchange:     0.2000 Hartree-Fock + 0.0800 Slater + 0.7200 B88
 Correlation:  0.1900 VWN1RPA + 0.8100 LYP
 Using SG-1 standard quadrature grid
 SCF converges when DIIS error is below 1.0E-08
 Geometry optimization detected.  Setting ReadMinima to 0
 Setting SaveMinima to 0
Using Q-Chem read-in guess as SCF_GUESS READ specified.

 using 4 threads for integral computing
 -------------------------------------------------------
 OpenMP Integral computing Module                
 Release: version 1.0, May 2013, Q-Chem Inc. Pittsburgh 
 -------------------------------------------------------
 -------------------------------------------------------
 OpenMP BLAS3 based DFT computing Module                
 Release: version 1.0, May 2013, Q-Chem Inc. Pittsburgh 
 -------------------------------------------------------
 ---------------------------------------
  Cycle       Energy         DIIS Error
 ---------------------------------------
    1    -286.8442362504      6.93E-05
    2    -286.8443321629      8.36E-06
    3    -286.8443319694      1.49E-05
    4    -286.8443323463      2.26E-06
    5    -286.8443323549      8.73E-07
    6    -286.8443323564      5.01E-07
    7    -286.8443323569      1.56E-07
    8    -286.8443323570      4.41E-08
    9    -286.8443323571      2.79E-08
   10    -286.8443323571      1.16E-08
   11    -286.8443323571      5.93E-09 Convergence criterion met
 ---------------------------------------
 <S^2> = 0.7611
 SCF time:  CPU 27.31 s  wall 8.37 s
 SCF   energy in the final basis set = -286.84433236
 Total energy in the final basis set = -286.84433236
 
 --------------------------------------------------------------
 
                    Orbital Energies (a.u.)
 --------------------------------------------------------------
 
 Alpha MOs
 -- Occupied --
-14.329 -10.228 -10.216 -10.213 -10.210 -10.209 -10.190  -0.948
 -0.809  -0.745  -0.713  -0.598  -0.555  -0.544  -0.502  -0.479
 -0.442  -0.414  -0.393  -0.368  -0.344  -0.290  -0.257  -0.245
 -0.233
 -- Virtual --
 -0.034   0.013   0.068   0.110   0.128   0.140   0.146   0.164
  0.170   0.192   0.234   0.280   0.298   0.377   0.386   0.440
  0.489   0.502   0.533   0.544   0.566   0.579   0.592   0.615
  0.627   0.637   0.652   0.673   0.706   0.720   0.735   0.804
  0.809   0.830   0.839   0.855   0.872   0.874   0.901   0.916
  0.948   0.976   1.009   1.032   1.102   1.139   1.211   1.342
  1.398   1.442   1.468   1.477   1.494   1.521   1.547   1.632
  1.662   1.743   1.763   1.853   1.872   1.922   1.948   1.969
  2.045   2.069   2.094   2.160   2.184   2.265   2.294   2.306
  2.367   2.402   2.441   2.543   2.571   2.576   2.631   2.721
  2.740   2.835   2.924   2.944   3.035   3.933   4.058   4.136
  4.167   4.311   4.347   4.576
 
 Beta MOs
 -- Occupied --
-14.329 -10.228 -10.215 -10.212 -10.209 -10.198 -10.190  -0.948
 -0.803  -0.741  -0.703  -0.590  -0.554  -0.534  -0.500  -0.469
 -0.436  -0.412  -0.393  -0.364  -0.342  -0.285  -0.253  -0.238
 -- Virtual --
 -0.075  -0.034   0.025   0.069   0.116   0.129   0.141   0.151
  0.166   0.171   0.194   0.235   0.284   0.301   0.378   0.403
  0.448   0.496   0.506   0.543   0.558   0.570   0.583   0.603
  0.628   0.631   0.643   0.653   0.674   0.706   0.722   0.742
  0.807   0.811   0.830   0.839   0.855   0.875   0.888   0.904
  0.921   0.955   0.977   1.018   1.041   1.104   1.149   1.212
  1.344   1.400   1.445   1.470   1.478   1.498   1.528   1.548
  1.644   1.698   1.763   1.774   1.873   1.882   1.929   1.952
  1.994   2.049   2.070   2.097   2.168   2.187   2.270   2.294
  2.311   2.369   2.411   2.445   2.544   2.573   2.579   2.635
  2.722   2.747   2.846   2.931   2.948   3.036   3.933   4.082
  4.136   4.178   4.312   4.347   4.577
 --------------------------------------------------------------
 
          Ground-State Mulliken Net Atomic Charges

     Atom                 Charge (a.u.)    Spin (a.u.)
  --------------------------------------------------------
      1 C                     0.007741       0.001201
      2 C                    -0.122991       0.002718
      3 C                    -0.228330       0.042979
      4 C                    -0.119123      -0.167607
      5 C                     0.085562      -0.006773
      6 N                    -0.370635       0.006811
      7 H                     0.141648      -0.000005
      8 H                     0.147043       0.000259
      9 H                     0.180646      -0.004682
     10 H                     0.149367       0.078432
     11 H                     0.145847      -0.000025
     12 C                    -0.181902       1.042906
     13 H                     0.165127       0.003787
  --------------------------------------------------------
  Sum of atomic charges =     0.000000
  Sum of spin   charges =     1.000000

 -----------------------------------------------------------------
                    Cartesian Multipole Moments
 -----------------------------------------------------------------
    Charge (ESU x 10^10)
                 0.0000
    Dipole Moment (Debye)
         X      -2.0099      Y      -1.4223      Z      -0.2676
       Tot       2.4767
    Quadrupole Moments (Debye-Ang)
        XX     -38.2994     XY      -4.5826     YY     -43.4355
        XZ       0.5789     YZ      -0.5286     ZZ     -39.9151
    Octopole Moments (Debye-Ang^2)
       XXX     -20.8148    XXY     -11.3431    XYY     -14.7856
       YYY     -20.0067    XXZ       7.3274    XYZ       4.7883
       YYZ       0.7442    XZZ     -14.4829    YZZ      -7.1673
       ZZZ       2.9789
    Hexadecapole Moments (Debye-Ang^3)
      XXXX    -440.1540   XXXY     -69.1838   XXYY    -139.2293
      XYYY     -86.3014   YYYY    -267.2807   XXXZ      64.6470
      XXYZ      15.2880   XYYZ      27.4127   YYYZ      56.3456
      XXZZ    -103.3717   XYZZ     -12.9078   YYZZ     -73.8115
      XZZZ      56.6313   YZZZ      50.6552   ZZZZ    -179.4112
 -----------------------------------------------------------------
 Calculating analytic gradient of the SCF energy
 Gradient of SCF Energy
            1           2           3           4           5           6
    1  -0.0000411   0.0000191  -0.0001258   0.0001080  -0.0000115   0.0000287
    2   0.0001298  -0.0000849   0.0000420  -0.0000313   0.0000629  -0.0001248
    3   0.0000528   0.0000206  -0.0000991   0.0000164   0.0000540  -0.0001218
            7           8           9          10          11          12
    1  -0.0000059   0.0000381   0.0000357  -0.0000309   0.0000014   0.0000019
    2  -0.0000102  -0.0000144  -0.0000473   0.0000121  -0.0000012   0.0001296
    3   0.0000348  -0.0000446   0.0000453   0.0000118   0.0000171   0.0000587
           13
    1  -0.0000177
    2  -0.0000624
    3  -0.0000459
 Max gradient component =       1.298E-04
 RMS gradient           =       6.131E-05
 Gradient time:  CPU 7.49 s  wall 2.03 s
 Geometry Optimization Parameters
   NAtoms,    NIC,     NZ,  NCons,   NDum,   NFix, NCnnct, MaxDiis
       13      87       0       0       0       0       0       0

 Cartesian Hessian Update
 Hessian Updated using BFGS Update


** GEOMETRY OPTIMIZATION IN DELOCALIZED INTERNAL COORDINATES **
   Searching for a Minimum

   Optimization Cycle:   2

                       Coordinates (Angstroms)
     ATOM                X               Y               Z
      1  C         1.9550875318    0.1926868471   -0.1340663045
      2  C         1.0114775892   -0.7638604318   -0.1514074081
      3  C        -0.2834204738   -0.1068387817   -0.5492643580
      4  C        -1.4590547928   -0.2710665640    0.3975690545
      5  C         0.1901517138    1.3296256010   -0.6898692160
      6  N         1.4480854256    1.4866631016   -0.4680895456
      7  H         3.0098782545    0.0952026882    0.0956382617
      8  H         1.1268506686   -1.8178623115    0.0653907484
      9  H        -0.5967871758   -0.4551145450   -1.5503819190
     10  H        -2.3898874109    0.2101540380    0.0692654800
     11  H        -0.4552169260    2.1623486794   -0.9620994596
     12  C        -1.4301041502   -0.9162773332    1.5406648196
     13  H        -2.1270602542   -1.1456609879    2.3366498464
   Point Group: c1    Number of degrees of freedom:    33


   Energy is   -286.844332357

 Hessian Updated using BFGS Update

 33 Hessian modes will be used to form the next step
  Hessian Eigenvalues:
     0.006556    0.010094    0.011714    0.013552    0.014621    0.024872
     0.028955    0.030753    0.051265    0.057236    0.074470    0.137837
     0.156875    0.159994    0.159998    0.159998    0.160508    0.209157
     0.215243    0.228309    0.288679    0.305724    0.307021    0.330322
     0.339395    0.350322    0.355251    0.357015    0.357158    0.387496
     0.530525    0.636424    0.676565

 Minimum Search - Taking Simple RFO Step
 Searching for Lamda that Minimizes Along All modes
 Value Taken    Lamda =  -0.00000127
 Step Taken.  Stepsize is  0.008156

                             Maximum     Tolerance    Cnvgd?
         Gradient           0.000089      0.000600     YES
         Displacement       0.003275      0.002400      NO
         Energy change     -0.000002      0.000002     YES


                       Distance Matrix (Angstroms)
             C (  1)   C (  2)   C (  3)   C (  4)   C (  5)   N (  6)
   C (  2)  1.343757
   C (  3)  2.296306  1.505566
   C (  4)  3.486269  2.578323  1.518414
   C (  5)  2.171761  2.312402  1.519036  2.542562
   N (  6)  1.429335  2.314254  2.354559  3.505773  1.286952
   H (  7)  1.083905  2.189207  3.361925  4.494071  3.176740  2.166367
   H (  8)  2.183590  1.082235  2.300927  3.031473  3.369644  3.362690
   H (  9)  2.989592  2.153827  1.105319  2.138198  2.131913  3.020490
   H ( 10)  4.349765  3.544952  2.218167  1.098092  2.913092  4.080228
   H ( 11)  3.220990  3.372108  2.312825  2.962752  1.088135  2.079220
   C ( 12)  3.936248  2.974502  2.517514  1.312937  3.555923  4.253609
   H ( 13)  4.955759  4.023260  3.578639  2.229615  4.544924  5.251415
             H (  7)   H (  8)   H (  9)   H ( 10)   H ( 11)   C ( 12)
   H (  8)  2.684497
   H (  9)  4.002533  2.727404
   H ( 10)  5.401053  4.059595  2.506202
   H ( 11)  4.171185  4.404629  2.686491  2.935597
   C ( 12)  4.777514  3.086634  3.234449  2.086875  4.085605
   H ( 13)  5.740210  4.024725  4.234100  2.654872  4.961828  1.082570

 
 Final energy is   -286.844332357076     


 ******************************
 **  OPTIMIZATION CONVERGED  **
 ******************************

                       Coordinates (Angstroms)
     ATOM                X               Y               Z
      1  C         1.9550875318    0.1926868471   -0.1340663045
      2  C         1.0114775892   -0.7638604318   -0.1514074081
      3  C        -0.2834204738   -0.1068387817   -0.5492643580
      4  C        -1.4590547928   -0.2710665640    0.3975690545
      5  C         0.1901517138    1.3296256010   -0.6898692160
      6  N         1.4480854256    1.4866631016   -0.4680895456
      7  H         3.0098782545    0.0952026882    0.0956382617
      8  H         1.1268506686   -1.8178623115    0.0653907484
      9  H        -0.5967871758   -0.4551145450   -1.5503819190
     10  H        -2.3898874109    0.2101540380    0.0692654800
     11  H        -0.4552169260    2.1623486794   -0.9620994596
     12  C        -1.4301041502   -0.9162773332    1.5406648196
     13  H        -2.1270602542   -1.1456609879    2.3366498464

Z-matrix Print:
$molecule
0 2
C 
H  1 1.105319
C  1 1.505566 2 110.223235
H  3 1.082235 1 124.724928 2 -67.742426 0
C  3 1.343757 1 107.260914 2 111.780534 0
H  5 1.083905 3 128.467342 1 -179.269027 0
N  5 1.429335 3 113.099723 1 0.781385 0
C  7 1.286952 5 106.052540 3 0.096513 0
H  8 1.088135 7 121.968676 5 179.630478 0
C  1 1.518414 2 108.131324 3 -129.025077 0
H  10 1.098092 1 114.991822 2 -54.146829 0
C  10 1.312937 1 125.378965 2 126.398128 0
H  12 1.082570 10 136.893971 1 -179.908491 0
$end

 
 --------------------------------------------------------------
 
                    Orbital Energies (a.u.)
 --------------------------------------------------------------
 
 Alpha MOs
 -- Occupied --
-14.329 -10.228 -10.216 -10.213 -10.210 -10.209 -10.190  -0.948
 -0.809  -0.745  -0.713  -0.598  -0.555  -0.544  -0.502  -0.479
 -0.442  -0.414  -0.393  -0.368  -0.344  -0.290  -0.257  -0.245
 -0.233
 -- Virtual --
 -0.034   0.013   0.068   0.110   0.128   0.140   0.146   0.164
  0.170   0.192   0.234   0.280   0.298   0.377   0.386   0.440
  0.489   0.502   0.533   0.544   0.566   0.579   0.592   0.615
  0.627   0.637   0.652   0.673   0.706   0.720   0.735   0.804
  0.809   0.830   0.839   0.855   0.872   0.874   0.901   0.916
  0.948   0.976   1.009   1.032   1.102   1.139   1.211   1.342
  1.398   1.442   1.468   1.477   1.494   1.521   1.547   1.632
  1.662   1.743   1.763   1.853   1.872   1.922   1.948   1.969
  2.045   2.069   2.094   2.160   2.184   2.265   2.294   2.306
  2.367   2.402   2.441   2.543   2.571   2.576   2.631   2.721
  2.740   2.835   2.924   2.944   3.035   3.933   4.058   4.136
  4.167   4.311   4.347   4.576
 
 Beta MOs
 -- Occupied --
-14.329 -10.228 -10.215 -10.212 -10.209 -10.198 -10.190  -0.948
 -0.803  -0.741  -0.703  -0.590  -0.554  -0.534  -0.500  -0.469
 -0.436  -0.412  -0.393  -0.364  -0.342  -0.285  -0.253  -0.238
 -- Virtual --
 -0.075  -0.034   0.025   0.069   0.116   0.129   0.141   0.151
  0.166   0.171   0.194   0.235   0.284   0.301   0.378   0.403
  0.448   0.496   0.506   0.543   0.558   0.570   0.583   0.603
  0.628   0.631   0.643   0.653   0.674   0.706   0.722   0.742
  0.807   0.811   0.830   0.839   0.855   0.875   0.888   0.904
  0.921   0.955   0.977   1.018   1.041   1.104   1.149   1.212
  1.344   1.400   1.445   1.470   1.478   1.498   1.528   1.548
  1.644   1.698   1.763   1.774   1.873   1.882   1.929   1.952
  1.994   2.049   2.070   2.097   2.168   2.187   2.270   2.294
  2.311   2.369   2.411   2.445   2.544   2.573   2.579   2.635
  2.722   2.747   2.846   2.931   2.948   3.036   3.933   4.082
  4.136   4.178   4.312   4.347   4.577
 --------------------------------------------------------------
 
          Ground-State Mulliken Net Atomic Charges

     Atom                 Charge (a.u.)    Spin (a.u.)
  --------------------------------------------------------
      1 C                     0.007741       0.001201
      2 C                    -0.122991       0.002718
      3 C                    -0.228330       0.042979
      4 C                    -0.119123      -0.167607
      5 C                     0.085562      -0.006773
      6 N                    -0.370635       0.006811
      7 H                     0.141648      -0.000005
      8 H                     0.147043       0.000259
      9 H                     0.180646      -0.004682
     10 H                     0.149367       0.078432
     11 H                     0.145847      -0.000025
     12 C                    -0.181902       1.042906
     13 H                     0.165127       0.003787
  --------------------------------------------------------
  Sum of atomic charges =     0.000000
  Sum of spin   charges =     1.000000

 -----------------------------------------------------------------
                    Cartesian Multipole Moments
 -----------------------------------------------------------------
    Charge (ESU x 10^10)
                 0.0000
    Dipole Moment (Debye)
         X      -2.0099      Y      -1.4223      Z      -0.2676
       Tot       2.4767
    Quadrupole Moments (Debye-Ang)
        XX     -38.2994     XY      -4.5826     YY     -43.4355
        XZ       0.5789     YZ      -0.5286     ZZ     -39.9151
    Octopole Moments (Debye-Ang^2)
       XXX     -20.8148    XXY     -11.3431    XYY     -14.7856
       YYY     -20.0067    XXZ       7.3274    XYZ       4.7883
       YYZ       0.7442    XZZ     -14.4829    YZZ      -7.1673
       ZZZ       2.9789
    Hexadecapole Moments (Debye-Ang^3)
      XXXX    -440.1540   XXXY     -69.1838   XXYY    -139.2293
      XYYY     -86.3014   YYYY    -267.2807   XXXZ      64.6470
      XXYZ      15.2880   XYYZ      27.4127   YYYZ      56.3456
      XXZZ    -103.3717   XYZZ     -12.9078   YYZZ     -73.8115
      XZZZ      56.6313   YZZZ      50.6552   ZZZZ    -179.4112
 -----------------------------------------------------------------
Archival summary:
1\1\c8-89\OPT\ProcedureUnspecified\6-31G*\166(2)\hpark21\ThuMar300:46:262022ThuMar300:46:262022\0\\#,OPT,ProcedureUnspecified,6-31G*,\\0,2\C\H,1,1.10532\C,1,1.50557,2,110.223\H,3,1.08223,1,124.725,2,-67.7424,0\C,3,1.34376,1,107.261,2,111.781,0\H,5,1.08391,3,128.467,1,-179.269,0\N,5,1.42933,3,113.1,1,0.781385,0\C,7,1.28695,5,106.053,3,0.0965132,0\H,8,1.08813,7,121.969,5,179.63,0\C,1,1.51841,2,108.131,3,-129.025,0\H,10,1.09809,1,114.992,2,-54.1468,0\C,10,1.31294,1,125.379,2,126.398,0\H,12,1.08257,10,136.894,1,-179.908,0\\\@

 Total job time:  16.03s(wall), 49.89s(cpu) 
 Thu Mar  3 00:46:26 2022

        *************************************************************
        *                                                           *
        *  Thank you very much for using Q-Chem.  Have a nice day.  *
        *                                                           *
        *************************************************************


