13   
From optimize.out: Frame 1 / 2, Energy=    -286.8443305168
C        1.9550676156    0.1927511669   -0.1342143524
C        1.0112677044   -0.7635189424   -0.1506493285
C       -0.2837335802   -0.1068214979   -0.5495998634
C       -1.4593266966   -0.2720668775    0.3972687432
C        0.1901430512    1.3297838852   -0.6896206311
N        1.4478652376    1.4867130491   -0.4662748554
H        3.0100881771    0.0947807031    0.0942580900
H        1.1277699937   -1.8179010152    0.0638178521
H       -0.5958440926   -0.4559383199   -1.5506994954
H       -2.3901558252    0.2091705270    0.0690180838
H       -0.4549434834    2.1627133590   -0.9619288473
C       -1.4303535273   -0.9149156917    1.5415988095
H       -2.1278445744   -1.1447503455    2.3370257949
