13   
From optimize.out: Frame 1 / 2, Energy=    -286.8443305168
C        0.0078490000    0.0012060000   -0.0000000000
C       -0.1230250000    0.0027160000   -0.0000000000
C       -0.2283260000    0.0429930000   -0.0000000000
C       -0.1192460000   -0.1675680000    0.0000000000
C        0.0854480000   -0.0067980000   -0.0000000000
N       -0.3705290000    0.0068240000   -0.0000000000
H        0.1416240000   -0.0000030000    0.0000000000
H        0.1469670000    0.0002580000    0.0000000000
H        0.1806830000   -0.0046830000   -0.0000000000
H        0.1493100000    0.0784970000    0.0000000000
H        0.1458620000   -0.0000230000   -0.0000000000
C       -0.1817670000    1.0428400000    0.0000000000
H        0.1651500000    0.0037420000    0.0000000000
