
Running Job 1 of 1 qcirc.in
qchem qcirc.in_1572.0 ./qcirc.d/ 1
/home/leeping/opt/qchem/5.0.2-openmp/exe/qcprog.exe_s qcirc.in_1572.0 ./qcirc.d/
Check license passed

                  Welcome to Q-Chem
     A Quantum Leap Into The Future Of Chemistry


 Q-Chem 5.0, Q-Chem, Inc., Pleasanton, CA (2017)

 Yihan Shao,  Zhengting Gan,  E. Epifanovsky,  A. T. B. Gilbert,  M. Wormit,  
 J. Kussmann,  A. W. Lange,  A. Behn,  Jia Deng,  Xintian Feng,  D. Ghosh,  
 M. Goldey,  P. R. Horn,  L. D. Jacobson,  I. Kaliman,  T. Kus,  A. Landau,  
 Jie Liu,  E. I. Proynov,  R. M. Richard,  R. P. Steele,  E. J. Sundstrom,  
 H. L. Woodcock III,  P. M. Zimmerman,  D. Zuev,  B. Albrecht,  E. Alguire,  
 S. A. Baeppler,  D. Barton,  Z. Benda,  Y. A. Bernard,  E. J. Berquist,  
 K. B. Bravaya,  H. Burton,  D. Casanova,  Chun-Min Chang,  Yunqing Chen,  
 A. Chien,  K. D. Closser,  M. P. Coons,  S. Dasgupta,  A. L. Dempwolff,  
 M. Diedenhofen,  Hainam Do,  R. G. Edgar,  Po-Tung Fang,  S. Fatehi,  
 Qingguo Feng,  J. Fosso-Tande,  Qinghui Ge,  A. Ghysels,  G. Gidofalvi,  
 J. Gomes,  J. Gonthier,  A. Gunina,  M. W. D. Hanson-Heine,  
 P. H. P. Harbach,  A. W. Hauser,  J. E. Herr,  E. G. Hohenstein,  
 Z. C. Holden,  Kerwin Hui,  T.-C. Jagau,  Hyunjun Ji,  B. Kaduk,  
 K. Khistyaev,  Jaehoon Kim,  P. Klunzinger,  K. Koh,  D. Kosenkov,  
 L. Koulias,  T. Kowalczyk,  C. M. Krauter,  A. Kunitsa,  Ka Un Lao,  
 A. Laurent,  K. V. Lawler,  Joonho Lee,  D. Lefrancois,  S. Lehtola,  
 D. S. Levine,  Yi-Pei Li,  You-Sheng Lin,  Fenglai Liu,  E. Livshits,  
 A. Luenser,  P. Manohar,  E. Mansoor,  S. F. Manzer,  Shan-Ping Mao,  
 Yuezhi Mao,  N. Mardirossian,  A. V. Marenich,  T. Markovich,  
 L. A. Martinez-Martinez,  S. A. Maurer,  N. J. Mayhall,  S. C. McKenzie,  
 J.-M. Mewes,  A. F. Morrison,  J. W. Mullinax,  K. Nanda,  
 T. S. Nguyen-Beck,  R. Olivares-Amaya,  J. A. Parkhill,  T. M. Perrine,  
 F. Plasser,  S. Prager,  A. Prociuk,  E. Ramos,  D. R. Rehn,  F. Rob,  
 M. Schneider,  N. Sergueev,  S. M. Sharada,  S. Sharma,  D. W. Small,  
 T. Stauch,  T. Stein,  Yu-Chuan Su,  A. J. W. Thom,  A. Tkatchenko,  
 T. Tsuchimochi,  L. Vogt,  O. Vydrov,  M. A. Watson,  J. Wenzel,  
 M. de Wergifosse,  T. A. Wesolowski,  A. White,  J. Witte,  A. Yamada,  
 Jun Yang,  K. Yao,  S. Yeganeh,  S. R. Yost,  Zhi-Qiang You,  A. Zech,  
 Igor Ying Zhang,  Xing Zhang,  Yan Zhao,  Ying Zhu,  B. R. Brooks,  
 G. K. L. Chan,  C. J. Cramer,  M. S. Gordon,  W. J. Hehre,  A. Klamt,  
 M. W. Schmidt,  C. D. Sherrill,  D. G. Truhlar,  A. Aspuru-Guzik,  R. Baer,  
 A. T. Bell,  N. A. Besley,  Jeng-Da Chai,  R. A. DiStasio Jr.,  A. Dreuw,  
 B. D. Dunietz,  T. R. Furlani,  Chao-Ping Hsu,  Yousung Jung,  Jing Kong,  
 D. S. Lambrecht,  WanZhen Liang,  C. Ochsenfeld,  V. A. Rassolov,  
 L. V. Slipchenko,  J. E. Subotnik,  T. Van Voorhis,  J. M. Herbert,  
 A. I. Krylov,  P. M. W. Gill,  M. Head-Gordon

 Contributors to earlier versions of Q-Chem not listed above: 
 R. D. Adamson,  B. Austin,  J. Baker,  G. J. O. Beran,  K. Brandhorst,  
 S. T. Brown,  E. F. C. Byrd,  A. K. Chakraborty,  C.-L. Cheng,  
 Siu Hung Chien,  D. M. Chipman,  D. L. Crittenden,  H. Dachsel,  
 R. J. Doerksen,  A. D. Dutoi,  L. Fusti-Molnar,  W. A. Goddard III,  
 A. Golubeva-Zadorozhnaya,  S. R. Gwaltney,  G. Hawkins,  A. Heyden,  
 S. Hirata,  G. Kedziora,  F. J. Keil,  C. Kelley,  Jihan Kim,  R. A. King,  
 R. Z. Khaliullin,  P. P. Korambath,  W. Kurlancheek,  A. M. Lee,  M. S. Lee,  
 S. V. Levchenko,  Ching Yeh Lin,  D. Liotard,  R. C. Lochan,  I. Lotan,  
 P. E. Maslen,  N. Nair,  D. P. O'Neill,  D. Neuhauser,  E. Neuscamman,  
 C. M. Oana,  R. Olson,  B. Peters,  R. Peverati,  P. A. Pieniazek,  
 Y. M. Rhee,  J. Ritchie,  M. A. Rohrdanz,  E. Rosta,  N. J. Russ,  
 H. F. Schaefer III,  N. E. Schultz,  N. Shenvi,  A. C. Simmonett,  A. Sodt,  
 D. Stuck,  K. S. Thanthiriwatte,  V. Vanovschi,  Tao Wang,  A. Warshel,  
 C. F. Williams,  Q. Wu,  X. Xu,  W. Zhang

 Please cite Q-Chem as follows:
 Y. Shao et al., Mol. Phys. 113, 184-215 (2015)
 DOI: 10.1080/00268976.2014.952696

 Q-Chem 5.0.2 for Intel X86 EM64T Linux

 Parts of Q-Chem use Armadillo 5.200.1 (Boston Tea Smuggler).
 http://arma.sourceforge.net/

 Q-Chem begins on Fri Mar  4 13:31:33 2022  

Host: 
0

     Scratch files written to ./qcirc.d//
 Dec517 15110_ 26548  26544 5633   
Processing $rem in /home/leeping/opt/qchem/5.0.2-openmp/config/preferences.
 MEM_STATIC 2000
 MEM_TOTAL  8000
 SYMMETRY   OFF
 SYM_IGNORE TRUE 

Checking the input file for inconsistencies... 	...done.

--------------------------------------------------------------
User input:
--------------------------------------------------------------
$molecule
0 2
C        1.4253529299    0.5311732073   -0.4078002194
C        0.9021956275   -0.8015160835   -0.0668909537
C       -0.2550690206   -1.4137481628   -0.7193851965
C       -1.2181975323    0.5829656363    0.4609594769
C       -0.6058218922    1.6100181139   -0.1762382494
N        0.7358883810    1.6124135846   -0.5553904813
H        2.5107357296    0.6211790677   -0.4832368255
H        1.6322749412   -1.4836270331    0.3726348150
H       -0.3886100891   -2.4388616603   -1.0401366684
H       -2.1808235095    0.7372417242    0.9416225748
H       -1.1087301068    2.5645366319   -0.2989828689
C       -0.6242417811   -0.7606624538    0.5331103329
H       -0.8701287579   -1.3758613350    1.4000691733
$end

$rem
method                b3lyp
basis                 6-31+g(d,p)
unrestricted          true
symmetry              off
sym_ignore            true
incdft                false
incfock               0
scf_convergence       8
thresh                14
jobtype               opt
scf_guess             read
scf_algorithm         diis
max_scf_cycles        100
geom_opt_max_cycles   300
$end

--------------------------------------------------------------
 ----------------------------------------------------------------
             Standard Nuclear Orientation (Angstroms)
    I     Atom           X                Y                Z
 ----------------------------------------------------------------
    1      C       1.4253529299     0.5311732073    -0.4078002194
    2      C       0.9021956275    -0.8015160835    -0.0668909537
    3      C      -0.2550690206    -1.4137481628    -0.7193851965
    4      C      -1.2181975323     0.5829656363     0.4609594769
    5      C      -0.6058218922     1.6100181139    -0.1762382494
    6      N       0.7358883810     1.6124135846    -0.5553904813
    7      H       2.5107357296     0.6211790677    -0.4832368255
    8      H       1.6322749412    -1.4836270331     0.3726348150
    9      H      -0.3886100891    -2.4388616603    -1.0401366684
   10      H      -2.1808235095     0.7372417242     0.9416225748
   11      H      -1.1087301068     2.5645366319    -0.2989828689
   12      C      -0.6242417811    -0.7606624538     0.5331103329
   13      H      -0.8701287579    -1.3758613350     1.4000691733
 ----------------------------------------------------------------
 Nuclear Repulsion Energy =   269.1588954898 hartrees
 There are       25 alpha and       24 beta electrons
 Requested basis set is 6-31+G(d,p)
 There are 53 shells and 163 basis functions

 Total QAlloc Memory Limit   8000 MB
 Mega-Array Size      1956 MB
 MEM_STATIC part      2000 MB
 A cutoff of  1.0D-14 yielded   1381 shell pairs
 There are     13441 function pairs
 
 -------------------------------------------------------
 OpenMP Integral Computing Module                       
 Release: version 1.0, May 2013, Q-Chem Inc. Pittsburgh 
 -------------------------------------------------------
 Integral Job Info:
 Integral job number is                      11
 Integral operator is                         1
 short-range coefficients                     0
 long-range coefficients              100000000
 Omega coefficients                           0
 if combine SR and LR in K                    0
 Integral screening is                        0
 Integral computing path is                   2
 max size of driver memory is            800000
 size of driver memory is                593474
 size of scratch memory is              2361544
 max col of scratch BK array               1296
 max len of scratch array in speh3          155
 max len of scratch index in speh4           18
 max int batch size is                      520
 min int batch size is                       52
 fixed nKL is                                52
 max L of basis functions is                  2
 order of int derivative is                   0
 number of shells is                         53
 number of basis is                         163
 number of cartesian basis is               163
 number of contracted shell pairs          1381
 number of primitive shell pairs           4682
 maxK2 (contraction) of shell pair           36
 max number of K2 of shell pair               1
 max number of CS2 of shell pair            128
 max number of PS2 of shell pair            684
 mem total for path MDJ                  535308
 -------------------------------------------------------
 Smallest overlap matrix eigenvalue = 2.91E-05

 Scale SEOQF with 1.000000e-01/1.000000e-01/1.000000e-01

 Standard Electronic Orientation quadrupole field applied
 Nucleus-field energy     =     0.0000000056 hartrees
 Guess MOs from SCF MO coefficient file
 Reading MOs from coefficient file
 Reading MOs from coefficient file
 An unrestricted hybrid HF-DFT SCF calculation will be
 performed using Pulay DIIS extrapolation
 Exchange:     0.2000 Hartree-Fock + 0.0800 Slater + 0.7200 B88
 Correlation:  0.1900 VWN1RPA + 0.8100 LYP
 Using SG-1 standard quadrature grid
 SCF converges when DIIS error is below 1.0E-08
Using Q-Chem read-in guess as SCF_GUESS READ specified.

 using 4 threads for integral computing
 -------------------------------------------------------
 OpenMP Integral computing Module                
 Release: version 1.0, May 2013, Q-Chem Inc. Pittsburgh 
 -------------------------------------------------------
 -------------------------------------------------------
 OpenMP BLAS3 based DFT computing Module                
 Release: version 1.0, May 2013, Q-Chem Inc. Pittsburgh 
 -------------------------------------------------------
 ---------------------------------------
  Cycle       Energy         DIIS Error
 ---------------------------------------
    1    -286.2498419016      2.22E-02
    2    -286.6144780536      8.13E-03
    3    -286.5740070981      9.10E-03
    4    -286.8534932918      2.58E-03
    5    -286.8741258723      6.44E-04
    6    -286.8758517518      2.11E-04
    7    -286.8761924980      6.44E-05
    8    -286.8763226148      1.48E-05
    9    -286.8764077489      6.78E-06
   10    -286.8764414129      3.62E-06
   11    -286.8764556483      1.53E-06
   12    -286.8764658218      7.54E-07
   13    -286.8764690278      7.04E-07
   14    -286.8764705187      2.25E-07
   15    -286.8764711397      1.41E-07
   16    -286.8764712163      4.78E-08
   17    -286.8764712306      1.06E-08
   18    -286.8764712317      5.23E-09 Convergence criterion met
 ---------------------------------------
 <S^2> = 0.7535
 SCF time:  CPU 87.44 s  wall 22.44 s
 SCF   energy in the final basis set = -286.87647123
 Total energy in the final basis set = -286.87647123
 
 --------------------------------------------------------------
 
                    Orbital Energies (a.u.)
 --------------------------------------------------------------
 
 Alpha MOs
 -- Occupied --
-14.336 -10.240 -10.235 -10.232 -10.230 -10.217 -10.206  -0.946
 -0.878  -0.776  -0.677  -0.651  -0.580  -0.540  -0.499  -0.493
 -0.460  -0.436  -0.388  -0.381  -0.370  -0.308  -0.267  -0.241
 -0.227
 -- Virtual --
 -0.048  -0.001   0.015   0.022   0.026   0.032   0.047   0.050
  0.068   0.073   0.075   0.092   0.099   0.112   0.115   0.122
  0.123   0.129   0.138   0.148   0.168   0.175   0.180   0.187
  0.193   0.198   0.202   0.211   0.225   0.233   0.254   0.263
  0.268   0.282   0.287   0.300   0.309   0.321   0.329   0.335
  0.352   0.387   0.463   0.504   0.593   0.629   0.648   0.668
  0.681   0.709   0.714   0.727   0.738   0.749   0.769   0.777
  0.823   0.835   0.884   0.898   0.926   0.935   0.949   0.984
  0.993   1.017   1.065   1.089   1.099   1.106   1.131   1.149
  1.182   1.203   1.238   1.308   1.353   1.377   1.436   1.473
  1.500   1.524   1.558   1.654   1.690   1.761   1.798   1.807
  1.863   1.879   1.901   1.960   1.982   2.009   2.075   2.089
  2.129   2.145   2.187   2.229   2.270   2.292   2.371   2.391
  2.405   2.416   2.438   2.456   2.475   2.507   2.520   2.528
  2.560   2.596   2.625   2.668   2.688   2.717   2.740   2.812
  2.870   2.935   3.014   3.178   3.216   3.278   3.293   3.366
  3.444   3.568   3.709   4.195   4.305   4.339   4.477   4.503
  4.577   4.735
 
 Beta MOs
 -- Occupied --
-14.336 -10.239 -10.235 -10.232 -10.217 -10.216 -10.205  -0.944
 -0.868  -0.774  -0.669  -0.649  -0.565  -0.535  -0.496  -0.483
 -0.456  -0.433  -0.386  -0.379  -0.362  -0.299  -0.263  -0.235
 -- Virtual --
 -0.089  -0.045   0.001   0.015   0.023   0.027   0.033   0.048
  0.050   0.072   0.073   0.079   0.093   0.099   0.113   0.115
  0.123   0.124   0.129   0.138   0.149   0.168   0.176   0.183
  0.190   0.194   0.200   0.206   0.213   0.228   0.235   0.258
  0.263   0.270   0.283   0.291   0.302   0.310   0.326   0.335
  0.340   0.359   0.394   0.465   0.505   0.599   0.633   0.666
  0.676   0.693   0.711   0.715   0.732   0.742   0.751   0.777
  0.791   0.829   0.840   0.886   0.900   0.927   0.938   0.951
  0.987   0.996   1.018   1.072   1.092   1.101   1.113   1.136
  1.151   1.185   1.207   1.244   1.312   1.356   1.380   1.445
  1.478   1.501   1.528   1.564   1.660   1.696   1.776   1.803
  1.817   1.882   1.889   1.904   1.967   1.986   2.014   2.083
  2.099   2.130   2.164   2.191   2.232   2.273   2.298   2.373
  2.394   2.408   2.420   2.441   2.460   2.479   2.510   2.523
  2.534   2.563   2.610   2.629   2.671   2.696   2.724   2.745
  2.820   2.876   2.940   3.017   3.179   3.216   3.283   3.294
  3.369   3.448   3.577   3.710   4.195   4.310   4.340   4.495
  4.516   4.580   4.736
 --------------------------------------------------------------
 
          Ground-State Mulliken Net Atomic Charges

     Atom                 Charge (a.u.)    Spin (a.u.)
  --------------------------------------------------------
      1 C                    -0.052972      -0.051067
      2 C                    -0.019672       0.025525
      3 C                    -0.244349       0.997393
      4 C                     0.074557       0.054908
      5 C                    -0.253281      -0.037770
      6 N                    -0.181902       0.017838
      7 H                     0.128198       0.005040
      8 H                     0.144146       0.025150
      9 H                     0.148498      -0.022858
     10 H                     0.133384       0.002886
     11 H                     0.124863       0.000881
     12 C                    -0.145733      -0.034935
     13 H                     0.144263       0.017009
  --------------------------------------------------------
  Sum of atomic charges =     0.000000
  Sum of spin   charges =     1.000000

 -----------------------------------------------------------------
                    Cartesian Multipole Moments
 -----------------------------------------------------------------
    Charge (ESU x 10^10)
                -0.0000
    Dipole Moment (Debye)
         X      -0.4406      Y      -2.7898      Z       1.3349
       Tot       3.1240
    Quadrupole Moments (Debye-Ang)
        XX     -38.8039     XY      -3.6305     YY     -42.2494
        XZ      -0.7663     YZ       0.7942     ZZ     -43.7683
    Octopole Moments (Debye-Ang^2)
       XXX      -0.1004    XXY      -7.2961    XYY     -11.3792
       YYY     -35.7663    XXZ       7.9459    XYZ       1.3704
       YYZ       6.1500    XZZ      -3.5695    YZZ     -10.9581
       ZZZ      16.8401
    Hexadecapole Moments (Debye-Ang^3)
      XXXX    -273.9306   XXXY      -5.4581   XXYY    -121.1333
      XYYY     -23.3470   YYYY    -411.3103   XXXZ      24.1860
      XXYZ       3.4780   XYYZ      18.2949   YYYZ      19.3067
      XXZZ     -70.2778   XYZZ      -0.0285   YYZZ     -91.7238
      XZZZ      32.4442   YZZZ       8.0570   ZZZZ    -125.3325
 -----------------------------------------------------------------
 Calculating analytic gradient of the SCF energy
 Gradient of SCF Energy
            1           2           3           4           5           6
    1   0.0002138   0.0000256  -0.0001199   0.0002060  -0.0000905  -0.0001175
    2  -0.0002076  -0.0000167   0.0001773   0.0001954  -0.0004055   0.0001369
    3   0.0001370  -0.0000276   0.0000746  -0.0000362  -0.0000475  -0.0000138
            7           8           9          10          11          12
    1   0.0000475  -0.0000176  -0.0004329  -0.0000071  -0.0001824   0.0001375
    2   0.0000634  -0.0001334   0.0003689  -0.0000216  -0.0001739  -0.0000277
    3   0.0004012  -0.0001705  -0.0004319   0.0000850  -0.0005484   0.0002766
           13
    1   0.0003375
    2   0.0000447
    3   0.0003014
 Max gradient component =       5.484E-04
 RMS gradient           =       2.178E-04
 Gradient time:  CPU 16.45 s  wall 4.25 s
 Geometry Optimization Parameters
   NAtoms,    NIC,     NZ,  NCons,   NDum,   NFix, NCnnct, MaxDiis
       13     103       0       0       0       0       0       0


** GEOMETRY OPTIMIZATION IN DELOCALIZED INTERNAL COORDINATES **
   Searching for a Minimum

   Optimization Cycle:   1

                       Coordinates (Angstroms)
     ATOM                X               Y               Z
      1  C         1.4253529299    0.5311732073   -0.4078002194
      2  C         0.9021956275   -0.8015160835   -0.0668909537
      3  C        -0.2550690206   -1.4137481628   -0.7193851965
      4  C        -1.2181975323    0.5829656363    0.4609594769
      5  C        -0.6058218922    1.6100181139   -0.1762382494
      6  N         0.7358883810    1.6124135846   -0.5553904813
      7  H         2.5107357296    0.6211790677   -0.4832368255
      8  H         1.6322749412   -1.4836270331    0.3726348150
      9  H        -0.3886100891   -2.4388616603   -1.0401366684
     10  H        -2.1808235095    0.7372417242    0.9416225748
     11  H        -1.1087301068    2.5645366319   -0.2989828689
     12  C        -0.6242417811   -0.7606624538    0.5331103329
     13  H        -0.8701287579   -1.3758613350    1.4000691733
   Point Group: c1    Number of degrees of freedom:    33


   Energy is   -286.876471232


 Attempting to Generate Delocalized Internal Coordinates

 33 Hessian modes will be used to form the next step
  Hessian Eigenvalues:
     0.015777    0.017280    0.017832    0.019324    0.021833    0.023240
     0.024483    0.026263    0.034977    0.040320    0.069969    0.092616
     0.103734    0.122470    0.157282    0.159225    0.159975    0.160000
     0.215211    0.226323    0.265855    0.334254    0.338405    0.346149
     0.346345    0.346833    0.350898    0.351661    0.352957    0.357069
     0.441819    0.518261    0.669714

 Minimum Search - Taking Simple RFO Step
 Searching for Lamda that Minimizes Along All modes
 Value Taken    Lamda =  -0.00011244
 Step Taken.  Stepsize is  0.069957

                             Maximum     Tolerance    Cnvgd?
         Gradient           0.001194      0.000300      NO
         Displacement       0.038620      0.001200      NO
         Energy change     *********      0.000001      NO


 New Cartesian Coordinates Obtained by Inverse Iteration

 Displacement from previous Coordinates is:  0.092679
 ----------------------------------------------------------------
             Standard Nuclear Orientation (Angstroms)
    I     Atom           X                Y                Z
 ----------------------------------------------------------------
    1      C       1.4226215893     0.5307548327    -0.4148995239
    2      C       0.9010579249    -0.8005529126    -0.0654155935
    3      C      -0.2497248996    -1.4225735626    -0.7193773054
    4      C      -1.2214790339     0.5832740290     0.4543451462
    5      C      -0.6040257161     1.6152598883    -0.1704602777
    6      N       0.7354777748     1.6139870810    -0.5568393684
    7      H       2.5073988252     0.6182482591    -0.5007691198
    8      H       1.6315705889    -1.4765290557     0.3827736335
    9      H      -0.3739593075    -2.4526193519    -1.0287090771
   10      H      -2.1830222475     0.7383034755     0.9367810904
   11      H      -1.1000019391     2.5755910644    -0.2747533045
   12      C      -0.6294220162    -0.7618029472     0.5260710454
   13      H      -0.8816666234    -1.3760895625     1.3915875646
 ----------------------------------------------------------------
 Nuclear Repulsion Energy =   269.0404694541 hartrees
 There are       25 alpha and       24 beta electrons
 Applying Cartesian multipole field
    Component          Value
    ---------          -----
     (2,0,0)        1.00000E-11
     (0,2,0)        2.00000E-11
     (0,0,2)       -3.00000E-11
 Nucleus-field energy     =     0.0000000057 hartrees
 Requested basis set is 6-31+G(d,p)
 There are 53 shells and 163 basis functions
 A cutoff of  1.0D-14 yielded   1381 shell pairs
 There are     13441 function pairs
 Smallest overlap matrix eigenvalue = 2.92E-05
 Guess MOs from SCF MO coefficient file
 Reading MOs from coefficient file
 Reading MOs from coefficient file
 An unrestricted hybrid HF-DFT SCF calculation will be
 performed using Pulay DIIS extrapolation
 Exchange:     0.2000 Hartree-Fock + 0.0800 Slater + 0.7200 B88
 Correlation:  0.1900 VWN1RPA + 0.8100 LYP
 Using SG-1 standard quadrature grid
 SCF converges when DIIS error is below 1.0E-08
 Geometry optimization detected.  Setting ReadMinima to 0
 Setting SaveMinima to 0
Using Q-Chem read-in guess as SCF_GUESS READ specified.

 using 4 threads for integral computing
 -------------------------------------------------------
 OpenMP Integral computing Module                
 Release: version 1.0, May 2013, Q-Chem Inc. Pittsburgh 
 -------------------------------------------------------
 -------------------------------------------------------
 OpenMP BLAS3 based DFT computing Module                
 Release: version 1.0, May 2013, Q-Chem Inc. Pittsburgh 
 -------------------------------------------------------
 ---------------------------------------
  Cycle       Energy         DIIS Error
 ---------------------------------------
    1    -286.8751521848      2.90E-04
    2    -286.8765434716      3.09E-05
    3    -286.8765455609      4.26E-05
    4    -286.8765519181      1.23E-05
    5    -286.8765525039      5.08E-06
    6    -286.8765526623      1.42E-06
    7    -286.8765526904      6.12E-07
    8    -286.8765526959      2.72E-07
    9    -286.8765526979      1.83E-07
   10    -286.8765526984      4.82E-08
   11    -286.8765526986      1.77E-08
   12    -286.8765526988      7.68E-09 Convergence criterion met
 ---------------------------------------
 <S^2> = 0.7535
 SCF time:  CPU 59.10 s  wall 16.26 s
 SCF   energy in the final basis set = -286.87655270
 Total energy in the final basis set = -286.87655270
 
 --------------------------------------------------------------
 
                    Orbital Energies (a.u.)
 --------------------------------------------------------------
 
 Alpha MOs
 -- Occupied --
-14.336 -10.240 -10.235 -10.232 -10.230 -10.217 -10.206  -0.946
 -0.878  -0.776  -0.677  -0.651  -0.579  -0.540  -0.500  -0.493
 -0.460  -0.436  -0.387  -0.381  -0.370  -0.308  -0.267  -0.241
 -0.228
 -- Virtual --
 -0.048  -0.001   0.015   0.022   0.026   0.032   0.047   0.050
  0.068   0.073   0.075   0.092   0.099   0.112   0.115   0.121
  0.124   0.129   0.138   0.148   0.168   0.175   0.180   0.186
  0.193   0.198   0.202   0.211   0.225   0.233   0.253   0.262
  0.268   0.283   0.287   0.300   0.309   0.321   0.329   0.335
  0.353   0.387   0.463   0.505   0.593   0.629   0.648   0.667
  0.681   0.708   0.713   0.727   0.737   0.750   0.770   0.778
  0.824   0.835   0.883   0.898   0.926   0.935   0.950   0.985
  0.993   1.017   1.064   1.089   1.099   1.106   1.132   1.150
  1.182   1.203   1.238   1.309   1.351   1.375   1.439   1.475
  1.500   1.524   1.557   1.651   1.689   1.760   1.799   1.806
  1.864   1.880   1.902   1.960   1.983   2.007   2.076   2.090
  2.128   2.147   2.188   2.229   2.270   2.292   2.370   2.391
  2.405   2.417   2.437   2.455   2.475   2.506   2.520   2.528
  2.560   2.595   2.626   2.668   2.691   2.717   2.740   2.812
  2.869   2.935   3.013   3.179   3.216   3.279   3.293   3.367
  3.443   3.566   3.709   4.195   4.303   4.339   4.478   4.502
  4.577   4.735
 
 Beta MOs
 -- Occupied --
-14.336 -10.239 -10.235 -10.232 -10.218 -10.216 -10.205  -0.944
 -0.868  -0.774  -0.669  -0.649  -0.565  -0.535  -0.497  -0.483
 -0.456  -0.433  -0.386  -0.379  -0.362  -0.300  -0.262  -0.236
 -- Virtual --
 -0.089  -0.046   0.001   0.015   0.023   0.027   0.033   0.048
  0.050   0.072   0.073   0.078   0.093   0.099   0.113   0.115
  0.123   0.125   0.129   0.138   0.149   0.168   0.176   0.183
  0.189   0.194   0.200   0.206   0.213   0.228   0.235   0.257
  0.262   0.270   0.284   0.291   0.302   0.310   0.326   0.335
  0.341   0.360   0.394   0.465   0.506   0.599   0.633   0.666
  0.675   0.693   0.711   0.715   0.731   0.742   0.751   0.778
  0.791   0.830   0.840   0.886   0.900   0.927   0.937   0.952
  0.988   0.996   1.017   1.072   1.091   1.100   1.113   1.137
  1.152   1.185   1.207   1.243   1.313   1.354   1.378   1.448
  1.480   1.501   1.528   1.563   1.656   1.695   1.775   1.804
  1.817   1.882   1.889   1.906   1.967   1.987   2.013   2.084
  2.098   2.129   2.165   2.192   2.232   2.273   2.297   2.372
  2.394   2.408   2.420   2.440   2.458   2.478   2.509   2.523
  2.534   2.563   2.610   2.629   2.670   2.699   2.724   2.746
  2.820   2.875   2.940   3.017   3.180   3.217   3.284   3.294
  3.370   3.447   3.575   3.710   4.195   4.308   4.340   4.497
  4.515   4.579   4.736
 --------------------------------------------------------------
 
          Ground-State Mulliken Net Atomic Charges

     Atom                 Charge (a.u.)    Spin (a.u.)
  --------------------------------------------------------
      1 C                    -0.052428      -0.050211
      2 C                    -0.019195       0.026535
      3 C                    -0.247628       0.995828
      4 C                     0.077866       0.052863
      5 C                    -0.252938      -0.037444
      6 N                    -0.182186       0.017508
      7 H                     0.128247       0.005087
      8 H                     0.144234       0.024533
      9 H                     0.148536      -0.022837
     10 H                     0.133074       0.002996
     11 H                     0.124969       0.000880
     12 C                    -0.146959      -0.032813
     13 H                     0.144407       0.017077
  --------------------------------------------------------
  Sum of atomic charges =     0.000000
  Sum of spin   charges =     1.000000

 -----------------------------------------------------------------
                    Cartesian Multipole Moments
 -----------------------------------------------------------------
    Charge (ESU x 10^10)
                 0.0000
    Dipole Moment (Debye)
         X      -0.4340      Y      -2.7827      Z       1.3539
       Tot       3.1249
    Quadrupole Moments (Debye-Ang)
        XX     -38.8299     XY      -3.6327     YY     -42.2115
        XZ      -0.8169     YZ       0.8120     ZZ     -43.8037
    Octopole Moments (Debye-Ang^2)
       XXX      -0.0403    XXY      -7.3245    XYY     -11.3578
       YYY     -35.6720    XXZ       8.0270    XYZ       1.3473
       YYZ       6.4148    XZZ      -3.4647    YZZ     -10.9258
       ZZZ      17.0750
    Hexadecapole Moments (Debye-Ang^3)
      XXXX    -274.0038   XXXY      -5.3460   XXYY    -121.6385
      XYYY     -23.4136   YYYY    -412.2915   XXXZ      24.2716
      XXYZ       3.3855   XYYZ      18.1561   YYYZ      19.4641
      XXZZ     -70.1274   XYZZ      -0.0256   YYZZ     -92.2117
      XZZZ      32.7063   YZZZ       7.8163   ZZZZ    -125.0495
 -----------------------------------------------------------------
 Calculating analytic gradient of the SCF energy
 Gradient of SCF Energy
            1           2           3           4           5           6
    1   0.0001801  -0.0000842   0.0002402  -0.0001982   0.0002613  -0.0002335
    2  -0.0002836   0.0003971  -0.0001102  -0.0001915   0.0004012  -0.0001270
    3  -0.0002702  -0.0004355   0.0003872  -0.0002688  -0.0003983   0.0001685
            7           8           9          10          11          12
    1  -0.0000193  -0.0001283  -0.0003039   0.0000381   0.0000091   0.0000334
    2   0.0001182  -0.0001276   0.0001914  -0.0000108   0.0000078  -0.0002789
    3   0.0003802  -0.0000573  -0.0004528   0.0000142  -0.0001138   0.0010066
           13
    1   0.0002054
    2   0.0000138
    3   0.0000400
 Max gradient component =       1.007E-03
 RMS gradient           =       2.808E-04
 Gradient time:  CPU 16.45 s  wall 4.19 s
 Geometry Optimization Parameters
   NAtoms,    NIC,     NZ,  NCons,   NDum,   NFix, NCnnct, MaxDiis
       13     103       0       0       0       0       0       0

 Cartesian Hessian Update
 Hessian Updated using BFGS Update


** GEOMETRY OPTIMIZATION IN DELOCALIZED INTERNAL COORDINATES **
   Searching for a Minimum

   Optimization Cycle:   2

                       Coordinates (Angstroms)
     ATOM                X               Y               Z
      1  C         1.4226215893    0.5307548327   -0.4148995239
      2  C         0.9010579249   -0.8005529126   -0.0654155935
      3  C        -0.2497248996   -1.4225735626   -0.7193773054
      4  C        -1.2214790339    0.5832740290    0.4543451462
      5  C        -0.6040257161    1.6152598883   -0.1704602777
      6  N         0.7354777748    1.6139870810   -0.5568393684
      7  H         2.5073988252    0.6182482591   -0.5007691198
      8  H         1.6315705889   -1.4765290557    0.3827736335
      9  H        -0.3739593075   -2.4526193519   -1.0287090771
     10  H        -2.1830222475    0.7383034755    0.9367810904
     11  H        -1.1000019391    2.5755910644   -0.2747533045
     12  C        -0.6294220162   -0.7618029472    0.5260710454
     13  H        -0.8816666234   -1.3760895625    1.3915875646
   Point Group: c1    Number of degrees of freedom:    33


   Energy is   -286.876552699

 Hessian Updated using BFGS Update

 33 Hessian modes will be used to form the next step
  Hessian Eigenvalues:
     0.008527    0.017058    0.018018    0.019963    0.021914    0.022972
     0.023900    0.027406    0.033263    0.040462    0.067701    0.092672
     0.103912    0.123800    0.158241    0.159338    0.159922    0.160030
     0.215040    0.227049    0.266232    0.333930    0.339667    0.346185
     0.346355    0.347106    0.351569    0.352260    0.352978    0.357265
     0.441502    0.526809    0.669702

 Minimum Search - Taking Simple RFO Step
 Searching for Lamda that Minimizes Along All modes
 Value Taken    Lamda =  -0.00008004
 Step Taken.  Stepsize is  0.091102

                             Maximum     Tolerance    Cnvgd?
         Gradient           0.000608      0.000300      NO
         Displacement       0.045980      0.001200      NO
         Energy change     -0.000081      0.000001      NO


 New Cartesian Coordinates Obtained by Inverse Iteration

 Displacement from previous Coordinates is:  0.107860
 ----------------------------------------------------------------
             Standard Nuclear Orientation (Angstroms)
    I     Atom           X                Y                Z
 ----------------------------------------------------------------
    1      C       1.4201959614     0.5309357415    -0.4191735021
    2      C       0.8998433980    -0.7991973720    -0.0613784865
    3      C      -0.2428084588    -1.4301435258    -0.7214550345
    4      C      -1.2237433680     0.5846708602     0.4506070858
    5      C      -0.6015079305     1.6203348461    -0.1617674892
    6      N       0.7352803259     1.6157654231    -0.5584589741
    7      H       2.5036129728     0.6126458485    -0.5265467381
    8      H       1.6304105839    -1.4686228487     0.3966533908
    9      H      -0.3552454872    -2.4662334933    -1.0151858610
   10      H      -2.1847663176     0.7401863132     0.9340371027
   11      H      -1.0924504577     2.5846883053    -0.2513184972
   12      C      -0.6363364921    -0.7626338781     0.5158292209
   13      H      -0.8976598105    -1.3771449827     1.3784926924
 ----------------------------------------------------------------
 Nuclear Repulsion Energy =   268.9467404298 hartrees
 There are       25 alpha and       24 beta electrons
 Applying Cartesian multipole field
    Component          Value
    ---------          -----
     (2,0,0)        1.00000E-11
     (0,2,0)        2.00000E-11
     (0,0,2)       -3.00000E-11
 Nucleus-field energy     =     0.0000000057 hartrees
 Requested basis set is 6-31+G(d,p)
 There are 53 shells and 163 basis functions
 A cutoff of  1.0D-14 yielded   1381 shell pairs
 There are     13441 function pairs
 Smallest overlap matrix eigenvalue = 2.90E-05
 Guess MOs from SCF MO coefficient file
 Reading MOs from coefficient file
 Reading MOs from coefficient file
 An unrestricted hybrid HF-DFT SCF calculation will be
 performed using Pulay DIIS extrapolation
 Exchange:     0.2000 Hartree-Fock + 0.0800 Slater + 0.7200 B88
 Correlation:  0.1900 VWN1RPA + 0.8100 LYP
 Using SG-1 standard quadrature grid
 SCF converges when DIIS error is below 1.0E-08
 Geometry optimization detected.  Setting ReadMinima to 0
 Setting SaveMinima to 0
Using Q-Chem read-in guess as SCF_GUESS READ specified.

 using 4 threads for integral computing
 -------------------------------------------------------
 OpenMP Integral computing Module                
 Release: version 1.0, May 2013, Q-Chem Inc. Pittsburgh 
 -------------------------------------------------------
 -------------------------------------------------------
 OpenMP BLAS3 based DFT computing Module                
 Release: version 1.0, May 2013, Q-Chem Inc. Pittsburgh 
 -------------------------------------------------------
 ---------------------------------------
  Cycle       Energy         DIIS Error
 ---------------------------------------
    1    -286.8755496436      3.15E-04
    2    -286.8765846051      3.31E-05
    3    -286.8765906856      4.11E-05
    4    -286.8765968854      1.28E-05
    5    -286.8765977402      6.18E-06
    6    -286.8765979932      1.89E-06
    7    -286.8765980443      1.08E-06
    8    -286.8765980554      5.04E-07
    9    -286.8765980606      1.64E-07
   10    -286.8765980619      5.44E-08
   11    -286.8765980626      2.24E-08
   12    -286.8765980630      9.32E-09 Convergence criterion met
 ---------------------------------------
 <S^2> = 0.7534
 SCF time:  CPU 58.41 s  wall 14.86 s
 SCF   energy in the final basis set = -286.87659806
 Total energy in the final basis set = -286.87659806
 
 --------------------------------------------------------------
 
                    Orbital Energies (a.u.)
 --------------------------------------------------------------
 
 Alpha MOs
 -- Occupied --
-14.337 -10.240 -10.235 -10.232 -10.230 -10.217 -10.206  -0.946
 -0.878  -0.776  -0.677  -0.651  -0.579  -0.540  -0.500  -0.493
 -0.460  -0.435  -0.387  -0.382  -0.370  -0.309  -0.267  -0.240
 -0.228
 -- Virtual --
 -0.048  -0.001   0.015   0.022   0.026   0.032   0.047   0.050
  0.068   0.073   0.075   0.092   0.099   0.112   0.115   0.121
  0.124   0.129   0.138   0.148   0.168   0.175   0.180   0.186
  0.192   0.198   0.202   0.212   0.226   0.233   0.253   0.261
  0.268   0.283   0.288   0.301   0.310   0.321   0.329   0.336
  0.353   0.386   0.463   0.505   0.592   0.628   0.649   0.666
  0.681   0.708   0.713   0.726   0.737   0.750   0.770   0.778
  0.825   0.835   0.883   0.896   0.927   0.934   0.950   0.986
  0.993   1.016   1.062   1.088   1.098   1.106   1.133   1.150
  1.183   1.204   1.239   1.310   1.350   1.372   1.441   1.476
  1.500   1.523   1.556   1.647   1.689   1.758   1.800   1.806
  1.865   1.880   1.903   1.959   1.983   2.006   2.078   2.090
  2.127   2.148   2.188   2.229   2.270   2.291   2.370   2.390
  2.405   2.417   2.435   2.454   2.476   2.506   2.520   2.528
  2.559   2.596   2.626   2.667   2.695   2.716   2.740   2.812
  2.868   2.936   3.012   3.180   3.216   3.279   3.293   3.369
  3.441   3.563   3.709   4.196   4.301   4.339   4.478   4.501
  4.576   4.735
 
 Beta MOs
 -- Occupied --
-14.337 -10.240 -10.235 -10.232 -10.217 -10.216 -10.205  -0.944
 -0.868  -0.774  -0.670  -0.649  -0.565  -0.535  -0.497  -0.483
 -0.456  -0.432  -0.385  -0.380  -0.363  -0.300  -0.262  -0.236
 -- Virtual --
 -0.090  -0.046   0.001   0.015   0.024   0.027   0.033   0.048
  0.050   0.072   0.074   0.078   0.093   0.099   0.113   0.115
  0.122   0.125   0.130   0.138   0.149   0.168   0.176   0.183
  0.189   0.193   0.201   0.206   0.213   0.228   0.235   0.257
  0.261   0.270   0.284   0.291   0.302   0.311   0.325   0.335
  0.341   0.360   0.393   0.465   0.507   0.598   0.633   0.665
  0.675   0.693   0.710   0.715   0.730   0.743   0.751   0.779
  0.791   0.831   0.840   0.885   0.899   0.928   0.937   0.952
  0.990   0.996   1.017   1.070   1.090   1.100   1.112   1.139
  1.152   1.186   1.208   1.244   1.314   1.352   1.376   1.449
  1.480   1.501   1.527   1.562   1.653   1.694   1.774   1.804
  1.817   1.882   1.889   1.908   1.967   1.987   2.012   2.087
  2.098   2.128   2.166   2.193   2.232   2.273   2.297   2.371
  2.394   2.407   2.421   2.438   2.457   2.480   2.508   2.523
  2.534   2.563   2.610   2.629   2.670   2.703   2.723   2.747
  2.819   2.874   2.941   3.016   3.181   3.217   3.284   3.294
  3.371   3.445   3.572   3.710   4.196   4.305   4.340   4.497
  4.512   4.579   4.736
 --------------------------------------------------------------
 
          Ground-State Mulliken Net Atomic Charges

     Atom                 Charge (a.u.)    Spin (a.u.)
  --------------------------------------------------------
      1 C                    -0.052542      -0.048855
      2 C                    -0.018696       0.028174
      3 C                    -0.250821       0.993139
      4 C                     0.084049       0.048895
      5 C                    -0.252994      -0.036398
      6 N                    -0.182382       0.016833
      7 H                     0.128445       0.005053
      8 H                     0.144290       0.023502
      9 H                     0.148637      -0.022581
     10 H                     0.132738       0.003109
     11 H                     0.124985       0.000858
     12 C                    -0.150111      -0.028990
     13 H                     0.144403       0.017262
  --------------------------------------------------------
  Sum of atomic charges =    -0.000000
  Sum of spin   charges =     1.000000

 -----------------------------------------------------------------
                    Cartesian Multipole Moments
 -----------------------------------------------------------------
    Charge (ESU x 10^10)
                 0.0000
    Dipole Moment (Debye)
         X      -0.4267      Y      -2.7780      Z       1.3687
       Tot       3.1261
    Quadrupole Moments (Debye-Ang)
        XX     -38.8436     XY      -3.6387     YY     -42.1885
        XZ      -0.8750     YZ       0.8233     ZZ     -43.8449
    Octopole Moments (Debye-Ang^2)
       XXX      -0.0289    XXY      -7.3739    XYY     -11.3376
       YYY     -35.6802    XXZ       8.0404    XYZ       1.3363
       YYZ       6.6631    XZZ      -3.3553    YZZ     -10.8856
       ZZZ      17.2124
    Hexadecapole Moments (Debye-Ang^3)
      XXXX    -274.0044   XXXY      -5.2774   XXYY    -122.1334
      XYYY     -23.4700   YYYY    -413.2772   XXXZ      24.2742
      XXYZ       3.1923   XYYZ      18.0259   YYYZ      19.4293
      XXZZ     -69.8820   XYZZ      -0.0482   YYZZ     -92.7363
      XZZZ      33.0019   YZZZ       7.4077   ZZZZ    -124.8099
 -----------------------------------------------------------------
 Calculating analytic gradient of the SCF energy
 Gradient of SCF Energy
            1           2           3           4           5           6
    1   0.0002541  -0.0002936   0.0003865  -0.0000015   0.0004349  -0.0003205
    2  -0.0001335   0.0006337  -0.0004790  -0.0001901   0.0003298  -0.0001218
    3   0.0003848  -0.0009408   0.0005963  -0.0001772  -0.0001811  -0.0000038
            7           8           9          10          11          12
    1  -0.0000242  -0.0001159  -0.0000966  -0.0000162   0.0000229  -0.0002397
    2   0.0000311  -0.0001007   0.0001004   0.0000409  -0.0000095  -0.0001945
    3  -0.0000853   0.0000956  -0.0003341  -0.0000507   0.0000683   0.0006865
           13
    1   0.0000097
    2   0.0000931
    3  -0.0000585
 Max gradient component =       9.408E-04
 RMS gradient           =       3.044E-04
 Gradient time:  CPU 16.96 s  wall 4.52 s
 Geometry Optimization Parameters
   NAtoms,    NIC,     NZ,  NCons,   NDum,   NFix, NCnnct, MaxDiis
       13     103       0       0       0       0       0       0

 Cartesian Hessian Update
 Hessian Updated using BFGS Update


** GEOMETRY OPTIMIZATION IN DELOCALIZED INTERNAL COORDINATES **
   Searching for a Minimum

   Optimization Cycle:   3

                       Coordinates (Angstroms)
     ATOM                X               Y               Z
      1  C         1.4201959614    0.5309357415   -0.4191735021
      2  C         0.8998433980   -0.7991973720   -0.0613784865
      3  C        -0.2428084588   -1.4301435258   -0.7214550345
      4  C        -1.2237433680    0.5846708602    0.4506070858
      5  C        -0.6015079305    1.6203348461   -0.1617674892
      6  N         0.7352803259    1.6157654231   -0.5584589741
      7  H         2.5036129728    0.6126458485   -0.5265467381
      8  H         1.6304105839   -1.4686228487    0.3966533908
      9  H        -0.3552454872   -2.4662334933   -1.0151858610
     10  H        -2.1847663176    0.7401863132    0.9340371027
     11  H        -1.0924504577    2.5846883053   -0.2513184972
     12  C        -0.6363364921   -0.7626338781    0.5158292209
     13  H        -0.8976598105   -1.3771449827    1.3784926924
   Point Group: c1    Number of degrees of freedom:    33


   Energy is   -286.876598063

 Hessian Updated using BFGS Update

 33 Hessian modes will be used to form the next step
  Hessian Eigenvalues:
     0.007166    0.017246    0.018290    0.020084    0.021551    0.022942
     0.023885    0.027415    0.032167    0.040545    0.071356    0.092947
     0.103906    0.122847    0.158187    0.159549    0.159911    0.160193
     0.215081    0.226735    0.266512    0.333877    0.339283    0.346181
     0.346396    0.347177    0.351562    0.352198    0.353003    0.357266
     0.441041    0.524880    0.669699

 Minimum Search - Taking Simple RFO Step
 Searching for Lamda that Minimizes Along All modes
 Value Taken    Lamda =  -0.00001131
 Step Taken.  Stepsize is  0.027799

                             Maximum     Tolerance    Cnvgd?
         Gradient           0.000329      0.000300      NO
         Displacement       0.011324      0.001200      NO
         Energy change     -0.000045      0.000001      NO


 New Cartesian Coordinates Obtained by Inverse Iteration

 Displacement from previous Coordinates is:  0.026174
 ----------------------------------------------------------------
             Standard Nuclear Orientation (Angstroms)
    I     Atom           X                Y                Z
 ----------------------------------------------------------------
    1      C       1.4193368717     0.5305104547    -0.4215225458
    2      C       0.8997372709    -0.7991349602    -0.0596763715
    3      C      -0.2411269792    -1.4307431682    -0.7231487775
    4      C      -1.2241327974     0.5853553871     0.4505484635
    5      C      -0.6013675528     1.6213414415    -0.1599437222
    6      N       0.7350748400     1.6159421098    -0.5595016599
    7      H       2.5026696916     0.6111025577    -0.5309487061
    8      H       1.6305041584    -1.4669633010     0.4002883926
    9      H      -0.3507165124    -2.4689371913    -1.0105954317
   10      H      -2.1844737424     0.7406958653     0.9353872434
   11      H      -1.0910670650     2.5866213672    -0.2467154409
   12      C      -0.6378967240    -0.7625151819     0.5123834229
   13      H      -0.9017165399    -1.3780241434     1.3737800429
 ----------------------------------------------------------------
 Nuclear Repulsion Energy =   268.9322261075 hartrees
 There are       25 alpha and       24 beta electrons
 Applying Cartesian multipole field
    Component          Value
    ---------          -----
     (2,0,0)        1.00000E-11
     (0,2,0)        2.00000E-11
     (0,0,2)       -3.00000E-11
 Nucleus-field energy     =     0.0000000057 hartrees
 Requested basis set is 6-31+G(d,p)
 There are 53 shells and 163 basis functions
 A cutoff of  1.0D-14 yielded   1380 shell pairs
 There are     13440 function pairs
 Smallest overlap matrix eigenvalue = 2.89E-05
 Guess MOs from SCF MO coefficient file
 Reading MOs from coefficient file
 Reading MOs from coefficient file
 An unrestricted hybrid HF-DFT SCF calculation will be
 performed using Pulay DIIS extrapolation
 Exchange:     0.2000 Hartree-Fock + 0.0800 Slater + 0.7200 B88
 Correlation:  0.1900 VWN1RPA + 0.8100 LYP
 Using SG-1 standard quadrature grid
 SCF converges when DIIS error is below 1.0E-08
 Geometry optimization detected.  Setting ReadMinima to 0
 Setting SaveMinima to 0
Using Q-Chem read-in guess as SCF_GUESS READ specified.

 using 4 threads for integral computing
 -------------------------------------------------------
 OpenMP Integral computing Module                
 Release: version 1.0, May 2013, Q-Chem Inc. Pittsburgh 
 -------------------------------------------------------
 -------------------------------------------------------
 OpenMP BLAS3 based DFT computing Module                
 Release: version 1.0, May 2013, Q-Chem Inc. Pittsburgh 
 -------------------------------------------------------
 ---------------------------------------
  Cycle       Energy         DIIS Error
 ---------------------------------------
    1    -286.8762355463      8.68E-05
    2    -286.8766041973      1.32E-05
    3    -286.8766037461      2.21E-05
    4    -286.8766056277      3.14E-06
    5    -286.8766057021      1.60E-06
    6    -286.8766057263      5.84E-07
    7    -286.8766057326      4.27E-07
    8    -286.8766057341      1.57E-07
    9    -286.8766057347      4.16E-08
   10    -286.8766057349      1.49E-08
   11    -286.8766057350      5.62E-09 Convergence criterion met
 ---------------------------------------
 <S^2> = 0.7534
 SCF time:  CPU 52.93 s  wall 13.35 s
 SCF   energy in the final basis set = -286.87660573
 Total energy in the final basis set = -286.87660573
 
 --------------------------------------------------------------
 
                    Orbital Energies (a.u.)
 --------------------------------------------------------------
 
 Alpha MOs
 -- Occupied --
-14.337 -10.240 -10.235 -10.232 -10.230 -10.217 -10.206  -0.946
 -0.878  -0.776  -0.677  -0.651  -0.579  -0.540  -0.500  -0.492
 -0.460  -0.435  -0.387  -0.382  -0.370  -0.309  -0.267  -0.240
 -0.229
 -- Virtual --
 -0.048  -0.001   0.015   0.022   0.026   0.032   0.047   0.050
  0.068   0.073   0.075   0.092   0.099   0.112   0.116   0.121
  0.124   0.129   0.138   0.148   0.168   0.175   0.180   0.185
  0.192   0.198   0.202   0.212   0.226   0.233   0.253   0.261
  0.268   0.283   0.288   0.301   0.310   0.321   0.329   0.336
  0.353   0.385   0.463   0.506   0.592   0.628   0.649   0.666
  0.681   0.708   0.713   0.725   0.737   0.750   0.770   0.778
  0.825   0.835   0.883   0.896   0.927   0.934   0.950   0.986
  0.993   1.016   1.062   1.088   1.098   1.107   1.134   1.150
  1.183   1.204   1.239   1.310   1.349   1.372   1.441   1.476
  1.500   1.524   1.555   1.647   1.689   1.758   1.799   1.806
  1.865   1.880   1.903   1.960   1.983   2.006   2.079   2.090
  2.126   2.148   2.188   2.229   2.269   2.291   2.369   2.390
  2.405   2.417   2.435   2.454   2.476   2.505   2.520   2.528
  2.559   2.595   2.626   2.667   2.697   2.716   2.740   2.811
  2.868   2.936   3.012   3.180   3.216   3.279   3.293   3.369
  3.441   3.563   3.709   4.196   4.300   4.339   4.477   4.500
  4.576   4.734
 
 Beta MOs
 -- Occupied --
-14.337 -10.240 -10.235 -10.232 -10.217 -10.216 -10.205  -0.944
 -0.869  -0.774  -0.670  -0.649  -0.565  -0.535  -0.497  -0.483
 -0.456  -0.432  -0.385  -0.380  -0.363  -0.300  -0.262  -0.236
 -- Virtual --
 -0.090  -0.046   0.001   0.015   0.024   0.027   0.033   0.048
  0.050   0.072   0.074   0.078   0.094   0.099   0.113   0.115
  0.122   0.125   0.130   0.138   0.149   0.168   0.176   0.183
  0.188   0.193   0.201   0.206   0.213   0.228   0.235   0.257
  0.261   0.270   0.284   0.292   0.302   0.311   0.325   0.335
  0.341   0.360   0.392   0.465   0.507   0.598   0.633   0.665
  0.675   0.693   0.710   0.715   0.729   0.743   0.751   0.779
  0.791   0.831   0.840   0.885   0.899   0.928   0.937   0.952
  0.990   0.997   1.017   1.070   1.090   1.100   1.112   1.139
  1.152   1.186   1.208   1.244   1.314   1.352   1.375   1.450
  1.481   1.502   1.527   1.561   1.653   1.694   1.774   1.803
  1.816   1.882   1.889   1.908   1.967   1.987   2.012   2.087
  2.098   2.127   2.166   2.193   2.232   2.273   2.296   2.371
  2.394   2.407   2.420   2.438   2.457   2.480   2.508   2.523
  2.534   2.563   2.610   2.629   2.670   2.705   2.723   2.747
  2.819   2.874   2.941   3.016   3.181   3.217   3.284   3.294
  3.372   3.444   3.572   3.710   4.196   4.305   4.340   4.497
  4.511   4.579   4.735
 --------------------------------------------------------------
 
          Ground-State Mulliken Net Atomic Charges

     Atom                 Charge (a.u.)    Spin (a.u.)
  --------------------------------------------------------
      1 C                    -0.053496      -0.048247
      2 C                    -0.017422       0.028382
      3 C                    -0.252132       0.992332
      4 C                     0.086665       0.047217
      5 C                    -0.252970      -0.035772
      6 N                    -0.182321       0.016455
      7 H                     0.128447       0.005068
      8 H                     0.144297       0.023022
      9 H                     0.148646      -0.022306
     10 H                     0.132709       0.003130
     11 H                     0.125009       0.000845
     12 C                    -0.151830      -0.027486
     13 H                     0.144399       0.017359
  --------------------------------------------------------
  Sum of atomic charges =    -0.000000
  Sum of spin   charges =     1.000000

 -----------------------------------------------------------------
                    Cartesian Multipole Moments
 -----------------------------------------------------------------
    Charge (ESU x 10^10)
                -0.0000
    Dipole Moment (Debye)
         X      -0.4252      Y      -2.7774      Z       1.3761
       Tot       3.1287
    Quadrupole Moments (Debye-Ang)
        XX     -38.8443     XY      -3.6419     YY     -42.1842
        XZ      -0.8836     YZ       0.8223     ZZ     -43.8602
    Octopole Moments (Debye-Ang^2)
       XXX      -0.0137    XXY      -7.3918    XYY     -11.3279
       YYY     -35.6903    XXZ       8.0769    XYZ       1.3384
       YYZ       6.7536    XZZ      -3.3377    YZZ     -10.8687
       ZZZ      17.2988
    Hexadecapole Moments (Debye-Ang^3)
      XXXX    -273.9805   XXXY      -5.2141   XXYY    -122.2002
      XYYY     -23.4340   YYYY    -413.3603   XXXZ      24.3262
      XXYZ       3.1579   XYYZ      18.0088   YYYZ      19.3722
      XXZZ     -69.8329   XYZZ      -0.0552   YYZZ     -92.8844
      XZZZ      33.0969   YZZZ       7.3141   ZZZZ    -124.8725
 -----------------------------------------------------------------
 Calculating analytic gradient of the SCF energy
 Gradient of SCF Energy
            1           2           3           4           5           6
    1   0.0001902  -0.0001700   0.0002205   0.0000541   0.0001836  -0.0001263
    2  -0.0001756   0.0004675  -0.0002353  -0.0000597   0.0000765   0.0000103
    3  -0.0000776  -0.0005487   0.0004794  -0.0000924  -0.0000120   0.0000560
            7           8           9          10          11          12
    1  -0.0000071  -0.0000605  -0.0000160  -0.0000236  -0.0000069  -0.0002092
    2  -0.0000230  -0.0000770   0.0000859   0.0000388   0.0000035  -0.0001890
    3   0.0000088   0.0001175  -0.0001777  -0.0000360   0.0000590   0.0002054
           13
    1  -0.0000289
    2   0.0000770
    3   0.0000184
 Max gradient component =       5.487E-04
 RMS gradient           =       1.775E-04
 Gradient time:  CPU 16.63 s  wall 4.23 s
 Geometry Optimization Parameters
   NAtoms,    NIC,     NZ,  NCons,   NDum,   NFix, NCnnct, MaxDiis
       13     103       0       0       0       0       0       0

 Cartesian Hessian Update
 Hessian Updated using BFGS Update


** GEOMETRY OPTIMIZATION IN DELOCALIZED INTERNAL COORDINATES **
   Searching for a Minimum

   Optimization Cycle:   4

                       Coordinates (Angstroms)
     ATOM                X               Y               Z
      1  C         1.4193368717    0.5305104547   -0.4215225458
      2  C         0.8997372709   -0.7991349602   -0.0596763715
      3  C        -0.2411269792   -1.4307431682   -0.7231487775
      4  C        -1.2241327974    0.5853553871    0.4505484635
      5  C        -0.6013675528    1.6213414415   -0.1599437222
      6  N         0.7350748400    1.6159421098   -0.5595016599
      7  H         2.5026696916    0.6111025577   -0.5309487061
      8  H         1.6305041584   -1.4669633010    0.4002883926
      9  H        -0.3507165124   -2.4689371913   -1.0105954317
     10  H        -2.1844737424    0.7406958653    0.9353872434
     11  H        -1.0910670650    2.5866213672   -0.2467154409
     12  C        -0.6378967240   -0.7625151819    0.5123834229
     13  H        -0.9017165399   -1.3780241434    1.3737800429
   Point Group: c1    Number of degrees of freedom:    33


   Energy is   -286.876605735

 Hessian Updated using BFGS Update

 33 Hessian modes will be used to form the next step
  Hessian Eigenvalues:
     0.006207    0.016536    0.018758    0.019582    0.021654    0.023067
     0.025428    0.027416    0.028888    0.039553    0.065890    0.091150
     0.103911    0.110581    0.157478    0.158760    0.159938    0.161089
     0.216841    0.226362    0.266012    0.335560    0.339025    0.346095
     0.346255    0.347215    0.351616    0.352954    0.353250    0.357731
     0.440332    0.525492    0.670121

 Minimum Search - Taking Simple RFO Step
 Searching for Lamda that Minimizes Along All modes
 Value Taken    Lamda =  -0.00000627
 Step Taken.  Stepsize is  0.021621

                             Maximum     Tolerance    Cnvgd?
         Gradient           0.000214      0.000300     YES
         Displacement       0.008592      0.001200      NO
         Energy change     -0.000008      0.000001      NO


 New Cartesian Coordinates Obtained by Inverse Iteration

 Displacement from previous Coordinates is:  0.014682
 ----------------------------------------------------------------
             Standard Nuclear Orientation (Angstroms)
    I     Atom           X                Y                Z
 ----------------------------------------------------------------
    1      C       1.4188199689     0.5304369394    -0.4210428770
    2      C       0.8999941884    -0.7995400875    -0.0579387640
    3      C      -0.2402686703    -1.4299746724    -0.7248548312
    4      C      -1.2241216748     0.5860234140     0.4511982275
    5      C      -0.6017987970     1.6217782203    -0.1597216717
    6      N       0.7346270830     1.6156808664    -0.5604559691
    7      H       2.5019690673     0.6106203290    -0.5329249983
    8      H       1.6310054554    -1.4671391401     0.4016267022
    9      H      -0.3489456067    -2.4696859845    -1.0075636609
   10      H      -2.1836704618     0.7410128003     0.9376326555
   11      H      -1.0906882997     2.5875033804    -0.2462015135
   12      C      -0.6382532705    -0.7621495530     0.5103985602
   13      H      -0.9038440625    -1.3793152748     1.3701830500
 ----------------------------------------------------------------
 Nuclear Repulsion Energy =   268.9331451811 hartrees
 There are       25 alpha and       24 beta electrons
 Applying Cartesian multipole field
    Component          Value
    ---------          -----
     (2,0,0)        1.00000E-11
     (0,2,0)        2.00000E-11
     (0,0,2)       -3.00000E-11
 Nucleus-field energy     =     0.0000000057 hartrees
 Requested basis set is 6-31+G(d,p)
 There are 53 shells and 163 basis functions
 A cutoff of  1.0D-14 yielded   1380 shell pairs
 There are     13440 function pairs
 Smallest overlap matrix eigenvalue = 2.88E-05
 Guess MOs from SCF MO coefficient file
 Reading MOs from coefficient file
 Reading MOs from coefficient file
 An unrestricted hybrid HF-DFT SCF calculation will be
 performed using Pulay DIIS extrapolation
 Exchange:     0.2000 Hartree-Fock + 0.0800 Slater + 0.7200 B88
 Correlation:  0.1900 VWN1RPA + 0.8100 LYP
 Using SG-1 standard quadrature grid
 SCF converges when DIIS error is below 1.0E-08
 Geometry optimization detected.  Setting ReadMinima to 0
 Setting SaveMinima to 0
Using Q-Chem read-in guess as SCF_GUESS READ specified.

 using 4 threads for integral computing
 -------------------------------------------------------
 OpenMP Integral computing Module                
 Release: version 1.0, May 2013, Q-Chem Inc. Pittsburgh 
 -------------------------------------------------------
 -------------------------------------------------------
 OpenMP BLAS3 based DFT computing Module                
 Release: version 1.0, May 2013, Q-Chem Inc. Pittsburgh 
 -------------------------------------------------------
 ---------------------------------------
  Cycle       Energy         DIIS Error
 ---------------------------------------
    1    -286.8763334005      5.87E-05
    2    -286.8766085440      9.68E-06
    3    -286.8766083917      1.48E-05
    4    -286.8766092279      2.75E-06
    5    -286.8766092668      1.28E-06
    6    -286.8766092795      3.80E-07
    7    -286.8766092832      1.70E-07
    8    -286.8766092836      1.34E-07
    9    -286.8766092839      3.15E-08
   10    -286.8766092839      1.22E-08
   11    -286.8766092840      3.60E-09 Convergence criterion met
 ---------------------------------------
 <S^2> = 0.7534
 SCF time:  CPU 53.71 s  wall 14.15 s
 SCF   energy in the final basis set = -286.87660928
 Total energy in the final basis set = -286.87660928
 
 --------------------------------------------------------------
 
                    Orbital Energies (a.u.)
 --------------------------------------------------------------
 
 Alpha MOs
 -- Occupied --
-14.337 -10.240 -10.235 -10.232 -10.230 -10.217 -10.206  -0.946
 -0.878  -0.776  -0.677  -0.651  -0.579  -0.540  -0.500  -0.492
 -0.460  -0.435  -0.387  -0.382  -0.370  -0.309  -0.267  -0.240
 -0.229
 -- Virtual --
 -0.048  -0.001   0.015   0.022   0.026   0.032   0.047   0.050
  0.068   0.073   0.075   0.092   0.099   0.112   0.116   0.121
  0.124   0.129   0.138   0.148   0.168   0.175   0.180   0.185
  0.192   0.198   0.202   0.212   0.225   0.233   0.253   0.261
  0.268   0.283   0.288   0.301   0.310   0.321   0.329   0.336
  0.353   0.385   0.463   0.506   0.591   0.628   0.649   0.666
  0.681   0.708   0.713   0.725   0.737   0.750   0.770   0.778
  0.825   0.835   0.883   0.896   0.927   0.935   0.950   0.987
  0.993   1.016   1.062   1.088   1.098   1.107   1.134   1.150
  1.183   1.205   1.239   1.310   1.349   1.371   1.441   1.476
  1.500   1.524   1.555   1.647   1.688   1.757   1.799   1.806
  1.865   1.881   1.903   1.960   1.983   2.006   2.080   2.089
  2.126   2.148   2.188   2.229   2.269   2.290   2.369   2.390
  2.405   2.417   2.435   2.454   2.476   2.505   2.520   2.528
  2.559   2.595   2.626   2.667   2.698   2.716   2.740   2.811
  2.867   2.936   3.012   3.180   3.216   3.278   3.293   3.369
  3.440   3.562   3.709   4.196   4.300   4.340   4.476   4.500
  4.576   4.734
 
 Beta MOs
 -- Occupied --
-14.337 -10.240 -10.235 -10.232 -10.217 -10.216 -10.205  -0.944
 -0.869  -0.774  -0.670  -0.649  -0.565  -0.535  -0.497  -0.483
 -0.456  -0.432  -0.385  -0.380  -0.362  -0.300  -0.262  -0.236
 -- Virtual --
 -0.090  -0.046   0.001   0.015   0.024   0.027   0.033   0.048
  0.050   0.072   0.074   0.078   0.094   0.099   0.113   0.116
  0.122   0.125   0.130   0.138   0.149   0.168   0.176   0.183
  0.188   0.193   0.201   0.206   0.213   0.228   0.235   0.257
  0.261   0.270   0.284   0.292   0.302   0.311   0.325   0.335
  0.341   0.360   0.392   0.465   0.507   0.597   0.633   0.664
  0.675   0.693   0.710   0.715   0.729   0.743   0.751   0.779
  0.791   0.830   0.840   0.885   0.899   0.928   0.937   0.952
  0.990   0.997   1.017   1.070   1.090   1.100   1.112   1.139
  1.152   1.186   1.208   1.244   1.315   1.352   1.375   1.450
  1.481   1.502   1.528   1.561   1.653   1.694   1.774   1.803
  1.816   1.882   1.889   1.908   1.967   1.988   2.012   2.088
  2.099   2.127   2.166   2.194   2.232   2.272   2.295   2.371
  2.393   2.407   2.420   2.438   2.457   2.480   2.508   2.523
  2.534   2.563   2.609   2.628   2.670   2.706   2.723   2.747
  2.818   2.874   2.941   3.016   3.181   3.217   3.283   3.294
  3.372   3.444   3.571   3.710   4.196   4.305   4.341   4.497
  4.510   4.578   4.735
 --------------------------------------------------------------
 
          Ground-State Mulliken Net Atomic Charges

     Atom                 Charge (a.u.)    Spin (a.u.)
  --------------------------------------------------------
      1 C                    -0.054222      -0.047970
      2 C                    -0.016719       0.028848
      3 C                    -0.252727       0.991514
      4 C                     0.088552       0.045935
      5 C                    -0.253426      -0.035302
      6 N                    -0.182111       0.016203
      7 H                     0.128442       0.005048
      8 H                     0.144266       0.022616
      9 H                     0.148684      -0.022005
     10 H                     0.132717       0.003140
     11 H                     0.125044       0.000836
     12 C                    -0.152886      -0.026211
     13 H                     0.144386       0.017348
  --------------------------------------------------------
  Sum of atomic charges =    -0.000000
  Sum of spin   charges =     1.000000

 -----------------------------------------------------------------
                    Cartesian Multipole Moments
 -----------------------------------------------------------------
    Charge (ESU x 10^10)
                -0.0000
    Dipole Moment (Debye)
         X      -0.4246      Y      -2.7774      Z       1.3813
       Tot       3.1308
    Quadrupole Moments (Debye-Ang)
        XX     -38.8446     XY      -3.6432     YY     -42.1757
        XZ      -0.8866     YZ       0.8185     ZZ     -43.8726
    Octopole Moments (Debye-Ang^2)
       XXX      -0.0018    XXY      -7.4099    XYY     -11.3193
       YYY     -35.7043    XXZ       8.0923    XYZ       1.3421
       YYZ       6.7966    XZZ      -3.3354    YZZ     -10.8541
       ZZZ      17.3349
    Hexadecapole Moments (Debye-Ang^3)
      XXXX    -273.9665   XXXY      -5.1403   XXYY    -122.1821
      XYYY     -23.3549   YYYY    -413.2561   XXXZ      24.2893
      XXYZ       3.1447   XYYZ      17.9928   YYYZ      19.2989
      XXZZ     -69.7977   XYZZ      -0.0496   YYZZ     -92.9602
      XZZZ      33.0893   YZZZ       7.2797   ZZZZ    -124.9419
 -----------------------------------------------------------------
 Calculating analytic gradient of the SCF energy
 Gradient of SCF Energy
            1           2           3           4           5           6
    1   0.0000341   0.0000175  -0.0000132   0.0000487  -0.0000245   0.0000297
    2  -0.0000188   0.0000737  -0.0000041   0.0000357  -0.0000596   0.0000652
    3   0.0000370  -0.0001126   0.0002492   0.0000184  -0.0000080  -0.0000216
            7           8           9          10          11          12
    1  -0.0000062  -0.0000205   0.0000008   0.0000001   0.0000131  -0.0000664
    2  -0.0000404  -0.0000352   0.0000207   0.0000338   0.0000217  -0.0001210
    3  -0.0000508   0.0000391  -0.0000354  -0.0000058   0.0000199  -0.0001871
           13
    1  -0.0000133
    2   0.0000283
    3   0.0000575
 Max gradient component =       2.492E-04
 RMS gradient           =       6.544E-05
 Gradient time:  CPU 16.72 s  wall 4.24 s
 Geometry Optimization Parameters
   NAtoms,    NIC,     NZ,  NCons,   NDum,   NFix, NCnnct, MaxDiis
       13     103       0       0       0       0       0       0

 Cartesian Hessian Update
 Hessian Updated using BFGS Update


** GEOMETRY OPTIMIZATION IN DELOCALIZED INTERNAL COORDINATES **
   Searching for a Minimum

   Optimization Cycle:   5

                       Coordinates (Angstroms)
     ATOM                X               Y               Z
      1  C         1.4188199689    0.5304369394   -0.4210428770
      2  C         0.8999941884   -0.7995400875   -0.0579387640
      3  C        -0.2402686703   -1.4299746724   -0.7248548312
      4  C        -1.2241216748    0.5860234140    0.4511982275
      5  C        -0.6017987970    1.6217782203   -0.1597216717
      6  N         0.7346270830    1.6156808664   -0.5604559691
      7  H         2.5019690673    0.6106203290   -0.5329249983
      8  H         1.6310054554   -1.4671391401    0.4016267022
      9  H        -0.3489456067   -2.4696859845   -1.0075636609
     10  H        -2.1836704618    0.7410128003    0.9376326555
     11  H        -1.0906882997    2.5875033804   -0.2462015135
     12  C        -0.6382532705   -0.7621495530    0.5103985602
     13  H        -0.9038440625   -1.3793152748    1.3701830500
   Point Group: c1    Number of degrees of freedom:    33


   Energy is   -286.876609284

 Hessian Updated using BFGS Update

 33 Hessian modes will be used to form the next step
  Hessian Eigenvalues:
     0.006976    0.014454    0.018830    0.018922    0.021919    0.023104
     0.025462    0.027368    0.027893    0.038848    0.062532    0.090107
     0.103910    0.111693    0.156716    0.158799    0.159913    0.160852
     0.216335    0.227280    0.267509    0.334042    0.339482    0.346007
     0.346261    0.347743    0.351634    0.353056    0.353137    0.357544
     0.441713    0.526268    0.669667

 Minimum Search - Taking Simple RFO Step
 Searching for Lamda that Minimizes Along All modes
 Value Taken    Lamda =   0.00000000
 Step Taken.  Stepsize is  0.005764

                             Maximum     Tolerance    Cnvgd?
         Gradient           0.000084      0.000300     YES
         Displacement       0.002713      0.001200      NO
         Energy change     -0.000004      0.000001      NO


 New Cartesian Coordinates Obtained by Inverse Iteration

 Displacement from previous Coordinates is:  0.005228
 ----------------------------------------------------------------
             Standard Nuclear Orientation (Angstroms)
    I     Atom           X                Y                Z
 ----------------------------------------------------------------
    1      C       1.4188433584     0.5303306907    -0.4209140876
    2      C       0.9001017437    -0.7997106828    -0.0579190663
    3      C      -0.2405122741    -1.4293875076    -0.7252098762
    4      C      -1.2239935680     0.5861295707     0.4515914517
    5      C      -0.6019437586     1.6216954499    -0.1599524210
    6      N       0.7345224612     1.6154283373    -0.5605645511
    7      H       2.5020961203     0.6109667085    -0.5315814606
    8      H       1.6312654214    -1.4675455223     0.4009247524
    9      H      -0.3497695565    -2.4692166670    -1.0073683295
   10      H      -2.1834592249     0.7408660152     0.9382435954
   11      H      -1.0910377559     2.5871937229    -0.2475498059
   12      C      -0.6378036384    -0.7618775815     0.5106731102
   13      H      -0.9034844087    -1.3796212967     1.3699615983
 ----------------------------------------------------------------
 Nuclear Repulsion Energy =   268.9398777793 hartrees
 There are       25 alpha and       24 beta electrons
 Applying Cartesian multipole field
    Component          Value
    ---------          -----
     (2,0,0)        1.00000E-11
     (0,2,0)        2.00000E-11
     (0,0,2)       -3.00000E-11
 Nucleus-field energy     =     0.0000000057 hartrees
 Requested basis set is 6-31+G(d,p)
 There are 53 shells and 163 basis functions
 A cutoff of  1.0D-14 yielded   1380 shell pairs
 There are     13440 function pairs
 Smallest overlap matrix eigenvalue = 2.88E-05
 Guess MOs from SCF MO coefficient file
 Reading MOs from coefficient file
 Reading MOs from coefficient file
 An unrestricted hybrid HF-DFT SCF calculation will be
 performed using Pulay DIIS extrapolation
 Exchange:     0.2000 Hartree-Fock + 0.0800 Slater + 0.7200 B88
 Correlation:  0.1900 VWN1RPA + 0.8100 LYP
 Using SG-1 standard quadrature grid
 SCF converges when DIIS error is below 1.0E-08
 Geometry optimization detected.  Setting ReadMinima to 0
 Setting SaveMinima to 0
Using Q-Chem read-in guess as SCF_GUESS READ specified.

 using 4 threads for integral computing
 -------------------------------------------------------
 OpenMP Integral computing Module                
 Release: version 1.0, May 2013, Q-Chem Inc. Pittsburgh 
 -------------------------------------------------------
 -------------------------------------------------------
 OpenMP BLAS3 based DFT computing Module                
 Release: version 1.0, May 2013, Q-Chem Inc. Pittsburgh 
 -------------------------------------------------------
 ---------------------------------------
  Cycle       Energy         DIIS Error
 ---------------------------------------
    1    -286.8766145022      1.91E-05
    2    -286.8766096358      3.22E-06
    3    -286.8766096229      4.16E-06
    4    -286.8766096871      5.67E-07
    5    -286.8766096878      4.10E-07
    6    -286.8766096885      9.34E-08
    7    -286.8766096886      3.47E-08
    8    -286.8766096886      1.48E-08
    9    -286.8766096886      7.03E-09 Convergence criterion met
 ---------------------------------------
 <S^2> = 0.7534
 SCF time:  CPU 44.49 s  wall 12.79 s
 SCF   energy in the final basis set = -286.87660969
 Total energy in the final basis set = -286.87660969
 
 --------------------------------------------------------------
 
                    Orbital Energies (a.u.)
 --------------------------------------------------------------
 
 Alpha MOs
 -- Occupied --
-14.337 -10.240 -10.235 -10.232 -10.230 -10.217 -10.206  -0.946
 -0.878  -0.776  -0.677  -0.651  -0.579  -0.540  -0.500  -0.492
 -0.460  -0.435  -0.387  -0.382  -0.370  -0.309  -0.267  -0.240
 -0.229
 -- Virtual --
 -0.048  -0.001   0.015   0.022   0.026   0.032   0.047   0.050
  0.068   0.073   0.075   0.092   0.099   0.112   0.116   0.121
  0.124   0.129   0.138   0.148   0.168   0.175   0.180   0.185
  0.192   0.198   0.202   0.212   0.225   0.233   0.253   0.261
  0.268   0.283   0.288   0.301   0.310   0.321   0.329   0.336
  0.353   0.385   0.463   0.506   0.591   0.628   0.649   0.666
  0.681   0.708   0.713   0.725   0.737   0.750   0.770   0.778
  0.825   0.835   0.883   0.897   0.927   0.935   0.949   0.986
  0.993   1.016   1.062   1.088   1.098   1.107   1.134   1.150
  1.183   1.205   1.240   1.310   1.349   1.372   1.441   1.476
  1.500   1.524   1.555   1.647   1.688   1.757   1.799   1.806
  1.865   1.881   1.903   1.960   1.983   2.006   2.080   2.089
  2.126   2.148   2.188   2.229   2.269   2.290   2.369   2.390
  2.405   2.417   2.436   2.454   2.476   2.505   2.520   2.528
  2.559   2.595   2.626   2.667   2.698   2.716   2.740   2.811
  2.867   2.936   3.013   3.180   3.216   3.278   3.293   3.369
  3.440   3.562   3.709   4.196   4.300   4.340   4.476   4.500
  4.576   4.734
 
 Beta MOs
 -- Occupied --
-14.337 -10.240 -10.235 -10.232 -10.217 -10.216 -10.205  -0.944
 -0.869  -0.774  -0.670  -0.649  -0.565  -0.535  -0.497  -0.483
 -0.456  -0.432  -0.385  -0.380  -0.362  -0.300  -0.262  -0.236
 -- Virtual --
 -0.090  -0.046   0.001   0.015   0.024   0.027   0.033   0.048
  0.050   0.072   0.074   0.078   0.094   0.099   0.113   0.116
  0.122   0.125   0.130   0.138   0.149   0.168   0.176   0.183
  0.188   0.193   0.201   0.206   0.213   0.228   0.235   0.257
  0.261   0.270   0.284   0.292   0.302   0.311   0.325   0.335
  0.341   0.360   0.392   0.465   0.507   0.597   0.633   0.664
  0.675   0.693   0.710   0.715   0.729   0.743   0.751   0.779
  0.791   0.830   0.840   0.885   0.899   0.928   0.937   0.952
  0.990   0.997   1.017   1.070   1.090   1.100   1.112   1.139
  1.152   1.186   1.209   1.244   1.315   1.352   1.375   1.450
  1.481   1.502   1.528   1.561   1.653   1.694   1.774   1.803
  1.816   1.882   1.889   1.908   1.967   1.988   2.012   2.088
  2.099   2.127   2.166   2.194   2.232   2.272   2.295   2.371
  2.393   2.407   2.420   2.438   2.458   2.480   2.508   2.523
  2.534   2.563   2.609   2.628   2.670   2.706   2.723   2.747
  2.818   2.874   2.940   3.016   3.181   3.217   3.283   3.294
  3.372   3.444   3.571   3.710   4.196   4.305   4.341   4.497
  4.510   4.579   4.735
 --------------------------------------------------------------
 
          Ground-State Mulliken Net Atomic Charges

     Atom                 Charge (a.u.)    Spin (a.u.)
  --------------------------------------------------------
      1 C                    -0.054339      -0.048020
      2 C                    -0.016470       0.028873
      3 C                    -0.252774       0.991503
      4 C                     0.088665       0.045889
      5 C                    -0.253478      -0.035284
      6 N                    -0.182101       0.016197
      7 H                     0.128429       0.005048
      8 H                     0.144241       0.022580
      9 H                     0.148691      -0.021928
     10 H                     0.132732       0.003133
     11 H                     0.125055       0.000835
     12 C                    -0.153034      -0.026121
     13 H                     0.144384       0.017295
  --------------------------------------------------------
  Sum of atomic charges =     0.000000
  Sum of spin   charges =     1.000000

 -----------------------------------------------------------------
                    Cartesian Multipole Moments
 -----------------------------------------------------------------
    Charge (ESU x 10^10)
                 0.0000
    Dipole Moment (Debye)
         X      -0.4248      Y      -2.7774      Z       1.3816
       Tot       3.1310
    Quadrupole Moments (Debye-Ang)
        XX     -38.8426     XY      -3.6424     YY     -42.1746
        XZ      -0.8832     YZ       0.8156     ZZ     -43.8743
    Octopole Moments (Debye-Ang^2)
       XXX      -0.0023    XXY      -7.4107    XYY     -11.3202
       YYY     -35.7083    XXZ       8.0972    XYZ       1.3454
       YYZ       6.7919    XZZ      -3.3420    YZZ     -10.8513
       ZZZ      17.3357
    Hexadecapole Moments (Debye-Ang^3)
      XXXX    -273.9464   XXXY      -5.1236   XXYY    -122.1455
      XYYY     -23.3263   YYYY    -413.1666   XXXZ      24.2940
      XXYZ       3.1481   XYYZ      18.0001   YYYZ      19.2652
      XXZZ     -69.8059   XYZZ      -0.0461   YYZZ     -92.9516
      XZZZ      33.0807   YZZZ       7.2823   ZZZZ    -124.9817
 -----------------------------------------------------------------
 Calculating analytic gradient of the SCF energy
 Gradient of SCF Energy
            1           2           3           4           5           6
    1  -0.0000164   0.0000735  -0.0000450   0.0000120  -0.0000331   0.0000469
    2  -0.0000230   0.0000028   0.0000309   0.0000333  -0.0000249   0.0000107
    3  -0.0000393   0.0000130   0.0000986   0.0000117   0.0000410  -0.0000311
            7           8           9          10          11          12
    1   0.0000038  -0.0000146  -0.0000128   0.0000057   0.0000132  -0.0000261
    2  -0.0000235  -0.0000093   0.0000054   0.0000195   0.0000072  -0.0000465
    3  -0.0000039   0.0000068  -0.0000042   0.0000033  -0.0000139  -0.0001080
           13
    1  -0.0000070
    2   0.0000175
    3   0.0000263
 Max gradient component =       1.080E-04
 RMS gradient           =       3.442E-05
 Gradient time:  CPU 16.65 s  wall 4.27 s
 Geometry Optimization Parameters
   NAtoms,    NIC,     NZ,  NCons,   NDum,   NFix, NCnnct, MaxDiis
       13     103       0       0       0       0       0       0

 Cartesian Hessian Update
 Hessian Updated using BFGS Update


** GEOMETRY OPTIMIZATION IN DELOCALIZED INTERNAL COORDINATES **
   Searching for a Minimum

   Optimization Cycle:   6

                       Coordinates (Angstroms)
     ATOM                X               Y               Z
      1  C         1.4188433584    0.5303306907   -0.4209140876
      2  C         0.9001017437   -0.7997106828   -0.0579190663
      3  C        -0.2405122741   -1.4293875076   -0.7252098762
      4  C        -1.2239935680    0.5861295707    0.4515914517
      5  C        -0.6019437586    1.6216954499   -0.1599524210
      6  N         0.7345224612    1.6154283373   -0.5605645511
      7  H         2.5020961203    0.6109667085   -0.5315814606
      8  H         1.6312654214   -1.4675455223    0.4009247524
      9  H        -0.3497695565   -2.4692166670   -1.0073683295
     10  H        -2.1834592249    0.7408660152    0.9382435954
     11  H        -1.0910377559    2.5871937229   -0.2475498059
     12  C        -0.6378036384   -0.7618775815    0.5106731102
     13  H        -0.9034844087   -1.3796212967    1.3699615983
   Point Group: c1    Number of degrees of freedom:    33


   Energy is   -286.876609689

 Hessian Updated using BFGS Update

 33 Hessian modes will be used to form the next step
  Hessian Eigenvalues:
     0.006898    0.012967    0.018577    0.018971    0.021611    0.022423
     0.025951    0.027332    0.028744    0.038976    0.063325    0.089567
     0.103899    0.113819    0.153461    0.158902    0.159998    0.160573
     0.215279    0.225986    0.263492    0.326559    0.340075    0.346168
     0.346390    0.347291    0.351652    0.352944    0.353303    0.357448
     0.439532    0.524922    0.669331

 Minimum Search - Taking Simple RFO Step
 Searching for Lamda that Minimizes Along All modes
 Value Taken    Lamda =   0.00000000
 Step Taken.  Stepsize is  0.002151

                             Maximum     Tolerance    Cnvgd?
         Gradient           0.000047      0.000300     YES
         Displacement       0.001129      0.001200     YES
         Energy change     -0.000000      0.000001     YES


                       Distance Matrix (Angstroms)
             C (  1)   C (  2)   C (  3)   C (  4)   C (  5)   N (  6)
   C (  2)  1.473047
   C (  3)  2.585837  1.463820
   C (  4)  2.783697  2.586877  2.532668
   C (  5)  2.311441  2.851273  3.123981  1.354005
   N (  6)  1.290440  2.472441  3.201360  2.433044  1.395232
   H (  7)  1.091873  2.186493  3.423805  3.853698  3.285536  2.033249
   H (  8)  2.170726  1.091394  2.184762  3.517478  3.852949  3.351617
   H (  9)  3.531176  2.291480  1.082957  3.496852  4.185363  4.249664
   H ( 10)  3.855933  3.588045  3.354418  1.086898  2.117330  3.394982
   H ( 11)  3.249653  3.933410  4.133337  2.123849  1.085851  2.091644
   C ( 12)  2.601433  1.640086  1.459732  1.471133  2.476377  2.946593
   H ( 13)  3.499766  2.372354  2.198125  2.193241  3.382228  3.921775
             H (  7)   H (  8)   H (  9)   H ( 10)   H ( 11)   C ( 12)
   H (  8)  2.438878
   H (  9)  4.224576  2.628904
   H ( 10)  4.912401  4.440486  4.177613
   H ( 11)  4.110567  4.926699  5.166632  2.451207
   C ( 12)  3.581894  2.378799  2.302698  2.197750  3.463611
   H ( 13)  4.379074  2.715091  2.673110  2.514196  4.288023  1.091133

 
 Final energy is   -286.876609688560     


 ******************************
 **  OPTIMIZATION CONVERGED  **
 ******************************

                       Coordinates (Angstroms)
     ATOM                X               Y               Z
      1  C         1.4188433584    0.5303306907   -0.4209140876
      2  C         0.9001017437   -0.7997106828   -0.0579190663
      3  C        -0.2405122741   -1.4293875076   -0.7252098762
      4  C        -1.2239935680    0.5861295707    0.4515914517
      5  C        -0.6019437586    1.6216954499   -0.1599524210
      6  N         0.7345224612    1.6154283373   -0.5605645511
      7  H         2.5020961203    0.6109667085   -0.5315814606
      8  H         1.6312654214   -1.4675455223    0.4009247524
      9  H        -0.3497695565   -2.4692166670   -1.0073683295
     10  H        -2.1834592249    0.7408660152    0.9382435954
     11  H        -1.0910377559    2.5871937229   -0.2475498059
     12  C        -0.6378036384   -0.7618775815    0.5106731102
     13  H        -0.9034844087   -1.3796212967    1.3699615983

Z-matrix Print:
$molecule
0 2
N 
C  1 1.290440
H  2 1.091873 1 116.939277
C  1 1.395232 2 118.729112 3 -166.874693 0
H  4 1.085851 1 114.348386 2 176.138291 0
C  4 1.354005 1 124.493525 2 4.430631 0
H  6 1.086898 4 119.926843 1 165.726527 0
C  6 1.471133 4 122.403994 1 -13.101665 0
H  8 1.091133 6 116.960173 4 150.908244 0
C  8 1.459732 6 119.568035 4 -54.911211 0
H  10 1.082957 8 129.212892 6 -140.125611 0
C  10 1.463820 8 68.248523 6 98.363153 0
H  12 1.091394 10 116.772416 8 109.230823 0
$end

 
 --------------------------------------------------------------
 
                    Orbital Energies (a.u.)
 --------------------------------------------------------------
 
 Alpha MOs
 -- Occupied --
-14.337 -10.240 -10.235 -10.232 -10.230 -10.217 -10.206  -0.946
 -0.878  -0.776  -0.677  -0.651  -0.579  -0.540  -0.500  -0.492
 -0.460  -0.435  -0.387  -0.382  -0.370  -0.309  -0.267  -0.240
 -0.229
 -- Virtual --
 -0.048  -0.001   0.015   0.022   0.026   0.032   0.047   0.050
  0.068   0.073   0.075   0.092   0.099   0.112   0.116   0.121
  0.124   0.129   0.138   0.148   0.168   0.175   0.180   0.185
  0.192   0.198   0.202   0.212   0.225   0.233   0.253   0.261
  0.268   0.283   0.288   0.301   0.310   0.321   0.329   0.336
  0.353   0.385   0.463   0.506   0.591   0.628   0.649   0.666
  0.681   0.708   0.713   0.725   0.737   0.750   0.770   0.778
  0.825   0.835   0.883   0.897   0.927   0.935   0.949   0.986
  0.993   1.016   1.062   1.088   1.098   1.107   1.134   1.150
  1.183   1.205   1.240   1.310   1.349   1.372   1.441   1.476
  1.500   1.524   1.555   1.647   1.688   1.757   1.799   1.806
  1.865   1.881   1.903   1.960   1.983   2.006   2.080   2.089
  2.126   2.148   2.188   2.229   2.269   2.290   2.369   2.390
  2.405   2.417   2.436   2.454   2.476   2.505   2.520   2.528
  2.559   2.595   2.626   2.667   2.698   2.716   2.740   2.811
  2.867   2.936   3.013   3.180   3.216   3.278   3.293   3.369
  3.440   3.562   3.709   4.196   4.300   4.340   4.476   4.500
  4.576   4.734
 
 Beta MOs
 -- Occupied --
-14.337 -10.240 -10.235 -10.232 -10.217 -10.216 -10.205  -0.944
 -0.869  -0.774  -0.670  -0.649  -0.565  -0.535  -0.497  -0.483
 -0.456  -0.432  -0.385  -0.380  -0.362  -0.300  -0.262  -0.236
 -- Virtual --
 -0.090  -0.046   0.001   0.015   0.024   0.027   0.033   0.048
  0.050   0.072   0.074   0.078   0.094   0.099   0.113   0.116
  0.122   0.125   0.130   0.138   0.149   0.168   0.176   0.183
  0.188   0.193   0.201   0.206   0.213   0.228   0.235   0.257
  0.261   0.270   0.284   0.292   0.302   0.311   0.325   0.335
  0.341   0.360   0.392   0.465   0.507   0.597   0.633   0.664
  0.675   0.693   0.710   0.715   0.729   0.743   0.751   0.779
  0.791   0.830   0.840   0.885   0.899   0.928   0.937   0.952
  0.990   0.997   1.017   1.070   1.090   1.100   1.112   1.139
  1.152   1.186   1.209   1.244   1.315   1.352   1.375   1.450
  1.481   1.502   1.528   1.561   1.653   1.694   1.774   1.803
  1.816   1.882   1.889   1.908   1.967   1.988   2.012   2.088
  2.099   2.127   2.166   2.194   2.232   2.272   2.295   2.371
  2.393   2.407   2.420   2.438   2.458   2.480   2.508   2.523
  2.534   2.563   2.609   2.628   2.670   2.706   2.723   2.747
  2.818   2.874   2.940   3.016   3.181   3.217   3.283   3.294
  3.372   3.444   3.571   3.710   4.196   4.305   4.341   4.497
  4.510   4.579   4.735
 --------------------------------------------------------------
 
          Ground-State Mulliken Net Atomic Charges

     Atom                 Charge (a.u.)    Spin (a.u.)
  --------------------------------------------------------
      1 C                    -0.054339      -0.048020
      2 C                    -0.016470       0.028873
      3 C                    -0.252774       0.991503
      4 C                     0.088665       0.045889
      5 C                    -0.253478      -0.035284
      6 N                    -0.182101       0.016197
      7 H                     0.128429       0.005048
      8 H                     0.144241       0.022580
      9 H                     0.148691      -0.021928
     10 H                     0.132732       0.003133
     11 H                     0.125055       0.000835
     12 C                    -0.153034      -0.026121
     13 H                     0.144384       0.017295
  --------------------------------------------------------
  Sum of atomic charges =     0.000000
  Sum of spin   charges =     1.000000

 -----------------------------------------------------------------
                    Cartesian Multipole Moments
 -----------------------------------------------------------------
    Charge (ESU x 10^10)
                 0.0000
    Dipole Moment (Debye)
         X      -0.4248      Y      -2.7774      Z       1.3816
       Tot       3.1310
    Quadrupole Moments (Debye-Ang)
        XX     -38.8426     XY      -3.6424     YY     -42.1746
        XZ      -0.8832     YZ       0.8156     ZZ     -43.8743
    Octopole Moments (Debye-Ang^2)
       XXX      -0.0023    XXY      -7.4107    XYY     -11.3202
       YYY     -35.7083    XXZ       8.0972    XYZ       1.3454
       YYZ       6.7919    XZZ      -3.3420    YZZ     -10.8513
       ZZZ      17.3357
    Hexadecapole Moments (Debye-Ang^3)
      XXXX    -273.9464   XXXY      -5.1236   XXYY    -122.1455
      XYYY     -23.3263   YYYY    -413.1666   XXXZ      24.2940
      XXYZ       3.1481   XYYZ      18.0001   YYYZ      19.2652
      XXZZ     -69.8059   XYZZ      -0.0461   YYZZ     -92.9516
      XZZZ      33.0807   YZZZ       7.2823   ZZZZ    -124.9817
 -----------------------------------------------------------------
Archival summary:
1\1\c8-66\OPT\ProcedureUnspecified\6-31+G**\166(2)\hpark21\FriMar413:33:382022FriMar413:33:382022\0\\#,OPT,ProcedureUnspecified,6-31+G**,\\0,2\N\C,1,1.29044\H,2,1.09187,1,116.939\C,1,1.39523,2,118.729,3,-166.875,0\H,4,1.08585,1,114.348,2,176.138,0\C,4,1.354,1,124.494,2,4.43063,0\H,6,1.0869,4,119.927,1,165.727,0\C,6,1.47113,4,122.404,1,-13.1017,0\H,8,1.09113,6,116.96,4,150.908,0\C,8,1.45973,6,119.568,4,-54.9112,0\H,10,1.08296,8,129.213,6,-140.126,0\C,10,1.46382,8,68.2485,6,98.3632,0\H,12,1.09139,10,116.772,8,109.231,0\\\@

 Total job time:  124.40s(wall), 463.53s(cpu) 
 Fri Mar  4 13:33:38 2022

        *************************************************************
        *                                                           *
        *  Thank you very much for using Q-Chem.  Have a nice day.  *
        *                                                           *
        *************************************************************


