13   
Frame   0 IRC: Energy =  -286.8575840000 ; +0.0000 kcal/mol
C        1.5477472760    0.5892260649   -0.1661174802
C        0.8970607177   -0.7388591012    0.0332109042
C       -0.4088273245   -0.6568615315   -0.6897097495
C       -1.0276594355    0.6283354330    0.8764888279
C       -0.6040297190    0.9025335126   -0.5731474427
N        0.7467183084    1.5141514125   -0.5487879860
H        2.6021396743    0.7865712322    0.0202106136
H        1.4608073711   -1.6652998343    0.0714411153
H       -0.8136480880   -1.3545099541   -1.4163496942
H       -2.0106423964    0.8497093975    1.2775321774
H       -1.2895489893    1.4314556195   -1.2331056451
C       -0.4375930341   -0.7233015731    0.8502750883
H       -0.6625243603   -1.5631506781    1.4980592704
13   
Frame   1 IRC: Energy =  -286.8575780000 ; +0.0038 kcal/mol
C        1.5481542551    0.5893273656   -0.1662808988
C        0.8969439756   -0.7386969801    0.0333136235
C       -0.4090173197   -0.6567195469   -0.6894970699
C       -1.0276925803    0.6285671913    0.8768412750
C       -0.6037883763    0.9028064798   -0.5728788480
N        0.7470466522    1.5140485526   -0.5487432281
H        2.6023287759    0.7862174712    0.0195371464
H        1.4607342787   -1.6654354341    0.0713617440
H       -0.8140813987   -1.3541961265   -1.4157827049
H       -2.0117073523    0.8480868189    1.2759196077
H       -1.2893685097    1.4319181126   -1.2327373095
C       -0.4372269551   -0.7229734643    0.8505299661
H       -0.6623254456   -1.5629504401    1.4984166964
13   
Frame   2 IRC: Energy =  -286.8575730000 ; +0.0069 kcal/mol
C        1.5481623292    0.5890770729   -0.1664308104
C        0.8970762036   -0.7387637543    0.0334069906
C       -0.4090709666   -0.6563462011   -0.6891248169
C       -1.0275122959    0.6287575181    0.8770221989
C       -0.6036278650    0.9030826517   -0.5726524772
N        0.7472468477    1.5142062197   -0.5487775241
H        2.6028145810    0.7859588882    0.0189386475
H        1.4605433759   -1.6653768912    0.0712898512
H       -0.8145523871   -1.3540329441   -1.4153680150
H       -2.0128718960    0.8465925795    1.2744607216
H       -1.2891443157    1.4323413969   -1.2323493391
C       -0.4369533488   -0.7228488782    0.8509232010
H       -0.6621102626   -1.5626476581    1.4986613719
13   
Frame   3 IRC: Energy =  -286.8575670000 ; +0.0107 kcal/mol
C        1.5485870679    0.5891690224   -0.1666087477
C        0.8969595057   -0.7385881436    0.0335300605
C       -0.4092701056   -0.6561922012   -0.6888824806
C       -1.0275699339    0.6290032043    0.8774179301
C       -0.6033795273    0.9033966944   -0.5723743425
N        0.7476047710    1.5141111921   -0.5487292075
H        2.6030457761    0.7855763548    0.0181767083
H        1.4604610619   -1.6655162656    0.0711992113
H       -0.8150032591   -1.3537092613   -1.4147328321
H       -2.0140221152    0.8448253930    1.2726869432
H       -1.2889371657    1.4328524442   -1.2319216953
C       -0.4365562060   -0.7224845667    0.8511982065
H       -0.6619198698   -1.5624438668    1.4990402459
13   
Frame   4 IRC: Energy =  -286.8575620000 ; +0.0138 kcal/mol
C        1.5486075693    0.5889242659   -0.1667661756
C        0.8970969045   -0.7386514524    0.0336350198
C       -0.4093232951   -0.6557938627   -0.6884889700
C       -1.0273767335    0.6292002549    0.8775882190
C       -0.6031960445    0.9036748553   -0.5721089112
N        0.7478116296    1.5142686020   -0.5487619855
H        2.6035487296    0.7853031376    0.0175242186
H        1.4602634799   -1.6654533278    0.0711195745
H       -0.8154712741   -1.3535638295   -1.4142843703
H       -2.0152429892    0.8432762983    1.2711632266
H       -1.2887162435    1.4333156645   -1.2315136441
C       -0.4362829458   -0.7223687108    0.8516200544
H       -0.6617187871   -1.5621318954    1.4992737439
13   
Frame   5 IRC: Energy =  -286.8575540000 ; +0.0188 kcal/mol
C        1.5490606907    0.5890038875   -0.1669682544
C        0.8969825366   -0.7384623662    0.0337899565
C       -0.4095335555   -0.6556108761   -0.6881921389
C       -1.0274591068    0.6294708704    0.8780455115
C       -0.6029359469    0.9040541601   -0.5718119083
N        0.7482160681    1.5141860509   -0.5487093603
H        2.6038474425    0.7848746894    0.0166232277
H        1.4601609366   -1.6655947089    0.0710042166
H       -0.8159482422   -1.3532361748   -1.4135387850
H       -2.0165418499    0.8412806945    1.2691315135
H       -1.2884691326    1.4339075889   -1.2309891387
C       -0.4358389423   -0.7219571799    0.8519358747
H       -0.6615408984   -1.5619166359    1.4996792850
13   
Frame   6 IRC: Energy =  -286.8575480000 ; +0.0226 kcal/mol
C        1.5490949267    0.5887673370   -0.1671342721
C        0.8971245455   -0.7385110354    0.0339103977
C       -0.4095894985   -0.6551874664   -0.6877775341
C       -1.0272537108    0.6296772466    0.8782052372
C       -0.6027187340    0.9043304333   -0.5714928059
N        0.7484319171    1.5143415652   -0.5487408719
H        2.6043700591    0.7845848946    0.0159049467
H        1.4599558586   -1.6655319560    0.0709076173
H       -0.8164005434   -1.3531211852   -1.4130396179
H       -2.0178255514    0.8396729234    1.2675286530
H       -1.2882584520    1.4344244547   -1.2305559339
C       -0.4355666278   -0.7218461228    0.8523892793
H       -0.6613641891   -1.5616010889    1.4998949045
13   
Frame   7 IRC: Energy =  -286.8575390000 ; +0.0282 kcal/mol
C        1.5495922660    0.5888346891   -0.1673676446
C        0.8970155906   -0.7383108616    0.0341125223
C       -0.4098082802   -0.6549575403   -0.6873968368
C       -1.0273627833    0.6299834583    0.8787413040
C       -0.6024482445    0.9048038495   -0.5711712983
N        0.7488964241    1.5142791554   -0.5486841674
H        2.6047594699    0.7840944435    0.0148098823
H        1.4598167690   -1.6656707654    0.0707425560
H       -0.8168905273   -1.3528186826   -1.4121296063
H       -2.0193292774    0.8373848122    1.2651471028
H       -1.2879608251    1.4351324403   -1.2298869134
C       -0.4350645735   -0.7213797007    0.8527661385
H       -0.6612160082   -1.5613752977    1.5003169610
13   
Frame   8 IRC: Energy =  -286.8575320000 ; +0.0326 kcal/mol
C        1.5496302960    0.5886058129   -0.1675368089
C        0.8971589388   -0.7383275355    0.0342490031
C       -0.4098660456   -0.6545209831   -0.6869742120
C       -1.0271502523    0.6301965540    0.8788809378
C       -0.6021888674    0.9050618080   -0.5707879222
N        0.7491114952    1.5144341161   -0.5487172089
H        2.6052938779    0.7837979576    0.0140405915
H        1.4596059173   -1.6656153535    0.0706165249
H       -0.8172909314   -1.3527608006   -1.4115735321
H       -2.0206396169    0.8357758975    1.2635064716
H       -1.2877787723    1.4357022139   -1.2294375115
C       -0.4348041777   -0.7212754092    0.8532404653
H       -0.6610818617   -1.5610742779    1.5004932013
13   
Frame   9 IRC: Energy =  -286.8575210000 ; +0.0395 kcal/mol
C        1.5501879510    0.5886733213   -0.1678001806
C        0.8970599857   -0.7381222864    0.0345105384
C       -0.4100862345   -0.6542322964   -0.6864859086
C       -1.0272881098    0.6305429008    0.8795025061
C       -0.6019243944    0.9056497727   -0.5704499076
N        0.7496397335    1.5143993915   -0.5486570374
H        2.6057831147    0.7832405204    0.0127262495
H        1.4594073513   -1.6657459512    0.0703608796
H       -0.8177340441   -1.3525552339   -1.4104485339
H       -2.0223567120    0.8332202583    1.2607518575
H       -1.2874408258    1.4365470146   -1.2285861836
C       -0.4342506139   -0.7207552647    0.8536886242
H       -0.6609972017   -1.5608621471    1.5008870964
13   
Frame  10 IRC: Energy =  -286.8575130000 ; +0.0446 kcal/mol
C        1.5502264008    0.5884544368   -0.1679701177
C        0.8972010919   -0.7380832246    0.0346682829
C       -0.4101491286   -0.6537999735   -0.6860655890
C       -1.0270777218    0.6307748544    0.8796313491
C       -0.6016235962    0.9058908978   -0.5699896270
N        0.7498493760    1.5145605709   -0.5486956488
H        2.6063452761    0.7829414894    0.0119196743
H        1.4591894688   -1.6657185710    0.0701846381
H       -0.8180465293   -1.3525943991   -1.4098230320
H       -2.0236744451    0.8316537791    1.2590912636
H       -1.2873172219    1.4371795365   -1.2281333647
C       -0.4340002252   -0.7206553145    0.8541788963
H       -0.6609227456   -1.5606040821    1.5010032750
13   
Frame  11 IRC: Energy =  -286.8575000000 ; +0.0527 kcal/mol
C        1.5508327238    0.5885237604   -0.1683073950
C        0.8971135080   -0.7378605792    0.0349658931
C       -0.4103279817   -0.6534163137   -0.6854495130
C       -1.0272633387    0.6311412433    0.8803272402
C       -0.6013330217    0.9065834079   -0.5696159241
N        0.7504407472    1.5145677529   -0.5486464950
H        2.6068664305    0.7823009483    0.0103885387
H        1.4588618760   -1.6658092769    0.0697740294
H       -0.8183154251   -1.3525805084   -1.4083655354
H       -2.0256026568    0.8289080247    1.2559806263
H       -1.2868989497    1.4381194023   -1.2269975387
C       -0.4334396630   -0.7200686297    0.8546752829
H       -0.6609342487   -1.5604092318    1.5012707905
13   
Frame  12 IRC: Energy =  -286.8574920000 ; +0.0577 kcal/mol
C        1.5506994999    0.5883441917   -0.1684903507
C        0.8972408379   -0.7377575665    0.0350247304
C       -0.4103496958   -0.6530012656   -0.6850700299
C       -1.0271122260    0.6313385478    0.8803091321
C       -0.6009770374    0.9067453449   -0.5690841489
N        0.7506336252    1.5146270465   -0.5486942214
H        2.6073269893    0.7820482858    0.0096900049
H        1.4586137415   -1.6657509121    0.0695691153
H       -0.8184307304   -1.3526838163   -1.4076832776
H       -2.0266911319    0.8276324199    1.2545816240
H       -1.2867500903    1.4386239224   -1.2265026455
C       -0.4332919634   -0.7199802081    0.8550875136
H       -0.6609118186   -1.5601859904    1.5012625537
13   
Frame  13 IRC: Energy =  -286.8573200000 ; +0.1657 kcal/mol
C        1.5506178788    0.5876200368   -0.1700405733
C        0.8960029430   -0.7362956500    0.0341265459
C       -0.4124241008   -0.6547841716   -0.6860699318
C       -1.0293746419    0.6315888631    0.8791027559
C       -0.6020621764    0.9119936202   -0.5688435542
N        0.7512905863    1.5155484307   -0.5471131465
H        2.6084501420    0.7758953763    0.0032941380
H        1.4589388361   -1.6632974345    0.0678133907
H       -0.8110953097   -1.3746231601   -1.3948699906
H       -2.0343893832    0.8199059813    1.2427146011
H       -1.2840501650    1.4633451242   -1.2143379497
C       -0.4326458352   -0.7181710390    0.8540741185
H       -0.6592587740   -1.5587259774    1.5001495959
13   
Frame  14 IRC: Energy =  -286.8572860000 ; +0.1870 kcal/mol
C        1.5498846823    0.5870396417   -0.1702175418
C        0.8959838877   -0.7357314574    0.0339652553
C       -0.4125770676   -0.6545782191   -0.6860667500
C       -1.0291644225    0.6315637535    0.8785781390
C       -0.6016212149    0.9118866697   -0.5682265189
N        0.7512464961    1.5158939732   -0.5470316998
H        2.6089593323    0.7753943946    0.0027497394
H        1.4590331195   -1.6631786572    0.0676646720
H       -0.8104333166   -1.3770836020   -1.3937567064
H       -2.0354425421    0.8192422772    1.2417294838
H       -1.2841041833    1.4661718221   -1.2134606960
C       -0.4327132289   -0.7181921349    0.8541580114
H       -0.6590515422   -1.5584284617    1.4999146119
13   
Frame  15 IRC: Energy =  -286.8565590000 ; +0.6432 kcal/mol
C        1.5486132197    0.5859515370   -0.1725853054
C        0.8943365548   -0.7356536072    0.0290416475
C       -0.4153769111   -0.6619520809   -0.6922002587
C       -1.0343659396    0.6292528740    0.8731185774
C       -0.6052991882    0.9196787878   -0.5701975774
N        0.7501104136    1.5164421823   -0.5430721657
H        2.6071474194    0.7679440447   -0.0024946699
H        1.4630291339   -1.6583060948    0.0684789934
H       -0.7986974403   -1.4138565296   -1.3778100251
H       -2.0407478371    0.8151584140    1.2332811406
H       -1.2784307146    1.5060550475   -1.1940753866
C       -0.4340500003   -0.7170486673    0.8484816356
H       -0.6562687101   -1.5536659076    1.5000333942
13   
Frame  16 IRC: Energy =  -286.8563090000 ; +0.8001 kcal/mol
C        1.5467900227    0.5845638826   -0.1731574356
C        0.8933455701   -0.7342785464    0.0276988354
C       -0.4154806460   -0.6626071705   -0.6928191988
C       -1.0344998418    0.6285109240    0.8710212567
C       -0.6048421804    0.9197759585   -0.5693019571
N        0.7495512301    1.5170138228   -0.5423388773
H        2.6076412778    0.7666443400   -0.0034005543
H        1.4643483638   -1.6578995807    0.0687864166
H       -0.7964411525   -1.4223937301   -1.3748674040
H       -2.0425216519    0.8145198324    1.2319416119
H       -1.2778658455    1.5154458061   -1.1905759284
C       -0.4343077286   -0.7166360849    0.8468086069
H       -0.6557174179   -1.5526594537    1.5002046279
13   
Frame  17 IRC: Energy =  -286.8548340000 ; +1.7257 kcal/mol
C        1.5457137364    0.5836271947   -0.1759141755
C        0.8928253474   -0.7360098774    0.0208008195
C       -0.4186528276   -0.6737505549   -0.7012843441
C       -1.0406478745    0.6253064586    0.8644184468
C       -0.6093683805    0.9297760108   -0.5717383947
N        0.7481207206    1.5176425039   -0.5374386613
H        2.6044756541    0.7603761372   -0.0071661532
H        1.4698988474   -1.6524204880    0.0713722713
H       -0.7852714649   -1.4601167846   -1.3605762368
H       -2.0456437918    0.8124377108    1.2265087122
H       -1.2712535226    1.5556061960   -1.1703902817
C       -0.4371947716   -0.7167582623    0.8398889782
H       -0.6530016722   -1.5457162449    1.5015190193
13   
Frame  18 IRC: Energy =  -286.8541020000 ; +2.1850 kcal/mol
C        1.5422396278    0.5817267997   -0.1771595100
C        0.8908543630   -0.7341814660    0.0176347886
C       -0.4184683695   -0.6763810062   -0.7023508785
C       -1.0411449552    0.6234442944    0.8604220549
C       -0.6087656428    0.9312128763   -0.5701405310
N        0.7473071621    1.5181290828   -0.5357702185
H        2.6050388250    0.7586753144   -0.0081605414
H        1.4728443886   -1.6517452766    0.0725392646
H       -0.7818364586   -1.4749630681   -1.3564300107
H       -2.0478523214    0.8119773608    1.2252201780
H       -1.2699830335    1.5714317445   -1.1642066232
C       -0.4380223123   -0.7157706209    0.8358469253
H       -0.6522112732   -1.5435560351    1.5025551020
13   
Frame  19 IRC: Energy =  -286.8520130000 ; +3.4959 kcal/mol
C        1.5437059741    0.5800170883   -0.1795981447
C        0.8915227604   -0.7374434932    0.0102983197
C       -0.4219959476   -0.6901067334   -0.7116573328
C       -1.0474020618    0.6208405325    0.8544403197
C       -0.6136610348    0.9435787257   -0.5723905466
N        0.7453996737    1.5203883416   -0.5310353615
H        2.6009389420    0.7538890754   -0.0109604126
H        1.4786664214   -1.6463909787    0.0758956197
H       -0.7723966526   -1.5092297800   -1.3446324236
H       -2.0494946428    0.8106416611    1.2213978734
H       -1.2636110104    1.6070137946   -1.1457262348
C       -0.4417454890   -0.7172404776    0.8293703961
H       -0.6499269325   -1.5359577563    1.5045979281
13   
Frame  20 IRC: Energy =  -286.8488200000 ; +5.4995 kcal/mol
C        1.5382549949    0.5782533346   -0.1842636317
C        0.8904126161   -0.7383978845    0.0000897765
C       -0.4231112439   -0.7088713066   -0.7178884259
C       -1.0520611490    0.6163816408    0.8449660924
C       -0.6147768596    0.9614469166   -0.5685463950
N        0.7459768796    1.5222780579   -0.5250125225
H        2.5992246003    0.7499952827   -0.0130678941
H        1.4876782299   -1.6431846372    0.0805198321
H       -0.7638876934   -1.5532843013   -1.3350294369
H       -2.0529805295    0.8095056932    1.2182344927
H       -1.2600445463    1.6509246510   -1.1276795923
C       -0.4469433032   -0.7174830131    0.8188905380
H       -0.6477419958   -1.5275644341    1.5087871668
13   
Frame  21 IRC: Energy =  -286.8448590000 ; +7.9851 kcal/mol
C        1.5371629103    0.5756371205   -0.1881856557
C        0.8913875415   -0.7418658479   -0.0098892063
C       -0.4235589497   -0.7355854867   -0.7240173949
C       -1.0582296350    0.6127212655    0.8355652783
C       -0.6166220373    0.9895574655   -0.5621005349
N        0.7460062163    1.5265640224   -0.5206397447
H        2.5957916020    0.7467114101   -0.0147972930
H        1.4961658076   -1.6398731722    0.0849851996
H       -0.7567970806   -1.5960459227   -1.3273931311
H       -2.0552004678    0.8081649668    1.2148860199
H       -1.2576869064    1.6920775307   -1.1113097593
C       -0.4527296564   -0.7191240589    0.8097623378
H       -0.6456893444   -1.5189392930    1.5131338843
13   
Frame  22 IRC: Energy =  -286.8404170000 ; +10.7725 kcal/mol
C        1.5339171265    0.5735266487   -0.1924255934
C        0.8925062961   -0.7448571675   -0.0197582237
C       -0.4217295498   -0.7661784183   -0.7271749356
C       -1.0640088132    0.6082427582    0.8245868415
C       -0.6163855373    1.0236107174   -0.5510131455
N        0.7471593198    1.5296639922   -0.5176075021
H        2.5932148062    0.7443912152   -0.0158182685
H        1.5043606368   -1.6378368616    0.0890708670
H       -0.7516696893   -1.6367167212   -1.3223231362
H       -2.0574331507    0.8068672765    1.2117592590
H       -1.2576937950    1.7305098808   -1.0979150368
C       -0.4582715673   -0.7203466414    0.8009552063
H       -0.6439660829   -1.5108766790    1.5176636680
13   
Frame  23 IRC: Energy =  -286.8359120000 ; +13.5994 kcal/mol
C        1.5323511335    0.5709013473   -0.1958598620
C        0.8942603440   -0.7484844397   -0.0292190062
C       -0.4184767199   -0.8003248733   -0.7291517807
C       -1.0707277669    0.6038665572    0.8112271129
C       -0.6166786699    1.0632439425   -0.5360689787
N        0.7473014501    1.5323084781   -0.5168646098
H        2.5904444125    0.7425693929   -0.0164559494
H        1.5115471984   -1.6360008477    0.0926470235
H       -0.7476973212   -1.6729027817   -1.3182642231
H       -2.0585885556    0.8053212841    1.2082695385
H       -1.2581636211    1.7645456429   -1.0858374709
C       -0.4630403789   -0.7216102013    0.7934980622
H       -0.6425315049   -1.5034335013    1.5220801435
13   
Frame  24 IRC: Energy =  -286.8318570000 ; +16.1439 kcal/mol
C        1.5302033782    0.5685473521   -0.1993496859
C        0.8963510124   -0.7518044225   -0.0382694507
C       -0.4139366753   -0.8358109757   -0.7293825813
C       -1.0776110322    0.5989966961    0.7954541964
C       -0.6167631661    1.1053810397   -0.5179670330
N        0.7475321026    1.5337167311   -0.5174422728
H        2.5881679857    0.7411529054   -0.0167936859
H        1.5182028278   -1.6347357458    0.0959671105
H       -0.7448545505   -1.7059683632   -1.3151767075
H       -2.0594316081    0.8036225965    1.2045182720
H       -1.2593247821    1.7960379997   -1.0747704181
C       -0.4671827698   -0.7226796139    0.7866955577
H       -0.6413527224   -1.4964561992    1.5265166986
13   
Frame  25 IRC: Energy =  -286.8288970000 ; +18.0014 kcal/mol
C        1.5286834428    0.5659473674   -0.2024380151
C        0.8987231159   -0.7549536090   -0.0467512103
C       -0.4076207856   -0.8720976721   -0.7279646449
C       -1.0847030577    0.5934987056    0.7762851423
C       -0.6171395113    1.1500366807   -0.4958181339
N        0.7472670342    1.5339288418   -0.5202582471
H        2.5862263877    0.7402074796   -0.0169865816
H        1.5241707928   -1.6340345813    0.0991249208
H       -0.7435259634   -1.7344225669   -1.3132914704
H       -2.0599267142    0.8016531015    1.2002199937
H       -1.2612830401    1.8241707924   -1.0648809236
C       -0.4702760134   -0.7235749284    0.7817855370
H       -0.6405956877   -1.4903596113    1.5309736329
13   
Frame  26 IRC: Energy =  -286.8277710000 ; +18.7080 kcal/mol (Transition State)
C        1.5271616149    0.5634123278   -0.2056896714
C        0.9017880795   -0.7577642550   -0.0540552329
C       -0.3997619851   -0.9093564992   -0.7236404442
C       -1.0917998920    0.5884493491    0.7539130934
C       -0.6186440711    1.1952063768   -0.4707551608
N        0.7461445587    1.5330708114   -0.5247166154
H        2.5842454059    0.7392869406   -0.0172233921
H        1.5293006106   -1.6335815383    0.1021731103
H       -0.7433021420   -1.7580855149   -1.3122480933
H       -2.0595983633    0.7991291587    1.1948313508
H       -1.2628858659    1.8495114952   -1.0547894657
C       -0.4724768965   -0.7245314767    0.7773989413
H       -0.6401710536   -1.4847471756    1.5348015800
13   
Frame  27 IRC: Energy =  -286.8289310000 ; +17.9800 kcal/mol
C        1.5254904505    0.5607853509   -0.2090203854
C        0.9048390540   -0.7605418968   -0.0611983588
C       -0.3914816656   -0.9465116455   -0.7184625129
C       -1.0985935106    0.5839482073    0.7305558114
C       -0.6203539412    1.2397989260   -0.4447406286
N        0.7448314525    1.5322679814   -0.5294157835
H        2.5822936186    0.7383635209   -0.0174591010
H        1.5343176680   -1.6331380821    0.1052289079
H       -0.7432816582   -1.7812201275   -1.3114277142
H       -2.0593070112    0.7964973422    1.1893281143
H       -1.2644595788    1.8746778223   -1.0446606767
C       -0.4745064108   -0.7257697518    0.7727828791
H       -0.6397884672   -1.4791576474    1.5384894483
13   
Frame  28 IRC: Energy =  -286.8320120000 ; +16.0467 kcal/mol
C        1.5231072248    0.5582914583   -0.2134152723
C        0.9088763038   -0.7636508794   -0.0669517981
C       -0.3821154625   -0.9843758955   -0.7101921252
C       -1.1053622894    0.5804271619    0.7066539206
C       -0.6221909806    1.2826539476   -0.4186298624
N        0.7430286767    1.5318665969   -0.5346645009
H        2.5798774479    0.7372150049   -0.0182518924
H        1.5395523396   -1.6329168409    0.1088668895
H       -0.7442234445   -1.8021250863   -1.3115839450
H       -2.0589019418    0.7930929246    1.1822315791
H       -1.2656450579    1.9002621557   -1.0329681678
C       -0.4762890190   -0.7275008686    0.7672217095
H       -0.6397137971   -1.4732396791    1.5416834656
13   
Frame  29 IRC: Energy =  -286.8360690000 ; +13.5009 kcal/mol
C        1.5201007409    0.5558410012   -0.2189960003
C        0.9135583652   -0.7676695720   -0.0720356860
C       -0.3722973883   -1.0224588854   -0.7011181334
C       -1.1118266019    0.5773076483    0.6844338685
C       -0.6233008362    1.3228464073   -0.3945921074
N        0.7415330664    1.5326010615   -0.5396457056
H        2.5769136948    0.7359044412   -0.0201456849
H        1.5464465086   -1.6329078339    0.1139137384
H       -0.7458944454   -1.8234021522   -1.3128141063
H       -2.0595811854    0.7889914938    1.1736982150
H       -1.2669621962    1.9290767128   -1.0191469420
C       -0.4787063106   -0.7294887277    0.7613335848
H       -0.6399834119   -1.4666415950    1.5451149591
13   
Frame  30 IRC: Energy =  -286.8402920000 ; +10.8509 kcal/mol
C        1.5160819496    0.5534835488   -0.2263470395
C        0.9186811068   -0.7729948801   -0.0761822163
C       -0.3626461569   -1.0605397515   -0.6913651955
C       -1.1180942760    0.5752445874    0.6646127653
C       -0.6237600818    1.3577016349   -0.3747107468
N        0.7401105061    1.5352197611   -0.5433794339
H        2.5730143299    0.7340340866   -0.0238543440
H        1.5556857416   -1.6325865923    0.1210209378
H       -0.7476927894   -1.8454799504   -1.3146834890
H       -2.0613629033    0.7839859038    1.1632999252
H       -1.2673264626    1.9625507335   -1.0010694650
C       -0.4820005940   -0.7318950245    0.7538889622
H       -0.6406903698   -1.4587240573    1.5487693396
13   
Frame  31 IRC: Energy =  -286.8442820000 ; +8.3471 kcal/mol
C        1.5112413856    0.5511478867   -0.2347809818
C        0.9242401149   -0.7787446051   -0.0798904973
C       -0.3539163702   -1.0980865498   -0.6832236594
C       -1.1230606479    0.5735547815    0.6462409458
C       -0.6247246976    1.3868175297   -0.3585050249
N        0.7394038798    1.5385038006   -0.5458840866
H        2.5684402130    0.7316663248   -0.0293969361
H        1.5669513474   -1.6314923420    0.1300430827
H       -0.7488925899   -1.8676794502   -1.3165055119
H       -2.0647871622    0.7785106360    1.1518207203
H       -1.2665706840    1.9998227438   -0.9790269588
C       -0.4864998394   -0.7342972716    0.7466699659
H       -0.6418249495   -1.4497234844    1.5524389421
13   
Frame  32 IRC: Energy =  -286.8479550000 ; +6.0423 kcal/mol
C        1.5062058183    0.5484606619   -0.2440470363
C        0.9281652909   -0.7858157381   -0.0833599631
C       -0.3447643630   -1.1319376896   -0.6746906691
C       -1.1295029258    0.5721077083    0.6315675846
C       -0.6238979243    1.4086498343   -0.3478776848
N        0.7378497193    1.5429345013   -0.5471768628
H        2.5634084746    0.7285951004   -0.0373697878
H        1.5800472024   -1.6288222312    0.1411247349
H       -0.7495849011   -1.8909516484   -1.3187913089
H       -2.0685828662    0.7725523815    1.1387797712
H       -1.2645905719    2.0407984184   -0.9525405998
C       -0.4910955069   -0.7367792202    0.7378098358
H       -0.6436574463   -1.4397920786    1.5565719862
13   
Frame  33 IRC: Energy =  -286.8511870000 ; +4.0142 kcal/mol
C        1.5009262210    0.5456996315   -0.2530724253
C        0.9332214500   -0.7910180980   -0.0862546012
C       -0.3385466663   -1.1638725209   -0.6708856762
C       -1.1320081297    0.5702933872    0.6160052975
C       -0.6267971296    1.4243475769   -0.3397358675
N        0.7380733234    1.5456798799   -0.5477514668
H        2.5584807489    0.7250912884   -0.0469580580
H        1.5934115804   -1.6245502609    0.1532749868
H       -0.7480749099   -1.9112445625   -1.3195062811
H       -2.0750643058    0.7671711787    1.1265351204
H       -1.2605313215    2.0811255852   -0.9229076775
C       -0.4971765773   -0.7391324730    0.7315707419
H       -0.6459142837   -1.4295906126    1.5596859071
13   
Frame  34 IRC: Energy =  -286.8538350000 ; +2.3525 kcal/mol
C        1.4965328203    0.5429960108   -0.2611829993
C        0.9347765484   -0.7974711006   -0.0886742735
C       -0.3304585127   -1.1867514247   -0.6636741241
C       -1.1404067928    0.5683901874    0.6066061759
C       -0.6240287788    1.4357397721   -0.3351283161
N        0.7353880009    1.5485165592   -0.5489334700
H        2.5549518855    0.7214518647   -0.0572447881
H        1.6048556195   -1.6190836593    0.1647886318
H       -0.7467420169   -1.9311040876   -1.3213199764
H       -2.0783567578    0.7620729107    1.1139451162
H       -1.2570184103    2.1176691924   -0.8950367121
C       -0.5007830378   -0.7414656181    0.7226473842
H       -0.6487105676   -1.4209606071    1.5632073515
13   
Frame  35 IRC: Energy =  -286.8561320000 ; +0.9111 kcal/mol
C        1.4931070160    0.5402363036   -0.2685720984
C        0.9383084535   -0.8002544208   -0.0903353607
C       -0.3259863332   -1.2104483557   -0.6621863880
C       -1.1407246869    0.5657923288    0.5930610528
C       -0.6289926488    1.4458970419   -0.3299658127
N        0.7361638821    1.5498192852   -0.5499797533
H        2.5511121001    0.7178196637   -0.0679678612
H        1.6156959621   -1.6137859201    0.1763206477
H       -0.7429441916   -1.9467931266   -1.3210620804
H       -2.0858909397    0.7581472844    1.1040032583
H       -1.2513538595    2.1498634075   -0.8661652386
C       -0.5069383193   -0.7435732690    0.7181356960
H       -0.6515564349   -1.4127202229    1.5647139384
13   
Frame  36 IRC: Energy =  -286.8575850000 ; -0.0006 kcal/mol
C        1.4895064214    0.5389094672   -0.2740022745
C        0.9392865729   -0.8043582835   -0.0911011103
C       -0.3211030559   -1.2232771505   -0.6582033942
C       -1.1479128820    0.5651042416    0.5881301178
C       -0.6252317230    1.4506451219   -0.3269487398
N        0.7339621884    1.5512308624   -0.5509964867
H        2.5498111831    0.7152001472   -0.0760079894
H        1.6219055094   -1.6092422498    0.1840132989
H       -0.7406289380   -1.9585412500   -1.3217401362
H       -2.0873559233    0.7549611719    1.0956313168
H       -1.2490055025    2.1723499773   -0.8474108659
C       -0.5091923978   -0.7452352332    0.7122365070
H       -0.6540414528   -1.4077468226    1.5663997564
13   
Frame  37 IRC: Energy =  -286.8597230000 ; -1.3422 kcal/mol
C        1.4865951950    0.5358142726   -0.2820586838
C        0.9414885894   -0.8070822792   -0.0923034555
C       -0.3150616434   -1.2457859997   -0.6551501525
C       -1.1493595719    0.5617958000    0.5748598299
C       -0.6300845132    1.4613741505   -0.3221785305
N        0.7342229145    1.5526523417   -0.5525809023
H        2.5460548797    0.7108882917   -0.0899723922
H        1.6326779785   -1.6026156135    0.1973210261
H       -0.7350292570   -1.9760771229   -1.3219228729
H       -2.0954840923    0.7509633645    1.0845247546
H       -1.2418992748    2.2051571564   -0.8140575810
C       -0.5158828273   -0.7475454308    0.7062834560
H       -0.6582383772   -1.3995389314    1.5672355042
13   
Frame  38 IRC: Energy =  -286.8607760000 ; -2.0030 kcal/mol
C        1.4831031520    0.5349516854   -0.2867940734
C        0.9428120448   -0.8102508402   -0.0922317696
C       -0.3115935788   -1.2562350737   -0.6529173226
C       -1.1556177571    0.5616613657    0.5708618868
C       -0.6263024432    1.4642041992   -0.3190020628
N        0.7324160867    1.5537916488   -0.5534892304
H        2.5455034622    0.7085571165   -0.0979333248
H        1.6370391537   -1.5982714650    0.2040591028
H       -0.7317701844   -1.9853215206   -1.3221162684
H       -2.0968165825    0.7484435704    1.0775548926
H       -1.2397437834    2.2231540280   -0.7975858120
C       -0.5180327991   -0.7488925860    0.7015828831
H       -0.6609967711   -1.3957921285    1.5680110988
13   