13   
Frame   0 IRC: Energy =  -286.8575840000 ; +0.0000 kcal/mol
C       -0.0602500000   -0.0012600000   -0.0000000000
C       -0.0842500000    0.0049420000    0.0000000000
C       -0.1020400000    0.1452090000   -0.0000000000
C       -0.0508870000    1.0253740000    0.0000000000
C       -0.1513960000   -0.1036160000   -0.0000000000
N       -0.1940170000    0.0238470000   -0.0000000000
H        0.1327140000    0.0042130000    0.0000000000
H        0.1389830000    0.0022100000    0.0000000000
H        0.1352860000    0.0086370000   -0.0000000000
H        0.1352970000   -0.0386840000    0.0000000000
H        0.1342970000    0.0051420000   -0.0000000000
C       -0.1749320000   -0.0759440000    0.0000000000
H        0.1411950000   -0.0000690000    0.0000000000
13   
Frame   1 IRC: Energy =  -286.8575780000 ; +0.0038 kcal/mol
C       -0.0599550000   -0.0014010000   -0.0000000000
C       -0.0843780000    0.0045990000    0.0000000000
C       -0.1021150000    0.1452980000   -0.0000000000
C       -0.0510320000    1.0250230000    0.0000000000
C       -0.1516270000   -0.1032950000   -0.0000000000
N       -0.1939810000    0.0238180000   -0.0000000000
H        0.1327150000    0.0042040000    0.0000000000
H        0.1389770000    0.0022100000    0.0000000000
H        0.1352650000    0.0086520000   -0.0000000000
H        0.1352820000   -0.0385850000    0.0000000000
H        0.1343130000    0.0050950000   -0.0000000000
C       -0.1746720000   -0.0755330000    0.0000000000
H        0.1412080000   -0.0000860000    0.0000000000
13   
Frame   2 IRC: Energy =  -286.8575730000 ; +0.0069 kcal/mol
C       -0.0600250000   -0.0014950000   -0.0000000000
C       -0.0843880000    0.0043610000    0.0000000000
C       -0.1017270000    0.1453410000   -0.0000000000
C       -0.0508710000    1.0246260000    0.0000000000
C       -0.1520150000   -0.1030160000   -0.0000000000
N       -0.1938980000    0.0237900000   -0.0000000000
H        0.1327310000    0.0042100000    0.0000000000
H        0.1389820000    0.0022040000    0.0000000000
H        0.1353130000    0.0086870000   -0.0000000000
H        0.1352820000   -0.0385040000    0.0000000000
H        0.1343330000    0.0050570000   -0.0000000000
C       -0.1749460000   -0.0751550000    0.0000000000
H        0.1412280000   -0.0001050000    0.0000000000
13   
Frame   3 IRC: Energy =  -286.8575670000 ; +0.0107 kcal/mol
C       -0.0597210000   -0.0016470000   -0.0000000000
C       -0.0845300000    0.0039940000    0.0000000000
C       -0.1017850000    0.1454300000   -0.0000000000
C       -0.0510250000    1.0242400000    0.0000000000
C       -0.1522880000   -0.1026590000   -0.0000000000
N       -0.1938520000    0.0237580000   -0.0000000000
H        0.1327330000    0.0042010000    0.0000000000
H        0.1389780000    0.0022040000    0.0000000000
H        0.1352900000    0.0087020000   -0.0000000000
H        0.1352670000   -0.0383950000    0.0000000000
H        0.1343480000    0.0050050000   -0.0000000000
C       -0.1746590000   -0.0747100000    0.0000000000
H        0.1412440000   -0.0001240000    0.0000000000
13   
Frame   4 IRC: Energy =  -286.8575620000 ; +0.0138 kcal/mol
C       -0.0597810000   -0.0017430000   -0.0000000000
C       -0.0845550000    0.0037490000    0.0000000000
C       -0.1013680000    0.1454740000   -0.0000000000
C       -0.0508590000    1.0238230000    0.0000000000
C       -0.1526770000   -0.1023760000   -0.0000000000
N       -0.1937690000    0.0237310000   -0.0000000000
H        0.1327500000    0.0042060000    0.0000000000
H        0.1389810000    0.0021980000    0.0000000000
H        0.1353430000    0.0087400000   -0.0000000000
H        0.1352690000   -0.0383110000    0.0000000000
H        0.1343700000    0.0049680000   -0.0000000000
C       -0.1749660000   -0.0743150000    0.0000000000
H        0.1412630000   -0.0001440000    0.0000000000
13   
Frame   5 IRC: Energy =  -286.8575540000 ; +0.0188 kcal/mol
C       -0.0594620000   -0.0019110000   -0.0000000000
C       -0.0847250000    0.0033440000    0.0000000000
C       -0.1013810000    0.1455650000   -0.0000000000
C       -0.0510180000    1.0233800000    0.0000000000
C       -0.1530200000   -0.1019660000   -0.0000000000
N       -0.1937090000    0.0236930000   -0.0000000000
H        0.1327530000    0.0041960000    0.0000000000
H        0.1389780000    0.0021980000    0.0000000000
H        0.1353210000    0.0087570000   -0.0000000000
H        0.1352530000   -0.0381880000    0.0000000000
H        0.1343860000    0.0049090000   -0.0000000000
C       -0.1746600000   -0.0738140000    0.0000000000
H        0.1412840000   -0.0001640000    0.0000000000
13   
Frame   6 IRC: Energy =  -286.8575480000 ; +0.0226 kcal/mol
C       -0.0595090000   -0.0020100000   -0.0000000000
C       -0.0847670000    0.0030920000    0.0000000000
C       -0.1009400000    0.1456130000   -0.0000000000
C       -0.0508510000    1.0229400000    0.0000000000
C       -0.1534030000   -0.1016770000   -0.0000000000
N       -0.1936260000    0.0236660000   -0.0000000000
H        0.1327690000    0.0042010000    0.0000000000
H        0.1389800000    0.0021910000    0.0000000000
H        0.1353770000    0.0087970000   -0.0000000000
H        0.1352560000   -0.0380990000    0.0000000000
H        0.1344110000    0.0048720000   -0.0000000000
C       -0.1749990000   -0.0734000000    0.0000000000
H        0.1413020000   -0.0001850000    0.0000000000
13   
Frame   7 IRC: Energy =  -286.8575390000 ; +0.0282 kcal/mol
C       -0.0591640000   -0.0022000000   -0.0000000000
C       -0.0849910000    0.0026390000    0.0000000000
C       -0.1008650000    0.1457010000   -0.0000000000
C       -0.0510080000    1.0224220000    0.0000000000
C       -0.1538460000   -0.1011980000   -0.0000000000
N       -0.1935480000    0.0236210000   -0.0000000000
H        0.1327760000    0.0041910000    0.0000000000
H        0.1389770000    0.0021910000    0.0000000000
H        0.1353580000    0.0088190000   -0.0000000000
H        0.1352410000   -0.0379560000    0.0000000000
H        0.1344280000    0.0048040000   -0.0000000000
C       -0.1746860000   -0.0728250000    0.0000000000
H        0.1413300000   -0.0002080000    0.0000000000
13   
Frame   8 IRC: Energy =  -286.8575320000 ; +0.0326 kcal/mol
C       -0.0592050000   -0.0022980000   -0.0000000000
C       -0.0850450000    0.0023850000    0.0000000000
C       -0.1004170000    0.1457530000   -0.0000000000
C       -0.0508440000    1.0219710000    0.0000000000
C       -0.1542010000   -0.1009150000   -0.0000000000
N       -0.1934680000    0.0235950000   -0.0000000000
H        0.1327910000    0.0041960000    0.0000000000
H        0.1389800000    0.0021850000    0.0000000000
H        0.1354170000    0.0088590000   -0.0000000000
H        0.1352460000   -0.0378660000    0.0000000000
H        0.1344560000    0.0047690000   -0.0000000000
C       -0.1750570000   -0.0724030000    0.0000000000
H        0.1413470000   -0.0002310000    0.0000000000
13   
Frame   9 IRC: Energy =  -286.8575210000 ; +0.0395 kcal/mol
C       -0.0588220000   -0.0025090000   -0.0000000000
C       -0.0853640000    0.0018900000    0.0000000000
C       -0.1001980000    0.1458290000   -0.0000000000
C       -0.0509930000    1.0213790000    0.0000000000
C       -0.1547600000   -0.1003670000   -0.0000000000
N       -0.1933710000    0.0235430000   -0.0000000000
H        0.1328010000    0.0041860000    0.0000000000
H        0.1389750000    0.0021840000    0.0000000000
H        0.1354030000    0.0088870000   -0.0000000000
H        0.1352320000   -0.0377030000    0.0000000000
H        0.1344740000    0.0046910000   -0.0000000000
C       -0.1747590000   -0.0717530000    0.0000000000
H        0.1413810000   -0.0002570000    0.0000000000
13   
Frame  10 IRC: Energy =  -286.8575130000 ; +0.0446 kcal/mol
C       -0.0588680000   -0.0026060000   -0.0000000000
C       -0.0854240000    0.0016350000    0.0000000000
C       -0.0997760000    0.1458840000   -0.0000000000
C       -0.0508450000    1.0209260000    0.0000000000
C       -0.1550550000   -0.1000930000   -0.0000000000
N       -0.1932930000    0.0235180000   -0.0000000000
H        0.1328190000    0.0041910000    0.0000000000
H        0.1389830000    0.0021780000    0.0000000000
H        0.1354650000    0.0089260000   -0.0000000000
H        0.1352400000   -0.0376120000    0.0000000000
H        0.1345050000    0.0046610000   -0.0000000000
C       -0.1751510000   -0.0713280000    0.0000000000
H        0.1413980000   -0.0002800000    0.0000000000
13   
Frame  11 IRC: Energy =  -286.8575000000 ; +0.0527 kcal/mol
C       -0.0584130000   -0.0028330000   -0.0000000000
C       -0.0858890000    0.0011250000    0.0000000000
C       -0.0992930000    0.1459430000   -0.0000000000
C       -0.0509300000    1.0202670000    0.0000000000
C       -0.1557930000   -0.0994940000   -0.0000000000
N       -0.1931930000    0.0234670000   -0.0000000000
H        0.1328250000    0.0041790000    0.0000000000
H        0.1389730000    0.0021760000    0.0000000000
H        0.1354560000    0.0089600000   -0.0000000000
H        0.1352300000   -0.0374330000    0.0000000000
H        0.1345190000    0.0045760000   -0.0000000000
C       -0.1749280000   -0.0706250000    0.0000000000
H        0.1414370000   -0.0003090000    0.0000000000
13   
Frame  12 IRC: Energy =  -286.8574920000 ; +0.0577 kcal/mol
C       -0.0583870000   -0.0029150000   -0.0000000000
C       -0.0859630000    0.0009500000    0.0000000000
C       -0.0988520000    0.1459900000   -0.0000000000
C       -0.0507150000    1.0198650000    0.0000000000
C       -0.1560810000   -0.0992940000   -0.0000000000
N       -0.1931350000    0.0234630000   -0.0000000000
H        0.1328200000    0.0041890000    0.0000000000
H        0.1389810000    0.0021720000    0.0000000000
H        0.1355050000    0.0089930000   -0.0000000000
H        0.1352400000   -0.0373660000    0.0000000000
H        0.1345380000    0.0045580000   -0.0000000000
C       -0.1753940000   -0.0702770000    0.0000000000
H        0.1414450000   -0.0003290000    0.0000000000
13   
Frame  13 IRC: Energy =  -286.8573200000 ; +0.1657 kcal/mol
C       -0.0570970000   -0.0034830000   -0.0000000000
C       -0.0894130000   -0.0005560000    0.0000000000
C       -0.0971500000    0.1473240000   -0.0000000000
C       -0.0490420000    1.0171070000    0.0000000000
C       -0.1560380000   -0.0976540000   -0.0000000000
N       -0.1933340000    0.0234170000   -0.0000000000
H        0.1327480000    0.0041510000    0.0000000000
H        0.1388720000    0.0021980000    0.0000000000
H        0.1359350000    0.0091730000   -0.0000000000
H        0.1353690000   -0.0369510000    0.0000000000
H        0.1345620000    0.0043740000   -0.0000000000
C       -0.1770490000   -0.0686990000    0.0000000000
H        0.1416380000   -0.0004030000    0.0000000000
13   
Frame  14 IRC: Energy =  -286.8572860000 ; +0.1870 kcal/mol
C       -0.0575920000   -0.0034860000   -0.0000000000
C       -0.0891640000   -0.0006690000    0.0000000000
C       -0.0968450000    0.1475290000   -0.0000000000
C       -0.0487240000    1.0167440000    0.0000000000
C       -0.1557970000   -0.0976390000   -0.0000000000
N       -0.1933470000    0.0234090000   -0.0000000000
H        0.1327500000    0.0041730000    0.0000000000
H        0.1389670000    0.0022020000    0.0000000000
H        0.1361250000    0.0092230000   -0.0000000000
H        0.1354190000   -0.0369260000    0.0000000000
H        0.1346100000    0.0043990000   -0.0000000000
C       -0.1780630000   -0.0685350000    0.0000000000
H        0.1416590000   -0.0004230000    0.0000000000
13   
Frame  15 IRC: Energy =  -286.8565590000 ; +0.6432 kcal/mol
C       -0.0559000000   -0.0036750000   -0.0000000000
C       -0.0930810000   -0.0009220000    0.0000000000
C       -0.0980350000    0.1501070000   -0.0000000000
C       -0.0452440000    1.0140450000    0.0000000000
C       -0.1534550000   -0.0967420000   -0.0000000000
N       -0.1938450000    0.0236650000   -0.0000000000
H        0.1324890000    0.0041190000   -0.0000000000
H        0.1386230000    0.0022830000    0.0000000000
H        0.1366720000    0.0093120000   -0.0000000000
H        0.1355970000   -0.0370260000    0.0000000000
H        0.1344190000    0.0043750000   -0.0000000000
C       -0.1799170000   -0.0691640000    0.0000000000
H        0.1416760000   -0.0003770000    0.0000000000
13   
Frame  16 IRC: Energy =  -286.8563090000 ; +0.8001 kcal/mol
C       -0.0571550000   -0.0036110000   -0.0000000000
C       -0.0925440000   -0.0009950000    0.0000000000
C       -0.0979980000    0.1506260000   -0.0000000000
C       -0.0447590000    1.0134780000    0.0000000000
C       -0.1527530000   -0.0968590000   -0.0000000000
N       -0.1939320000    0.0237300000   -0.0000000000
H        0.1324810000    0.0041640000   -0.0000000000
H        0.1389330000    0.0023230000    0.0000000000
H        0.1372290000    0.0094540000   -0.0000000000
H        0.1357280000   -0.0370900000    0.0000000000
H        0.1345020000    0.0044650000   -0.0000000000
C       -0.1815130000   -0.0692950000    0.0000000000
H        0.1417790000   -0.0003900000    0.0000000000
13   
Frame  17 IRC: Energy =  -286.8548340000 ; +1.7257 kcal/mol
C       -0.0555160000   -0.0037550000   -0.0000000000
C       -0.0955170000   -0.0002830000    0.0000000000
C       -0.1023100000    0.1538130000   -0.0000000000
C       -0.0405070000    1.0105410000    0.0000000000
C       -0.1492050000   -0.0962060000   -0.0000000000
N       -0.1940920000    0.0241770000   -0.0000000000
H        0.1321810000    0.0040820000   -0.0000000000
H        0.1384110000    0.0024450000    0.0000000000
H        0.1376950000    0.0095360000   -0.0000000000
H        0.1358800000   -0.0374320000    0.0000000000
H        0.1342450000    0.0045230000   -0.0000000000
C       -0.1828490000   -0.0711700000    0.0000000000
H        0.1415840000   -0.0002710000    0.0000000000
13   
Frame  18 IRC: Energy =  -286.8541020000 ; +2.1850 kcal/mol
C       -0.0575070000   -0.0037580000   -0.0000000000
C       -0.0942470000   -0.0000430000    0.0000000000
C       -0.1035740000    0.1547940000   -0.0000000000
C       -0.0397000000    1.0095270000    0.0000000000
C       -0.1483290000   -0.0964690000   -0.0000000000
N       -0.1938710000    0.0244620000   -0.0000000000
H        0.1320870000    0.0041720000   -0.0000000000
H        0.1389820000    0.0025580000    0.0000000000
H        0.1386290000    0.0098700000   -0.0000000000
H        0.1361040000   -0.0376480000    0.0000000000
H        0.1343560000    0.0047000000   -0.0000000000
C       -0.1847080000   -0.0719070000    0.0000000000
H        0.1417780000   -0.0002580000    0.0000000000
13   
Frame  19 IRC: Energy =  -286.8520130000 ; +3.4959 kcal/mol
C       -0.0570560000   -0.0039390000   -0.0000000000
C       -0.0960110000    0.0009090000    0.0000000000
C       -0.1102290000    0.1584360000   -0.0000000000
C       -0.0352610000    1.0062060000    0.0000000000
C       -0.1439740000   -0.0957140000   -0.0000000000
N       -0.1937340000    0.0249230000   -0.0000000000
H        0.1321110000    0.0039750000   -0.0000000000
H        0.1383670000    0.0027190000    0.0000000000
H        0.1388180000    0.0099720000   -0.0000000000
H        0.1362190000   -0.0380020000    0.0000000000
H        0.1340670000    0.0047690000   -0.0000000000
C       -0.1848020000   -0.0741510000    0.0000000000
H        0.1414840000   -0.0001040000    0.0000000000
13   
Frame  20 IRC: Energy =  -286.8488200000 ; +5.4995 kcal/mol
C       -0.0593100000   -0.0053490000   -0.0000000000
C       -0.0930700000    0.0026490000    0.0000000000
C       -0.1219310000    0.1638980000   -0.0000000000
C       -0.0305440000    1.0013540000    0.0000000000
C       -0.1408300000   -0.0959960000   -0.0000000000
N       -0.1910140000    0.0262480000   -0.0000000000
H        0.1316700000    0.0040190000   -0.0000000000
H        0.1389730000    0.0032070000    0.0000000000
H        0.1398480000    0.0110500000   -0.0000000000
H        0.1366120000   -0.0386490000    0.0000000000
H        0.1338500000    0.0051080000   -0.0000000000
C       -0.1858120000   -0.0776150000    0.0000000000
H        0.1415570000    0.0000780000    0.0000000000
13   
Frame  21 IRC: Energy =  -286.8448590000 ; +7.9851 kcal/mol
C       -0.0623300000   -0.0080100000   -0.0000000000
C       -0.0887570000    0.0039350000   -0.0000000000
C       -0.1398730000    0.1744750000   -0.0000000000
C       -0.0237910000    0.9934380000    0.0000000000
C       -0.1370980000   -0.0967880000   -0.0000000000
N       -0.1868710000    0.0279350000   -0.0000000000
H        0.1318150000    0.0038260000   -0.0000000000
H        0.1393460000    0.0039980000    0.0000000000
H        0.1394410000    0.0122830000   -0.0000000000
H        0.1369450000   -0.0394020000    0.0000000000
H        0.1329790000    0.0054270000   -0.0000000000
C       -0.1832860000   -0.0814580000    0.0000000000
H        0.1414790000    0.0003410000    0.0000000000
13   
Frame  22 IRC: Energy =  -286.8404170000 ; +10.7725 kcal/mol
C       -0.0650200000   -0.0122940000   -0.0000000000
C       -0.0823680000    0.0045080000   -0.0000000000
C       -0.1632640000    0.1946430000   -0.0000000000
C       -0.0174000000    0.9806390000    0.0000000000
C       -0.1345790000   -0.1010220000   -0.0000000000
N       -0.1803270000    0.0299250000   -0.0000000000
H        0.1319280000    0.0036310000   -0.0000000000
H        0.1400770000    0.0053250000    0.0000000000
H        0.1382380000    0.0139510000   -0.0000000000
H        0.1374310000   -0.0402580000    0.0000000000
H        0.1317530000    0.0059170000   -0.0000000000
C       -0.1778630000   -0.0855930000    0.0000000000
H        0.1413930000    0.0006280000    0.0000000000
13   
Frame  23 IRC: Energy =  -286.8359120000 ; +13.5994 kcal/mol
C       -0.0665130000   -0.0184910000   -0.0000000000
C       -0.0761610000    0.0033780000   -0.0000000000
C       -0.1917620000    0.2329820000   -0.0000000000
C       -0.0114920000    0.9582940000    0.0000000000
C       -0.1322200000   -0.1116490000   -0.0000000000
N       -0.1725970000    0.0321600000   -0.0000000000
H        0.1324920000    0.0033160000   -0.0000000000
H        0.1406910000    0.0074140000    0.0000000000
H        0.1359580000    0.0154320000   -0.0000000000
H        0.1380360000   -0.0409760000    0.0000000000
H        0.1302340000    0.0066300000   -0.0000000000
C       -0.1677850000   -0.0894230000    0.0000000000
H        0.1411200000    0.0009340000    0.0000000000
13   
Frame  24 IRC: Energy =  -286.8318570000 ; +16.1439 kcal/mol
C       -0.0663850000   -0.0272290000   -0.0000000000
C       -0.0712470000    0.0003240000   -0.0000000000
C       -0.2220410000    0.2986530000   -0.0000000000
C       -0.0073910000    0.9212720000    0.0000000000
C       -0.1305860000   -0.1329570000   -0.0000000000
N       -0.1640340000    0.0345930000   -0.0000000000
H        0.1330900000    0.0030100000   -0.0000000000
H        0.1413010000    0.0105730000    0.0000000000
H        0.1334070000    0.0163620000   -0.0000000000
H        0.1389090000   -0.0410930000    0.0000000000
H        0.1289020000    0.0077060000   -0.0000000000
C       -0.1546560000   -0.0924110000    0.0000000000
H        0.1407310000    0.0011960000    0.0000000000
13   
Frame  25 IRC: Energy =  -286.8288970000 ; +18.0014 kcal/mol
C       -0.0653880000   -0.0389330000   -0.0000000000
C       -0.0688140000   -0.0056920000   -0.0000000000
C       -0.2496600000    0.4047490000   -0.0000000000
C       -0.0039890000    0.8570980000    0.0000000000
C       -0.1303350000   -0.1663710000   -0.0000000000
N       -0.1558910000    0.0374030000   -0.0000000000
H        0.1337540000    0.0027590000   -0.0000000000
H        0.1418290000    0.0152490000    0.0000000000
H        0.1309860000    0.0156420000   -0.0000000000
H        0.1401110000   -0.0398800000    0.0000000000
H        0.1279310000    0.0092360000   -0.0000000000
C       -0.1409040000   -0.0926070000    0.0000000000
H        0.1403690000    0.0013470000    0.0000000000
13   
Frame  26 IRC: Energy =  -286.8277710000 ; +18.7080 kcal/mol (Transition State)
C       -0.0653230000   -0.0512260000   -0.0000000000
C       -0.0700520000   -0.0147950000   -0.0000000000
C       -0.2644340000    0.5452810000   -0.0000000000
C       -0.0002500000    0.7550410000    0.0000000000
C       -0.1354400000   -0.1983860000   -0.0000000000
N       -0.1497130000    0.0396710000   -0.0000000000
H        0.1341230000    0.0025820000   -0.0000000000
H        0.1423210000    0.0212130000    0.0000000000
H        0.1293440000    0.0118440000   -0.0000000000
H        0.1414600000   -0.0363650000    0.0000000000
H        0.1272900000    0.0107170000   -0.0000000000
C       -0.1294800000   -0.0869960000    0.0000000000
H        0.1401560000    0.0014190000    0.0000000000
13   
Frame  27 IRC: Energy =  -286.8289310000 ; +17.9800 kcal/mol
C       -0.0674540000   -0.0563920000   -0.0000000000
C       -0.0721460000   -0.0255290000   -0.0000000000
C       -0.2623270000    0.6835700000   -0.0000000000
C        0.0027490000    0.6205640000    0.0000000000
C       -0.1468740000   -0.2020750000   -0.0000000000
N       -0.1464280000    0.0389820000   -0.0000000000
H        0.1341230000    0.0022550000   -0.0000000000
H        0.1428440000    0.0272210000    0.0000000000
H        0.1292280000    0.0054350000   -0.0000000000
H        0.1427250000   -0.0304590000    0.0000000000
H        0.1272480000    0.0109730000   -0.0000000000
C       -0.1239360000   -0.0761910000    0.0000000000
H        0.1402480000    0.0016460000    0.0000000000
13   
Frame  28 IRC: Energy =  -286.8320120000 ; +16.0467 kcal/mol
C       -0.0704520000   -0.0507190000   -0.0000000000
C       -0.0721030000   -0.0359760000   -0.0000000000
C       -0.2474000000    0.7944540000   -0.0000000000
C        0.0057440000    0.4721750000    0.0000000000
C       -0.1656920000   -0.1705770000   -0.0000000000
N       -0.1459840000    0.0346290000   -0.0000000000
H        0.1338440000    0.0016990000   -0.0000000000
H        0.1434520000    0.0322630000    0.0000000000
H        0.1303880000   -0.0026020000   -0.0000000000
H        0.1434640000   -0.0230070000    0.0000000000
H        0.1276040000    0.0094180000   -0.0000000000
C       -0.1232560000   -0.0642230000    0.0000000000
H        0.1403910000    0.0024670000    0.0000000000
13   
Frame  29 IRC: Energy =  -286.8360690000 ; +13.5009 kcal/mol
C       -0.0722060000   -0.0378860000   -0.0000000000
C       -0.0686440000   -0.0439930000   -0.0000000000
C       -0.2297670000    0.8712130000   -0.0000000000
C        0.0065840000    0.3410360000    0.0000000000
C       -0.1858750000   -0.1241910000   -0.0000000000
N       -0.1477080000    0.0284020000   -0.0000000000
H        0.1334880000    0.0011560000   -0.0000000000
H        0.1440880000    0.0360230000    0.0000000000
H        0.1323940000   -0.0104090000   -0.0000000000
H        0.1436530000   -0.0157370000    0.0000000000
H        0.1283110000    0.0068090000   -0.0000000000
C       -0.1248340000   -0.0562350000    0.0000000000
H        0.1405160000    0.0038110000    0.0000000000
13   
Frame  30 IRC: Energy =  -286.8402920000 ; +10.8509 kcal/mol
C       -0.0734190000   -0.0253070000   -0.0000000000
C       -0.0626230000   -0.0490140000   -0.0000000000
C       -0.2153190000    0.9215310000   -0.0000000000
C        0.0052320000    0.2458330000    0.0000000000
C       -0.2027370000   -0.0847840000   -0.0000000000
N       -0.1504320000    0.0228840000   -0.0000000000
H        0.1330930000    0.0009280000   -0.0000000000
H        0.1446490000    0.0386500000    0.0000000000
H        0.1346100000   -0.0172210000   -0.0000000000
H        0.1433490000   -0.0099880000    0.0000000000
H        0.1287550000    0.0043460000   -0.0000000000
C       -0.1256710000   -0.0533950000    0.0000000000
H        0.1405130000    0.0055360000    0.0000000000
13   
Frame  31 IRC: Energy =  -286.8442820000 ; +8.3471 kcal/mol
C       -0.0744700000   -0.0156350000   -0.0000000000
C       -0.0551420000   -0.0518100000   -0.0000000000
C       -0.2050180000    0.9563540000   -0.0000000000
C        0.0031840000    0.1809060000    0.0000000000
C       -0.2153420000   -0.0568440000   -0.0000000000
N       -0.1537840000    0.0187580000   -0.0000000000
H        0.1325890000    0.0009810000   -0.0000000000
H        0.1450480000    0.0403430000    0.0000000000
H        0.1365870000   -0.0227810000   -0.0000000000
H        0.1428850000   -0.0058130000    0.0000000000
H        0.1290120000    0.0024780000   -0.0000000000
C       -0.1261250000   -0.0542190000    0.0000000000
H        0.1405760000    0.0072800000    0.0000000000
13   
Frame  32 IRC: Energy =  -286.8479550000 ; +6.0423 kcal/mol
C       -0.0776260000   -0.0097190000   -0.0000000000
C       -0.0471120000   -0.0541650000   -0.0000000000
C       -0.1983560000    0.9781970000   -0.0000000000
C        0.0001990000    0.1440750000    0.0000000000
C       -0.2231590000   -0.0418270000   -0.0000000000
N       -0.1554710000    0.0164200000   -0.0000000000
H        0.1321760000    0.0013020000   -0.0000000000
H        0.1452260000    0.0421050000    0.0000000000
H        0.1386980000   -0.0270310000   -0.0000000000
H        0.1422310000   -0.0031780000    0.0000000000
H        0.1285750000    0.0013820000   -0.0000000000
C       -0.1259650000   -0.0566980000    0.0000000000
H        0.1405830000    0.0091380000    0.0000000000
13   
Frame  33 IRC: Energy =  -286.8511870000 ; +4.0142 kcal/mol
C       -0.0808160000   -0.0062220000   -0.0000000000
C       -0.0387570000   -0.0550220000   -0.0000000000
C       -0.1939080000    0.9965440000   -0.0000000000
C        0.0010320000    0.1173160000    0.0000000000
C       -0.2295460000   -0.0311580000   -0.0000000000
N       -0.1584800000    0.0144070000   -0.0000000000
H        0.1314570000    0.0015800000   -0.0000000000
H        0.1452080000    0.0426420000    0.0000000000
H        0.1397740000   -0.0301330000   -0.0000000000
H        0.1418810000   -0.0013060000    0.0000000000
H        0.1283320000    0.0006270000   -0.0000000000
C       -0.1270540000   -0.0597730000    0.0000000000
H        0.1408770000    0.0104970000    0.0000000000
13   
Frame  34 IRC: Energy =  -286.8538350000 ; +2.3525 kcal/mol
C       -0.0845640000   -0.0038070000   -0.0000000000
C       -0.0332460000   -0.0569270000   -0.0000000000
C       -0.1916960000    1.0046550000   -0.0000000000
C       -0.0019230000    0.1057890000    0.0000000000
C       -0.2323080000   -0.0274480000   -0.0000000000
N       -0.1578200000    0.0136450000   -0.0000000000
H        0.1312390000    0.0020070000   -0.0000000000
H        0.1450630000    0.0442410000    0.0000000000
H        0.1416050000   -0.0323740000   -0.0000000000
H        0.1412010000   -0.0002320000    0.0000000000
H        0.1273440000    0.0002970000   -0.0000000000
C       -0.1256880000   -0.0620550000    0.0000000000
H        0.1407910000    0.0122080000    0.0000000000
13   
Frame  35 IRC: Energy =  -286.8561320000 ; +0.9111 kcal/mol
C       -0.0871470000   -0.0027530000   -0.0000000000
C       -0.0266900000   -0.0570110000   -0.0000000000
C       -0.1901730000    1.0157980000   -0.0000000000
C        0.0010760000    0.0918340000    0.0000000000
C       -0.2366770000   -0.0221390000   -0.0000000000
N       -0.1615340000    0.0124240000   -0.0000000000
H        0.1306500000    0.0022270000   -0.0000000000
H        0.1449130000    0.0444100000    0.0000000000
H        0.1420940000   -0.0340540000   -0.0000000000
H        0.1411070000    0.0008350000    0.0000000000
H        0.1274210000   -0.0000500000   -0.0000000000
C       -0.1263190000   -0.0645820000    0.0000000000
H        0.1412780000    0.0130630000    0.0000000000
13   
Frame  36 IRC: Energy =  -286.8575850000 ; -0.0006 kcal/mol
C       -0.0890170000   -0.0018350000   -0.0000000000
C       -0.0237920000   -0.0577780000   -0.0000000000
C       -0.1903830000    1.0187620000   -0.0000000000
C       -0.0009550000    0.0885320000    0.0000000000
C       -0.2374310000   -0.0216570000   -0.0000000000
N       -0.1599040000    0.0121730000   -0.0000000000
H        0.1304780000    0.0025220000   -0.0000000000
H        0.1448010000    0.0450170000    0.0000000000
H        0.1430150000   -0.0350620000   -0.0000000000
H        0.1406150000    0.0011990000    0.0000000000
H        0.1265330000   -0.0001330000   -0.0000000000
C       -0.1250900000   -0.0659180000    0.0000000000
H        0.1411300000    0.0141760000    0.0000000000
13   
Frame  37 IRC: Energy =  -286.8597230000 ; -1.3422 kcal/mol
C       -0.0916050000   -0.0013010000   -0.0000000000
C       -0.0179100000   -0.0581230000   -0.0000000000
C       -0.1898230000    1.0268860000   -0.0000000000
C        0.0014640000    0.0789080000    0.0000000000
C       -0.2408810000   -0.0183570000   -0.0000000000
N       -0.1636840000    0.0113060000   -0.0000000000
H        0.1300280000    0.0028040000   -0.0000000000
H        0.1445990000    0.0457150000    0.0000000000
H        0.1438350000   -0.0364890000   -0.0000000000
H        0.1404260000    0.0020900000    0.0000000000
H        0.1266720000   -0.0003410000   -0.0000000000
C       -0.1247970000   -0.0683190000    0.0000000000
H        0.1416760000    0.0152220000    0.0000000000
13   
Frame  38 IRC: Energy =  -286.8607760000 ; -2.0030 kcal/mol
C       -0.0927100000   -0.0009450000   -0.0000000000
C       -0.0156670000   -0.0582230000   -0.0000000000
C       -0.1909380000    1.0291120000   -0.0000000000
C        0.0004100000    0.0772740000    0.0000000000
C       -0.2413280000   -0.0184860000   -0.0000000000
N       -0.1620350000    0.0111230000   -0.0000000000
H        0.1298130000    0.0030350000   -0.0000000000
H        0.1445360000    0.0456530000    0.0000000000
H        0.1443120000   -0.0370910000   -0.0000000000
H        0.1400370000    0.0022490000    0.0000000000
H        0.1258860000   -0.0003700000   -0.0000000000
C       -0.1238750000   -0.0694050000    0.0000000000
H        0.1415590000    0.0160740000    0.0000000000
13   