
Running Job 1 of 1 irc_product.in
qchem irc_product.in_2027.0 ./irc_product.d/ 1
/home/leeping/opt/qchem/5.0.2-openmp/exe/qcprog.exe_s irc_product.in_2027.0 ./irc_product.d/
Check license passed

                  Welcome to Q-Chem
     A Quantum Leap Into The Future Of Chemistry


 Q-Chem 5.0, Q-Chem, Inc., Pleasanton, CA (2017)

 Yihan Shao,  Zhengting Gan,  E. Epifanovsky,  A. T. B. Gilbert,  M. Wormit,  
 J. Kussmann,  A. W. Lange,  A. Behn,  Jia Deng,  Xintian Feng,  D. Ghosh,  
 M. Goldey,  P. R. Horn,  L. D. Jacobson,  I. Kaliman,  T. Kus,  A. Landau,  
 Jie Liu,  E. I. Proynov,  R. M. Richard,  R. P. Steele,  E. J. Sundstrom,  
 H. L. Woodcock III,  P. M. Zimmerman,  D. Zuev,  B. Albrecht,  E. Alguire,  
 S. A. Baeppler,  D. Barton,  Z. Benda,  Y. A. Bernard,  E. J. Berquist,  
 K. B. Bravaya,  H. Burton,  D. Casanova,  Chun-Min Chang,  Yunqing Chen,  
 A. Chien,  K. D. Closser,  M. P. Coons,  S. Dasgupta,  A. L. Dempwolff,  
 M. Diedenhofen,  Hainam Do,  R. G. Edgar,  Po-Tung Fang,  S. Fatehi,  
 Qingguo Feng,  J. Fosso-Tande,  Qinghui Ge,  A. Ghysels,  G. Gidofalvi,  
 J. Gomes,  J. Gonthier,  A. Gunina,  M. W. D. Hanson-Heine,  
 P. H. P. Harbach,  A. W. Hauser,  J. E. Herr,  E. G. Hohenstein,  
 Z. C. Holden,  Kerwin Hui,  T.-C. Jagau,  Hyunjun Ji,  B. Kaduk,  
 K. Khistyaev,  Jaehoon Kim,  P. Klunzinger,  K. Koh,  D. Kosenkov,  
 L. Koulias,  T. Kowalczyk,  C. M. Krauter,  A. Kunitsa,  Ka Un Lao,  
 A. Laurent,  K. V. Lawler,  Joonho Lee,  D. Lefrancois,  S. Lehtola,  
 D. S. Levine,  Yi-Pei Li,  You-Sheng Lin,  Fenglai Liu,  E. Livshits,  
 A. Luenser,  P. Manohar,  E. Mansoor,  S. F. Manzer,  Shan-Ping Mao,  
 Yuezhi Mao,  N. Mardirossian,  A. V. Marenich,  T. Markovich,  
 L. A. Martinez-Martinez,  S. A. Maurer,  N. J. Mayhall,  S. C. McKenzie,  
 J.-M. Mewes,  A. F. Morrison,  J. W. Mullinax,  K. Nanda,  
 T. S. Nguyen-Beck,  R. Olivares-Amaya,  J. A. Parkhill,  T. M. Perrine,  
 F. Plasser,  S. Prager,  A. Prociuk,  E. Ramos,  D. R. Rehn,  F. Rob,  
 M. Schneider,  N. Sergueev,  S. M. Sharada,  S. Sharma,  D. W. Small,  
 T. Stauch,  T. Stein,  Yu-Chuan Su,  A. J. W. Thom,  A. Tkatchenko,  
 T. Tsuchimochi,  L. Vogt,  O. Vydrov,  M. A. Watson,  J. Wenzel,  
 M. de Wergifosse,  T. A. Wesolowski,  A. White,  J. Witte,  A. Yamada,  
 Jun Yang,  K. Yao,  S. Yeganeh,  S. R. Yost,  Zhi-Qiang You,  A. Zech,  
 Igor Ying Zhang,  Xing Zhang,  Yan Zhao,  Ying Zhu,  B. R. Brooks,  
 G. K. L. Chan,  C. J. Cramer,  M. S. Gordon,  W. J. Hehre,  A. Klamt,  
 M. W. Schmidt,  C. D. Sherrill,  D. G. Truhlar,  A. Aspuru-Guzik,  R. Baer,  
 A. T. Bell,  N. A. Besley,  Jeng-Da Chai,  R. A. DiStasio Jr.,  A. Dreuw,  
 B. D. Dunietz,  T. R. Furlani,  Chao-Ping Hsu,  Yousung Jung,  Jing Kong,  
 D. S. Lambrecht,  WanZhen Liang,  C. Ochsenfeld,  V. A. Rassolov,  
 L. V. Slipchenko,  J. E. Subotnik,  T. Van Voorhis,  J. M. Herbert,  
 A. I. Krylov,  P. M. W. Gill,  M. Head-Gordon

 Contributors to earlier versions of Q-Chem not listed above: 
 R. D. Adamson,  B. Austin,  J. Baker,  G. J. O. Beran,  K. Brandhorst,  
 S. T. Brown,  E. F. C. Byrd,  A. K. Chakraborty,  C.-L. Cheng,  
 Siu Hung Chien,  D. M. Chipman,  D. L. Crittenden,  H. Dachsel,  
 R. J. Doerksen,  A. D. Dutoi,  L. Fusti-Molnar,  W. A. Goddard III,  
 A. Golubeva-Zadorozhnaya,  S. R. Gwaltney,  G. Hawkins,  A. Heyden,  
 S. Hirata,  G. Kedziora,  F. J. Keil,  C. Kelley,  Jihan Kim,  R. A. King,  
 R. Z. Khaliullin,  P. P. Korambath,  W. Kurlancheek,  A. M. Lee,  M. S. Lee,  
 S. V. Levchenko,  Ching Yeh Lin,  D. Liotard,  R. C. Lochan,  I. Lotan,  
 P. E. Maslen,  N. Nair,  D. P. O'Neill,  D. Neuhauser,  E. Neuscamman,  
 C. M. Oana,  R. Olson,  B. Peters,  R. Peverati,  P. A. Pieniazek,  
 Y. M. Rhee,  J. Ritchie,  M. A. Rohrdanz,  E. Rosta,  N. J. Russ,  
 H. F. Schaefer III,  N. E. Schultz,  N. Shenvi,  A. C. Simmonett,  A. Sodt,  
 D. Stuck,  K. S. Thanthiriwatte,  V. Vanovschi,  Tao Wang,  A. Warshel,  
 C. F. Williams,  Q. Wu,  X. Xu,  W. Zhang

 Please cite Q-Chem as follows:
 Y. Shao et al., Mol. Phys. 113, 184-215 (2015)
 DOI: 10.1080/00268976.2014.952696

 Q-Chem 5.0.2 for Intel X86 EM64T Linux

 Parts of Q-Chem use Armadillo 5.200.1 (Boston Tea Smuggler).
 http://arma.sourceforge.net/

 Q-Chem begins on Fri Mar  4 13:41:51 2022  

Host: 
0

     Scratch files written to ./irc_product.d//
 Dec517 15110_ 26548  26544 5633   
Processing $rem in /home/leeping/opt/qchem/5.0.2-openmp/config/preferences.
 MEM_STATIC 2000
 MEM_TOTAL  8000
 SYMMETRY   OFF
 SYM_IGNORE TRUE 

Checking the input file for inconsistencies... 	...done.

--------------------------------------------------------------
User input:
--------------------------------------------------------------
$molecule
0 2
C        1.4217175692    0.5385068562   -0.4110204459
C        0.9053291338   -0.7958663669   -0.0607994231
C       -0.2325418220   -1.4227366804   -0.7351194446
C       -1.2226209048    0.5802911285    0.4577505492
C       -0.6017145919    1.6229390964   -0.1427970940
N        0.7353091957    1.6234531680   -0.5415782554
H        2.5048482481    0.6221081366   -0.5205545165
H        1.6371526905   -1.4659946678    0.3937649041
H       -0.3384815835   -2.4600717530   -1.0274331212
H       -2.1832273324    0.7287192666    0.9441438226
H       -1.0926312584    2.5883237400   -0.2212197322
C       -0.6338317476   -0.7670611864    0.5055614633
H       -0.8993075966   -1.3926107380    1.3593012936
$end

$rem
method                b3lyp
basis                 6-31+g(d,p)
unrestricted          true
symmetry              off
sym_ignore            true
incdft                false
incfock               0
scf_convergence       8
thresh                14
jobtype               sp
scf_guess             read
scf_algorithm         diis
max_scf_cycles        100
scf_final_print       1
$end

--------------------------------------------------------------
 ----------------------------------------------------------------
             Standard Nuclear Orientation (Angstroms)
    I     Atom           X                Y                Z
 ----------------------------------------------------------------
    1      C       1.4217175692     0.5385068562    -0.4110204459
    2      C       0.9053291338    -0.7958663669    -0.0607994231
    3      C      -0.2325418220    -1.4227366804    -0.7351194446
    4      C      -1.2226209048     0.5802911285     0.4577505492
    5      C      -0.6017145919     1.6229390964    -0.1427970940
    6      N       0.7353091957     1.6234531680    -0.5415782554
    7      H       2.5048482481     0.6221081366    -0.5205545165
    8      H       1.6371526905    -1.4659946678     0.3937649041
    9      H      -0.3384815835    -2.4600717530    -1.0274331212
   10      H      -2.1832273324     0.7287192666     0.9441438226
   11      H      -1.0926312584     2.5883237400    -0.2212197322
   12      C      -0.6338317476    -0.7670611864     0.5055614633
   13      H      -0.8993075966    -1.3926107380     1.3593012936
 ----------------------------------------------------------------
 Nuclear Repulsion Energy =   268.9331451799 hartrees
 There are       25 alpha and       24 beta electrons
 Requested basis set is 6-31+G(d,p)
 There are 53 shells and 163 basis functions

 Total QAlloc Memory Limit   8000 MB
 Mega-Array Size      1956 MB
 MEM_STATIC part      2000 MB

                       Distance Matrix (Angstroms)
             C (  1)   C (  2)   C (  3)   C (  4)   C (  5)   N (  6)
   C (  2)  1.473046
   C (  3)  2.586134  1.463702
   C (  4)  2.783709  2.586673  2.532847
   C (  5)  2.311323  2.851057  3.124624  1.353993
   N (  6)  1.290469  2.472481  3.202103  2.433174  1.395227
   H (  7)  1.091860  2.186433  3.423556  3.853940  3.285589  2.033323
   H (  8)  2.170741  1.091452  2.184493  3.517056  3.852523  3.351548
   H (  9)  3.531252  2.291512  1.082929  3.497325  4.186030  4.250207
   H ( 10)  3.855941  3.587959  3.354678  1.086910  2.117133  3.394963
   H ( 11)  3.249573  3.933233  4.134302  2.123698  1.085871  2.091643
   C ( 12)  2.601906  1.640308  1.459532  1.471162  2.476591  2.947135
   H ( 13)  3.500059  2.372658  2.198200  2.193095  3.382071  3.921984
             H (  7)   H (  8)   H (  9)   H ( 10)   H ( 11)   C ( 12)
   H (  8)  2.439067
   H (  9)  4.223894  2.628902
   H ( 10)  4.912714  4.440156  4.178348
   H ( 11)  4.110652  4.926198  5.167690  2.450633
   C ( 12)  3.582460  2.378734  2.302952  2.197804  3.463714
   H ( 13)  4.379638  2.715009  2.674042  2.514129  4.287570  1.091174

 
 A cutoff of  1.0D-14 yielded   1380 shell pairs
 There are     13440 function pairs
 
 -------------------------------------------------------
 OpenMP Integral Computing Module                       
 Release: version 1.0, May 2013, Q-Chem Inc. Pittsburgh 
 -------------------------------------------------------
 Integral Job Info:
 Integral job number is                      11
 Integral operator is                         1
 short-range coefficients                     0
 long-range coefficients              100000000
 Omega coefficients                           0
 if combine SR and LR in K                    0
 Integral screening is                        0
 Integral computing path is                   2
 max size of driver memory is            800000
 size of driver memory is                593474
 size of scratch memory is              2361544
 max col of scratch BK array               1296
 max len of scratch array in speh3          155
 max len of scratch index in speh4           18
 max int batch size is                      520
 min int batch size is                       52
 fixed nKL is                                52
 max L of basis functions is                  2
 order of int derivative is                   0
 number of shells is                         53
 number of basis is                         163
 number of cartesian basis is               163
 number of contracted shell pairs          1380
 number of primitive shell pairs           4680
 maxK2 (contraction) of shell pair           36
 max number of K2 of shell pair               1
 max number of CS2 of shell pair            128
 max number of PS2 of shell pair            684
 mem total for path MDJ                  535308
 -------------------------------------------------------
 Smallest overlap matrix eigenvalue = 2.88E-05

 Scale SEOQF with 1.000000e-01/1.000000e-01/1.000000e-01

 Standard Electronic Orientation quadrupole field applied
 Nucleus-field energy     =     0.0000000057 hartrees
 Guess MOs from SCF MO coefficient file
 Reading MOs from coefficient file
 Reading MOs from coefficient file
 An unrestricted hybrid HF-DFT SCF calculation will be
 performed using Pulay DIIS extrapolation
 Exchange:     0.2000 Hartree-Fock + 0.0800 Slater + 0.7200 B88
 Correlation:  0.1900 VWN1RPA + 0.8100 LYP
 Using SG-1 standard quadrature grid
 SCF converges when DIIS error is below 1.0E-08
Using Q-Chem read-in guess as SCF_GUESS READ specified.

 using 4 threads for integral computing
 -------------------------------------------------------
 OpenMP Integral computing Module                
 Release: version 1.0, May 2013, Q-Chem Inc. Pittsburgh 
 -------------------------------------------------------
 -------------------------------------------------------
 OpenMP BLAS3 based DFT computing Module                
 Release: version 1.0, May 2013, Q-Chem Inc. Pittsburgh 
 -------------------------------------------------------
 ---------------------------------------
  Cycle       Energy         DIIS Error
 ---------------------------------------
    1    -286.8766133120      1.28E-09
    2    -286.8766133120      1.59E-09 Convergence criterion met
 ---------------------------------------
 One-Electron    Energy =  -918.1129187321
 Total Coulomb   Energy =   403.9159194767
 Alpha Exchange  Energy =    -4.0190609800
 Beta  Exchange  Energy =    -3.9267020803
 DFT   Exchange  Energy =   -31.5635644946
 DFT Correlation Energy =    -2.1034316874
 Nuclear Repu.   Energy =   268.9331451857
 Nuclear Attr.   Energy = -1202.1981844060
 Kinetic         Energy =   284.0852656739
 <S^2> = 0.7534
 SCF time:  CPU 9.72 s  wall 2.48 s
 Final Alpha MO Eigenvalues
            1           2           3           4           5           6
    1 -14.3366050 -10.2402849 -10.2351138 -10.2318205 -10.2301815 -10.2172342
            7           8           9          10          11          12
    1 -10.2059885  -0.9456571  -0.8783647  -0.7760059  -0.6773798  -0.6512569
           13          14          15          16          17          18
    1  -0.5791006  -0.5401851  -0.4998333  -0.4922138  -0.4601419  -0.4349273
           19          20          21          22          23          24
    1  -0.3866186  -0.3822942  -0.3701564  -0.3094597  -0.2670276  -0.2401166
           25          26          27          28          29          30
    1  -0.2289869  -0.0481395  -0.0014805   0.0151585   0.0221964   0.0258526
 Final Beta MO Eigenvalues
            1           2           3           4           5           6
    1 -14.3365812 -10.2395866 -10.2352254 -10.2318505 -10.2174418 -10.2162453
            7           8           9          10          11          12
    1 -10.2049400  -0.9438170  -0.8685620  -0.7739125  -0.6696155  -0.6491039
           13          14          15          16          17          18
    1  -0.5648924  -0.5351819  -0.4968909  -0.4826587  -0.4559951  -0.4319197
           19          20          21          22          23          24
    1  -0.3850428  -0.3799659  -0.3624247  -0.3001051  -0.2619845  -0.2363269
           25          26          27          28          29
    1  -0.0904165  -0.0456586   0.0007704   0.0151134   0.0236920
 SCF   energy in the final basis set = -286.87661331
 Total energy in the final basis set = -286.87661331
 
 --------------------------------------------------------------
 
                    Orbital Energies (a.u.)
 --------------------------------------------------------------
 
 Alpha MOs
 -- Occupied --
-14.337 -10.240 -10.235 -10.232 -10.230 -10.217 -10.206  -0.946
 -0.878  -0.776  -0.677  -0.651  -0.579  -0.540  -0.500  -0.492
 -0.460  -0.435  -0.387  -0.382  -0.370  -0.309  -0.267  -0.240
 -0.229
 -- Virtual --
 -0.048  -0.001   0.015   0.022   0.026   0.032   0.047   0.050
  0.068   0.073   0.075   0.092   0.099   0.112   0.116   0.121
  0.124   0.129   0.138   0.148   0.168   0.175   0.180   0.185
  0.192   0.198   0.202   0.212   0.225   0.233   0.253   0.261
  0.268   0.283   0.288   0.301   0.310   0.321   0.329   0.336
  0.353   0.385   0.463   0.506   0.591   0.628   0.649   0.666
  0.681   0.708   0.713   0.725   0.737   0.750   0.770   0.778
  0.825   0.835   0.883   0.896   0.927   0.935   0.950   0.987
  0.993   1.016   1.062   1.088   1.098   1.107   1.134   1.150
  1.183   1.205   1.239   1.310   1.349   1.371   1.441   1.476
  1.500   1.524   1.555   1.647   1.688   1.757   1.799   1.806
  1.865   1.881   1.903   1.960   1.983   2.006   2.080   2.089
  2.126   2.148   2.188   2.229   2.269   2.290   2.369   2.390
  2.405   2.417   2.435   2.454   2.476   2.505   2.520   2.528
  2.559   2.595   2.626   2.667   2.698   2.716   2.740   2.811
  2.867   2.936   3.012   3.180   3.216   3.278   3.293   3.369
  3.440   3.562   3.709   4.196   4.300   4.340   4.476   4.500
  4.576   4.734
 
 Beta MOs
 -- Occupied --
-14.337 -10.240 -10.235 -10.232 -10.217 -10.216 -10.205  -0.944
 -0.869  -0.774  -0.670  -0.649  -0.565  -0.535  -0.497  -0.483
 -0.456  -0.432  -0.385  -0.380  -0.362  -0.300  -0.262  -0.236
 -- Virtual --
 -0.090  -0.046   0.001   0.015   0.024   0.027   0.033   0.048
  0.050   0.072   0.074   0.078   0.094   0.099   0.113   0.116
  0.122   0.125   0.130   0.138   0.149   0.168   0.176   0.183
  0.188   0.193   0.201   0.206   0.213   0.228   0.235   0.257
  0.261   0.270   0.284   0.292   0.302   0.311   0.325   0.335
  0.341   0.360   0.392   0.465   0.507   0.597   0.633   0.664
  0.675   0.693   0.710   0.715   0.729   0.743   0.751   0.779
  0.791   0.830   0.840   0.885   0.899   0.928   0.937   0.952
  0.990   0.997   1.017   1.070   1.090   1.100   1.112   1.139
  1.152   1.186   1.208   1.244   1.315   1.352   1.375   1.450
  1.481   1.502   1.528   1.561   1.653   1.694   1.774   1.803
  1.816   1.882   1.889   1.908   1.967   1.988   2.012   2.088
  2.099   2.127   2.166   2.194   2.232   2.272   2.295   2.371
  2.393   2.407   2.420   2.438   2.457   2.480   2.508   2.523
  2.534   2.563   2.609   2.628   2.670   2.706   2.723   2.747
  2.818   2.874   2.941   3.016   3.181   3.217   3.283   3.294
  3.372   3.444   3.571   3.710   4.196   4.305   4.341   4.497
  4.510   4.578   4.735
 --------------------------------------------------------------
 
          Ground-State Mulliken Net Atomic Charges

     Atom                 Charge (a.u.)    Spin (a.u.)
  --------------------------------------------------------
      1 C                    -0.054142      -0.047983
      2 C                    -0.016715       0.028825
      3 C                    -0.252852       0.991605
      4 C                     0.088526       0.045868
      5 C                    -0.253363      -0.035254
      6 N                    -0.182148       0.016189
      7 H                     0.128443       0.005045
      8 H                     0.144261       0.022618
      9 H                     0.148687      -0.022003
     10 H                     0.132718       0.003143
     11 H                     0.125046       0.000833
     12 C                    -0.152848      -0.026234
     13 H                     0.144387       0.017347
  --------------------------------------------------------
  Sum of atomic charges =    -0.000000
  Sum of spin   charges =     1.000000

 -----------------------------------------------------------------
                    Cartesian Multipole Moments
 -----------------------------------------------------------------
    Charge (ESU x 10^10)
                -0.0000
    Dipole Moment (Debye)
         X      -0.4204      Y      -2.7908      Z       1.3553
       Tot       3.1309
    Quadrupole Moments (Debye-Ang)
        XX     -38.8288     XY      -3.6389     YY     -42.2128
        XZ      -0.9108     YZ       0.8194     ZZ     -43.8522
    Octopole Moments (Debye-Ang^2)
       XXX      -0.3917    XXY      -7.5052    XYY     -11.4610
       YYY     -36.1048    XXZ       7.9036    XYZ       1.2680
       YYZ       6.5299    XZZ      -3.4466    YZZ     -10.9355
       ZZZ      16.6202
    Hexadecapole Moments (Debye-Ang^3)
      XXXX    -274.0680   XXXY      -5.2450   XXYY    -122.3010
      XYYY     -23.9280   YYYY    -414.3060   XXXZ      24.2089
      XXYZ       2.6297   XYYZ      17.6972   YYYZ      18.0649
      XXZZ     -69.7463   XYZZ      -0.0089   YYZZ     -92.6706
      XZZZ      32.9757   YZZZ       5.8735   ZZZZ    -124.3013
 -----------------------------------------------------------------
 Mayer SCF Bond Order, atomic valence on the diagonal:

            1           2           3           4           5           6
    1   3.8230699   0.9815083  -0.0409267   0.0401604   0.0767303   1.6416949
    2   0.9815083   3.6363723   1.1368525   0.0002944  -0.0151422  -0.0544260
    3  -0.0409267   1.1368525   3.2860465   0.1387826  -0.0158127   0.0562969
    4   0.0401604   0.0002944   0.1387826   3.7380705   1.7172040  -0.1176805
    5   0.0767303  -0.0151422  -0.0158127   1.7172040   4.0380219   1.1374820
    6   1.6416949  -0.0544260   0.0562969  -0.1176805   1.1374820   2.6834322
    7   0.9860420  -0.0492469   0.0087600  -0.0019940   0.0123518  -0.0341317
    8   0.0170182   0.8169572   0.0535543  -0.0000043  -0.0009603   0.0118368
    9   0.0118466   0.0230982   0.8762972   0.0045591   0.0041910   0.0036126
   10   0.0013169   0.0110624   0.0096093   0.8650799   0.0430872   0.0117310
   11   0.0091757  -0.0040297  -0.0005856  -0.0256646   0.9733233  -0.0389046
   12   0.1149222   0.7169549   1.0095456   1.0754547   0.1090069   0.0627543
   13  -0.0164188   0.0724893   0.0536731   0.0418787  -0.0034394   0.0031665
            7           8           9          10          11          12
    1   0.9860420   0.0170182   0.0118466   0.0013169   0.0091757   0.1149222
    2  -0.0492469   0.8169572   0.0230982   0.0110624  -0.0040297   0.7169549
    3   0.0087600   0.0535543   0.8762972   0.0096093  -0.0005856   1.0095456
    4  -0.0019940  -0.0000043   0.0045591   0.8650799  -0.0256646   1.0754547
    5   0.0123518  -0.0009603   0.0041910   0.0430872   0.9733233   0.1090069
    6  -0.0341317   0.0118368   0.0036126   0.0117310  -0.0389046   0.0627543
    7   0.9422770   0.0000985   0.0001941   0.0001617   0.0013795   0.0177617
    8   0.0000985   0.9492188   0.0008196   0.0010189   0.0000505   0.0477558
    9   0.0001941   0.0008196   0.9550161   0.0002079   0.0000845   0.0294020
   10   0.0001617   0.0010189   0.0002079   0.9543203   0.0007137   0.0098814
   11   0.0013795   0.0000505   0.0000845   0.0007137   0.9467279   0.0295622
   12   0.0177617   0.0477558   0.0294020   0.0098814   0.0295622   4.0136558
   13   0.0009002   0.0010735   0.0007034   0.0004500   0.0016229   0.7906542
           13
    1  -0.0164188
    2   0.0724893
    3   0.0536731
    4   0.0418787
    5  -0.0034394
    6   0.0031665
    7   0.0009002
    8   0.0010735
    9   0.0007034
   10   0.0004500
   11   0.0016229
   12   0.7906542
   13   0.9467536


Archival summary:
1\1\c8-66\SP\ProcedureUnspecified\6-31+G**\166(2)\hpark21\FriMar413:41:542022FriMar413:41:542022\0\\#,ProcedureUnspecified,6-31+G**,\\0,2\N\C,1,1.29047\H,2,1.09186,1,116.945\C,1,1.39523,2,118.717,3,-166.948,0\H,4,1.08587,1,114.347,2,176.087,0\C,4,1.35399,1,124.506,2,4.40643,0\H,6,1.08691,4,119.908,1,165.743,0\C,6,1.47116,4,122.421,1,-13.0633,0\H,8,1.09117,6,116.942,4,150.839,0\C,8,1.45953,6,119.593,4,-54.9117,0\H,10,1.08293,8,129.263,6,-140.143,0\C,10,1.4637,8,68.2675,6,98.3086,0\H,12,1.09145,10,116.754,8,109.203,0\\\@

 Total job time:  3.30s(wall), 11.58s(cpu) 
 Fri Mar  4 13:41:54 2022

        *************************************************************
        *                                                           *
        *  Thank you very much for using Q-Chem.  Have a nice day.  *
        *                                                           *
        *************************************************************


