13   
Frame   0 IRC: Energy =  -286.8575840000 ; +0.0000 kcal/mol
C        1.5477472760    0.5892260649   -0.1661174802
C        0.8970607177   -0.7388591012    0.0332109042
C       -0.4088273245   -0.6568615315   -0.6897097495
C       -1.0276594355    0.6283354330    0.8764888279
C       -0.6040297190    0.9025335126   -0.5731474427
N        0.7467183084    1.5141514125   -0.5487879860
H        2.6021396743    0.7865712322    0.0202106136
H        1.4608073711   -1.6652998343    0.0714411153
H       -0.8136480880   -1.3545099541   -1.4163496942
H       -2.0106423964    0.8497093975    1.2775321774
H       -1.2895489893    1.4314556195   -1.2331056451
C       -0.4375930341   -0.7233015731    0.8502750883
H       -0.6625243603   -1.5631506781    1.4980592704
