
Running Job 1 of 1 qcirc.in
qchem qcirc.in_61515.0 ./qcirc.d/ 1
/home/leeping/opt/qchem/5.0.2-openmp/exe/qcprog.exe_s qcirc.in_61515.0 ./qcirc.d/
Check license passed

                  Welcome to Q-Chem
     A Quantum Leap Into The Future Of Chemistry


 Q-Chem 5.0, Q-Chem, Inc., Pleasanton, CA (2017)

 Yihan Shao,  Zhengting Gan,  E. Epifanovsky,  A. T. B. Gilbert,  M. Wormit,  
 J. Kussmann,  A. W. Lange,  A. Behn,  Jia Deng,  Xintian Feng,  D. Ghosh,  
 M. Goldey,  P. R. Horn,  L. D. Jacobson,  I. Kaliman,  T. Kus,  A. Landau,  
 Jie Liu,  E. I. Proynov,  R. M. Richard,  R. P. Steele,  E. J. Sundstrom,  
 H. L. Woodcock III,  P. M. Zimmerman,  D. Zuev,  B. Albrecht,  E. Alguire,  
 S. A. Baeppler,  D. Barton,  Z. Benda,  Y. A. Bernard,  E. J. Berquist,  
 K. B. Bravaya,  H. Burton,  D. Casanova,  Chun-Min Chang,  Yunqing Chen,  
 A. Chien,  K. D. Closser,  M. P. Coons,  S. Dasgupta,  A. L. Dempwolff,  
 M. Diedenhofen,  Hainam Do,  R. G. Edgar,  Po-Tung Fang,  S. Fatehi,  
 Qingguo Feng,  J. Fosso-Tande,  Qinghui Ge,  A. Ghysels,  G. Gidofalvi,  
 J. Gomes,  J. Gonthier,  A. Gunina,  M. W. D. Hanson-Heine,  
 P. H. P. Harbach,  A. W. Hauser,  J. E. Herr,  E. G. Hohenstein,  
 Z. C. Holden,  Kerwin Hui,  T.-C. Jagau,  Hyunjun Ji,  B. Kaduk,  
 K. Khistyaev,  Jaehoon Kim,  P. Klunzinger,  K. Koh,  D. Kosenkov,  
 L. Koulias,  T. Kowalczyk,  C. M. Krauter,  A. Kunitsa,  Ka Un Lao,  
 A. Laurent,  K. V. Lawler,  Joonho Lee,  D. Lefrancois,  S. Lehtola,  
 D. S. Levine,  Yi-Pei Li,  You-Sheng Lin,  Fenglai Liu,  E. Livshits,  
 A. Luenser,  P. Manohar,  E. Mansoor,  S. F. Manzer,  Shan-Ping Mao,  
 Yuezhi Mao,  N. Mardirossian,  A. V. Marenich,  T. Markovich,  
 L. A. Martinez-Martinez,  S. A. Maurer,  N. J. Mayhall,  S. C. McKenzie,  
 J.-M. Mewes,  A. F. Morrison,  J. W. Mullinax,  K. Nanda,  
 T. S. Nguyen-Beck,  R. Olivares-Amaya,  J. A. Parkhill,  T. M. Perrine,  
 F. Plasser,  S. Prager,  A. Prociuk,  E. Ramos,  D. R. Rehn,  F. Rob,  
 M. Schneider,  N. Sergueev,  S. M. Sharada,  S. Sharma,  D. W. Small,  
 T. Stauch,  T. Stein,  Yu-Chuan Su,  A. J. W. Thom,  A. Tkatchenko,  
 T. Tsuchimochi,  L. Vogt,  O. Vydrov,  M. A. Watson,  J. Wenzel,  
 M. de Wergifosse,  T. A. Wesolowski,  A. White,  J. Witte,  A. Yamada,  
 Jun Yang,  K. Yao,  S. Yeganeh,  S. R. Yost,  Zhi-Qiang You,  A. Zech,  
 Igor Ying Zhang,  Xing Zhang,  Yan Zhao,  Ying Zhu,  B. R. Brooks,  
 G. K. L. Chan,  C. J. Cramer,  M. S. Gordon,  W. J. Hehre,  A. Klamt,  
 M. W. Schmidt,  C. D. Sherrill,  D. G. Truhlar,  A. Aspuru-Guzik,  R. Baer,  
 A. T. Bell,  N. A. Besley,  Jeng-Da Chai,  R. A. DiStasio Jr.,  A. Dreuw,  
 B. D. Dunietz,  T. R. Furlani,  Chao-Ping Hsu,  Yousung Jung,  Jing Kong,  
 D. S. Lambrecht,  WanZhen Liang,  C. Ochsenfeld,  V. A. Rassolov,  
 L. V. Slipchenko,  J. E. Subotnik,  T. Van Voorhis,  J. M. Herbert,  
 A. I. Krylov,  P. M. W. Gill,  M. Head-Gordon

 Contributors to earlier versions of Q-Chem not listed above: 
 R. D. Adamson,  B. Austin,  J. Baker,  G. J. O. Beran,  K. Brandhorst,  
 S. T. Brown,  E. F. C. Byrd,  A. K. Chakraborty,  C.-L. Cheng,  
 Siu Hung Chien,  D. M. Chipman,  D. L. Crittenden,  H. Dachsel,  
 R. J. Doerksen,  A. D. Dutoi,  L. Fusti-Molnar,  W. A. Goddard III,  
 A. Golubeva-Zadorozhnaya,  S. R. Gwaltney,  G. Hawkins,  A. Heyden,  
 S. Hirata,  G. Kedziora,  F. J. Keil,  C. Kelley,  Jihan Kim,  R. A. King,  
 R. Z. Khaliullin,  P. P. Korambath,  W. Kurlancheek,  A. M. Lee,  M. S. Lee,  
 S. V. Levchenko,  Ching Yeh Lin,  D. Liotard,  R. C. Lochan,  I. Lotan,  
 P. E. Maslen,  N. Nair,  D. P. O'Neill,  D. Neuhauser,  E. Neuscamman,  
 C. M. Oana,  R. Olson,  B. Peters,  R. Peverati,  P. A. Pieniazek,  
 Y. M. Rhee,  J. Ritchie,  M. A. Rohrdanz,  E. Rosta,  N. J. Russ,  
 H. F. Schaefer III,  N. E. Schultz,  N. Shenvi,  A. C. Simmonett,  A. Sodt,  
 D. Stuck,  K. S. Thanthiriwatte,  V. Vanovschi,  Tao Wang,  A. Warshel,  
 C. F. Williams,  Q. Wu,  X. Xu,  W. Zhang

 Please cite Q-Chem as follows:
 Y. Shao et al., Mol. Phys. 113, 184-215 (2015)
 DOI: 10.1080/00268976.2014.952696

 Q-Chem 5.0.2 for Intel X86 EM64T Linux

 Parts of Q-Chem use Armadillo 5.200.1 (Boston Tea Smuggler).
 http://arma.sourceforge.net/

 Q-Chem begins on Fri Mar  4 11:03:03 2022  

Host: 
0

     Scratch files written to ./qcirc.d//
 Dec517 15110_ 26548  26544 5633   
Processing $rem in /home/leeping/opt/qchem/5.0.2-openmp/config/preferences.
 MEM_STATIC 2000
 MEM_TOTAL  8000
 SYMMETRY   OFF
 SYM_IGNORE TRUE 

Checking the input file for inconsistencies... 	...done.

--------------------------------------------------------------
User input:
--------------------------------------------------------------
$molecule
0 2
C        1.5242525169    0.5611410695   -0.2076460420
C        0.8977742156   -0.7595770098   -0.0565787793
C       -0.4034370768   -0.9101089009   -0.7270610360
C       -1.0953380242    0.5880613877    0.7501871306
C       -0.6208932951    1.1945920244   -0.4740945528
N        0.7441875091    1.5314265462   -0.5270957016
H        2.5813416712    0.7361930220   -0.0184453737
H        1.5245161516   -1.6358871683    0.0999786775
H       -0.7472227254   -1.7585131259   -1.3159934980
H       -2.0632745165    0.7994277204    1.1904733935
H       -1.2642430577    1.8494491824   -1.0584933318
C       -0.4770274981   -0.7253915717    0.7739489380
H       -0.6458109523   -1.4855619488    1.5311550788
$end

$rem
method                b3lyp
basis                 6-31+g(d,p)
unrestricted          true
symmetry              off
sym_ignore            true
incdft                false
incfock               0
scf_convergence       8
thresh                14
jobtype               rpath
scf_guess             core
scf_guess_mix         5
scf_algorithm         diis
max_scf_cycles        100
rpath_direction       1
rpath_tol_displacement 1000
rpath_max_cycles      50
geom_opt_max_cycles   300
geom_opt_hessian      read
$end

--------------------------------------------------------------
 ----------------------------------------------------------------
             Standard Nuclear Orientation (Angstroms)
    I     Atom           X                Y                Z
 ----------------------------------------------------------------
    1      C       1.5242525169     0.5611410695    -0.2076460420
    2      C       0.8977742156    -0.7595770098    -0.0565787793
    3      C      -0.4034370768    -0.9101089009    -0.7270610360
    4      C      -1.0953380242     0.5880613877     0.7501871306
    5      C      -0.6208932951     1.1945920244    -0.4740945528
    6      N       0.7441875091     1.5314265462    -0.5270957016
    7      H       2.5813416712     0.7361930220    -0.0184453737
    8      H       1.5245161516    -1.6358871683     0.0999786775
    9      H      -0.7472227254    -1.7585131259    -1.3159934980
   10      H      -2.0632745165     0.7994277204     1.1904733935
   11      H      -1.2642430577     1.8494491824    -1.0584933318
   12      C      -0.4770274981    -0.7253915717     0.7739489380
   13      H      -0.6458109523    -1.4855619488     1.5311550788
 ----------------------------------------------------------------
 Nuclear Repulsion Energy =   276.9216692666 hartrees
 There are       25 alpha and       24 beta electrons
 Requested basis set is 6-31+G(d,p)
 There are 53 shells and 163 basis functions

 Total QAlloc Memory Limit   8000 MB
 Mega-Array Size      1956 MB
 MEM_STATIC part      2000 MB
 Starting direction for rxn path = 1

                       Distance Matrix (Angstroms)
             C (  1)   C (  2)   C (  3)   C (  4)   C (  5)   N (  6)
   C (  2)  1.469555
   C (  3)  2.479991  1.471515
   C (  4)  2.789341  2.537616  2.214837
   C (  5)  2.252533  2.509870  2.130973  1.446320
   N (  6)  1.285303  2.343858  2.705203  2.430071  1.407022
   H (  7)  1.088061  2.252372  3.481573  3.759084  3.266811  2.065492
   H (  8)  2.218460  1.088685  2.219854  3.497478  3.597771  3.321748
   H (  9)  3.430573  2.300003  1.088494  3.145902  3.073367  3.697346
   H ( 10)  3.857703  3.571197  3.058515  1.084172  2.237723  3.371603
   H ( 11)  3.187379  3.533436  2.909638  2.211550  1.088237  2.101741
   C ( 12)  2.573678  1.606557  1.514123  1.451906  2.294482  2.877032
   H ( 13)  3.452767  2.330367  2.342954  2.260951  3.347368  3.907776
             H (  7)   H (  8)   H (  9)   H ( 10)   H ( 11)   C ( 12)
   H (  8)  2.599552
   H (  9)  4.357354  2.679704
   H ( 10)  4.799786  4.471261  3.815420
   H ( 11)  4.136371  4.611595  3.653903  2.607460
   C ( 12)  3.481054  2.299873  2.346957  2.239363  3.256894
   H ( 13)  4.213309  2.604071  2.862000  2.710433  4.267439  1.086144

 
 A cutoff of  1.0D-14 yielded   1398 shell pairs
 There are     13492 function pairs
 
 -------------------------------------------------------
 OpenMP Integral Computing Module                       
 Release: version 1.0, May 2013, Q-Chem Inc. Pittsburgh 
 -------------------------------------------------------
 Integral Job Info:
 Integral job number is                      11
 Integral operator is                         1
 short-range coefficients                     0
 long-range coefficients              100000000
 Omega coefficients                           0
 if combine SR and LR in K                    0
 Integral screening is                        0
 Integral computing path is                   2
 max size of driver memory is            800000
 size of driver memory is                593474
 size of scratch memory is              2361544
 max col of scratch BK array               1296
 max len of scratch array in speh3          155
 max len of scratch index in speh4           18
 max int batch size is                      520
 min int batch size is                       52
 fixed nKL is                                52
 max L of basis functions is                  2
 order of int derivative is                   0
 number of shells is                         53
 number of basis is                         163
 number of cartesian basis is               163
 number of contracted shell pairs          1398
 number of primitive shell pairs           4787
 maxK2 (contraction) of shell pair           36
 max number of K2 of shell pair               1
 max number of CS2 of shell pair            126
 max number of PS2 of shell pair            678
 mem total for path MDJ                  535308
 -------------------------------------------------------
 Smallest overlap matrix eigenvalue = 2.83E-05

 Scale SEOQF with 1.000000e-01/1.000000e-01/1.000000e-01

 Standard Electronic Orientation quadrupole field applied
 Nucleus-field energy     =     0.0000000034 hartrees
 Guess MOs from core Hamiltonian diagonalization
 Mixing HOMO and LUMO in initial guess
 Adding  50% of the LUMO to the HOMO
 An unrestricted hybrid HF-DFT SCF calculation will be
 performed using Pulay DIIS extrapolation
 Exchange:     0.2000 Hartree-Fock + 0.0800 Slater + 0.7200 B88
 Correlation:  0.1900 VWN1RPA + 0.8100 LYP
 Using SG-1 standard quadrature grid
 SCF converges when DIIS error is below 1.0E-08
 using 4 threads for integral computing
 -------------------------------------------------------
 OpenMP Integral computing Module                
 Release: version 1.0, May 2013, Q-Chem Inc. Pittsburgh 
 -------------------------------------------------------
 -------------------------------------------------------
 OpenMP BLAS3 based DFT computing Module                
 Release: version 1.0, May 2013, Q-Chem Inc. Pittsburgh 
 -------------------------------------------------------
 ---------------------------------------
  Cycle       Energy         DIIS Error
 ---------------------------------------
    1    -238.3297094233      9.62E-02
    2    -218.5572020973      7.02E-02
    3    -263.3075312105      6.84E-02
    4    -272.4266765703      5.98E-02
    5    -279.3128326850      4.39E-02
    6    -284.4320592590      2.30E-02
    7    -286.1241382807      1.21E-02
    8    -286.4675226247      9.74E-03
    9    -286.7540405332      4.32E-03
   10    -286.8030363037      2.48E-03
   11    -286.8262638827      4.57E-04
   12    -286.8272331035      2.44E-04
   13    -286.8276014558      6.24E-05
   14    -286.8276981201      5.60E-05
   15    -286.8277458142      2.34E-05
   16    -286.8277677658      6.44E-06
   17    -286.8277704076      2.56E-06
   18    -286.8277706323      1.17E-06
   19    -286.8277707071      3.68E-07
   20    -286.8277707786      9.48E-08
   21    -286.8277707943      5.47E-08
   22    -286.8277708018      3.35E-08
   23    -286.8277708041      1.02E-08
   24    -286.8277708041      2.85E-09 Convergence criterion met
 ---------------------------------------
 <S^2> = 0.7851
 SCF time:  CPU 118.65 s  wall 30.26 s
 SCF   energy in the final basis set = -286.82777080
 Total energy in the final basis set = -286.82777080
 
 --------------------------------------------------------------
 
                    Orbital Energies (a.u.)
 --------------------------------------------------------------
 
 Alpha MOs
 -- Occupied --
-14.341 -10.244 -10.236 -10.226 -10.224 -10.219 -10.210  -0.965
 -0.871  -0.772  -0.664  -0.634  -0.578  -0.543  -0.511  -0.477
 -0.454  -0.431  -0.416  -0.369  -0.349  -0.292  -0.284  -0.256
 -0.181
 -- Virtual --
 -0.048   0.000   0.008   0.019   0.025   0.029   0.045   0.050
  0.066   0.070   0.072   0.097   0.102   0.103   0.111   0.117
  0.118   0.128   0.136   0.155   0.167   0.178   0.179   0.189
  0.193   0.196   0.200   0.212   0.223   0.243   0.250   0.258
  0.269   0.277   0.288   0.297   0.306   0.320   0.331   0.340
  0.345   0.404   0.433   0.454   0.603   0.652   0.661   0.677
  0.695   0.711   0.727   0.747   0.751   0.759   0.780   0.792
  0.819   0.837   0.869   0.887   0.912   0.933   0.956   0.993
  0.996   1.012   1.028   1.053   1.081   1.118   1.124   1.135
  1.183   1.223   1.258   1.313   1.356   1.403   1.412   1.499
  1.554   1.573   1.653   1.673   1.731   1.789   1.805   1.837
  1.882   1.924   1.970   2.006   2.020   2.062   2.072   2.087
  2.100   2.179   2.215   2.228   2.274   2.343   2.370   2.377
  2.404   2.408   2.457   2.468   2.492   2.518   2.524   2.537
  2.584   2.595   2.630   2.645   2.671   2.723   2.749   2.773
  2.853   2.905   2.983   3.067   3.118   3.263   3.290   3.370
  3.442   3.615   3.654   4.157   4.359   4.425   4.555   4.571
  4.653   4.727
 
 Beta MOs
 -- Occupied --
-14.341 -10.246 -10.237 -10.227 -10.223 -10.209 -10.200  -0.962
 -0.864  -0.763  -0.655  -0.632  -0.568  -0.540  -0.504  -0.472
 -0.451  -0.428  -0.407  -0.367  -0.332  -0.292  -0.282  -0.239
 -- Virtual --
 -0.068  -0.033   0.002   0.009   0.019   0.025   0.031   0.045
  0.051   0.067   0.070   0.076   0.097   0.103   0.106   0.113
  0.117   0.120   0.130   0.138   0.156   0.167   0.179   0.182
  0.192   0.194   0.198   0.205   0.213   0.225   0.245   0.253
  0.260   0.271   0.281   0.290   0.298   0.311   0.324   0.333
  0.345   0.348   0.410   0.437   0.458   0.607   0.659   0.667
  0.680   0.712   0.724   0.731   0.747   0.761   0.766   0.782
  0.792   0.822   0.846   0.872   0.889   0.913   0.938   0.958
  0.996   1.001   1.015   1.030   1.057   1.084   1.126   1.127
  1.141   1.190   1.229   1.265   1.316   1.360   1.407   1.414
  1.505   1.555   1.578   1.658   1.677   1.746   1.797   1.817
  1.843   1.892   1.931   1.976   2.013   2.029   2.067   2.079
  2.096   2.104   2.185   2.223   2.233   2.278   2.345   2.373
  2.381   2.408   2.415   2.463   2.473   2.497   2.524   2.532
  2.543   2.588   2.599   2.640   2.653   2.673   2.727   2.752
  2.780   2.858   2.910   2.987   3.069   3.119   3.266   3.291
  3.373   3.445   3.621   3.658   4.157   4.362   4.439   4.569
  4.574   4.655   4.731
 --------------------------------------------------------------
 
          Ground-State Mulliken Net Atomic Charges

     Atom                 Charge (a.u.)    Spin (a.u.)
  --------------------------------------------------------
      1 C                    -0.065323      -0.051226
      2 C                    -0.070052      -0.014795
      3 C                    -0.264434       0.545281
      4 C                    -0.000250       0.755041
      5 C                    -0.135440      -0.198386
      6 N                    -0.149713       0.039671
      7 H                     0.134123       0.002582
      8 H                     0.142321       0.021213
      9 H                     0.129344       0.011844
     10 H                     0.141460      -0.036365
     11 H                     0.127290       0.010717
     12 C                    -0.129480      -0.086996
     13 H                     0.140156       0.001419
  --------------------------------------------------------
  Sum of atomic charges =    -0.000000
  Sum of spin   charges =     1.000000

 -----------------------------------------------------------------
                    Cartesian Multipole Moments
 -----------------------------------------------------------------
    Charge (ESU x 10^10)
                -0.0000
    Dipole Moment (Debye)
         X      -0.4380      Y      -2.3911      Z       0.7711
       Tot       2.5503
    Quadrupole Moments (Debye-Ang)
        XX     -37.5374     XY      -3.2480     YY     -43.7774
        XZ       0.4185     YZ       0.0345     ZZ     -43.2565
    Octopole Moments (Debye-Ang^2)
       XXX      -1.4063    XXY      -5.3984    XYY      -9.5671
       YYY     -37.4813    XXZ       4.9926    XYZ       2.3052
       YYZ       2.8318    XZZ      -6.2815    YZZ     -10.8970
       ZZZ       7.8549
    Hexadecapole Moments (Debye-Ang^3)
      XXXX    -264.3674   XXXY      -9.3338   XXYY     -98.7603
      XYYY     -23.4966   YYYY    -334.0840   XXXZ      20.9157
      XXYZ       7.5153   XYYZ      15.8776   YYYZ      18.8193
      XXZZ     -74.0147   XYZZ      -2.7724   YYZZ     -76.0852
      XZZZ      24.3244   YZZZ      14.6480   ZZZZ    -157.5206
 -----------------------------------------------------------------
 Calculating analytic gradient of the SCF energy
 Gradient of SCF Energy
            1           2           3           4           5           6
    1  -0.0000022  -0.0000040  -0.0000022   0.0000046  -0.0000032   0.0000024
    2  -0.0000032   0.0000001  -0.0000160   0.0000198  -0.0000074  -0.0000121
    3  -0.0000153   0.0000113   0.0000122  -0.0000045  -0.0000127  -0.0000286
            7           8           9          10          11          12
    1   0.0000007  -0.0000008  -0.0000052   0.0000047  -0.0000024   0.0000038
    2  -0.0000019   0.0000007  -0.0000227   0.0000191  -0.0000166   0.0000139
    3  -0.0000211   0.0000227   0.0000324  -0.0000098  -0.0000272   0.0000133
           13
    1   0.0000037
    2   0.0000264
    3   0.0000273
 Max gradient component =       3.239E-05
 RMS gradient           =       1.462E-05
 Gradient time:  CPU 17.21 s  wall 4.37 s
rPathMan2.  file_steps = 951
 ------------------------------------------------------------------------
 Reaction path following.  The coordinates are cartesian              
 Step   1 E=    -286.827771 |G|=  0.000091 S_lin= 0.0000 S_tot= 0.0000
 ------------------------------------------------------------------------
 IRC -- neg. force constant =  -0.105653114633567     
 IRC -- max trans/rot const =   1.063184862654064E-004
 In first_irc_step: ISign =            1
 ----------------------------------------------------------------
             Standard Nuclear Orientation (Angstroms)
    I     Atom           X                Y                Z
 ----------------------------------------------------------------
    1      C       1.5226843676     0.5585244606    -0.2109907490
    2      C       0.9008095450    -0.7623331727    -0.0637711186
    3      C      -0.3953789850    -0.9474214441    -0.7221939624
    4      C      -1.1021730153     0.5833629330     0.7270853219
    5      C      -0.6225794021     1.2395036403    -0.4484192674
    6      N       0.7429319398     1.5305012178    -0.5318686269
    7      H       2.5793866057     0.7352680035    -0.0187927518
    8      H       1.5295494381    -1.6354484559     0.1030914034
    9      H      -0.7471715923    -1.7818509433    -1.3149139629
   10      H      -2.0629389626     0.7969444797     1.1850427797
   11      H      -1.2658260381     1.8745106359    -1.0485096800
   12      C      -0.4790974606    -0.7264349488     0.7695592375
   13      H      -0.6453715214    -1.4798751793     1.5350162794
 ----------------------------------------------------------------
 Nuclear Repulsion Energy =   276.4609819354 hartrees
 There are       25 alpha and       24 beta electrons

                       Distance Matrix (Angstroms)
             C (  1)   C (  2)   C (  3)   C (  4)   C (  5)   N (  6)
   C (  2)  1.467333
   C (  3)  2.491620  1.465566
   C (  4)  2.787558  2.539349  2.223346
   C (  5)  2.263241  2.544802  2.215675  1.429105
   N (  6)  1.286746  2.345449  2.733510  2.426200  1.398665
   H (  7)  1.088484  2.249990  3.489333  3.759427  3.269774  2.065964
   H (  8)  2.216351  1.088801  2.204501  3.498350  3.633342  3.323429
   H (  9)  3.442129  2.306646  1.082288  3.144841  3.145619  3.715541
   H ( 10)  3.855185  3.574170  3.075893  1.085547  2.222317  3.370282
   H ( 11)  3.195160  3.552037  2.971104  2.201495  1.084946  2.102467
   C ( 12)  2.572883  1.612412  1.510355  1.451068  2.317104  2.877643
   H ( 13)  3.450229  2.337020  2.332595  2.262382  3.365941  3.906631
             H (  7)   H (  8)   H (  9)   H ( 10)   H ( 11)   C ( 12)
   H (  8)  2.595633
   H (  9)  4.368273  2.686193
   H ( 10)  4.796270  4.471367  3.825077
   H ( 11)  4.140513  4.632507  3.702560  2.604860
   C ( 12)  3.480287  2.303291  2.351764  2.236485  3.269439
   H ( 13)  4.209542  2.608619  2.867692  2.704790  4.279191  1.086850

 
 Applying Cartesian multipole field
    Component          Value
    ---------          -----
     (2,0,0)        1.00000E-11
     (0,2,0)        2.00000E-11
     (0,0,2)       -3.00000E-11
 Nucleus-field energy     =     0.0000000035 hartrees
 Requested basis set is 6-31+G(d,p)
 There are 53 shells and 163 basis functions
 A cutoff of  1.0D-14 yielded   1398 shell pairs
 There are     13492 function pairs
 Smallest overlap matrix eigenvalue = 2.87E-05
 Guess MOs from core Hamiltonian diagonalization
 Mixing HOMO and LUMO in initial guess
 Adding  50% of the LUMO to the HOMO
 An unrestricted hybrid HF-DFT SCF calculation will be
 performed using Pulay DIIS extrapolation
 Exchange:     0.2000 Hartree-Fock + 0.0800 Slater + 0.7200 B88
 Correlation:  0.1900 VWN1RPA + 0.8100 LYP
 Using SG-1 standard quadrature grid
 SCF converges when DIIS error is below 1.0E-08
 using 4 threads for integral computing
 -------------------------------------------------------
 OpenMP Integral computing Module                
 Release: version 1.0, May 2013, Q-Chem Inc. Pittsburgh 
 -------------------------------------------------------
 -------------------------------------------------------
 OpenMP BLAS3 based DFT computing Module                
 Release: version 1.0, May 2013, Q-Chem Inc. Pittsburgh 
 -------------------------------------------------------
 ---------------------------------------
  Cycle       Energy         DIIS Error
 ---------------------------------------
    1    -238.3698765462      9.61E-02
    2    -218.7498902445      7.03E-02
    3    -261.7365994693      7.06E-02
    4    -270.1590071768      6.36E-02
    5    -276.8648532688      4.87E-02
    6    -283.6114760821      2.71E-02
    7    -285.0742203677      1.90E-02
    8    -286.2396667454      1.16E-02
    9    -286.7272709646      5.05E-03
   10    -286.7984388558      2.78E-03
   11    -286.8238068364      1.07E-03
   12    -286.8274604504      4.53E-04
   13    -286.8284895129      1.13E-04
   14    -286.8287025153      6.78E-05
   15    -286.8288316554      3.24E-05
   16    -286.8288704248      1.99E-05
   17    -286.8289146809      1.13E-05
   18    -286.8289284859      2.34E-06
   19    -286.8289295345      6.24E-07
   20    -286.8289296580      2.47E-07
   21    -286.8289296867      1.41E-07
   22    -286.8289296968      3.95E-08
   23    -286.8289296983      1.07E-08
   24    -286.8289296984      4.28E-09 Convergence criterion met
 ---------------------------------------
 <S^2> = 0.7918
 SCF time:  CPU 118.56 s  wall 29.94 s
 SCF   energy in the final basis set = -286.82892970
 Total energy in the final basis set = -286.82892970
 
 --------------------------------------------------------------
 
                    Orbital Energies (a.u.)
 --------------------------------------------------------------
 
 Alpha MOs
 -- Occupied --
-14.342 -10.239 -10.236 -10.228 -10.224 -10.215 -10.211  -0.964
 -0.871  -0.774  -0.665  -0.636  -0.579  -0.543  -0.510  -0.480
 -0.456  -0.435  -0.416  -0.368  -0.350  -0.290  -0.284  -0.253
 -0.182
 -- Virtual --
 -0.050   0.000   0.007   0.019   0.025   0.028   0.045   0.050
  0.066   0.071   0.072   0.097   0.102   0.104   0.112   0.116
  0.119   0.127   0.136   0.155   0.167   0.179   0.179   0.190
  0.193   0.197   0.200   0.212   0.223   0.243   0.250   0.258
  0.269   0.277   0.290   0.299   0.310   0.320   0.329   0.341
  0.344   0.406   0.439   0.459   0.601   0.652   0.663   0.678
  0.699   0.711   0.728   0.746   0.752   0.761   0.780   0.791
  0.820   0.830   0.870   0.889   0.914   0.932   0.956   0.994
  0.999   1.012   1.026   1.036   1.078   1.110   1.124   1.136
  1.186   1.225   1.252   1.313   1.357   1.399   1.407   1.497
  1.556   1.567   1.655   1.675   1.740   1.790   1.802   1.836
  1.879   1.918   1.962   1.984   2.017   2.063   2.073   2.080
  2.097   2.170   2.215   2.225   2.282   2.337   2.362   2.373
  2.407   2.417   2.453   2.481   2.495   2.521   2.529   2.548
  2.587   2.601   2.624   2.644   2.660   2.731   2.752   2.773
  2.862   2.919   2.980   3.093   3.121   3.270   3.283   3.371
  3.452   3.620   3.669   4.162   4.356   4.416   4.555   4.556
  4.644   4.719
 
 Beta MOs
 -- Occupied --
-14.341 -10.242 -10.236 -10.229 -10.224 -10.204 -10.203  -0.961
 -0.863  -0.766  -0.656  -0.634  -0.567  -0.540  -0.504  -0.474
 -0.453  -0.433  -0.408  -0.367  -0.335  -0.291  -0.283  -0.230
 -- Virtual --
 -0.068  -0.036   0.002   0.007   0.019   0.025   0.031   0.045
  0.050   0.068   0.071   0.075   0.097   0.102   0.106   0.114
  0.117   0.120   0.130   0.138   0.156   0.168   0.179   0.182
  0.192   0.195   0.199   0.204   0.213   0.224   0.245   0.254
  0.260   0.271   0.280   0.292   0.301   0.315   0.324   0.332
  0.345   0.347   0.413   0.442   0.462   0.605   0.663   0.667
  0.681   0.714   0.725   0.731   0.747   0.761   0.768   0.781
  0.791   0.824   0.842   0.873   0.890   0.915   0.938   0.957
  0.997   1.004   1.015   1.031   1.039   1.080   1.119   1.126
  1.140   1.191   1.231   1.259   1.316   1.360   1.403   1.410
  1.503   1.557   1.573   1.661   1.679   1.756   1.797   1.816
  1.842   1.891   1.924   1.970   1.990   2.025   2.069   2.077
  2.090   2.104   2.176   2.223   2.230   2.285   2.340   2.366
  2.375   2.410   2.424   2.459   2.486   2.500   2.530   2.536
  2.549   2.592   2.607   2.632   2.650   2.662   2.735   2.755
  2.782   2.867   2.924   2.985   3.094   3.122   3.274   3.284
  3.374   3.455   3.626   3.671   4.162   4.358   4.429   4.553
  4.577   4.647   4.723
 --------------------------------------------------------------
 
          Ground-State Mulliken Net Atomic Charges

     Atom                 Charge (a.u.)    Spin (a.u.)
  --------------------------------------------------------
      1 C                    -0.067294      -0.056385
      2 C                    -0.072175      -0.025489
      3 C                    -0.262563       0.683383
      4 C                     0.002459       0.621017
      5 C                    -0.146649      -0.202217
      6 N                    -0.146409       0.038957
      7 H                     0.134131       0.002256
      8 H                     0.142824       0.027208
      9 H                     0.129198       0.005453
     10 H                     0.142723      -0.030473
     11 H                     0.127284       0.010969
     12 C                    -0.123790      -0.076309
     13 H                     0.140261       0.001629
  --------------------------------------------------------
  Sum of atomic charges =     0.000000
  Sum of spin   charges =     1.000000

 -----------------------------------------------------------------
                    Cartesian Multipole Moments
 -----------------------------------------------------------------
    Charge (ESU x 10^10)
                 0.0000
    Dipole Moment (Debye)
         X      -0.4426      Y      -2.3544      Z       0.8797
       Tot       2.5520
    Quadrupole Moments (Debye-Ang)
        XX     -37.6063     XY      -3.1941     YY     -43.7912
        XZ       0.3752     YZ       0.1200     ZZ     -43.0897
    Octopole Moments (Debye-Ang^2)
       XXX      -1.5593    XXY      -5.4230    XYY      -9.3946
       YYY     -37.2834    XXZ       5.1774    XYZ       2.2728
       YYZ       2.9506    XZZ      -6.4994    YZZ     -10.6868
       ZZZ       8.3414
    Hexadecapole Moments (Debye-Ang^3)
      XXXX    -265.5997   XXXY      -8.6733   XXYY     -99.9965
      XYYY     -22.3104   YYYY    -340.8856   XXXZ      21.1182
      XXYZ       7.5616   XYYZ      16.0861   YYYZ      18.8300
      XXZZ     -73.6459   XYZZ      -2.7065   YYZZ     -76.2870
      XZZZ      24.4281   YZZZ      14.9912   ZZZZ    -154.3865
 -----------------------------------------------------------------
 Calculating analytic gradient of the SCF energy
 Gradient of SCF Energy
            1           2           3           4           5           6
    1   0.0005807  -0.0006138  -0.0019736   0.0010967   0.0003618   0.0004088
    2   0.0005758   0.0006065   0.0068331   0.0002059  -0.0076268  -0.0000472
    3   0.0008233   0.0011640  -0.0019578   0.0051116  -0.0056166   0.0010543
            7           8           9          10          11          12
    1   0.0003583  -0.0009014   0.0002391  -0.0000510   0.0003045   0.0002297
    2   0.0001984  -0.0000882   0.0041383   0.0006252  -0.0048712   0.0005626
    3   0.0001074  -0.0006334   0.0001036   0.0012151  -0.0020422   0.0012697
           13
    1  -0.0000398
    2  -0.0011125
    3  -0.0005990
 Max gradient component =       7.627E-03
 RMS gradient           =       2.420E-03
 Gradient time:  CPU 17.25 s  wall 4.37 s
rPathMan2.  file_steps = 951
 IRC --- Status = 2.  Assess steepest descent step
 IRC --- Previous SD length =   0.150000
 IRC --- Point 1 E =     -286.827771 |G| =   0.000091 G.D1 =   0.000003
 IRC --- Point 2 E =     -286.828930 |G| =   0.015113 G.D1 =  -0.014957
 IRC --- Angle(G1/G2) =    8.25 Deg.  Curvature =  -0.0997
 IRC --- Corrector step required
 IRC --- equal length displacement: B_eq =   0.021572
 IRC --- chosen bisector length  : B_len =   0.015000
 ----------------------------------------------------------------
             Standard Nuclear Orientation (Angstroms)
    I     Atom           X                Y                Z
 ----------------------------------------------------------------
    1      C       1.5216541086     0.5582408625    -0.2116716452
    2      C       0.9009404735    -0.7626318440    -0.0630210660
    3      C      -0.3937744076    -0.9464315952    -0.7184282080
    4      C      -1.1014256559     0.5858780505     0.7244808261
    5      C      -0.6227283970     1.2361284410    -0.4457600745
    6      N       0.7423120717     1.5313170229    -0.5324003951
    7      H       2.5794374934     0.7351865160    -0.0189433849
    8      H       1.5293414978    -1.6354314201     0.1032401711
    9      H      -0.7480803265    -1.7807367487    -1.3160431130
   10      H      -2.0629858554     0.7963878770     1.1843814090
   11      H      -1.2658374143     1.8748745533    -1.0479933541
   12      C      -0.4784971151    -0.7277640335     0.7679746259
   13      H      -0.6455315549    -1.4797664544     1.5345191118
 ----------------------------------------------------------------
 Nuclear Repulsion Energy =   276.6462139650 hartrees
 There are       25 alpha and       24 beta electrons

                       Distance Matrix (Angstroms)
             C (  1)   C (  2)   C (  3)   C (  4)   C (  5)   N (  6)
   C (  2)  1.466999
   C (  3)  2.487912  1.462747
   C (  4)  2.785263  2.539313  2.220525
   C (  5)  2.261129  2.542263  2.211410  1.421774
   N (  6)  1.287291  2.346845  2.732130  2.423422  1.399278
   H (  7)  1.089660  2.250057  3.486704  3.758155  3.269095  2.067001
   H (  8)  2.216174  1.088260  2.201871  3.498727  3.630243  3.324417
   H (  9)  3.441242  2.307785  1.085699  3.144751  3.142385  3.715517
   H ( 10)  3.854260  3.573712  3.073170  1.086472  2.219251  3.370038
   H ( 11)  3.194224  3.552680  2.971342  2.197773  1.088242  2.101555
   C ( 12)  2.571793  1.610782  1.504788  1.454506  2.313186  2.878332
   H ( 13)  3.449543  2.336235  2.328862  2.265147  3.361266  3.907031
             H (  7)   H (  8)   H (  9)   H ( 10)   H ( 11)   C ( 12)
   H (  8)  2.595662
   H (  9)  4.368605  2.687402
   H ( 10)  4.796231  4.470730  3.823960
   H ( 11)  4.140528  4.632560  3.701813  2.604242
   C ( 12)  3.480004  2.301553  2.350438  2.237641  3.269766
   H ( 13)  4.209476  2.608230  2.868241  2.704191  4.278758  1.086738

 
 Applying Cartesian multipole field
    Component          Value
    ---------          -----
     (2,0,0)        1.00000E-11
     (0,2,0)        2.00000E-11
     (0,0,2)       -3.00000E-11
 Nucleus-field energy     =     0.0000000035 hartrees
 Requested basis set is 6-31+G(d,p)
 There are 53 shells and 163 basis functions
 A cutoff of  1.0D-14 yielded   1398 shell pairs
 There are     13492 function pairs
 Smallest overlap matrix eigenvalue = 2.83E-05
 Guess MOs from core Hamiltonian diagonalization
 Mixing HOMO and LUMO in initial guess
 Adding  50% of the LUMO to the HOMO
 An unrestricted hybrid HF-DFT SCF calculation will be
 performed using Pulay DIIS extrapolation
 Exchange:     0.2000 Hartree-Fock + 0.0800 Slater + 0.7200 B88
 Correlation:  0.1900 VWN1RPA + 0.8100 LYP
 Using SG-1 standard quadrature grid
 SCF converges when DIIS error is below 1.0E-08
 using 4 threads for integral computing
 -------------------------------------------------------
 OpenMP Integral computing Module                
 Release: version 1.0, May 2013, Q-Chem Inc. Pittsburgh 
 -------------------------------------------------------
 -------------------------------------------------------
 OpenMP BLAS3 based DFT computing Module                
 Release: version 1.0, May 2013, Q-Chem Inc. Pittsburgh 
 -------------------------------------------------------
 ---------------------------------------
  Cycle       Energy         DIIS Error
 ---------------------------------------
    1    -238.4748024436      9.60E-02
    2    -218.3479783306      7.02E-02
    3    -261.9976323279      7.05E-02
    4    -269.9576280497      6.40E-02
    5    -277.0963574522      4.88E-02
    6    -283.6623064224      2.68E-02
    7    -285.3807520054      1.73E-02
    8    -286.1894166744      1.23E-02
    9    -286.7526562916      4.30E-03
   10    -286.7988763109      2.70E-03
   11    -286.8256110121      7.53E-04
   12    -286.8273227258      5.08E-04
   13    -286.8284275936      1.08E-04
   14    -286.8286535851      6.49E-05
   15    -286.8287728824      2.97E-05
   16    -286.8288130345      1.79E-05
   17    -286.8288525277      1.02E-05
   18    -286.8288655328      2.49E-06
   19    -286.8288669698      7.72E-07
   20    -286.8288671178      2.90E-07
   21    -286.8288671528      1.74E-07
   22    -286.8288671628      4.53E-08
   23    -286.8288671636      9.14E-09 Convergence criterion met
 ---------------------------------------
 <S^2> = 0.7912
 SCF time:  CPU 114.64 s  wall 29.67 s
 SCF   energy in the final basis set = -286.82886716
 Total energy in the final basis set = -286.82886716
 
 --------------------------------------------------------------
 
                    Orbital Energies (a.u.)
 --------------------------------------------------------------
 
 Alpha MOs
 -- Occupied --
-14.342 -10.239 -10.236 -10.228 -10.224 -10.215 -10.211  -0.964
 -0.872  -0.775  -0.665  -0.636  -0.579  -0.543  -0.510  -0.480
 -0.456  -0.435  -0.416  -0.368  -0.350  -0.290  -0.285  -0.253
 -0.182
 -- Virtual --
 -0.049   0.000   0.008   0.019   0.025   0.028   0.045   0.050
  0.066   0.071   0.072   0.097   0.102   0.104   0.112   0.116
  0.119   0.127   0.137   0.155   0.167   0.179   0.179   0.190
  0.193   0.197   0.200   0.212   0.223   0.243   0.250   0.259
  0.270   0.277   0.290   0.299   0.311   0.320   0.330   0.341
  0.344   0.408   0.439   0.459   0.600   0.652   0.662   0.678
  0.699   0.711   0.728   0.747   0.752   0.761   0.781   0.791
  0.820   0.831   0.870   0.889   0.913   0.931   0.955   0.994
  0.998   1.012   1.027   1.036   1.078   1.111   1.124   1.136
  1.186   1.226   1.252   1.313   1.357   1.399   1.407   1.497
  1.556   1.568   1.656   1.676   1.742   1.791   1.803   1.839
  1.878   1.920   1.963   1.984   2.017   2.063   2.074   2.081
  2.099   2.171   2.216   2.224   2.283   2.336   2.363   2.372
  2.408   2.416   2.453   2.481   2.496   2.520   2.530   2.547
  2.587   2.600   2.626   2.644   2.660   2.732   2.753   2.773
  2.862   2.919   2.980   3.094   3.119   3.268   3.280   3.367
  3.451   3.619   3.667   4.162   4.356   4.418   4.557   4.558
  4.644   4.721
 
 Beta MOs
 -- Occupied --
-14.341 -10.241 -10.236 -10.229 -10.224 -10.204 -10.203  -0.962
 -0.864  -0.767  -0.656  -0.635  -0.567  -0.540  -0.503  -0.474
 -0.453  -0.433  -0.408  -0.366  -0.335  -0.291  -0.284  -0.231
 -- Virtual --
 -0.068  -0.036   0.002   0.008   0.019   0.025   0.031   0.045
  0.050   0.068   0.071   0.075   0.097   0.102   0.106   0.114
  0.117   0.120   0.130   0.138   0.156   0.168   0.179   0.182
  0.193   0.195   0.199   0.204   0.213   0.224   0.245   0.254
  0.260   0.271   0.281   0.292   0.301   0.316   0.324   0.332
  0.345   0.348   0.415   0.442   0.462   0.604   0.663   0.667
  0.680   0.715   0.725   0.731   0.747   0.761   0.768   0.781
  0.791   0.824   0.843   0.873   0.889   0.914   0.938   0.957
  0.997   1.003   1.015   1.031   1.039   1.080   1.120   1.126
  1.140   1.191   1.232   1.259   1.316   1.361   1.403   1.410
  1.503   1.558   1.573   1.662   1.680   1.756   1.798   1.817
  1.845   1.890   1.926   1.970   1.990   2.025   2.069   2.078
  2.092   2.106   2.177   2.223   2.230   2.286   2.339   2.366
  2.375   2.411   2.423   2.459   2.487   2.500   2.530   2.535
  2.548   2.591   2.607   2.634   2.650   2.663   2.736   2.756
  2.782   2.868   2.924   2.985   3.096   3.121   3.272   3.281
  3.371   3.454   3.626   3.670   4.162   4.358   4.430   4.555
  4.580   4.646   4.724
 --------------------------------------------------------------
 
          Ground-State Mulliken Net Atomic Charges

     Atom                 Charge (a.u.)    Spin (a.u.)
  --------------------------------------------------------
      1 C                    -0.068828      -0.056421
      2 C                    -0.071903      -0.025872
      3 C                    -0.260246       0.685218
      4 C                     0.005283       0.616551
      5 C                    -0.148854      -0.200805
      6 N                    -0.146592       0.039194
      7 H                     0.134053       0.002246
      8 H                     0.143013       0.027341
      9 H                     0.129491       0.005275
     10 H                     0.142740      -0.030338
     11 H                     0.126927       0.010999
     12 C                    -0.125218      -0.075184
     13 H                     0.140135       0.001796
  --------------------------------------------------------
  Sum of atomic charges =    -0.000000
  Sum of spin   charges =     1.000000

 -----------------------------------------------------------------
                    Cartesian Multipole Moments
 -----------------------------------------------------------------
    Charge (ESU x 10^10)
                -0.0000
    Dipole Moment (Debye)
         X      -0.4436      Y      -2.3685      Z       0.8799
       Tot       2.5653
    Quadrupole Moments (Debye-Ang)
        XX     -37.6158     XY      -3.1760     YY     -43.8198
        XZ       0.3716     YZ       0.1372     ZZ     -43.0720
    Octopole Moments (Debye-Ang^2)
       XXX      -1.5968    XXY      -5.4705    XYY      -9.3580
       YYY     -37.3319    XXZ       5.1786    XYZ       2.2582
       YYZ       2.9860    XZZ      -6.5136    YZZ     -10.6972
       ZZZ       8.3243
    Hexadecapole Moments (Debye-Ang^3)
      XXXX    -265.5488   XXXY      -8.5527   XXYY    -100.0115
      XYYY     -22.1913   YYYY    -340.9791   XXXZ      21.0925
      XXYZ       7.5910   XYYZ      16.0414   YYYZ      18.9092
      XXZZ     -73.5379   XYZZ      -2.6695   YYZZ     -76.2524
      XZZZ      24.4097   YZZZ      15.0709   ZZZZ    -153.8439
 -----------------------------------------------------------------
 Calculating analytic gradient of the SCF energy
 Gradient of SCF Energy
            1           2           3           4           5           6
    1  -0.0006654  -0.0019750   0.0002692   0.0023896   0.0012641  -0.0004777
    2  -0.0004523   0.0002002   0.0099157   0.0040121  -0.0126341   0.0015595
    3   0.0006570   0.0007906   0.0020950   0.0008879  -0.0004395   0.0005983
            7           8           9          10          11          12
    1   0.0010580  -0.0011938  -0.0005422  -0.0004859  -0.0006699   0.0010377
    2   0.0003177   0.0001395   0.0022883   0.0005600  -0.0035325  -0.0013711
    3   0.0003323  -0.0006821  -0.0011048   0.0017287  -0.0032547  -0.0009764
           13
    1  -0.0000087
    2  -0.0010030
    3  -0.0006324
 Max gradient component =       1.263E-02
 RMS gradient           =       2.943E-03
 Gradient time:  CPU 17.20 s  wall 4.37 s
rPathMan2.  file_steps = 951
 IRC --- Status = 3.  Assess initial corrector step
 IRC --- bisector search: b =  0.000000 E =     -286.828930 G.B =  -0.001087
 IRC --- bisector search: b =  0.015000 E =     -286.828867 G.B =   0.009462
 IRC --- performed gradient/energy interpolation
 IRC --- bisector search:  estimate b(min) =   1.550766911723514E-003
 ----------------------------------------------------------------
             Standard Nuclear Orientation (Angstroms)
    I     Atom           X                Y                Z
 ----------------------------------------------------------------
    1      C       1.5225778548     0.5584951409    -0.2110611431
    2      C       0.9008230809    -0.7623640507    -0.0636935748
    3      C      -0.3952130966    -0.9473191091    -0.7218046419
    4      C      -1.1020957500     0.5836229571     0.7268160575
    5      C      -0.6225948058     1.2391546972    -0.4481443482
    6      N       0.7428678551     1.5305855593    -0.5319236035
    7      H       2.5793918667     0.7352595790    -0.0188083249
    8      H       1.5295279403    -1.6354466947     0.1031067837
    9      H      -0.7472655413    -1.7817357529    -1.3150306995
   10      H      -2.0629438106     0.7968869357     1.1849744043
   11      H      -1.2658272143     1.8745482593    -1.0484562999
   12      C      -0.4790353942    -0.7265723555     0.7693954132
   13      H      -0.6453880664    -1.4798639388     1.5349648800
 ----------------------------------------------------------------
 Nuclear Repulsion Energy =   276.4800858864 hartrees
 There are       25 alpha and       24 beta electrons

                       Distance Matrix (Angstroms)
             C (  1)   C (  2)   C (  3)   C (  4)   C (  5)   N (  6)
   C (  2)  1.467299
   C (  3)  2.491236  1.465274
   C (  4)  2.787321  2.539344  2.223054
   C (  5)  2.263023  2.544540  2.215234  1.428347
   N (  6)  1.286802  2.345593  2.733367  2.425913  1.398728
   H (  7)  1.088606  2.249997  3.489061  3.759295  3.269703  2.066071
   H (  8)  2.216333  1.088745  2.204229  3.498389  3.633021  3.323531
   H (  9)  3.442037  2.306764  1.082640  3.144831  3.145284  3.715539
   H ( 10)  3.855089  3.574122  3.075612  1.085642  2.222000  3.370257
   H ( 11)  3.195063  3.552103  2.971129  2.201111  1.085287  2.102373
   C ( 12)  2.572771  1.612243  1.509779  1.451423  2.316699  2.877714
   H ( 13)  3.450158  2.336939  2.332209  2.262668  3.365457  3.906672
             H (  7)   H (  8)   H (  9)   H ( 10)   H ( 11)   C ( 12)
   H (  8)  2.595636
   H (  9)  4.368307  2.686318
   H ( 10)  4.796266  4.471302  3.824961
   H ( 11)  4.140515  4.632513  3.702483  2.604796
   C ( 12)  3.480258  2.303111  2.351627  2.236605  3.269473
   H ( 13)  4.209535  2.608579  2.867748  2.704728  4.279146  1.086839

 
 Applying Cartesian multipole field
    Component          Value
    ---------          -----
     (2,0,0)        1.00000E-11
     (0,2,0)        2.00000E-11
     (0,0,2)       -3.00000E-11
 Nucleus-field energy     =     0.0000000035 hartrees
 Requested basis set is 6-31+G(d,p)
 There are 53 shells and 163 basis functions
 A cutoff of  1.0D-14 yielded   1398 shell pairs
 There are     13492 function pairs
 Smallest overlap matrix eigenvalue = 2.86E-05
 Guess MOs from core Hamiltonian diagonalization
 Mixing HOMO and LUMO in initial guess
 Adding  50% of the LUMO to the HOMO
 An unrestricted hybrid HF-DFT SCF calculation will be
 performed using Pulay DIIS extrapolation
 Exchange:     0.2000 Hartree-Fock + 0.0800 Slater + 0.7200 B88
 Correlation:  0.1900 VWN1RPA + 0.8100 LYP
 Using SG-1 standard quadrature grid
 SCF converges when DIIS error is below 1.0E-08
 using 4 threads for integral computing
 -------------------------------------------------------
 OpenMP Integral computing Module                
 Release: version 1.0, May 2013, Q-Chem Inc. Pittsburgh 
 -------------------------------------------------------
 -------------------------------------------------------
 OpenMP BLAS3 based DFT computing Module                
 Release: version 1.0, May 2013, Q-Chem Inc. Pittsburgh 
 -------------------------------------------------------
 ---------------------------------------
  Cycle       Energy         DIIS Error
 ---------------------------------------
    1    -238.3801682808      9.61E-02
    2    -218.7132981664      7.03E-02
    3    -261.7657489127      7.06E-02
    4    -270.1263167331      6.37E-02
    5    -276.8840570121      4.87E-02
    6    -283.6143955023      2.71E-02
    7    -285.0982297597      1.89E-02
    8    -286.2366300427      1.16E-02
    9    -286.7294118792      4.99E-03
   10    -286.7984562128      2.77E-03
   11    -286.8239624865      1.05E-03
   12    -286.8274462814      4.60E-04
   13    -286.8284904066      1.12E-04
   14    -286.8287042016      6.76E-05
   15    -286.8288327367      3.22E-05
   16    -286.8288715411      1.97E-05
   17    -286.8289154084      1.13E-05
   18    -286.8289293080      2.34E-06
   19    -286.8289303807      6.37E-07
   20    -286.8289305051      2.52E-07
   21    -286.8289305345      1.45E-07
   22    -286.8289305448      4.01E-08
   23    -286.8289305462      1.05E-08
   24    -286.8289305463      4.21E-09 Convergence criterion met
 ---------------------------------------
 <S^2> = 0.7918
 SCF time:  CPU 118.90 s  wall 30.64 s
 SCF   energy in the final basis set = -286.82893055
 Total energy in the final basis set = -286.82893055
 
 --------------------------------------------------------------
 
                    Orbital Energies (a.u.)
 --------------------------------------------------------------
 
 Alpha MOs
 -- Occupied --
-14.342 -10.239 -10.236 -10.228 -10.224 -10.215 -10.211  -0.964
 -0.871  -0.774  -0.665  -0.636  -0.579  -0.543  -0.510  -0.480
 -0.456  -0.435  -0.416  -0.368  -0.350  -0.290  -0.284  -0.253
 -0.182
 -- Virtual --
 -0.050   0.000   0.007   0.019   0.025   0.028   0.045   0.050
  0.066   0.071   0.072   0.097   0.102   0.104   0.112   0.116
  0.119   0.127   0.137   0.155   0.167   0.179   0.179   0.190
  0.193   0.197   0.200   0.212   0.223   0.243   0.250   0.258
  0.269   0.277   0.290   0.299   0.310   0.320   0.330   0.341
  0.344   0.406   0.439   0.459   0.601   0.652   0.663   0.678
  0.699   0.711   0.728   0.746   0.752   0.761   0.780   0.791
  0.820   0.830   0.870   0.889   0.914   0.932   0.956   0.994
  0.998   1.012   1.026   1.036   1.078   1.111   1.124   1.136
  1.186   1.225   1.252   1.313   1.357   1.399   1.407   1.497
  1.556   1.567   1.655   1.675   1.740   1.790   1.802   1.836
  1.879   1.918   1.962   1.984   2.017   2.063   2.073   2.080
  2.097   2.170   2.215   2.225   2.282   2.337   2.362   2.372
  2.407   2.417   2.453   2.481   2.495   2.521   2.529   2.548
  2.587   2.600   2.624   2.644   2.660   2.731   2.752   2.773
  2.862   2.919   2.980   3.093   3.121   3.270   3.282   3.370
  3.452   3.620   3.668   4.162   4.356   4.417   4.555   4.556
  4.644   4.720
 
 Beta MOs
 -- Occupied --
-14.341 -10.242 -10.236 -10.229 -10.224 -10.204 -10.203  -0.961
 -0.864  -0.766  -0.656  -0.634  -0.567  -0.540  -0.504  -0.474
 -0.453  -0.433  -0.408  -0.367  -0.335  -0.291  -0.283  -0.230
 -- Virtual --
 -0.068  -0.036   0.002   0.007   0.019   0.025   0.031   0.045
  0.050   0.068   0.071   0.075   0.097   0.102   0.106   0.114
  0.117   0.120   0.130   0.138   0.156   0.168   0.179   0.182
  0.192   0.195   0.199   0.204   0.213   0.224   0.245   0.254
  0.260   0.271   0.280   0.292   0.301   0.315   0.324   0.332
  0.345   0.347   0.413   0.442   0.462   0.605   0.663   0.667
  0.681   0.714   0.725   0.731   0.747   0.761   0.768   0.781
  0.791   0.824   0.842   0.873   0.890   0.915   0.938   0.957
  0.997   1.003   1.015   1.031   1.039   1.080   1.119   1.126
  1.140   1.191   1.232   1.259   1.316   1.360   1.403   1.410
  1.503   1.557   1.573   1.661   1.679   1.756   1.797   1.816
  1.843   1.890   1.924   1.970   1.990   2.025   2.069   2.077
  2.090   2.105   2.176   2.223   2.230   2.285   2.340   2.366
  2.375   2.410   2.423   2.459   2.486   2.500   2.530   2.536
  2.549   2.592   2.607   2.632   2.650   2.662   2.735   2.755
  2.782   2.867   2.924   2.985   3.094   3.122   3.274   3.284
  3.374   3.455   3.626   3.671   4.162   4.358   4.429   4.553
  4.577   4.647   4.723
 --------------------------------------------------------------
 
          Ground-State Mulliken Net Atomic Charges

     Atom                 Charge (a.u.)    Spin (a.u.)
  --------------------------------------------------------
      1 C                    -0.067454      -0.056392
      2 C                    -0.072146      -0.025529
      3 C                    -0.262327       0.683570
      4 C                     0.002749       0.620564
      5 C                    -0.146874      -0.202075
      6 N                    -0.146428       0.038982
      7 H                     0.134123       0.002255
      8 H                     0.142844       0.027221
      9 H                     0.129228       0.005435
     10 H                     0.142725      -0.030459
     11 H                     0.127248       0.010973
     12 C                    -0.123936      -0.076191
     13 H                     0.140248       0.001646
  --------------------------------------------------------
  Sum of atomic charges =     0.000000
  Sum of spin   charges =     1.000000

 -----------------------------------------------------------------
                    Cartesian Multipole Moments
 -----------------------------------------------------------------
    Charge (ESU x 10^10)
                 0.0000
    Dipole Moment (Debye)
         X      -0.4427      Y      -2.3558      Z       0.8797
       Tot       2.5534
    Quadrupole Moments (Debye-Ang)
        XX     -37.6073     XY      -3.1923     YY     -43.7942
        XZ       0.3748     YZ       0.1218     ZZ     -43.0879
    Octopole Moments (Debye-Ang^2)
       XXX      -1.5631    XXY      -5.4279    XYY      -9.3908
       YYY     -37.2884    XXZ       5.1775    XYZ       2.2713
       YYZ       2.9542    XZZ      -6.5009    YZZ     -10.6879
       ZZZ       8.3395
    Hexadecapole Moments (Debye-Ang^3)
      XXXX    -265.5944   XXXY      -8.6608   XXYY     -99.9980
      XYYY     -22.2982   YYYY    -340.8952   XXXZ      21.1156
      XXYZ       7.5646   XYYZ      16.0816   YYYZ      18.8382
      XXZZ     -73.6347   XYZZ      -2.7027   YYZZ     -76.2834
      XZZZ      24.4263   YZZZ      14.9994   ZZZZ    -154.3302
 -----------------------------------------------------------------
 Calculating analytic gradient of the SCF energy
 Gradient of SCF Energy
            1           2           3           4           5           6
    1   0.0004517  -0.0007534  -0.0017420   0.0012257   0.0004603   0.0003166
    2   0.0004695   0.0005645   0.0071527   0.0005966  -0.0081408   0.0001188
    3   0.0008060   0.0011258  -0.0015427   0.0046828  -0.0050877   0.0010069
            7           8           9          10          11          12
    1   0.0004309  -0.0009316   0.0001580  -0.0000958   0.0002022   0.0003139
    2   0.0002108  -0.0000647   0.0039452   0.0006186  -0.0047318   0.0003618
    3   0.0001307  -0.0006384  -0.0000217   0.0012680  -0.0021687   0.0010416
           13
    1  -0.0000366
    2  -0.0011012
    3  -0.0006025
 Max gradient component =       8.141E-03
 RMS gradient           =       2.408E-03
 Gradient time:  CPU 17.26 s  wall 4.37 s
rPathMan2.  file_steps = 951
 IRC --- Status = 4.  Checking bisector search.
 IRC --- Bisector search finished successfully.
 ------------------------------------------------------------------------
 Reaction path following.  The coordinates are cartesian              
 Step   2 E=    -286.828931 |G|=  0.015041 S_lin= 0.1499 S_tot= 0.1499
 ------------------------------------------------------------------------
  IRC -- SD step length =   0.150000000000000     
 ----------------------------------------------------------------
             Standard Nuclear Orientation (Angstroms)
    I     Atom           X                Y                Z
 ----------------------------------------------------------------
    1      C       1.5201939981     0.5560176077    -0.2153149268
    2      C       0.9047991784    -0.7653432543    -0.0696348473
    3      C      -0.3860201689    -0.9850666522    -0.7136630621
    4      C      -1.1085640183     0.5804745265     0.7021034171
    5      C      -0.6250240500     1.2821165809    -0.4212944742
    6      N       0.7411969648     1.5299587687    -0.5372373496
    7      H       2.5771177831     0.7341472671    -0.0194978452
    8      H       1.5344442420    -1.6351053148     0.1064760221
    9      H      -0.7480993377    -1.8025559426    -1.3149163920
   10      H      -2.0624380743     0.7936225028     1.1782825572
   11      H      -1.2668945433     1.8995198170    -1.0370110821
   12      C      -0.4806920611    -0.7284819671     0.7638982573
   13      H      -0.6451949942    -1.4740527129     1.5381446286
 ----------------------------------------------------------------
 Nuclear Repulsion Energy =   276.0772003552 hartrees
 There are       25 alpha and       24 beta electrons

                       Distance Matrix (Angstroms)
             C (  1)   C (  2)   C (  3)   C (  4)   C (  5)   N (  6)
   C (  2)  1.464899
   C (  3)  2.501388  1.459200
   C (  4)  2.784353  2.541739  2.231005
   C (  5)  2.274117  2.579945  2.298417  1.410013
   N (  6)  1.288034  2.348154  2.761720  2.420558  1.393351
   H (  7)  1.089570  2.246694  3.495390  3.758800  3.273442  2.066876
   H (  8)  2.214672  1.088096  2.187090  3.499866  3.667701  3.325844
   H (  9)  3.452122  2.314867  1.077449  3.142791  3.213863  3.732083
   H ( 10)  3.851470  3.576614  3.090885  1.087223  2.205319  3.368318
   H ( 11)  3.201257  3.571213  3.033370  2.188485  1.082724  2.102090
   C ( 12)  2.571448  1.617319  1.502660  1.453069  2.338380  2.878632
   H ( 13)  3.447422  2.343012  2.318818  2.266000  3.381757  3.905557
             H (  7)   H (  8)   H (  9)   H ( 10)   H ( 11)   C ( 12)
   H (  8)  2.591601
   H (  9)  4.378361  2.694142
   H ( 10)  4.792045  4.470464  3.831928
   H ( 11)  4.143653  4.652810  3.748566  2.600658
   C ( 12)  3.478965  2.305416  2.355125  2.233929  3.281430
   H ( 13)  4.205437  2.612746  2.873754  2.698227  4.289397  1.087380

 
 Applying Cartesian multipole field
    Component          Value
    ---------          -----
     (2,0,0)        1.00000E-11
     (0,2,0)        2.00000E-11
     (0,0,2)       -3.00000E-11
 Nucleus-field energy     =     0.0000000037 hartrees
 Requested basis set is 6-31+G(d,p)
 There are 53 shells and 163 basis functions
 A cutoff of  1.0D-14 yielded   1398 shell pairs
 There are     13492 function pairs
 Smallest overlap matrix eigenvalue = 2.88E-05
 Guess MOs from core Hamiltonian diagonalization
 Mixing HOMO and LUMO in initial guess
 Adding  50% of the LUMO to the HOMO
 An unrestricted hybrid HF-DFT SCF calculation will be
 performed using Pulay DIIS extrapolation
 Exchange:     0.2000 Hartree-Fock + 0.0800 Slater + 0.7200 B88
 Correlation:  0.1900 VWN1RPA + 0.8100 LYP
 Using SG-1 standard quadrature grid
 SCF converges when DIIS error is below 1.0E-08
 using 4 threads for integral computing
 -------------------------------------------------------
 OpenMP Integral computing Module                
 Release: version 1.0, May 2013, Q-Chem Inc. Pittsburgh 
 -------------------------------------------------------
 -------------------------------------------------------
 OpenMP BLAS3 based DFT computing Module                
 Release: version 1.0, May 2013, Q-Chem Inc. Pittsburgh 
 -------------------------------------------------------
 ---------------------------------------
  Cycle       Energy         DIIS Error
 ---------------------------------------
    1    -238.5549980684      9.59E-02
    2    -217.6780179024      7.06E-02
    3    -262.6847013722      7.11E-02
    4    -270.1821007492      6.29E-02
    5    -276.5093501800      4.83E-02
    6    -283.9639260769      2.54E-02
    7    -284.9983216331      1.99E-02
    8    -286.1798289564      1.19E-02
    9    -286.7531159457      4.61E-03
   10    -286.8198834484      1.77E-03
   11    -286.8306030638      5.42E-04
   12    -286.8314261437      3.27E-04
   13    -286.8318942576      5.56E-05
   14    -286.8319677661      3.63E-05
   15    -286.8319883539      1.44E-05
   16    -286.8319986472      7.77E-06
   17    -286.8320042864      4.61E-06
   18    -286.8320081938      2.04E-06
   19    -286.8320091579      9.56E-07
   20    -286.8320092967      3.24E-07
   21    -286.8320093034      9.94E-08
   22    -286.8320093041      2.04E-08
   23    -286.8320093042      5.39E-09 Convergence criterion met
 ---------------------------------------
 <S^2> = 0.7837
 SCF time:  CPU 114.16 s  wall 28.92 s
 SCF   energy in the final basis set = -286.83200930
 Total energy in the final basis set = -286.83200930
 
 --------------------------------------------------------------
 
                    Orbital Energies (a.u.)
 --------------------------------------------------------------
 
 Alpha MOs
 -- Occupied --
-14.342 -10.235 -10.234 -10.229 -10.225 -10.213 -10.212  -0.962
 -0.872  -0.775  -0.666  -0.638  -0.580  -0.543  -0.509  -0.483
 -0.457  -0.439  -0.416  -0.368  -0.351  -0.290  -0.284  -0.250
 -0.184
 -- Virtual --
 -0.050  -0.000   0.007   0.019   0.025   0.027   0.045   0.050
  0.067   0.071   0.072   0.097   0.102   0.104   0.112   0.116
  0.120   0.127   0.137   0.154   0.168   0.178   0.179   0.191
  0.192   0.197   0.200   0.212   0.223   0.243   0.251   0.260
  0.269   0.276   0.291   0.301   0.314   0.319   0.328   0.341
  0.344   0.409   0.446   0.464   0.600   0.650   0.666   0.681
  0.704   0.711   0.729   0.746   0.753   0.762   0.779   0.788
  0.815   0.828   0.871   0.891   0.916   0.930   0.954   0.991
  1.002   1.014   1.016   1.036   1.075   1.105   1.126   1.136
  1.188   1.229   1.245   1.313   1.358   1.394   1.402   1.494
  1.558   1.564   1.655   1.678   1.749   1.791   1.798   1.835
  1.877   1.905   1.953   1.967   2.009   2.058   2.072   2.081
  2.097   2.165   2.212   2.226   2.287   2.329   2.357   2.371
  2.410   2.428   2.448   2.492   2.498   2.522   2.534   2.557
  2.598   2.606   2.617   2.644   2.651   2.739   2.754   2.775
  2.868   2.931   2.980   3.111   3.130   3.278   3.279   3.373
  3.461   3.623   3.682   4.168   4.354   4.409   4.541   4.555
  4.634   4.716
 
 Beta MOs
 -- Occupied --
-14.341 -10.235 -10.235 -10.230 -10.225 -10.205 -10.200  -0.960
 -0.864  -0.768  -0.657  -0.636  -0.566  -0.539  -0.503  -0.477
 -0.454  -0.436  -0.409  -0.366  -0.338  -0.290  -0.284  -0.224
 -- Virtual --
 -0.067  -0.038   0.002   0.007   0.019   0.026   0.030   0.045
  0.050   0.068   0.071   0.075   0.098   0.102   0.106   0.114
  0.116   0.121   0.130   0.139   0.156   0.169   0.178   0.181
  0.193   0.196   0.199   0.204   0.213   0.224   0.245   0.254
  0.261   0.271   0.280   0.293   0.303   0.319   0.323   0.330
  0.344   0.350   0.416   0.449   0.467   0.604   0.664   0.669
  0.683   0.716   0.726   0.731   0.747   0.760   0.770   0.778
  0.789   0.825   0.838   0.874   0.892   0.917   0.936   0.956
  0.996   1.006   1.017   1.021   1.039   1.077   1.114   1.128
  1.140   1.192   1.236   1.253   1.316   1.360   1.399   1.406
  1.500   1.560   1.569   1.662   1.682   1.764   1.797   1.812
  1.842   1.891   1.910   1.961   1.972   2.015   2.064   2.074
  2.091   2.111   2.171   2.219   2.232   2.291   2.332   2.360
  2.373   2.413   2.434   2.453   2.497   2.502   2.530   2.539
  2.557   2.603   2.613   2.624   2.647   2.658   2.745   2.757
  2.786   2.873   2.937   2.986   3.112   3.132   3.279   3.282
  3.376   3.465   3.630   3.684   4.168   4.354   4.419   4.540
  4.578   4.638   4.719
 --------------------------------------------------------------
 
          Ground-State Mulliken Net Atomic Charges

     Atom                 Charge (a.u.)    Spin (a.u.)
  --------------------------------------------------------
      1 C                    -0.070244      -0.050277
      2 C                    -0.072394      -0.036045
      3 C                    -0.247038       0.795708
      4 C                     0.006319       0.469161
      5 C                    -0.166080      -0.169317
      6 N                    -0.146275       0.034438
      7 H                     0.133839       0.001668
      8 H                     0.143435       0.032252
      9 H                     0.130366      -0.002635
     10 H                     0.143485      -0.022886
     11 H                     0.127647       0.009370
     12 C                    -0.123466      -0.063912
     13 H                     0.140404       0.002475
  --------------------------------------------------------
  Sum of atomic charges =     0.000000
  Sum of spin   charges =     1.000000

 -----------------------------------------------------------------
                    Cartesian Multipole Moments
 -----------------------------------------------------------------
    Charge (ESU x 10^10)
                 0.0000
    Dipole Moment (Debye)
         X      -0.4604      Y      -2.3878      Z       0.9370
       Tot       2.6061
    Quadrupole Moments (Debye-Ang)
        XX     -37.7088     XY      -3.1169     YY     -43.8589
        XZ       0.3895     YZ       0.2244     ZZ     -42.8750
    Octopole Moments (Debye-Ang^2)
       XXX      -1.7259    XXY      -5.5613    XYY      -9.2466
       YYY     -37.3848    XXZ       5.3157    XYZ       2.2412
       YYZ       3.0184    XZZ      -6.7513    YZZ     -10.5910
       ZZZ       8.6725
    Hexadecapole Moments (Debye-Ang^3)
      XXXX    -267.1209   XXXY      -7.8980   XXYY    -101.3227
      XYYY     -21.0538   YYYY    -348.0091   XXXZ      21.4814
      XXYZ       7.6404   XYYZ      16.3731   YYYZ      18.9938
      XXZZ     -73.1972   XYZZ      -2.5595   YYZZ     -76.5036
      XZZZ      24.7011   YZZZ      15.3294   ZZZZ    -150.7100
 -----------------------------------------------------------------
 Calculating analytic gradient of the SCF energy
 Gradient of SCF Energy
            1           2           3           4           5           6
    1   0.0007634  -0.0013675  -0.0031119   0.0025346  -0.0003544   0.0008090
    2   0.0008100   0.0011895   0.0121426   0.0016714  -0.0133223  -0.0002214
    3   0.0017269   0.0015569  -0.0028651   0.0061966  -0.0070750   0.0016380
            7           8           9          10          11          12
    1   0.0009882  -0.0021571   0.0005841  -0.0000524   0.0006110   0.0007022
    2   0.0004117   0.0001228   0.0067480   0.0012704  -0.0090021   0.0002446
    3   0.0006088  -0.0015070   0.0003878   0.0027500  -0.0041185   0.0018064
           13
    1   0.0000507
    2  -0.0020654
    3  -0.0011058
 Max gradient component =       1.332E-02
 RMS gradient           =       4.004E-03
 Gradient time:  CPU 17.23 s  wall 4.36 s
rPathMan2.  file_steps = 951
 IRC --- Status = 2.  Assess steepest descent step
 IRC --- Previous SD length =   0.150000
 IRC --- Point 1 E =     -286.828931 |G| =   0.015041 G.D1 =  -0.015041
 IRC --- Point 2 E =     -286.832009 |G| =   0.025006 G.D1 =  -0.024791
 IRC --- Angle(G1/G2) =    7.52 Deg.  Curvature =  -0.0650
 IRC --- Corrector step required
 IRC --- equal length displacement: B_eq =   0.019670
 IRC --- chosen bisector length  : B_len =   0.015000
 ----------------------------------------------------------------
             Standard Nuclear Orientation (Angstroms)
    I     Atom           X                Y                Z
 ----------------------------------------------------------------
    1      C       1.5201638817     0.5559461319    -0.2162514144
    2      C       0.9050773220    -0.7659509240    -0.0688729241
    3      C      -0.3854975694    -0.9856748138    -0.7129360662
    4      C      -1.1097668789     0.5788293510     0.7059486640
    5      C      -0.6223135455     1.2816040487    -0.4246431953
    6      N       0.7405126739     1.5309726882    -0.5371503649
    7      H       2.5764597986     0.7339987893    -0.0204458008
    8      H       1.5359168193    -1.6356629214     0.1075546855
    9      H      -0.7488775619    -1.8030138432    -1.3159422212
   10      H      -2.0626970072     0.7930366328     1.1767286893
   11      H      -1.2675596774     1.9022686002    -1.0357692636
   12      C      -0.4811284858    -0.7276179195     0.7637175531
   13      H      -0.6454648507    -1.4734845935     1.5383965618
 ----------------------------------------------------------------
 Nuclear Repulsion Energy =   276.0125345822 hartrees
 There are       25 alpha and       24 beta electrons

                       Distance Matrix (Angstroms)
             C (  1)   C (  2)   C (  3)   C (  4)   C (  5)   N (  6)
   C (  2)  1.465423
   C (  3)  2.500967  1.458999
   C (  4)  2.787026  2.543301  2.232817
   C (  5)  2.271611  2.579143  2.297770  1.417653
   N (  6)  1.288995  2.349941  2.762664  2.423924  1.390014
   H (  7)  1.088946  2.246267  3.494283  3.760318  3.270382  2.067088
   H (  8)  2.215457  1.088799  2.188041  3.501670  3.667648  3.328046
   H (  9)  3.452906  2.316516  1.078751  3.145069  3.213300  3.733667
   H ( 10)  3.851428  3.576262  3.089926  1.084248  2.208573  3.367479
   H ( 11)  3.202436  3.574162  3.036852  2.193165  1.083994  2.102103
   C ( 12)  2.571585  1.617480  1.502080  1.450975  2.338612  2.878523
   H ( 13)  3.447800  2.342669  2.318198  2.262861  3.382983  3.905841
             H (  7)   H (  8)   H (  9)   H ( 10)   H ( 11)   C ( 12)
   H (  8)  2.591218
   H (  9)  4.378654  2.697153
   H ( 10)  4.791502  4.471212  3.831319
   H ( 11)  4.143938  4.656568  3.751886  2.599574
   C ( 12)  3.478517  2.307286  2.356512  2.232561  3.282214
   H ( 13)  4.205208  2.613816  2.875158  2.697493  4.290576  1.087865

 
 Applying Cartesian multipole field
    Component          Value
    ---------          -----
     (2,0,0)        1.00000E-11
     (0,2,0)        2.00000E-11
     (0,0,2)       -3.00000E-11
 Nucleus-field energy     =     0.0000000037 hartrees
 Requested basis set is 6-31+G(d,p)
 There are 53 shells and 163 basis functions
 A cutoff of  1.0D-14 yielded   1398 shell pairs
 There are     13492 function pairs
 Smallest overlap matrix eigenvalue = 2.91E-05
 Guess MOs from core Hamiltonian diagonalization
 Mixing HOMO and LUMO in initial guess
 Adding  50% of the LUMO to the HOMO
 An unrestricted hybrid HF-DFT SCF calculation will be
 performed using Pulay DIIS extrapolation
 Exchange:     0.2000 Hartree-Fock + 0.0800 Slater + 0.7200 B88
 Correlation:  0.1900 VWN1RPA + 0.8100 LYP
 Using SG-1 standard quadrature grid
 SCF converges when DIIS error is below 1.0E-08
 using 4 threads for integral computing
 -------------------------------------------------------
 OpenMP Integral computing Module                
 Release: version 1.0, May 2013, Q-Chem Inc. Pittsburgh 
 -------------------------------------------------------
 -------------------------------------------------------
 OpenMP BLAS3 based DFT computing Module                
 Release: version 1.0, May 2013, Q-Chem Inc. Pittsburgh 
 -------------------------------------------------------
 ---------------------------------------
  Cycle       Energy         DIIS Error
 ---------------------------------------
    1    -238.4602632372      9.60E-02
    2    -218.2145225498      7.07E-02
    3    -261.6073647770      7.20E-02
    4    -271.3626344954      6.34E-02
    5    -277.1580621560      4.73E-02
    6    -284.0287484311      2.55E-02
    7    -285.2616593386      1.81E-02
    8    -286.2511347934      1.15E-02
    9    -286.7337046193      5.01E-03
   10    -286.8063101031      2.55E-03
   11    -286.8270130358      1.11E-03
   12    -286.8310134252      3.13E-04
   13    -286.8316668827      9.79E-05
   14    -286.8318206248      6.11E-05
   15    -286.8318948773      2.32E-05
   16    -286.8319339583      1.29E-05
   17    -286.8319650666      8.02E-06
   18    -286.8319735731      4.23E-06
   19    -286.8319773733      1.51E-06
   20    -286.8319775581      5.12E-07
   21    -286.8319775723      2.00E-07
   22    -286.8319775742      2.53E-08
   23    -286.8319775743      7.07E-09 Convergence criterion met
 ---------------------------------------
 <S^2> = 0.7855
 SCF time:  CPU 113.23 s  wall 28.52 s
 SCF   energy in the final basis set = -286.83197757
 Total energy in the final basis set = -286.83197757
 
 --------------------------------------------------------------
 
                    Orbital Energies (a.u.)
 --------------------------------------------------------------
 
 Alpha MOs
 -- Occupied --
-14.342 -10.235 -10.235 -10.229 -10.225 -10.213 -10.212  -0.962
 -0.872  -0.774  -0.667  -0.637  -0.580  -0.543  -0.510  -0.483
 -0.457  -0.439  -0.416  -0.367  -0.351  -0.291  -0.284  -0.250
 -0.184
 -- Virtual --
 -0.050   0.000   0.007   0.019   0.025   0.027   0.045   0.050
  0.067   0.071   0.072   0.097   0.102   0.104   0.112   0.116
  0.120   0.127   0.137   0.154   0.168   0.178   0.179   0.191
  0.192   0.197   0.200   0.212   0.224   0.243   0.251   0.260
  0.270   0.276   0.291   0.301   0.313   0.319   0.328   0.341
  0.344   0.408   0.446   0.463   0.601   0.650   0.666   0.681
  0.704   0.711   0.729   0.746   0.753   0.762   0.779   0.788
  0.815   0.827   0.871   0.891   0.916   0.930   0.955   0.991
  1.002   1.014   1.016   1.036   1.075   1.105   1.125   1.136
  1.188   1.228   1.245   1.313   1.358   1.394   1.402   1.494
  1.559   1.563   1.656   1.677   1.750   1.790   1.798   1.833
  1.877   1.904   1.954   1.967   2.010   2.058   2.071   2.081
  2.097   2.165   2.211   2.225   2.287   2.330   2.357   2.371
  2.409   2.427   2.448   2.491   2.498   2.522   2.534   2.556
  2.596   2.606   2.616   2.645   2.650   2.738   2.753   2.775
  2.868   2.931   2.980   3.109   3.129   3.276   3.281   3.373
  3.459   3.622   3.680   4.168   4.353   4.408   4.541   4.556
  4.634   4.716
 
 Beta MOs
 -- Occupied --
-14.342 -10.236 -10.236 -10.230 -10.225 -10.205 -10.200  -0.960
 -0.864  -0.767  -0.658  -0.636  -0.566  -0.539  -0.504  -0.477
 -0.454  -0.436  -0.409  -0.366  -0.338  -0.291  -0.284  -0.224
 -- Virtual --
 -0.067  -0.039   0.002   0.007   0.019   0.026   0.030   0.045
  0.050   0.068   0.071   0.075   0.097   0.102   0.106   0.114
  0.116   0.120   0.130   0.138   0.155   0.169   0.178   0.181
  0.193   0.196   0.199   0.204   0.213   0.225   0.245   0.254
  0.261   0.271   0.280   0.293   0.302   0.318   0.324   0.330
  0.344   0.349   0.415   0.449   0.466   0.605   0.664   0.669
  0.683   0.716   0.726   0.731   0.747   0.761   0.770   0.779
  0.789   0.825   0.837   0.873   0.891   0.917   0.937   0.956
  0.996   1.005   1.017   1.021   1.039   1.077   1.113   1.127
  1.139   1.192   1.235   1.253   1.316   1.360   1.399   1.406
  1.500   1.560   1.568   1.663   1.681   1.764   1.796   1.813
  1.840   1.891   1.910   1.962   1.972   2.016   2.064   2.073
  2.091   2.111   2.171   2.217   2.232   2.291   2.333   2.360
  2.373   2.412   2.432   2.453   2.497   2.502   2.531   2.538
  2.557   2.601   2.613   2.623   2.648   2.658   2.743   2.756
  2.786   2.873   2.937   2.985   3.110   3.130   3.281   3.282
  3.376   3.462   3.629   3.683   4.168   4.354   4.419   4.540
  4.579   4.638   4.718
 --------------------------------------------------------------
 
          Ground-State Mulliken Net Atomic Charges

     Atom                 Charge (a.u.)    Spin (a.u.)
  --------------------------------------------------------
      1 C                    -0.071191      -0.052272
      2 C                    -0.071059      -0.035720
      3 C                    -0.248692       0.789934
      4 C                     0.003691       0.482977
      5 C                    -0.164328      -0.175048
      6 N                    -0.144938       0.035275
      7 H                     0.133864       0.001807
      8 H                     0.143513       0.032299
      9 H                     0.130466      -0.002483
     10 H                     0.143382      -0.023438
     11 H                     0.127450       0.009583
     12 C                    -0.122496      -0.065352
     13 H                     0.140340       0.002438
  --------------------------------------------------------
  Sum of atomic charges =     0.000000
  Sum of spin   charges =     1.000000

 -----------------------------------------------------------------
                    Cartesian Multipole Moments
 -----------------------------------------------------------------
    Charge (ESU x 10^10)
                 0.0000
    Dipole Moment (Debye)
         X      -0.4559      Y      -2.3788      Z       0.9311
       Tot       2.5949
    Quadrupole Moments (Debye-Ang)
        XX     -37.6958     XY      -3.1215     YY     -43.8450
        XZ       0.3861     YZ       0.2218     ZZ     -42.9104
    Octopole Moments (Debye-Ang^2)
       XXX      -1.7664    XXY      -5.5416    XYY      -9.2510
       YYY     -37.2856    XXZ       5.3121    XYZ       2.2282
       YYZ       2.9882    XZZ      -6.7257    YZZ     -10.6073
       ZZZ       8.6318
    Hexadecapole Moments (Debye-Ang^3)
      XXXX    -266.9564   XXXY      -7.9821   XXYY    -101.2772
      XYYY     -21.1409   YYYY    -348.0130   XXXZ      21.5034
      XXYZ       7.6630   XYYZ      16.4054   YYYZ      19.0469
      XXZZ     -73.2683   XYZZ      -2.5328   YYZZ     -76.6178
      XZZZ      24.7790   YZZZ      15.3981   ZZZZ    -151.1315
 -----------------------------------------------------------------
 Calculating analytic gradient of the SCF energy
 Gradient of SCF Energy
            1           2           3           4           5           6
    1   0.0013281  -0.0018606  -0.0026105  -0.0009269   0.0035733  -0.0010308
    2   0.0005278   0.0007940   0.0119082  -0.0010057  -0.0112646   0.0005685
    3   0.0016032   0.0020576  -0.0019771   0.0109893  -0.0104711   0.0017347
            7           8           9          10          11          12
    1   0.0006351  -0.0018484   0.0002281   0.0014743  -0.0000335   0.0011531
    2   0.0002918  -0.0002686   0.0061218   0.0009277  -0.0082217   0.0017251
    3   0.0004709  -0.0015126  -0.0002233   0.0016411  -0.0041504   0.0007095
           13
    1  -0.0000812
    2  -0.0021043
    3  -0.0008719
 Max gradient component =       1.191E-02
 RMS gradient           =       4.195E-03
 Gradient time:  CPU 17.20 s  wall 4.36 s
rPathMan2.  file_steps = 951
 IRC --- Status = 3.  Assess initial corrector step
 IRC --- bisector search: b =  0.000000 E =     -286.832009 G.B =  -0.001640
 IRC --- bisector search: b =  0.015000 E =     -286.831978 G.B =   0.005836
 IRC --- performed gradient/energy interpolation
 IRC --- bisector search:  estimate b(min) =   3.274786187137453E-003
 ----------------------------------------------------------------
             Standard Nuclear Orientation (Angstroms)
    I     Atom           X                Y                Z
 ----------------------------------------------------------------
    1      C       1.5201874231     0.5560020032    -0.2155193799
    2      C       0.9048599025    -0.7654759202    -0.0694685049
    3      C      -0.3859060754    -0.9851994255    -0.7135043450
    4      C      -1.1088266257     0.5801153533     0.7029429079
    5      C      -0.6244322951     1.2820046853    -0.4220255639
    6      N       0.7410475710     1.5301801267    -0.5372183592
    7      H       2.5769741325     0.7341148516    -0.0197048020
    8      H       1.5347657337    -1.6352270509     0.1067115149
    9      H      -0.7482692389    -1.8026559110    -1.3151403501
   10      H      -2.0624946043     0.7934945962     1.1779433182
   11      H      -1.2670397548     1.9001199288    -1.0367399694
   12      C      -0.4807873409    -0.7282933290     0.7638588061
   13      H      -0.6452539090    -1.4739286816     1.5381996304
 ----------------------------------------------------------------
 Nuclear Repulsion Energy =   276.0630386677 hartrees
 There are       25 alpha and       24 beta electrons

                       Distance Matrix (Angstroms)
             C (  1)   C (  2)   C (  3)   C (  4)   C (  5)   N (  6)
   C (  2)  1.465013
   C (  3)  2.501296  1.459156
   C (  4)  2.784936  2.542080  2.231400
   C (  5)  2.273570  2.579769  2.298275  1.411680
   N (  6)  1.288244  2.348544  2.761926  2.421293  1.392622
   H (  7)  1.089434  2.246601  3.495148  3.759131  3.272774  2.066922
   H (  8)  2.214843  1.088250  2.187297  3.500259  3.667689  3.326325
   H (  9)  3.452293  2.315227  1.077733  3.143288  3.213739  3.732429
   H ( 10)  3.851461  3.576537  3.090676  1.086572  2.206029  3.368135
   H ( 11)  3.201514  3.571857  3.034130  2.189507  1.082998  2.102092
   C ( 12)  2.571477  1.617354  1.502533  1.452611  2.338430  2.878608
   H ( 13)  3.447504  2.342937  2.318682  2.265315  3.382024  3.905619
             H (  7)   H (  8)   H (  9)   H ( 10)   H ( 11)   C ( 12)
   H (  8)  2.591517
   H (  9)  4.378425  2.694799
   H ( 10)  4.791926  4.470627  3.831795
   H ( 11)  4.143715  4.653630  3.749290  2.600421
   C ( 12)  3.478867  2.305824  2.355428  2.233630  3.281601
   H ( 13)  4.205387  2.612979  2.874060  2.698067  4.289654  1.087486

 
 Applying Cartesian multipole field
    Component          Value
    ---------          -----
     (2,0,0)        1.00000E-11
     (0,2,0)        2.00000E-11
     (0,0,2)       -3.00000E-11
 Nucleus-field energy     =     0.0000000037 hartrees
 Requested basis set is 6-31+G(d,p)
 There are 53 shells and 163 basis functions
 A cutoff of  1.0D-14 yielded   1398 shell pairs
 There are     13492 function pairs
 Smallest overlap matrix eigenvalue = 2.89E-05
 Guess MOs from core Hamiltonian diagonalization
 Mixing HOMO and LUMO in initial guess
 Adding  50% of the LUMO to the HOMO
 An unrestricted hybrid HF-DFT SCF calculation will be
 performed using Pulay DIIS extrapolation
[...]
-14.332 -10.231 -10.231 -10.226 -10.223 -10.222 -10.206  -0.976
 -0.870  -0.757  -0.667  -0.617  -0.584  -0.549  -0.519  -0.473
 -0.438  -0.422  -0.399  -0.375  -0.339  -0.326  -0.277  -0.268
 -0.184
 -- Virtual --
 -0.022  -0.001   0.017   0.019   0.026   0.046   0.051   0.062
  0.069   0.074   0.086   0.097   0.103   0.107   0.112   0.115
  0.120   0.132   0.150   0.163   0.165   0.173   0.179   0.183
  0.189   0.199   0.209   0.213   0.225   0.238   0.247   0.258
  0.263   0.272   0.284   0.294   0.303   0.315   0.329   0.338
  0.356   0.389   0.432   0.453   0.616   0.637   0.664   0.675
  0.700   0.721   0.732   0.744   0.748   0.755   0.779   0.795
  0.801   0.834   0.860   0.886   0.910   0.919   0.955   0.976
  0.986   1.029   1.031   1.064   1.073   1.119   1.144   1.166
  1.203   1.251   1.287   1.355   1.404   1.428   1.472   1.537
  1.559   1.594   1.639   1.665   1.747   1.765   1.822   1.835
  1.886   1.919   1.950   1.985   2.015   2.055   2.092   2.141
  2.165   2.201   2.261   2.302   2.337   2.356   2.366   2.379
  2.397   2.415   2.447   2.477   2.495   2.504   2.533   2.537
  2.592   2.610   2.641   2.649   2.704   2.734   2.762   2.798
  2.854   2.882   2.978   3.021   3.106   3.272   3.305   3.386
  3.423   3.619   3.672   4.158   4.377   4.455   4.587   4.642
  4.670   4.855
 
 Beta MOs
 -- Occupied --
-14.332 -10.231 -10.231 -10.226 -10.222 -10.221 -10.193  -0.972
 -0.865  -0.747  -0.656  -0.612  -0.581  -0.547  -0.509  -0.470
 -0.434  -0.416  -0.396  -0.371  -0.327  -0.314  -0.274  -0.266
 -- Virtual --
 -0.055  -0.018  -0.001   0.019   0.019   0.026   0.046   0.051
  0.063   0.069   0.079   0.087   0.099   0.102   0.108   0.114
  0.117   0.123   0.133   0.152   0.167   0.167   0.174   0.180
  0.184   0.190   0.201   0.213   0.214   0.229   0.240   0.250
  0.260   0.264   0.274   0.287   0.295   0.308   0.317   0.334
  0.340   0.360   0.391   0.442   0.456   0.619   0.643   0.667
  0.694   0.711   0.725   0.737   0.748   0.753   0.766   0.781
  0.798   0.809   0.839   0.866   0.887   0.913   0.923   0.960
  0.978   0.988   1.030   1.033   1.069   1.077   1.123   1.151
  1.176   1.206   1.257   1.291   1.358   1.408   1.433   1.477
  1.540   1.564   1.604   1.643   1.668   1.751   1.777   1.827
  1.845   1.894   1.924   1.955   1.992   2.024   2.064   2.101
  2.146   2.170   2.213   2.265   2.306   2.344   2.360   2.368
  2.381   2.405   2.419   2.451   2.480   2.497   2.514   2.540
  2.546   2.599   2.615   2.646   2.658   2.708   2.736   2.766
  2.800   2.857   2.885   2.982   3.025   3.108   3.274   3.307
  3.390   3.424   3.620   3.677   4.159   4.385   4.469   4.591
  4.646   4.674   4.859
 --------------------------------------------------------------
 
          Ground-State Mulliken Net Atomic Charges

     Atom                 Charge (a.u.)    Spin (a.u.)
  --------------------------------------------------------
      1 C                    -0.059942      -0.001320
      2 C                    -0.084353       0.004728
      3 C                    -0.102653       0.145241
      4 C                    -0.051294       1.025421
      5 C                    -0.151176      -0.103485
      6 N                    -0.194099       0.023835
      7 H                     0.132745       0.004183
      8 H                     0.138978       0.002221
      9 H                     0.135184       0.008605
     10 H                     0.135279      -0.038648
     11 H                     0.134286       0.005124
     12 C                    -0.174149      -0.075836
     13 H                     0.141196      -0.000068
  --------------------------------------------------------
  Sum of atomic charges =    -0.000000
  Sum of spin   charges =     1.000000

 -----------------------------------------------------------------
                    Cartesian Multipole Moments
 -----------------------------------------------------------------
    Charge (ESU x 10^10)
                 0.0000
    Dipole Moment (Debye)
         X      -0.6768      Y      -3.1336      Z       0.0577
       Tot       3.2064
    Quadrupole Moments (Debye-Ang)
        XX     -37.3880     XY      -2.8701     YY     -45.3751
        XZ       1.2494     YZ       0.2517     ZZ     -42.4136
    Octopole Moments (Debye-Ang^2)
       XXX      -3.0722    XXY      -6.0818    XYY      -8.9727
       YYY     -41.6640    XXZ       2.9923    XYZ       2.3966
       YYZ       3.2689    XZZ      -8.0550    YZZ     -12.1302
       ZZZ       1.4629
    Hexadecapole Moments (Debye-Ang^3)
      XXXX    -260.5345   XXXY     -11.0815   XXYY     -91.6067
      XYYY     -25.7179   YYYY    -298.2271   XXXZ      21.6076
      XXYZ       9.3214   XYYZ      13.7533   YYYZ      23.0194
      XXZZ     -74.1975   XYZZ      -3.8625   YYZZ     -73.9645
      XZZZ      25.4757   YZZZ      17.0568   ZZZZ    -169.2320
 -----------------------------------------------------------------
 Calculating analytic gradient of the SCF energy
 Gradient of SCF Energy
            1           2           3           4           5           6
    1   0.0014395  -0.0006082  -0.0002354  -0.0004593   0.0001761  -0.0002315
    2   0.0000611   0.0004324  -0.0004866   0.0001781   0.0001309   0.0000836
    3   0.0002396   0.0000426  -0.0002403   0.0004003   0.0001075  -0.0000727
            7           8           9          10          11          12
    1  -0.0005798   0.0001913   0.0000136  -0.0000050   0.0000333   0.0003167
    2  -0.0002661  -0.0003680   0.0003847  -0.0005441   0.0001699   0.0004262
    3  -0.0002719  -0.0000359   0.0004028  -0.0006177   0.0000855  -0.0003165
           13
    1  -0.0000512
    2  -0.0002022
    3   0.0002767
 Max gradient component =       1.439E-03
 RMS gradient           =       3.840E-04
 Gradient time:  CPU 17.38 s  wall 4.41 s
rPathMan2.  file_steps = 952
 IRC --- Status = 3.  Assess initial corrector step
 IRC --- bisector search: b =  0.000000 E =     -286.857582 G.B =  -0.001596
 IRC --- bisector search: b =  0.004984 E =     -286.857580 G.B =   0.002314
 IRC --- performed gradient/energy interpolation
 IRC --- bisector search:  estimate b(min) =   2.035756689836521E-003
 ----------------------------------------------------------------
             Standard Nuclear Orientation (Angstroms)
    I     Atom           X                Y                Z
 ----------------------------------------------------------------
    1      C       1.5442722697     0.5880915443    -0.1691686414
    2      C       0.8935857114    -0.7399936218     0.0301597430
    3      C      -0.4123023308    -0.6579960521    -0.6927609107
    4      C      -1.0311344418     0.6272009124     0.8734376667
    5      C      -0.6075047253     0.9013989920    -0.5761986039
    6      N       0.7432433021     1.5130168919    -0.5518391472
    7      H       2.5986646680     0.7854367116     0.0171594524
    8      H       1.4573323648    -1.6664343549     0.0683899541
    9      H      -0.8171230943    -1.3556444747    -1.4194008554
   10      H      -2.0141174027     0.8485748769     1.2744810162
   11      H      -1.2930239956     1.4303210989    -1.2361568063
   12      C      -0.4410680404    -0.7244360937     0.8472239271
   13      H      -0.6659993666    -1.5642851987     1.4950081092
 ----------------------------------------------------------------
 Nuclear Repulsion Energy =   281.6782279810 hartrees
 There are       25 alpha and       24 beta electrons

                       Distance Matrix (Angstroms)
             C (  1)   C (  2)   C (  3)   C (  4)   C (  5)   N (  6)
   C (  2)  1.492292
   C (  3)  2.378039  1.494885
   C (  4)  2.778719  2.506968  2.118410
   C (  5)  2.212234  2.305453  1.575882  1.534957
   N (  6)  1.282018  2.331819  2.463421  2.442233  1.482967
   H (  7)  1.088764  2.287881  3.413709  3.732786  3.262674  2.072612
   H (  8)  2.268674  1.085156  2.256509  3.478697  3.357501  3.317155
   H (  9)  3.304146  2.325248  1.085633  3.038846  2.418507  3.378850
   H ( 10)  3.848911  3.539297  2.950527  1.084480  2.325159  3.373421
   H ( 11)  3.146119  3.330929  2.330669  2.272439  1.088687  2.149771
   C ( 12)  2.587926  1.564972  1.541686  1.475055  2.167296  2.892433
   H ( 13)  3.505355  2.292933  2.381608  2.307008  3.220701  3.955419
             H (  7)   H (  8)   H (  9)   H ( 10)   H ( 11)   C ( 12)
   H (  8)  2.704983
   H (  9)  4.279666  2.735555
   H ( 10)  4.781485  4.453189  3.680812
   H ( 11)  4.139072  4.342372  2.832254  2.676137
   C ( 12)  3.494095  2.257846  2.382736  2.265259  3.115972
   H ( 13)  4.285238  2.560119  2.925773  2.772715  4.101230  1.084235

 
 Applying Cartesian multipole field
    Component          Value
    ---------          -----
     (2,0,0)        1.00000E-11
     (0,2,0)        2.00000E-11
     (0,0,2)       -3.00000E-11
 Nucleus-field energy     =     0.0000000025 hartrees
 Requested basis set is 6-31+G(d,p)
 There are 53 shells and 163 basis functions
 A cutoff of  1.0D-14 yielded   1401 shell pairs
 There are     13507 function pairs
 Smallest overlap matrix eigenvalue = 2.08E-05
 Guess MOs from core Hamiltonian diagonalization
 Mixing HOMO and LUMO in initial guess
 Adding  50% of the LUMO to the HOMO
 An unrestricted hybrid HF-DFT SCF calculation will be
 performed using Pulay DIIS extrapolation
 Exchange:     0.2000 Hartree-Fock + 0.0800 Slater + 0.7200 B88
 Correlation:  0.1900 VWN1RPA + 0.8100 LYP
 Using SG-1 standard quadrature grid
 SCF converges when DIIS error is below 1.0E-08
 using 4 threads for integral computing
 -------------------------------------------------------
 OpenMP Integral computing Module                
 Release: version 1.0, May 2013, Q-Chem Inc. Pittsburgh 
 -------------------------------------------------------
 -------------------------------------------------------
 OpenMP BLAS3 based DFT computing Module                
 Release: version 1.0, May 2013, Q-Chem Inc. Pittsburgh 
 -------------------------------------------------------
 ---------------------------------------
  Cycle       Energy         DIIS Error
 ---------------------------------------
    1    -236.4658090139      9.80E-02
    2    -214.7225886208      7.25E-02
    3    -265.5436831158      6.34E-02
    4    -267.0826200700      6.29E-02
    5    -279.3384833430      4.09E-02
    6    -284.2124894845      2.39E-02
    7    -286.0163805043      1.35E-02
    8    -286.6613371784      7.06E-03
    9    -286.8137916989      3.29E-03
   10    -286.8440677847      1.87E-03
   11    -286.8559272506      6.38E-04
   12    -286.8572818193      1.88E-04
   13    -286.8575124396      4.76E-05
   14    -286.8575568976      3.23E-05
   15    -286.8575737507      6.49E-06
   16    -286.8575792039      1.91E-06
   17    -286.8575817700      7.28E-07
   18    -286.8575826175      3.73E-07
   19    -286.8575831849      1.67E-07
   20    -286.8575834591      8.86E-08
   21    -286.8575835605      2.22E-08
   22    -286.8575835626      5.69E-09 Convergence criterion met
 ---------------------------------------
 <S^2> = 0.7545
 SCF time:  CPU 110.43 s  wall 30.39 s
 SCF   energy in the final basis set = -286.85758356
 Total energy in the final basis set = -286.85758356
 
 --------------------------------------------------------------
 
                    Orbital Energies (a.u.)
 --------------------------------------------------------------
 
 Alpha MOs
 -- Occupied --
-14.332 -10.231 -10.230 -10.226 -10.224 -10.222 -10.206  -0.976
 -0.870  -0.757  -0.667  -0.617  -0.584  -0.549  -0.519  -0.473
 -0.438  -0.422  -0.399  -0.375  -0.339  -0.326  -0.277  -0.268
 -0.184
 -- Virtual --
 -0.022  -0.001   0.017   0.019   0.026   0.045   0.050   0.062
  0.069   0.074   0.086   0.097   0.103   0.107   0.112   0.115
  0.120   0.132   0.150   0.163   0.165   0.173   0.179   0.183
  0.189   0.199   0.209   0.213   0.225   0.238   0.247   0.258
  0.263   0.272   0.284   0.294   0.303   0.315   0.329   0.338
  0.356   0.389   0.432   0.453   0.616   0.637   0.664   0.675
  0.700   0.721   0.732   0.744   0.748   0.755   0.779   0.795
  0.801   0.834   0.860   0.886   0.910   0.919   0.955   0.976
  0.986   1.029   1.031   1.064   1.073   1.119   1.144   1.166
  1.202   1.251   1.287   1.355   1.405   1.428   1.472   1.537
  1.559   1.593   1.639   1.665   1.747   1.765   1.822   1.835
  1.887   1.919   1.950   1.985   2.015   2.055   2.092   2.141
  2.165   2.201   2.261   2.302   2.337   2.356   2.366   2.379
  2.397   2.415   2.447   2.477   2.495   2.504   2.533   2.537
  2.592   2.610   2.641   2.649   2.704   2.734   2.762   2.798
  2.853   2.882   2.978   3.021   3.106   3.272   3.305   3.386
  3.422   3.618   3.672   4.158   4.377   4.455   4.587   4.642
  4.670   4.855
 
 Beta MOs
 -- Occupied --
-14.332 -10.231 -10.231 -10.226 -10.222 -10.221 -10.193  -0.972
 -0.865  -0.747  -0.656  -0.612  -0.581  -0.547  -0.509  -0.470
 -0.433  -0.416  -0.396  -0.371  -0.327  -0.314  -0.274  -0.266
 -- Virtual --
 -0.055  -0.018  -0.001   0.019   0.019   0.026   0.046   0.051
  0.063   0.069   0.079   0.087   0.099   0.102   0.108   0.114
  0.117   0.123   0.133   0.152   0.167   0.167   0.174   0.180
  0.184   0.190   0.201   0.213   0.214   0.229   0.240   0.250
  0.260   0.264   0.274   0.287   0.295   0.308   0.317   0.334
  0.340   0.360   0.391   0.442   0.456   0.619   0.643   0.667
  0.695   0.711   0.725   0.737   0.748   0.753   0.766   0.781
  0.798   0.809   0.839   0.866   0.887   0.913   0.923   0.960
  0.978   0.988   1.030   1.034   1.069   1.077   1.123   1.151
  1.176   1.206   1.257   1.291   1.358   1.408   1.433   1.477
  1.540   1.564   1.604   1.643   1.669   1.751   1.778   1.827
  1.845   1.895   1.924   1.956   1.992   2.024   2.064   2.101
  2.146   2.171   2.213   2.265   2.307   2.344   2.360   2.368
  2.381   2.405   2.419   2.451   2.480   2.497   2.514   2.540
  2.546   2.598   2.615   2.646   2.658   2.708   2.736   2.766
  2.800   2.857   2.885   2.982   3.025   3.107   3.274   3.307
  3.389   3.423   3.620   3.677   4.159   4.385   4.469   4.591
  4.646   4.674   4.859
 --------------------------------------------------------------
 
          Ground-State Mulliken Net Atomic Charges

     Atom                 Charge (a.u.)    Spin (a.u.)
  --------------------------------------------------------
      1 C                    -0.060250      -0.001260
      2 C                    -0.084250       0.004942
      3 C                    -0.102040       0.145209
      4 C                    -0.050887       1.025374
      5 C                    -0.151396      -0.103616
      6 N                    -0.194017       0.023847
      7 H                     0.132714       0.004213
      8 H                     0.138983       0.002210
      9 H                     0.135286       0.008637
     10 H                     0.135297      -0.038684
     11 H                     0.134297       0.005142
     12 C                    -0.174932      -0.075944
     13 H                     0.141195      -0.000069
  --------------------------------------------------------
  Sum of atomic charges =    -0.000000
  Sum of spin   charges =     1.000000

 -----------------------------------------------------------------
                    Cartesian Multipole Moments
 -----------------------------------------------------------------
    Charge (ESU x 10^10)
                -0.0000
    Dipole Moment (Debye)
         X      -0.6790      Y      -3.1360      Z       0.0583
       Tot       3.2092
    Quadrupole Moments (Debye-Ang)
        XX     -37.3998     XY      -2.8758     YY     -45.3701
        XZ       1.2485     YZ       0.2480     ZZ     -42.4127
    Octopole Moments (Debye-Ang^2)
       XXX      -3.0929    XXY      -6.0906    XYY      -8.9715
       YYY     -41.6649    XXZ       2.9936    XYZ       2.3976
       YYZ       3.2731    XZZ      -8.0572    YZZ     -12.1291
       ZZZ       1.4707
    Hexadecapole Moments (Debye-Ang^3)
      XXXX    -260.6131   XXXY     -11.1009   XXYY     -91.6023
      XYYY     -25.7240   YYYY    -298.1918   XXXZ      21.6073
      XXYZ       9.3206   XYYZ      13.7501   YYYZ      23.0096
      XXZZ     -74.1978   XYZZ      -3.8640   YYZZ     -73.9564
      XZZZ      25.4656   YZZZ      17.0526   ZZZZ    -169.2258
 -----------------------------------------------------------------
 Calculating analytic gradient of the SCF energy
 Gradient of SCF Energy
            1           2           3           4           5           6
    1  -0.0000390   0.0000957   0.0000120   0.0001064   0.0000445   0.0000230
    2  -0.0002155  -0.0000785   0.0001924   0.0000497   0.0000981   0.0001488
    3  -0.0000058   0.0000264   0.0001474   0.0000206   0.0000611  -0.0000222
            7           8           9          10          11          12
    1   0.0002210  -0.0001037  -0.0001693  -0.0004087   0.0001110   0.0000535
    2  -0.0000859   0.0000478   0.0000432  -0.0004586   0.0001496  -0.0000068
    3  -0.0001374  -0.0000246   0.0000700  -0.0004529   0.0001312   0.0001508
           13
    1   0.0000536
    2   0.0001158
    3   0.0000354
 Max gradient component =       4.586E-04
 RMS gradient           =       1.583E-04
 Gradient time:  CPU 17.35 s  wall 4.46 s
rPathMan2.  file_steps = 952
 IRC --- Status = 4.  Checking bisector search.
 IRC --- Bisector search finished successfully.
 ------------------------------------------------------------------------
 Reaction path following.  The coordinates are cartesian              
 Step  27 E=    -286.857584 |G|=  0.000989 S_lin= 1.4838 S_tot= 1.6630
 ------------------------------------------------------------------------
  IRC -- convergence criterion reached.
 ----------------------------------------------------------------
             Standard Nuclear Orientation (Angstroms)
    I     Atom           X                Y                Z
 ----------------------------------------------------------------
    1      C       1.5242525169     0.5611410695    -0.2076460420
    2      C       0.8977742156    -0.7595770098    -0.0565787793
    3      C      -0.4034370768    -0.9101089009    -0.7270610360
    4      C      -1.0953380242     0.5880613877     0.7501871306
    5      C      -0.6208932951     1.1945920244    -0.4740945528
    6      N       0.7441875091     1.5314265462    -0.5270957016
    7      H       2.5813416712     0.7361930220    -0.0184453737
    8      H       1.5245161516    -1.6358871683     0.0999786775
    9      H      -0.7472227254    -1.7585131259    -1.3159934980
   10      H      -2.0632745165     0.7994277204     1.1904733935
   11      H      -1.2642430577     1.8494491824    -1.0584933318
   12      C      -0.4770274981    -0.7253915717     0.7739489380
   13      H      -0.6458109523    -1.4855619488     1.5311550788
 ----------------------------------------------------------------
 Nuclear Repulsion Energy =   276.9216692666 hartrees
 There are       25 alpha and       24 beta electrons
 Here is where we should summarize the reaction path
Archival summary:
1\1\c8-66\JobtypUnspecified\ProcedureUnspecified\6-31+G**\166(2)\hpark21\FriMar413:31:132022FriMar413:31:132022\0\\#,JobtypUnspecified,ProcedureUnspecified,6-31+G**,\\0,2\N\C,1,1.2853\H,2,1.08806,1,120.757\C,1,1.40702,2,113.499,3,-167.921,0\H,4,1.08824,1,114.159,2,-159.421,0\C,4,1.44632,1,116.778,2,51.6914,0\H,6,1.08417,4,123.702,1,141.943,0\C,6,1.45191,4,104.686,1,-68.9486,0\H,8,1.08614,6,125.336,4,-176.906,0\C,2,1.46956,1,116.441,3,177.298,0\H,10,1.08869,2,119.523,1,173.019,0\C,10,1.47152,2,114.965,1,20.4406,0\H,12,1.08849,10,127.268,2,136.57,0\\\@

 Total job time:  8889.81s(wall), 34457.78s(cpu) 
 Fri Mar  4 13:31:13 2022

        *************************************************************
        *                                                           *
        *  Thank you very much for using Q-Chem.  Have a nice day.  *
        *                                                           *
        *************************************************************


