
Running Job 1 of 1 qcts2.in
qchem qcts2.in_60909.0 ./qcts2.d/ 1
/home/leeping/opt/qchem/5.0.2-openmp/exe/qcprog.exe_s qcts2.in_60909.0 ./qcts2.d/
Check license passed

                  Welcome to Q-Chem
     A Quantum Leap Into The Future Of Chemistry


 Q-Chem 5.0, Q-Chem, Inc., Pleasanton, CA (2017)

 Yihan Shao,  Zhengting Gan,  E. Epifanovsky,  A. T. B. Gilbert,  M. Wormit,  
 J. Kussmann,  A. W. Lange,  A. Behn,  Jia Deng,  Xintian Feng,  D. Ghosh,  
 M. Goldey,  P. R. Horn,  L. D. Jacobson,  I. Kaliman,  T. Kus,  A. Landau,  
 Jie Liu,  E. I. Proynov,  R. M. Richard,  R. P. Steele,  E. J. Sundstrom,  
 H. L. Woodcock III,  P. M. Zimmerman,  D. Zuev,  B. Albrecht,  E. Alguire,  
 S. A. Baeppler,  D. Barton,  Z. Benda,  Y. A. Bernard,  E. J. Berquist,  
 K. B. Bravaya,  H. Burton,  D. Casanova,  Chun-Min Chang,  Yunqing Chen,  
 A. Chien,  K. D. Closser,  M. P. Coons,  S. Dasgupta,  A. L. Dempwolff,  
 M. Diedenhofen,  Hainam Do,  R. G. Edgar,  Po-Tung Fang,  S. Fatehi,  
 Qingguo Feng,  J. Fosso-Tande,  Qinghui Ge,  A. Ghysels,  G. Gidofalvi,  
 J. Gomes,  J. Gonthier,  A. Gunina,  M. W. D. Hanson-Heine,  
 P. H. P. Harbach,  A. W. Hauser,  J. E. Herr,  E. G. Hohenstein,  
 Z. C. Holden,  Kerwin Hui,  T.-C. Jagau,  Hyunjun Ji,  B. Kaduk,  
 K. Khistyaev,  Jaehoon Kim,  P. Klunzinger,  K. Koh,  D. Kosenkov,  
 L. Koulias,  T. Kowalczyk,  C. M. Krauter,  A. Kunitsa,  Ka Un Lao,  
 A. Laurent,  K. V. Lawler,  Joonho Lee,  D. Lefrancois,  S. Lehtola,  
 D. S. Levine,  Yi-Pei Li,  You-Sheng Lin,  Fenglai Liu,  E. Livshits,  
 A. Luenser,  P. Manohar,  E. Mansoor,  S. F. Manzer,  Shan-Ping Mao,  
 Yuezhi Mao,  N. Mardirossian,  A. V. Marenich,  T. Markovich,  
 L. A. Martinez-Martinez,  S. A. Maurer,  N. J. Mayhall,  S. C. McKenzie,  
 J.-M. Mewes,  A. F. Morrison,  J. W. Mullinax,  K. Nanda,  
 T. S. Nguyen-Beck,  R. Olivares-Amaya,  J. A. Parkhill,  T. M. Perrine,  
 F. Plasser,  S. Prager,  A. Prociuk,  E. Ramos,  D. R. Rehn,  F. Rob,  
 M. Schneider,  N. Sergueev,  S. M. Sharada,  S. Sharma,  D. W. Small,  
 T. Stauch,  T. Stein,  Yu-Chuan Su,  A. J. W. Thom,  A. Tkatchenko,  
 T. Tsuchimochi,  L. Vogt,  O. Vydrov,  M. A. Watson,  J. Wenzel,  
 M. de Wergifosse,  T. A. Wesolowski,  A. White,  J. Witte,  A. Yamada,  
 Jun Yang,  K. Yao,  S. Yeganeh,  S. R. Yost,  Zhi-Qiang You,  A. Zech,  
 Igor Ying Zhang,  Xing Zhang,  Yan Zhao,  Ying Zhu,  B. R. Brooks,  
 G. K. L. Chan,  C. J. Cramer,  M. S. Gordon,  W. J. Hehre,  A. Klamt,  
 M. W. Schmidt,  C. D. Sherrill,  D. G. Truhlar,  A. Aspuru-Guzik,  R. Baer,  
 A. T. Bell,  N. A. Besley,  Jeng-Da Chai,  R. A. DiStasio Jr.,  A. Dreuw,  
 B. D. Dunietz,  T. R. Furlani,  Chao-Ping Hsu,  Yousung Jung,  Jing Kong,  
 D. S. Lambrecht,  WanZhen Liang,  C. Ochsenfeld,  V. A. Rassolov,  
 L. V. Slipchenko,  J. E. Subotnik,  T. Van Voorhis,  J. M. Herbert,  
 A. I. Krylov,  P. M. W. Gill,  M. Head-Gordon

 Contributors to earlier versions of Q-Chem not listed above: 
 R. D. Adamson,  B. Austin,  J. Baker,  G. J. O. Beran,  K. Brandhorst,  
 S. T. Brown,  E. F. C. Byrd,  A. K. Chakraborty,  C.-L. Cheng,  
 Siu Hung Chien,  D. M. Chipman,  D. L. Crittenden,  H. Dachsel,  
 R. J. Doerksen,  A. D. Dutoi,  L. Fusti-Molnar,  W. A. Goddard III,  
 A. Golubeva-Zadorozhnaya,  S. R. Gwaltney,  G. Hawkins,  A. Heyden,  
 S. Hirata,  G. Kedziora,  F. J. Keil,  C. Kelley,  Jihan Kim,  R. A. King,  
 R. Z. Khaliullin,  P. P. Korambath,  W. Kurlancheek,  A. M. Lee,  M. S. Lee,  
 S. V. Levchenko,  Ching Yeh Lin,  D. Liotard,  R. C. Lochan,  I. Lotan,  
 P. E. Maslen,  N. Nair,  D. P. O'Neill,  D. Neuhauser,  E. Neuscamman,  
 C. M. Oana,  R. Olson,  B. Peters,  R. Peverati,  P. A. Pieniazek,  
 Y. M. Rhee,  J. Ritchie,  M. A. Rohrdanz,  E. Rosta,  N. J. Russ,  
 H. F. Schaefer III,  N. E. Schultz,  N. Shenvi,  A. C. Simmonett,  A. Sodt,  
 D. Stuck,  K. S. Thanthiriwatte,  V. Vanovschi,  Tao Wang,  A. Warshel,  
 C. F. Williams,  Q. Wu,  X. Xu,  W. Zhang

 Please cite Q-Chem as follows:
 Y. Shao et al., Mol. Phys. 113, 184-215 (2015)
 DOI: 10.1080/00268976.2014.952696

 Q-Chem 5.0.2 for Intel X86 EM64T Linux

 Parts of Q-Chem use Armadillo 5.200.1 (Boston Tea Smuggler).
 http://arma.sourceforge.net/

 Q-Chem begins on Fri Mar  4 10:35:21 2022  

Host: 
0

     Scratch files written to ./qcts2.d//
 Dec517 15110_ 26548  26544 5633   
Processing $rem in /home/leeping/opt/qchem/5.0.2-openmp/config/preferences.
 MEM_STATIC 2000
 MEM_TOTAL  8000
 SYMMETRY   OFF
 SYM_IGNORE TRUE 

Checking the input file for inconsistencies... 	...done.

--------------------------------------------------------------
User input:
--------------------------------------------------------------
$molecule
0 2
C        1.5227237216    0.5612638217   -0.2105959865
C        0.8947581597   -0.7590830577   -0.0565425624
C       -0.4074602829   -0.9093736739   -0.7265730112
C       -1.0906061341    0.5938093405    0.7554576156
C       -0.6184536340    1.1961592046   -0.4696770917
N        0.7465481530    1.5339415713   -0.5244516038
H        2.5815511194    0.7334544658   -0.0228222930
H        1.5212175144   -1.6361045016    0.0992428788
H       -0.7456139353   -1.7641418090   -1.3108209860
H       -2.0718895966    0.7878950702    1.1747911503
H       -1.2615151950    1.8540600227   -1.0527917270
C       -0.4751967505   -0.7239370299    0.7724063173
H       -0.6412382214   -1.4826921974    1.5327122027
$end

$rem
method                b3lyp
basis                 6-31+g(d,p)
unrestricted          true
symmetry              off
sym_ignore            true
incdft                false
incfock               0
scf_convergence       8
thresh                14
jobtype               sp
scf_guess             core
scf_guess_mix         5
scf_algorithm         diis
max_scf_cycles        100
$end

--------------------------------------------------------------
 ----------------------------------------------------------------
             Standard Nuclear Orientation (Angstroms)
    I     Atom           X                Y                Z
 ----------------------------------------------------------------
    1      C       1.5227237216     0.5612638217    -0.2105959865
    2      C       0.8947581597    -0.7590830577    -0.0565425624
    3      C      -0.4074602829    -0.9093736739    -0.7265730112
    4      C      -1.0906061341     0.5938093405     0.7554576156
    5      C      -0.6184536340     1.1961592046    -0.4696770917
    6      N       0.7465481530     1.5339415713    -0.5244516038
    7      H       2.5815511194     0.7334544658    -0.0228222930
    8      H       1.5212175144    -1.6361045016     0.0992428788
    9      H      -0.7456139353    -1.7641418090    -1.3108209860
   10      H      -2.0718895966     0.7878950702     1.1747911503
   11      H      -1.2615151950     1.8540600227    -1.0527917270
   12      C      -0.4751967505    -0.7239370299     0.7724063173
   13      H      -0.6412382214    -1.4826921974     1.5327122027
 ----------------------------------------------------------------
 Nuclear Repulsion Energy =   277.0216242354 hartrees
 There are       25 alpha and       24 beta electrons
 Requested basis set is 6-31+G(d,p)
 There are 53 shells and 163 basis functions

 Total QAlloc Memory Limit   8000 MB
 Mega-Array Size      1956 MB
 MEM_STATIC part      2000 MB

                       Distance Matrix (Angstroms)
             C (  1)   C (  2)   C (  3)   C (  4)   C (  5)   N (  6)
   C (  2)  1.470166
   C (  3)  2.480850  1.472176
   C (  4)  2.786362  2.536007  2.218707
   C (  5)  2.248301  2.506684  2.131615  1.444544
   N (  6)  1.283377  2.344966  2.709682  2.428405  1.407241
   H (  7)  1.089047  2.252571  3.482576  3.756323  3.264017  2.063891
   H (  8)  2.219106  1.088984  2.220340  3.496392  3.594938  3.322394
   H (  9)  3.429776  2.296558  1.089184  3.154118  3.080110  3.704359
   H ( 10)  3.859003  3.565154  3.044049  1.084632  2.232360  3.374552
   H ( 11)  3.183175  3.531366  2.910738  2.210703  1.089213  2.100937
   C ( 12)  2.570938  1.601614  1.511924  1.454466  2.291302  2.876198
   H ( 13)  3.449581  2.325645  2.342587  2.262281  3.344597  3.906143
             H (  7)   H (  8)   H (  9)   H ( 10)   H ( 11)   C ( 12)
   H (  8)  2.598849
   H (  9)  4.355107  2.672676
   H ( 10)  4.805388  4.465758  3.801338
   H ( 11)  4.133492  4.609993  3.663894  2.599142
   C ( 12)  3.478518  2.295837  2.344139  2.235392  3.255106
   H ( 13)  4.209200  2.598958  2.859334  2.707478  4.266555  1.086897

 
 A cutoff of  1.0D-14 yielded   1398 shell pairs
 There are     13492 function pairs
 
 -------------------------------------------------------
 OpenMP Integral Computing Module                       
 Release: version 1.0, May 2013, Q-Chem Inc. Pittsburgh 
 -------------------------------------------------------
 Integral Job Info:
 Integral job number is                      11
 Integral operator is                         1
 short-range coefficients                     0
 long-range coefficients              100000000
 Omega coefficients                           0
 if combine SR and LR in K                    0
 Integral screening is                        0
 Integral computing path is                   2
 max size of driver memory is            800000
 size of driver memory is                593474
 size of scratch memory is              2361544
 max col of scratch BK array               1296
 max len of scratch array in speh3          155
 max len of scratch index in speh4           18
 max int batch size is                      520
 min int batch size is                       52
 fixed nKL is                                52
 max L of basis functions is                  2
 order of int derivative is                   0
 number of shells is                         53
 number of basis is                         163
 number of cartesian basis is               163
 number of contracted shell pairs          1398
 number of primitive shell pairs           4786
 maxK2 (contraction) of shell pair           36
 max number of K2 of shell pair               1
 max number of CS2 of shell pair            126
 max number of PS2 of shell pair            678
 mem total for path MDJ                  535308
 -------------------------------------------------------
 Smallest overlap matrix eigenvalue = 2.80E-05

 Scale SEOQF with 1.000000e-01/1.000000e-01/1.000000e-01

 Standard Electronic Orientation quadrupole field applied
 Nucleus-field energy     =     0.0000000034 hartrees
 Guess MOs from core Hamiltonian diagonalization
 Mixing HOMO and LUMO in initial guess
 Adding  50% of the LUMO to the HOMO
 An unrestricted hybrid HF-DFT SCF calculation will be
 performed using Pulay DIIS extrapolation
 Exchange:     0.2000 Hartree-Fock + 0.0800 Slater + 0.7200 B88
 Correlation:  0.1900 VWN1RPA + 0.8100 LYP
 Using SG-1 standard quadrature grid
 SCF converges when DIIS error is below 1.0E-08
 using 4 threads for integral computing
 -------------------------------------------------------
 OpenMP Integral computing Module                
 Release: version 1.0, May 2013, Q-Chem Inc. Pittsburgh 
 -------------------------------------------------------
 -------------------------------------------------------
 OpenMP BLAS3 based DFT computing Module                
 Release: version 1.0, May 2013, Q-Chem Inc. Pittsburgh 
 -------------------------------------------------------
 ---------------------------------------
  Cycle       Energy         DIIS Error
 ---------------------------------------
    1    -238.2232205064      9.63E-02
    2    -218.5981359317      7.03E-02
    3    -263.0640201144      6.86E-02
    4    -272.0352570463      5.99E-02
    5    -277.6639841147      4.86E-02
    6    -283.9305608384      2.52E-02
    7    -286.0035472131      1.29E-02
    8    -286.4852092403      9.56E-03
    9    -286.8028472123      2.48E-03
   10    -286.8096151910      2.20E-03
   11    -286.8266107946      3.44E-04
   12    -286.8271454032      3.04E-04
   13    -286.8275558254      5.76E-05
   14    -286.8276425255      5.56E-05
   15    -286.8276928768      2.40E-05
   16    -286.8277216812      9.40E-06
   17    -286.8277263324      2.20E-06
   18    -286.8277269506      7.91E-07
   19    -286.8277270452      3.45E-07
   20    -286.8277271120      1.74E-07
   21    -286.8277271474      8.56E-08
   22    -286.8277271611      4.97E-08
   23    -286.8277271632      1.11E-08
   24    -286.8277271632      2.33E-09 Convergence criterion met
 ---------------------------------------
 <S^2> = 0.7856
 SCF time:  CPU 119.88 s  wall 30.78 s
 SCF   energy in the final basis set = -286.82772716
 Total energy in the final basis set = -286.82772716
 
 --------------------------------------------------------------
 
                    Orbital Energies (a.u.)
 --------------------------------------------------------------
 
 Alpha MOs
 -- Occupied --
-14.341 -10.244 -10.236 -10.226 -10.223 -10.219 -10.210  -0.966
 -0.872  -0.772  -0.664  -0.634  -0.578  -0.543  -0.511  -0.477
 -0.454  -0.431  -0.415  -0.368  -0.350  -0.292  -0.285  -0.257
 -0.182
 -- Virtual --
 -0.048   0.000   0.008   0.019   0.025   0.029   0.045   0.050
  0.066   0.070   0.072   0.097   0.102   0.104   0.111   0.117
  0.118   0.127   0.136   0.155   0.167   0.178   0.180   0.189
  0.193   0.197   0.200   0.212   0.223   0.243   0.250   0.258
  0.270   0.277   0.288   0.297   0.306   0.321   0.331   0.340
  0.345   0.404   0.433   0.453   0.603   0.651   0.661   0.677
  0.694   0.710   0.728   0.747   0.751   0.760   0.780   0.791
  0.819   0.837   0.867   0.887   0.911   0.932   0.956   0.992
  0.997   1.013   1.027   1.052   1.081   1.118   1.123   1.137
  1.177   1.224   1.260   1.311   1.357   1.405   1.411   1.499
  1.553   1.572   1.654   1.674   1.731   1.788   1.805   1.839
  1.881   1.924   1.971   2.008   2.020   2.063   2.073   2.089
  2.101   2.178   2.213   2.230   2.274   2.343   2.370   2.377
  2.404   2.406   2.460   2.466   2.492   2.516   2.523   2.538
  2.581   2.593   2.634   2.645   2.672   2.725   2.750   2.776
  2.852   2.905   2.981   3.064   3.118   3.261   3.294   3.367
  3.445   3.612   3.648   4.157   4.359   4.425   4.553   4.573
  4.653   4.726
 
 Beta MOs
 -- Occupied --
-14.341 -10.247 -10.237 -10.227 -10.223 -10.209 -10.200  -0.963
 -0.865  -0.763  -0.655  -0.632  -0.568  -0.540  -0.503  -0.472
 -0.451  -0.428  -0.406  -0.366  -0.333  -0.293  -0.282  -0.240
 -- Virtual --
 -0.069  -0.034   0.001   0.009   0.019   0.025   0.031   0.045
  0.051   0.067   0.071   0.076   0.097   0.103   0.106   0.113
  0.117   0.120   0.130   0.138   0.156   0.167   0.179   0.182
  0.192   0.194   0.198   0.205   0.213   0.224   0.245   0.253
  0.260   0.271   0.281   0.290   0.298   0.311   0.325   0.334
  0.346   0.348   0.410   0.437   0.457   0.607   0.658   0.667
  0.680   0.711   0.724   0.730   0.747   0.762   0.767   0.782
  0.792   0.822   0.846   0.871   0.888   0.913   0.938   0.957
  0.995   1.002   1.016   1.029   1.056   1.084   1.125   1.127
  1.143   1.183   1.231   1.267   1.315   1.361   1.409   1.414
  1.506   1.554   1.577   1.659   1.679   1.746   1.796   1.817
  1.845   1.892   1.932   1.977   2.016   2.030   2.068   2.079
  2.097   2.106   2.184   2.221   2.235   2.278   2.345   2.373
  2.381   2.408   2.412   2.465   2.472   2.497   2.522   2.529
  2.545   2.587   2.596   2.643   2.652   2.674   2.729   2.753
  2.783   2.857   2.910   2.986   3.066   3.120   3.265   3.295
  3.370   3.448   3.618   3.651   4.157   4.362   4.439   4.569
  4.573   4.655   4.730
 --------------------------------------------------------------
 
          Ground-State Mulliken Net Atomic Charges

     Atom                 Charge (a.u.)    Spin (a.u.)
  --------------------------------------------------------
      1 C                    -0.063015      -0.054142
      2 C                    -0.070659      -0.016591
      3 C                    -0.267397       0.545240
      4 C                    -0.005567       0.759021
      5 C                    -0.131326      -0.198890
      6 N                    -0.150134       0.038957
      7 H                     0.133847       0.002637
      8 H                     0.142468       0.020738
      9 H                     0.129410       0.012772
     10 H                     0.140919      -0.036195
     11 H                     0.127399       0.010369
     12 C                    -0.126064      -0.085132
     13 H                     0.140119       0.001217
  --------------------------------------------------------
  Sum of atomic charges =     0.000000
  Sum of spin   charges =     1.000000

 -----------------------------------------------------------------
                    Cartesian Multipole Moments
 -----------------------------------------------------------------
    Charge (ESU x 10^10)
                 0.0000
    Dipole Moment (Debye)
         X      -0.4271      Y      -2.3943      Z       0.7475
       Tot       2.5444
    Quadrupole Moments (Debye-Ang)
        XX     -37.5289     XY      -3.2379     YY     -43.7738
        XZ       0.4210     YZ      -0.0098     ZZ     -43.3139
    Octopole Moments (Debye-Ang^2)
       XXX      -1.5538    XXY      -5.5046    XYY      -9.5373
       YYY     -37.6645    XXZ       4.9046    XYZ       2.3438
       YYZ       2.6964    XZZ      -6.1407    YZZ     -10.9970
       ZZZ       7.6637
    Hexadecapole Moments (Debye-Ang^3)
      XXXX    -263.5630   XXXY      -9.4718   XXYY     -98.9033
      XYYY     -23.6534   YYYY    -334.3248   XXXZ      20.8891
      XXYZ       7.3376   XYYZ      15.9661   YYYZ      18.5981
      XXZZ     -74.0390   XYZZ      -2.7087   YYZZ     -76.2244
      XZZZ      24.4892   YZZZ      14.2841   ZZZZ    -157.4779
 -----------------------------------------------------------------
Archival summary:
1\1\c8-66\SP\ProcedureUnspecified\6-31+G**\166(2)\hpark21\FriMar410:35:522022FriMar410:35:522022\0\\#,ProcedureUnspecified,6-31+G**,\\0,2\N\C,1,1.28338\H,2,1.08905,1,120.687\C,1,1.40724,2,113.278,3,-167.972,0\H,4,1.08921,1,114.007,2,-159.305,0\C,4,1.44454,1,116.753,2,52.1192,0\H,6,1.08463,4,123.297,1,143.833,0\C,6,1.45447,4,104.44,1,-69.365,0\H,8,1.0869,6,125.169,4,-177.158,0\C,2,1.47017,1,116.613,3,177.042,0\H,10,1.08898,2,119.509,1,173.223,0\C,10,1.47218,2,114.95,1,20.7847,0\H,12,1.08918,10,126.789,2,136.717,0\\\@

 Total job time:  31.47s(wall), 121.47s(cpu) 
 Fri Mar  4 10:35:52 2022

        *************************************************************
        *                                                           *
        *  Thank you very much for using Q-Chem.  Have a nice day.  *
        *                                                           *
        *************************************************************


