13
image # 1 Energy = -286.83651
C 1.54423   0.58582   -0.16482  
C 0.89339   -0.74333  0.02745   
C -0.41163  -0.65684  -0.69473  
C -1.01906  0.62932   0.88133   
C -0.60347  0.90238   -0.57009  
N 0.74810   1.51502   -0.54184  
H 2.59850   0.78069   0.02889   
H 1.45580   -1.67137  0.06321   
H -0.81249  -1.34788  -1.43074  
H -1.98400  0.87700   1.30904   
H -1.28984  1.43280   -1.22975  
C -0.44622  -0.72970  0.83963   
H -0.67331  -1.57389  1.48242   
13
image # 2 Energy = -286.83321
C 1.54855   0.58985   -0.18209  
C 0.90715   -0.74700  0.01998   
C -0.39921  -0.67834  -0.67835  
C -1.03928  0.62418   0.87511   
C -0.59810  0.92341   -0.55204  
N 0.75115   1.52157   -0.52633  
H 2.60960   0.77727   -0.02734  
H 1.50930   -1.66316  0.04080   
H -0.78011  -1.44159  -1.38439  
H -2.01286  0.87528   1.28540   
H -1.28612  1.51815   -1.18584  
C -0.47038  -0.73296  0.83176   
H -0.75237  -1.57265  1.47425   
13
image # 3 Energy = -286.82690
C 1.55882   0.58583   -0.19176  
C 0.92414   -0.75016  0.01825   
C -0.40368  -0.69897  -0.68678  
C -1.05790  0.61542   0.87117   
C -0.60261  0.94300   -0.54855  
N 0.74842   1.52877   -0.51484  
H 2.62115   0.77433   -0.08565  
H 1.55575   -1.64597  0.02002   
H -0.73746  -1.52190  -1.32456  
H -2.04111  0.87386   1.26012   
H -1.26918  1.59278   -1.13127  
C -0.49293  -0.74376  0.83498   
H -0.82723  -1.56361  1.45927   
13
image # 4 Energy = -286.81583
C 1.57694   0.57089   -0.19322  
C 0.93108   -0.74771  0.01232   
C -0.37988  -0.73412  -0.66618  
C -1.08002  0.61545   0.85788   
C -0.59725  0.97390   -0.51704  
N 0.73567   1.54113   -0.51491  
H 2.62506   0.76779   -0.15186  
H 1.59102   -1.62083  -0.00093  
H -0.69287  -1.60938  -1.26839  
H -2.06376  0.86490   1.22792   
H -1.25711  1.67315   -1.07990  
C -0.51766  -0.74956  0.82698   
H -0.90385  -1.55872  1.44002   
13
image # 5 Energy = -286.80324
C 1.55013   0.57257   -0.20634  
C 0.94823   -0.73807  0.01300   
C -0.37387  -0.76667  -0.65917  
C -1.10519  0.60971   0.86118   
C -0.59924  1.02116   -0.50803  
N 0.75428   1.54065   -0.50861  
H 2.64562   0.76125   -0.21821  
H 1.62206   -1.60677  -0.00881  
H -0.64321  -1.68648  -1.21412  
H -2.08679  0.85117   1.19198   
H -1.24054  1.73954   -1.02369  
C -0.54172  -0.75415  0.82122   
H -0.96940  -1.55819  1.42437   
13
image # 6 Energy = -286.79073
C 1.56078   0.58636   -0.22141  
C 0.97134   -0.73200  -0.01301  
C -0.35871  -0.83261  -0.64521  
C -1.10738  0.58754   0.83342   
C -0.58956  1.09192   -0.47321  
N 0.75301   1.52857   -0.50837  
H 2.63940   0.75857   -0.25163  
H 1.66569   -1.60631  -0.02259  
H -0.60731  -1.76289  -1.16898  
H -2.11481  0.85359   1.17471   
H -1.23962  1.81096   -0.98554  
C -0.59362  -0.74786  0.82461   
H -1.02437  -1.55058  1.41755   
13
image # 7 Energy = -286.81485
C 1.56184   0.57265   -0.23614  
C 1.02862   -0.73578  -0.08336  
C -0.32822  -0.93512  -0.60900  
C -1.13783  0.57623   0.78208   
C -0.58729  1.20972   -0.41964  
N 0.74614   1.53845   -0.52698  
H 2.63946   0.76759   -0.23955  
H 1.70315   -1.61452  -0.02351  
H -0.59344  -1.83975  -1.14914  
H -2.11101  0.86577   1.17422   
H -1.24991  1.87837   -0.96386  
C -0.66967  -0.75364  0.80886   
H -1.05033  -1.54480  1.44411   
13
image # 8 Energy = -286.82447
C 1.56009   0.55280   -0.24805  
C 1.10072   -0.73592  -0.20177  
C -0.28353  -1.07391  -0.55399  
C -1.17321  0.55932   0.69691   
C -0.57861  1.38021   -0.33212  
N 0.73091   1.54640   -0.56823  
H 2.63916   0.78206   -0.18584  
H 1.73709   -1.63834  -0.00433  
H -0.59865  -1.91581  -1.15564  
H -2.08844  0.88519   1.19417   
H -1.27762  1.94246   -0.96593  
C -0.77753  -0.75944  0.77814   
H -1.04127  -1.54280  1.50426   
13
image # 9 Energy = -286.84218
C 1.56277   0.55010   -0.26045  
C 1.13905   -0.76223  -0.26238  
C -0.22749  -1.16205  -0.50580  
C -1.19810  0.55347   0.67131   
C -0.57280  1.45390   -0.30866  
N 0.70488   1.55027   -0.58654  
H 2.63267   0.79040   -0.17400  
H 1.78552   -1.63478  -0.02378  
H -0.57804  -1.98049  -1.12333  
H -2.08520  0.90394   1.19979   
H -1.27622  2.00568   -0.93304  
C -0.85150  -0.76483  0.75477   
H -1.08790  -1.52229  1.51045   
13
image # 10 Energy = -286.85670
C 1.55716   0.53120   -0.26955  
C 1.19492   -0.78010  -0.30838  
C -0.18528  -1.23365  -0.45189  
C -1.21983  0.55329   0.65074   
C -0.58420  1.47468   -0.29082  
N 0.69095   1.54891   -0.60754  
H 2.61777   0.79927   -0.16314  
H 1.84275   -1.61944  -0.05653  
H -0.55010  -2.03802  -1.08540  
H -2.07812  0.92805   1.21559   
H -1.27180  2.07588   -0.89744  
C -0.91893  -0.76504  0.71522   
H -1.14894  -1.49459  1.50747   
13
image # 11 Energy = -286.86930
C 1.55533   0.51705   -0.28088  
C 1.22609   -0.80865  -0.33709  
C -0.13339  -1.30136  -0.40172  
C -1.24574  0.55889   0.63637   
C -0.59101  1.47257   -0.30787  
N 0.65743   1.53301   -0.61716  
H 2.59258   0.81039   -0.14236  
H 1.92027   -1.60396  -0.10133  
H -0.51995  -2.08012  -1.04929  
H -2.06245  0.95974   1.24883   
H -1.26161  2.14542   -0.85625  
C -0.97187  -0.76382  0.66946   
H -1.22035  -1.45888  1.49775   
13
image # 12 Energy = -286.87878
C 1.55023   0.49564   -0.28640  
C 1.23736   -0.83855  -0.34283  
C -0.09299  -1.34010  -0.35434  
C -1.27264  0.55593   0.62208   
C -0.62785  1.46185   -0.32932  
N 0.64647   1.51031   -0.63346  
H 2.56550   0.82434   -0.12442  
H 2.00760   -1.58489  -0.15623  
H -0.48116  -2.12762  -1.01267  
H -2.03543  0.98959   1.28817   
H -1.24594  2.20931   -0.81373  
C -1.00671  -0.76237  0.63830   
H -1.29950  -1.41252  1.46392   
13
image # 13 Energy = -286.88454
C 1.53253   0.48336   -0.28689  
C 1.25318   -0.85675  -0.32551  
C -0.09351  -1.36303  -0.33590  
C -1.29101  0.55925   0.61123   
C -0.62969  1.44594   -0.34650  
N 0.62427   1.48744   -0.63926  
H 2.54844   0.83617   -0.10982  
H 2.06727   -1.57076  -0.20582  
H -0.44547  -2.15782  -0.98225  
H -2.00658  1.00660   1.32086   
H -1.24117  2.24986   -0.79578  
C -1.01125  -0.75171  0.61959   
H -1.36178  -1.38629  1.43567   
13
image # 14 Energy = -286.88772
C 1.54906   0.50741   -0.29899  
C 1.24184   -0.82623  -0.33800  
C -0.08354  -1.34922  -0.32220  
C -1.25502  0.57738   0.63777   
C -0.60184  1.49403   -0.30314  
N 0.64150   1.51530   -0.64229  
H 2.58369   0.82762   -0.17391  
H 2.02627   -1.56906  -0.21121  
H -0.40406  -2.22227  -0.88810  
H -2.06177  0.97001   1.27674   
H -1.24058  2.22942   -0.77743  
C -1.02098  -0.75055  0.61668   
H -1.42842  -1.41821  1.38483   
13
image # 15 Energy = -286.89264
C 1.55308   0.51741   -0.31550  
C 1.24559   -0.82427  -0.34363  
C -0.07194  -1.36812  -0.28534  
C -1.25251  0.59335   0.64638   
C -0.58961  1.51857   -0.26420  
N 0.65088   1.53220   -0.64332  
H 2.60320   0.82087   -0.24249  
H 2.03154   -1.55306  -0.23809  
H -0.34700  -2.27865  -0.78329  
H -2.10887  0.95054   1.21578   
H -1.22790  2.26560   -0.72276  
C -1.02478  -0.75470  0.60787   
H -1.51256  -1.42733  1.33127   
13
image # 16 Energy = -286.89695
C 1.55405   0.52240   -0.33509  
C 1.25148   -0.81804  -0.35015  
C -0.06223  -1.37673  -0.23268  
C -1.25001  0.58554   0.64657   
C -0.58276  1.54005   -0.22394  
N 0.66488   1.54249   -0.63923  
H 2.61356   0.81283   -0.30941  
H 2.04606   -1.54045  -0.26466  
H -0.29624  -2.33749  -0.68957  
H -2.15558  0.93905   1.15264   
H -1.21432  2.31236   -0.66657  
C -1.03205  -0.75302  0.60001   
H -1.58317  -1.43025  1.27734   
13
image # 17 Energy = -286.90215
C 1.56458   0.52050   -0.35798  
C 1.24993   -0.80999  -0.34869  
C -0.04853  -1.38418  -0.18574  
C -1.26101  0.58730   0.64159   
C -0.55437  1.55277   -0.19895  
N 0.65300   1.55830   -0.61749  
H 2.61343   0.80315   -0.38228  
H 2.06492   -1.53020  -0.29253  
H -0.24556  -2.39063  -0.58945  
H -2.19804  0.92915   1.08464   
H -1.19411  2.36210   -0.60123  
C -1.03994  -0.76617  0.59929   
H -1.64499  -1.42826  1.21867   
13
image # 18 Energy = -286.90629
C 1.55859   0.51087   -0.38231  
C 1.25178   -0.79438  -0.34115  
C -0.03502  -1.40648  -0.15184  
C -1.28368  0.58984   0.63181   
C -0.55559  1.57177   -0.17866  
N 0.66862   1.57227   -0.59050  
H 2.61675   0.79643   -0.46187  
H 2.07870   -1.52118  -0.32130  
H -0.19367  -2.42501  -0.48013  
H -2.23406  0.91993   1.01175   
H -1.16067  2.39913   -0.52401  
C -1.04268  -0.77272  0.59679   
H -1.70398  -1.43374  1.16495   
13
image # 19 Energy = -286.91059
C 1.56114   0.52522   -0.40425  
C 1.25575   -0.81262  -0.33070  
C -0.02661  -1.40825  -0.11158  
C -1.29142  0.59184   0.60478   
C -0.55320  1.55598   -0.14866  
N 0.68515   1.58995   -0.55598  
H 2.61119   0.78718   -0.54869  
H 2.08503   -1.50516  -0.35160  
H -0.14119  -2.46044  -0.36936  
H -2.27677  0.91619   0.93962   
H -1.13301  2.45120   -0.44855  
C -1.04419  -0.78115  0.59595   
H -1.75815  -1.44160  1.10762   
13
image # 20 Energy = -286.91346
C 1.56212   0.52241   -0.43317  
C 1.26493   -0.80625  -0.31923  
C -0.02458  -1.41618  -0.06996  
C -1.32117  0.58482   0.57080   
C -0.54973  1.56694   -0.13714  
N 0.70503   1.60679   -0.51536  
H 2.59705   0.78138   -0.62526  
H 2.09308   -1.49883  -0.38081  
H -0.09461  -2.49020  -0.26166  
H -2.30695  0.91388   0.87770   
H -1.09867  2.48690   -0.36600  
C -1.05174  -0.79900  0.58603   
H -1.79573  -1.44382  1.05706   
13
image # 21 Energy = -286.91667
C 1.55780   0.52663   -0.45676  
C 1.27112   -0.81601  -0.32474  
C -0.00735  -1.42759  -0.01770  
C -1.33877  0.58522   0.53331   
C -0.54882  1.57834   -0.11096  
N 0.71590   1.61249   -0.49645  
H 2.58534   0.77706   -0.67598  
H 2.10091   -1.49299  -0.40943  
H -0.05327  -2.51129  -0.16345  
H -2.32479  0.91212   0.83842   
H -1.07426  2.51818   -0.29654  
C -1.06689  -0.80829  0.55942   
H -1.83233  -1.44493  1.00844   
13
image # 22 Energy = -286.92025
C 1.54359   0.52326   -0.48033  
C 1.26827   -0.81199  -0.32199  
C 0.01282   -1.43811  0.02865   
C -1.35634  0.59065   0.48198   
C -0.54858  1.58553   -0.08204  
N 0.72823   1.61904   -0.46700  
H 2.57922   0.77365   -0.74769  
H 2.10852   -1.49271  -0.44069  
H -0.00689  -2.52372  -0.04482  
H -2.34719  0.90793   0.78799   
H -1.03954  2.54364   -0.20892  
C -1.08229  -0.81668  0.53225   
H -1.87042  -1.45235  0.95364   
13
image # 23 Energy = -286.92218
C 1.53976   0.51825   -0.50806  
C 1.27826   -0.81541  -0.31857  
C 0.02862   -1.44690  0.06436   
C -1.36405  0.58964   0.44669   
C -0.54972  1.58946   -0.06138  
N 0.74069   1.62786   -0.45092  
H 2.55791   0.76614   -0.79351  
H 2.10822   -1.48953  -0.46740  
H 0.03053   -2.53143  0.05800   
H -2.36803  0.90516   0.75235   
H -1.01573  2.56624   -0.13283  
C -1.10070  -0.82398  0.51061   
H -1.89206  -1.44941  0.89525   
13
image # 24 Energy = -286.92285
C 1.52254   0.52823   -0.52289  
C 1.26175   -0.82415  -0.32037  
C 0.05970   -1.44887  0.10783   
C -1.38771  0.57680   0.41776   
C -0.53076  1.59782   -0.03210  
N 0.74690   1.62058   -0.44070  
H 2.54610   0.75909   -0.84315  
H 2.11729   -1.49521  -0.49038  
H 0.06335   -2.53405  0.15166   
H -2.37174  0.89855   0.71034   
H -1.00018  2.59282   -0.06021  
C -1.10925  -0.81315  0.47507   
H -1.92084  -1.45645  0.84539   
13
image # 25 Energy = -286.92432
C 1.51435   0.51679   -0.54457  
C 1.27574   -0.82633  -0.31760  
C 0.06103   -1.44911  0.14223   
C -1.38672  0.58563   0.38066   
C -0.53629  1.60325   -0.00708  
N 0.75216   1.62770   -0.42407  
H 2.52262   0.74934   -0.89469  
H 2.11322   -1.49190  -0.51240  
H 0.09568   -2.53120  0.25212   
H -2.38881  0.89474   0.66844   
H -0.97471  2.60323   0.02208   
C -1.11225  -0.82749  0.45002   
H -1.93603  -1.45464  0.78486   
