13   
From qcfsm.out: Frame 74 / 74, Energy=       0.0000000000
C        1.5500265563    0.5848441927   -0.2018670054
C        0.9553394024   -0.7355928022   -0.0230213887
C       -0.3740925575   -0.8154619320   -0.6664152438
C       -1.0841097988    0.5939056249    0.8321597578
C       -0.5976860110    1.0789705807   -0.4951984392
N        0.7456225160    1.5268327669   -0.5262293052
H        2.6265693113    0.7586186251   -0.1675103858
H        1.6233533097   -1.6095721944    0.0017706240
H       -0.6475247665   -1.7196105056   -1.2191833801
H       -2.0698685336    0.8589543452    1.2139233400
H       -1.2574290957    1.7604615853   -1.0403945592
C       -0.5701227213   -0.7452882385    0.8141599252
H       -0.9452526929   -1.5518108209    1.4381409635
