13   
From optimize.out: Frame 23 / 24, Energy=    -286.8549095738
C        1.6801790246    0.3941026087   -0.1783820193
C        1.1262118113   -0.8348490310   -0.2685289378
C       -0.3162841307   -1.0621848678   -0.0823204238
C       -1.1557279371    0.3278757744    0.0469936080
C       -0.3269541053    1.5324844040   -0.1484785026
N        0.9598677316    1.5898455975   -0.1662576803
H        2.7570140642    0.5227856985   -0.2501939659
H        1.7478113132   -1.6980287218   -0.4937562742
H       -0.7575702086   -1.9017382680   -0.6224630194
H       -2.1622104709    0.3916870516   -0.3711500977
H       -0.8676481845    2.4600622154   -0.3521833492
C       -0.9589916683   -0.6131773555    1.1517287765
H       -1.7256972399   -1.1088651055    1.7349918851
13   
From optimize.out: Frame 22 / 24, Energy=    -286.8549035522
C        1.6799731064    0.3941319363   -0.1790063917
C        1.1262784124   -0.8349235305   -0.2679070471
C       -0.3162253380   -1.0619149479   -0.0834926099
C       -1.1551537210    0.3263797216    0.0459881840
C       -0.3267264094    1.5314152613   -0.1471500452
N        0.9597999123    1.5896534341   -0.1644345160
H        2.7567004123    0.5238934995   -0.2507805596
H        1.7481120803   -1.6978181694   -0.4934984528
H       -0.7592204640   -1.8999692990   -0.6240550625
H       -2.1613043271    0.3907772592   -0.3725831734
H       -0.8672120865    2.4587957188   -0.3525714143
C       -0.9600397289   -0.6133768491    1.1508500712
H       -1.7249818490   -1.1070440350    1.7386410173
13   
From optimize.out: Frame 21 / 24, Energy=    -286.8548897380
C        1.6801299538    0.3938090566   -0.1808134680
C        1.1267911867   -0.8355235787   -0.2665922855
C       -0.3166312513   -1.0604662587   -0.0823918362
C       -1.1528555815    0.3262249923    0.0458834927
C       -0.3267001446    1.5322437872   -0.1444315715
N        0.9600373634    1.5900595189   -0.1630798746
H        2.7565864529    0.5249280531   -0.2550149076
H        1.7483642591   -1.6990412557   -0.4903139603
H       -0.7615841799   -1.8967186058   -0.6243515089
H       -2.1586186325    0.3893091412   -0.3737836063
H       -0.8687156621    2.4580129131   -0.3533092421
C       -0.9607651791   -0.6142694429    1.1507984933
H       -1.7260385851   -1.1085683208    1.7374002749
13   
From optimize.out: Frame 20 / 24, Energy=    -286.8548787835
C        1.6800098822    0.3926048979   -0.1789452779
C        1.1276596073   -0.8363941794   -0.2719157587
C       -0.3146827767   -1.0623086577   -0.0821797239
C       -1.1531499685    0.3256109950    0.0431209321
C       -0.3268603948    1.5323320361   -0.1449644595
N        0.9600871140    1.5899637402   -0.1640754250
H        2.7561819415    0.5249537153   -0.2548999180
H        1.7505040571   -1.6993181165   -0.4941246677
H       -0.7583923508   -1.9012471930   -0.6203210775
H       -2.1589653967    0.3864268527   -0.3764397386
H       -0.8696539019    2.4596982708   -0.3446858249
C       -0.9618267470   -0.6106420466    1.1524214761
H       -1.7309110657   -1.1016803148    1.7370094635
13   
From optimize.out: Frame 19 / 24, Energy=    -286.8548201052
C        1.6793099700    0.3928251455   -0.1893604007
C        1.1289346296   -0.8368409759   -0.2677843936
C       -0.3141564478   -1.0649163738   -0.0739153037
C       -1.1509874151    0.3188601212    0.0299862213
C       -0.3262058048    1.5305919904   -0.1416204221
N        0.9594497043    1.5906265792   -0.1567279880
H        2.7549613944    0.5266152603   -0.2697529978
H        1.7515247498   -1.6977536856   -0.4981640373
H       -0.7556069375   -1.9079984703   -0.6083696105
H       -2.1526555814    0.3777195853   -0.3998900738
H       -0.8684520656    2.4634279591   -0.3157162997
C       -0.9647480483   -0.6037298207    1.1559592275
H       -1.7413681477   -1.0894273147    1.7353560786
13   
From optimize.out: Frame 18 / 24, Energy=    -286.8547031652
C        1.6802463791    0.3931708732   -0.1970296239
C        1.1309879790   -0.8356793815   -0.2649548106
C       -0.3115906984   -1.0643924848   -0.0631571974
C       -1.1511561046    0.3161001401    0.0221146343
C       -0.3252823595    1.5310641403   -0.1378806586
N        0.9597890639    1.5913329570   -0.1549174997
H        2.7547815612    0.5253838427   -0.2925245420
H        1.7520927163   -1.6966026796   -0.4992562653
H       -0.7467588614   -1.9164627927   -0.5892550941
H       -2.1476364829    0.3683516239   -0.4202824029
H       -0.8659248692    2.4694406848   -0.2852822049
C       -0.9710344671   -0.5968838561    1.1598954843
H       -1.7585138563   -1.0848230674    1.7225301808
13   
From optimize.out: Frame 17 / 24, Energy=    -286.8545971168
C        1.6849367936    0.3941624763   -0.2039763936
C        1.1345129961   -0.8390986799   -0.2596889147
C       -0.3090740159   -1.0605607930   -0.0613032124
C       -1.1530971315    0.3106727066    0.0125717448
C       -0.3245381570    1.5300609081   -0.1364337188
N        0.9620146735    1.5922355679   -0.1552477013
H        2.7584760826    0.5271637060   -0.3096686104
H        1.7517776084   -1.7040692581   -0.4895500853
H       -0.7375224730   -1.9177821774   -0.5839610370
H       -2.1494511760    0.3718033835   -0.4287523088
H       -0.8745493106    2.4666198237   -0.2590876043
C       -0.9772880955   -0.5945212235    1.1550255742
H       -1.7661977947   -1.0766864402    1.7200722676
13   
From optimize.out: Frame 15 / 24, Energy=    -286.8541353348
C        1.6807447147    0.3952655146   -0.2140075482
C        1.1322399132   -0.8359207239   -0.2598062216
C       -0.3088325121   -1.0718586058   -0.0460412178
C       -1.1534504963    0.3084694947    0.0084984043
C       -0.3264590840    1.5287763758   -0.1397713225
N        0.9579714276    1.5924038640   -0.1540608206
H        2.7566130484    0.5214679654   -0.3012130448
H        1.7505605198   -1.6960806432   -0.5056427119
H       -0.7396621158   -1.9231256090   -0.5814679652
H       -2.1432529179    0.3586246718   -0.4521241800
H       -0.8674228924    2.4727954384   -0.2415298628
C       -0.9718728076   -0.5801789505    1.1700387116
H       -1.7671767974   -1.0706387921    1.7171277795
13   
From optimize.out: Frame 13 / 24, Energy=    -286.8535224494
C        1.6961303366    0.3968190703   -0.2118018270
C        1.1411835240   -0.8358169923   -0.2380216890
C       -0.2949177695   -1.0528028386   -0.0192081347
C       -1.1577330451    0.3016954299   -0.0021814889
C       -0.3199153224    1.5267636210   -0.1340877250
N        0.9687473475    1.5937237580   -0.1560979873
H        2.7624355844    0.5289114733   -0.3758523665
H        1.7379053929   -1.7063860017   -0.4981765475
H       -0.7117883853   -1.9236527164   -0.5310578225
H       -2.1407880610    0.3694019787   -0.4720885974
H       -0.8771863717    2.4659943698   -0.1929136061
C       -0.9989099381   -0.5789913128    1.1559945692
H       -1.8051632922   -1.0856598392    1.6754932227
13   
From optimize.out: Frame 12 / 24, Energy=    -286.8518398403
C        1.6980412016    0.3956196480   -0.2436069537
C        1.1416927524   -0.8292341262   -0.2231609748
C       -0.3063199960   -1.0067283597   -0.0599253665
C       -1.1627661219    0.3037106007    0.0181996689
C       -0.3261242867    1.5146546411   -0.1437927713
N        0.9643103181    1.5862868451   -0.1747767879
H        2.7697734300    0.5156202123   -0.3771174322
H        1.7287097668   -1.7206891928   -0.4274708789
H       -0.7085448665   -1.8907894864   -0.5623206244
H       -2.1482841821    0.3476170940   -0.4507899217
H       -0.8763209311    2.4583967255   -0.1806472088
C       -0.9859184780   -0.5652126148    1.1741511131
H       -1.7882486066   -1.1092519867    1.6512581382
13   
From optimize.out: Frame 11 / 24, Energy=    -286.8515276178
C        1.6830174756    0.4032245223   -0.2622666991
C        1.1357102012   -0.8291193100   -0.2609057695
C       -0.2844675252   -1.0634368616    0.0177871565
C       -1.1653186320    0.3196249328    0.0038339765
C       -0.3253222573    1.5141681101   -0.1316067617
N        0.9590768359    1.5848121659   -0.1504669699
H        2.7552427753    0.5275393637   -0.3881188930
H        1.7493331048   -1.7033226226   -0.4643337118
H       -0.7112166299   -1.9329697508   -0.4853651322
H       -2.1435144435    0.3713751669   -0.4785923566
H       -0.8420699352    2.4773806145   -0.1645125924
C       -1.0030867643   -0.5408159847    1.1687128115
H       -1.8073842053   -1.1284603464    1.5958349417
13   
From optimize.out: Frame 10 / 24, Energy=    -286.8474564242
C        1.6950154249    0.3994569047   -0.2698487131
C        1.1442388531   -0.8319616556   -0.2720498403
C       -0.2727754843   -1.0428751737    0.0104325804
C       -1.1849568230    0.3149768125   -0.0107764957
C       -0.3423109418    1.4930895644   -0.1341374277
N        0.9556574561    1.5667311147   -0.1549629724
H        2.7677237875    0.5283900367   -0.3931047758
H        1.7796596528   -1.7075431934   -0.3973419361
H       -0.7673390359   -1.8865334884   -0.4773684861
H       -2.1815028693    0.3795591916   -0.4512174609
H       -0.8337960965    2.4722389858   -0.1598984697
C       -0.9889653891   -0.5256298954    1.1512525785
H       -1.7706485345   -1.1598992038    1.5590214188
13   
From optimize.out: Frame 9 / 24, Energy=    -286.8397144737
C        1.6872923502    0.3889087506   -0.3008646902
C        1.1604601239   -0.8448395649   -0.2818262233
C       -0.2316912192   -1.0772276693    0.0154445952
C       -1.2308261956    0.3211894322   -0.0143256416
C       -0.3587426075    1.4782842526   -0.1421608108
N        0.9422428891    1.5463143807   -0.1708587765
H        2.7642667540    0.5187055104   -0.3798853390
H        1.8298651533   -1.7020182236   -0.3544956430
H       -0.7530344710   -1.8629951723   -0.5274690114
H       -2.2408075862    0.4009539289   -0.4075027262
H       -0.7999502754    2.4832132320   -0.1454964282
C       -1.0022173841   -0.4964845561    1.1437690216
H       -1.7668575313   -1.1540043010    1.5656716734
13   
From optimize.out: Frame 8 / 24, Energy=    -286.8216786057
C        1.6893811500    0.3888762206   -0.3190005808
C        1.1867395732   -0.8425368886   -0.3042379654
C       -0.1794807979   -1.0810062652    0.0380179571
C       -1.2679084939    0.3078322103   -0.0377570489
C       -0.3636437312    1.4366352135   -0.1521886382
N        0.9246957802    1.5097111005   -0.1755421693
H        2.7651207629    0.5391987797   -0.3699960942
H        1.8824929712   -1.6810178334   -0.3411296151
H       -0.8317743061   -1.7621179726   -0.4760938952
H       -2.2784542709    0.4114732042   -0.4025578725
H       -0.7439760027    2.4669175424   -0.1428617866
C       -1.0124976541   -0.5103877903    1.1202676184
H       -1.7706949806   -1.1835775212    1.5630800906
13   
From optimize.out: Frame 7 / 24, Energy=    -286.8085551488
C        1.6355249142    0.3995466392   -0.2563804651
C        1.0802260287   -0.8427364060   -0.2592863964
C       -0.3134651521   -1.0996280734   -0.0520373030
C       -1.2068763839    0.2910269217   -0.0672239525
C       -0.3667399472    1.4600939650   -0.1786247297
N        0.9148572002    1.5430273350   -0.1709119050
H        2.7166489428    0.5118903227   -0.2380106020
H        1.7745773820   -1.6833362278   -0.2357858065
H       -0.9609405939   -1.7319218572   -0.6325865948
H       -2.2263971393    0.3076125457   -0.4214955171
H       -0.7656936309    2.4831432411   -0.1915801223
C       -0.8049625619   -0.4494829083    1.1093208128
H       -1.4767590587   -1.1892354977    1.5946025816
13   
From optimize.out: Frame 6 / 24, Energy=    -286.7740170881
C        1.6186913837    0.3882700580   -0.2295155602
C        1.0417340414   -0.8554631696   -0.2274636428
C       -0.3508727613   -1.0708034662   -0.0957580683
C       -1.2383480889    0.2724501146   -0.0801233163
C       -0.3813003951    1.4491672504   -0.2086339959
N        0.9034911219    1.5298061991   -0.1885720242
H        2.6973752810    0.4921085519   -0.1604156053
H        1.7240195951   -1.7022335037   -0.1433301203
H       -0.9910320653   -1.6530980502   -0.7395569210
H       -2.2744379461    0.2589924178   -0.3809879369
H       -0.7616481766    2.4767956823   -0.2009610255
C       -0.6866113886   -0.4117218735    1.0590912965
H       -1.3010606012   -1.1742702108    1.5962269201
13   
From optimize.out: Frame 5 / 24, Energy=    -286.7510879796
C        1.6101144070    0.3703876047   -0.1819454542
C        1.0273243440   -0.8889198210   -0.2237519199
C       -0.3530627967   -1.0763870403   -0.2133639032
C       -1.2767680938    0.2350148323   -0.0526338783
C       -0.4019687033    1.4238392878   -0.2228262339
N        0.8910741136    1.5046487290   -0.1813322410
H        2.6823105316    0.4820331653   -0.0603996409
H        1.7047421027   -1.7395461381   -0.1316298181
H       -0.9641670436   -1.5658258224   -0.9629246722
H       -2.3185259253    0.1734213851   -0.3367037007
H       -0.7778136282    2.4502582270   -0.2487520214
C       -0.6194770504   -0.3088458017    1.1101159310
H       -1.2037822577   -1.0600786078    1.7061475528
13   
From optimize.out: Frame 4 / 24, Energy=    -286.7077971221
C        1.5924912706    0.3371072947   -0.1054759743
C        1.0087054975   -0.9356209880   -0.2649797507
C       -0.3704148242   -1.1143053738   -0.4616278756
C       -1.2936815695    0.2102071318    0.0250371154
C       -0.4405323081    1.4100183895   -0.2401752729
N        0.8692024001    1.4863268184   -0.1592492398
H        2.6465572954    0.4469408845    0.1256433567
H        1.6738008195   -1.7894286779   -0.1201161806
H       -0.8930474057   -1.5417673474   -1.3341451980
H       -2.3363501580    0.0566130707   -0.2434029208
H       -0.8425171222    2.4189661469   -0.3430421031
C       -0.5459641862   -0.1386481962    1.2171870041
H       -1.0682497091   -0.8464091532    1.9043470396
13   
From optimize.out: Frame 3 / 24, Energy=    -286.6756499965
C        1.5691581758    0.3267969930   -0.0334413323
C        0.9134264352   -0.9394761726   -0.2328330993
C       -0.4802253712   -1.0342484485   -0.5242429210
C       -1.2244447787    0.1462025362    0.0010873160
C       -0.4584762158    1.4114579987   -0.2678703342
N        0.8684101833    1.5102082222   -0.1283103082
H        2.6122580073    0.3995362201    0.2558258356
H        1.5239009116   -1.8266679469   -0.0466913663
H       -1.0111597061   -1.4085267804   -1.4476495644
H       -2.2564027525   -0.1300013213   -0.2478055055
H       -0.9324066025    2.3861393363   -0.3705267166
C       -0.3585672365   -0.0540538158    1.1618243172
H       -0.7654710497   -0.7873668209    1.8806336791
13   
From optimize.out: Frame 2 / 24, Energy=    -286.6254313898
C        1.5645861188    0.3053620086   -0.0014603053
C        0.9217487011   -0.9961418285   -0.2320311605
C       -0.4892757944   -1.1363621458   -0.5155397195
C       -1.2493087816    0.1780213871   -0.0196472869
C       -0.5034964669    1.4628202157   -0.2537902992
N        0.8487996142    1.5093387616   -0.0768081852
H        2.6067752102    0.3870859846    0.2892595196
H        1.5619613704   -1.8667968085   -0.0632280703
H       -1.0621096554   -1.4760938701   -1.4560433648
H       -2.2727630898   -0.1623756475   -0.2595760379
H       -0.9929765675    2.4306586057   -0.3251972358
C       -0.3008861440    0.0548448016    1.0939614557
H       -0.6330545152   -0.6903614645    1.8201006903
13   
From optimize.out: Frame 1 / 24, Energy=    -286.5524627724
C        1.5592183903    0.2846966828   -0.0321847876
C        0.9897827665   -1.0954504815   -0.2076457641
C       -0.4196196453   -1.4141817586   -0.4544709946
C       -1.3835027351    0.3435107951   -0.0365699840
C       -0.5553784183    1.5847959357   -0.2233577436
N        0.8201723405    1.4994668684   -0.0776353291
H        2.6062778258    0.4136976157    0.2236411352
H        1.7180598150   -1.8922600227   -0.0262553229
H       -1.0064789569   -1.8494371764   -1.3736469944
H       -2.4480037480    0.0707850399   -0.2250295434
H       -0.9823861616    2.5825511434   -0.1910767668
C       -0.3026463564    0.1234414949    0.9638720311
H       -0.5954951165   -0.6516161368    1.6603600641
13   
C5H5N+CH->C6H6N atoms 1-13 frame 109 charge +0.000 sz -1.000 sz^2 0.500
C        1.5592183903    0.2846966828   -0.0321847876
C        0.9897827665   -1.0954504815   -0.2076457641
C       -0.4196196453   -1.4141817586   -0.4544709946
C       -1.3835027351    0.3435107951   -0.0365699840
C       -0.5553784183    1.5847959357   -0.2233577436
N        0.8201723405    1.4994668684   -0.0776353291
H        2.6062778258    0.4136976157    0.2236411352
H        1.7180598150   -1.8922600227   -0.0262553229
H       -1.0064789569   -1.8494371764   -1.3736469944
H       -2.4480037480    0.0707850399   -0.2250295434
H       -0.9823861616    2.5825511434   -0.1910767668
C       -0.3026463564    0.1234414949    0.9638720311
H       -0.5954951165   -0.6516161368    1.6603600641
13   
C5H5N+CH->C6H6N atoms 1-13 frame 110 charge -0.000 sz -1.000 sz^2 0.501
C        1.5576456654    0.2838968951   -0.0284530809
C        0.9855133763   -1.1034895159   -0.2173225049
C       -0.4136999591   -1.4208137952   -0.4713200058
C       -1.3817040688    0.3519278734   -0.0429737430
C       -0.5595832598    1.5950155855   -0.2346368729
N        0.8229335279    1.5002479915   -0.0764491812
H        2.5966762922    0.4115546012    0.2452241676
H        1.7177227885   -1.8920129586   -0.0383812699
H       -1.0016648835   -1.8501466406   -1.3623858095
H       -2.4483974112    0.0592092628   -0.2043322972
H       -0.9761419084    2.5933772233   -0.2013906196
C       -0.3042251602    0.1315283048    0.9701926552
H       -0.5950749994   -0.6602948272    1.6622285623
13   
C5H5N+CH->C6H6N atoms 1-13 frame 111 charge +0.000 sz -1.000 sz^2 0.507
C        1.5550891419    0.2826929115   -0.0244919665
C        0.9808076359   -1.1111268683   -0.2276947098
C       -0.4079705234   -1.4269136718   -0.4893648146
C       -1.3794811645    0.3603408686   -0.0501083871
C       -0.5636285309    1.6055398479   -0.2462898640
N        0.8251146020    1.5013325306   -0.0752950137
H        2.5863057930    0.4087670514    0.2678475691
H        1.7167931627   -1.8922612671   -0.0525301324
H       -0.9935352632   -1.8503531819   -1.3491418532
H       -2.4464703097    0.0488898541   -0.1833248453
H       -0.9699576059    2.6047481515   -0.2127621689
C       -0.3077917531    0.1383807357    0.9765335250
H       -0.5952751849   -0.6700369621    1.6666226615
13   
C5H5N+CH->C6H6N atoms 1-13 frame 112 charge +0.000 sz -1.000 sz^2 0.520
C        1.5514760148    0.2811604814   -0.0202723728
C        0.9757300170   -1.1182948007   -0.2386080517
C       -0.4023030602   -1.4324439382   -0.5082413008
C       -1.3768265213    0.3686515831   -0.0576921475
C       -0.5675129444    1.6163037029   -0.2582067025
N        0.8266132661    1.5027767985   -0.0742020104
H        2.5753925248    0.4054181953    0.2914571623
H        1.7156037847   -1.8931085456   -0.0685539167
H       -0.9828616287   -1.8509493641   -1.3347902996
H       -2.4421341046    0.0398962223   -0.1619135023
H       -0.9640636371    2.6167942201   -0.2251698845
C       -0.3132368153    0.1440805143    0.9830583175
H       -0.5958768957   -0.6802850693    1.6731347090
13   
C5H5N+CH->C6H6N atoms 1-13 frame 113 charge +0.000 sz -1.000 sz^2 0.537
C        1.5467751954    0.2794051859   -0.0157407024
C        0.9703869807   -1.1249218775   -0.2498553699
C       -0.3965038902   -1.4373529987   -0.5275017797
C       -1.3737013192    0.3767668885   -0.0654243738
C       -0.5712232637    1.6272432291   -0.2702803759
N        0.8273601939    1.5046526553   -0.0732001318
H        2.5641228024    0.4016306514    0.3159908884
H        1.7145061595   -1.8945861945   -0.0862379559
H       -0.9706788432   -1.8530262933   -1.3204864036
H       -2.4353663056    0.0322726147   -0.1399941247
H       -0.9586596216    2.6296011051   -0.2386042488
C       -0.3204041075    0.1487402247    0.9899541015
H       -0.5966139810   -0.6904251906    1.6813804767
13   
C5H5N+CH->C6H6N atoms 1-13 frame 114 charge +0.000 sz -1.000 sz^2 0.555
C        1.5410049108    0.2775634781   -0.0108181379
C        0.9649305051   -1.1309323206   -0.2611833113
C       -0.3903183346   -1.4415729818   -0.5466323168
C       -1.3700329697    0.3846063564   -0.0729973440
C       -0.5747263619    1.6383003761   -0.2824097748
N        0.8273241016    1.5070486030   -0.0723179823
H        2.5526250283    0.3975628834    0.3413720614
H        1.7138498395   -1.8966436042   -0.1053091425
H       -0.9582510162   -1.8578426503   -1.3076223151
H       -2.4262117440    0.0260449035   -0.1174670963
H       -0.9539006114    2.6431949288   -0.2530713775
C       -0.3290903414    0.1525012657    0.9974220562
H       -0.5972030062   -0.6998312380    1.6910346810
13   
C5H5N+CH->C6H6N atoms 1-13 frame 115 charge -0.000 sz -1.000 sz^2 0.576
C        1.5342248919    0.2757887390   -0.0054035067
C        0.9595460825   -1.1362537987   -0.2723172869
C       -0.3834596798   -1.4450230544   -0.5651038260
C       -1.3657211351    0.3921081425   -0.0801151124
C       -0.5779671285    1.6494264472   -0.2944998419
N        0.8265118103    1.5100622405   -0.0715780004
H        2.5409577817    0.3933917928    0.3675061581
H        1.7139476502   -1.8991495774   -0.1254667893
H       -0.9469401705   -1.8667262159   -1.2976692747
H       -2.4147878549    0.0212336037   -0.0942573785
H       -0.9498853787    2.6575325135   -0.2685851588
C       -0.3390586958    0.1555245422    1.0056619866
H       -0.5973681733   -0.7079153749    1.7018280308
13   
C5H5N+CH->C6H6N atoms 1-13 frame 116 charge +0.000 sz -1.000 sz^2 0.609
C        1.5265190830    0.2742245446    0.0006148266
C        0.9544292309   -1.1408287950   -0.2830063471
C       -0.3756654551   -1.4476203535   -0.5824595494
C       -1.3606535446    0.3992331327   -0.0865182854
C       -0.5808733828    1.6605833925   -0.3064565323
N        0.8249628713    1.5137823768   -0.0709858353
H        2.5290965716    0.3892740399    0.3942747726
H        1.7150349641   -1.9019152536   -0.1464367837
H       -0.9379654822   -1.8808794008   -1.2918997799
H       -2.4012948338    0.0178650943   -0.0703512024
H       -0.9466490187    2.6724970356   -0.2851442552
C       -0.3500648641    0.1579651481    1.0148462611
H       -0.5968761397   -0.7141809616    1.7135227103
13   
C5H5N+CH->C6H6N atoms 1-13 frame 117 charge -0.000 sz -1.000 sz^2 0.648
C        1.5179654170    0.2729681950    0.0073428219
C        0.9497474697   -1.1446340354   -0.2930768607
C       -0.3667723518   -1.4492991753   -0.5984180506
C       -1.3547278194    0.4059668083   -0.0920126126
C       -0.5833610831    1.6717426647   -0.3181835868
N        0.8227387945    1.5182651159   -0.0705248335
H        2.5169310548    0.3852953783    0.4215294743
H        1.7172196409   -1.9047265571   -0.1680320144
H       -0.9320892542   -1.9011153170   -1.2910441171
H       -2.3860344892    0.0159841674   -0.0458286639
H       -0.9441578223    2.6879003086   -0.3027051155
C       -0.3618891136    0.1599408316    1.0250930703
H       -0.5955704434   -0.7182883851    1.7258604887
13   
C5H5N+CH->C6H6N atoms 1-13 frame 118 charge +0.000 sz -1.000 sz^2 0.708
C        1.5086159912    0.2720432848    0.0148602810
C        0.9456142280   -1.1476939062   -0.3024720914
C       -0.3567716749   -1.4500349969   -0.6129425133
C       -1.3478704475    0.4123158797   -0.0964846045
C       -0.5853379351    1.6828787981   -0.3295799492
N        0.8199117060    1.5235110397   -0.0701554053
H        2.5042662500    0.3814261518    0.4490827787
H        1.7204572865   -1.9073805161   -0.1901973021
H       -0.9293706880   -1.9276073711   -1.2950405729
H       -2.3694186794    0.0156496419   -0.0208900647
H       -0.9423156664    2.7034981588   -0.3211659724
C       -0.3743605200    0.1614964523    1.0364432701
H       -0.5934198503   -0.7201026168    1.7385421461
13   
From optimize.out: Frame 1 / 31, Energy=    -286.5887998382
C        1.4984836899    0.2713870134    0.0232113814
C        0.9420803455   -1.1500839718   -0.3112519289
C       -0.3458280821   -1.4498634160   -0.6262354421
C       -1.3400480533    0.4182978183   -0.0998992938
C       -0.5867144311    1.6939619952   -0.3405456027
N        0.8165555489    1.5294569158   -0.0698232445
H        2.4908429577    0.3775134935    0.4767121849
H        1.7245558742   -1.9097063439   -0.2130002024
H       -0.9291238190   -1.9597937394   -1.3030406262
H       -2.3519548356    0.0169207064    0.0041530329
H       -0.9409753934    2.7190009603   -0.3403700449
C       -0.3873676935    0.1626038500    1.0488569093
H       -0.5905061082   -0.7196952818    1.7512328770
13   
From optimize.out: Frame 2 / 31, Energy=    -286.6803572408
C        1.4199022168    0.3023762070    0.1219522949
C        0.7657551005   -1.0155808179   -0.3299699965
C       -0.5008752952   -1.1133721314   -0.8047279026
C       -1.0600691225    0.1871434217   -0.0559596138
C       -0.5017150242    1.5404761220   -0.4139140558
N        0.8384347445    1.5752864225   -0.0445765157
H        2.3620237912    0.3138942165    0.6763176558
H        1.4302285212   -1.8740389440   -0.1892734038
H       -1.0518017456   -1.5253515064   -1.5872136960
H       -2.0212606664   -0.3237718307    0.0117658084
H       -0.9987349346    2.4910329250   -0.5709353990
C       -0.2436892000    0.1384853656    1.2181515678
H       -0.4381983856   -0.6965794499    1.9683832561
13   
From optimize.out: Frame 3 / 31, Energy=    -286.7204458581
C        1.3847133002    0.2966714839    0.1424391593
C        0.7871458616   -0.9987637290   -0.3344306230
C       -0.4405312882   -1.0168775927   -0.8862293509
C       -1.0686984527    0.1698164856    0.0308232494
C       -0.4634046312    1.4680936240   -0.4748272654
N        0.8349445043    1.5505286963   -0.1277023565
H        2.2978709620    0.3190433847    0.7364918608
H        1.4217671125   -1.8743987142   -0.1627228399
H       -0.9457208187   -1.4114419225   -1.7270684795
H       -2.0899372285   -0.1979922801    0.1335771595
H       -0.9527766189    2.4073482527   -0.7047390735
C       -0.2423250910    0.0350381975    1.3043859043
H       -0.5230476114   -0.7470658862    2.0700026555
13   
From optimize.out: Frame 5 / 31, Energy=    -286.7277716502
C        1.3119083228    0.3230573780    0.1040686272
C        0.7856548557   -1.0019524496   -0.1967207420
C       -0.5013594374   -1.0808044693   -0.5763743804
C       -1.0590150700    0.3124044772   -0.0182519915
C       -0.4293337117    1.5786507845   -0.4876419103
N        0.7999564063    1.5627102042   -0.2623149436
H        2.2821883079    0.3824531058    0.5800477550
H        1.4760254130   -1.8377985093   -0.0487120621
H       -1.0579313907   -1.6140561497   -1.3494747499
H       -2.1282886636    0.1472497483    0.1134542457
H       -0.8600430530    2.5631125434   -0.6462625679
C       -0.1484281586   -0.2379397581    1.0897407748
H       -0.4713338207   -1.0970869055    1.6984419449
13   
From optimize.out: Frame 6 / 31, Energy=    -286.7581535782
C        1.1795407801    0.2657673790    0.2371211801
C        0.6929621634   -1.0393267286   -0.2370538750
C       -0.5061853497   -1.0709213873   -0.9005390176
C       -1.0282636915    0.2714077080    0.0554251369
C       -0.4740062236    1.5075095782   -0.5359943271
N        0.7512957690    1.5220258570   -0.2065293717
H        2.0603001335    0.2814920450    0.8688384643
H        1.3334837215   -1.8962482433   -0.0112631102
H       -0.8666338258   -1.5615180763   -1.8033596007
H       -2.0858139727    0.0798278878    0.2451295395
H       -0.9477492595    2.4577169091   -0.7715529553
C        0.0278358195   -0.0236321998    1.1482000359
H       -0.1367660642   -0.7941007289    1.9115779010
13   
From optimize.out: Frame 7 / 31, Energy=    -286.7643168982
C        1.2823084662    0.2691092190    0.2556125018
C        0.7839424907   -1.0210599303   -0.2855935881
C       -0.4505739496   -1.0042326267   -0.9321723108
C       -1.1030874812    0.2185577639    0.1035427933
C       -0.4749471909    1.4363986631   -0.4982556763
N        0.8073360714    1.4997149699   -0.2281943531
H        2.2101863686    0.2926259056    0.8217906582
H        1.4412403902   -1.8838678133   -0.1561886228
H       -0.8132486293   -1.4390603420   -1.8574945471
H       -2.1778478423    0.0742189508    0.2178781693
H       -0.9625628425    2.3517868661   -0.8280371180
C       -0.1590517853   -0.0400859250    1.2956244073
H       -0.3836940660   -0.7541057012    2.0914876864
13   
From optimize.out: Frame 8 / 31, Energy=    -286.7932379459
C        1.2544397317    0.2845348067    0.2862031016
C        0.7582834816   -1.0196492386   -0.2154649301
C       -0.4973387918   -0.9926482177   -0.8197450061
C       -1.1146261047    0.2588001717    0.0892418852
C       -0.4633232661    1.4568036805   -0.5197209290
N        0.8219577310    1.4917585604   -0.3043513216
H        2.2102864670    0.3385641348    0.8011465090
H        1.4166086010   -1.8823969172   -0.1007255062
H       -0.8848358177   -1.4568154966   -1.7257712774
H       -2.1852031186    0.1854307757    0.2712368997
H       -0.9348431956    2.3824789046   -0.8454668017
C       -0.0989590784   -0.1483896917    1.1602643005
H       -0.2824466393   -0.8984714726    1.9231530761
13   
From optimize.out: Frame 9 / 31, Energy=    -286.8005527748
C        1.2117016440    0.3075358932    0.3020834521
C        0.6721486279   -1.0224846639   -0.1008974885
C       -0.5850062884   -0.9780374804   -0.7261870825
C       -1.0737731367    0.2712879749    0.0483375258
C       -0.4457997112    1.5106620618   -0.5144675142
N        0.8227795565    1.5249834468   -0.3424634129
H        2.2058076060    0.3717919231    0.7364498494
H        1.3157766613   -1.8933666792    0.0242611912
H       -0.9568070402   -1.4841404006   -1.6192831230
H       -2.1402119835    0.2439873574    0.2679091263
H       -0.9260374655    2.4336790231   -0.8340266692