13   
From optimize.out: Frame 1 / 2, Energy=    -286.8549095738
C        1.6801790246    0.3941026087   -0.1783820193
C        1.1262118113   -0.8348490310   -0.2685289378
C       -0.3162841307   -1.0621848678   -0.0823204238
C       -1.1557279371    0.3278757744    0.0469936080
C       -0.3269541053    1.5324844040   -0.1484785026
N        0.9598677316    1.5898455975   -0.1662576803
H        2.7570140642    0.5227856985   -0.2501939659
H        1.7478113132   -1.6980287218   -0.4937562742
H       -0.7575702086   -1.9017382680   -0.6224630194
H       -2.1622104709    0.3916870516   -0.3711500977
H       -0.8676481845    2.4600622154   -0.3521833492
C       -0.9589916683   -0.6131773555    1.1517287765
H       -1.7256972399   -1.1088651055    1.7349918851
13   
From optimize.out: Frame 23 / 24, Energy=    -286.8549095738
C        1.6866903748    0.3946320174   -0.2051078004
C        1.1354924090   -0.8380367577   -0.2557695569
C       -0.3064183090   -1.0595679541   -0.0525767768
C       -1.1538650634    0.3093156417    0.0103924042
C       -0.3237031983    1.5294579662   -0.1361595893
N        0.9630963485    1.5924563421   -0.1553661557
H        2.7588934366    0.5272367855   -0.3213779446
H        1.7489492093   -1.7036671332   -0.4925642217
H       -0.7331934821   -1.9189612058   -0.5736101664
H       -2.1473837054    0.3707194917   -0.4372584021
H       -0.8741186173    2.4668855296   -0.2477321833
C       -0.9809980892   -0.5912898645    1.1559893738
H       -1.7734413135   -1.0791808589    1.7111410193
13   
From optimize.out: Frame 22 / 24, Energy=    -286.8549035522
C        1.6946999022    0.3971117349   -0.2358254530
C        1.1403629020   -0.8314215668   -0.2344198437
C       -0.2996519759   -1.0311805527   -0.0354846680
C       -1.1613375812    0.3056168051    0.0095522603
C       -0.3241218488    1.5186912096   -0.1388936064
N        0.9646923459    1.5885143970   -0.1648350140
H        2.7649743398    0.5216266654   -0.3761268343
H        1.7352436027   -1.7130037842   -0.4568499151
H       -0.7108552576   -1.9080708228   -0.5418538267
H       -2.1451371608    0.3581353274   -0.4614779138
H       -0.8712000880    2.4639775102   -0.1837782245
C       -0.9920287022   -0.5662083275    1.1676821465
H       -1.7956404781   -1.1037885956    1.6523108927
13   
From optimize.out: Frame 21 / 24, Energy=    -286.8548897380
C        1.6870692197    0.4016234049   -0.2657368864
C        1.1391405745   -0.8304519086   -0.2650987119
C       -0.2792871633   -1.0570282792    0.0153105359
C       -1.1734333278    0.3181368680   -0.0014283126
C       -0.3317529512    1.5063307555   -0.1327059934
N        0.9575263574    1.5778937638   -0.1524614717
H        2.7595736449    0.5275950828   -0.3895489588
H        1.7613415417   -1.7046767549   -0.4395316932
H       -0.7307223532   -1.9159340350   -0.4838038772
H       -2.1584659089    0.3748146467   -0.4677933465
H       -0.8382831146    2.4758385127   -0.1625141303
C       -0.9984234113   -0.5347012387    1.1623419519
H       -1.7942831081   -1.1394408179    1.5829708942
13   
From optimize.out: Frame 20 / 24, Energy=    -286.8548787835
C        1.6902389356    0.3925595281   -0.2924660938
C        1.1582425623   -0.8400791055   -0.2813409800
C       -0.2391658725   -1.0658136800    0.0166311600
C       -1.2197343834    0.3173069649   -0.0161302151
C       -0.3536836464    1.4780208128   -0.1406792722
N        0.9446187528    1.5486487544   -0.1659572979
H        2.7655752283    0.5247151307   -0.3831852837
H        1.8192839975   -1.7012131005   -0.3676112032
H       -0.7681878982   -1.8580877076   -0.5034558336
H       -2.2251334456    0.3949027892   -0.4220097494
H       -0.8044293509    2.4773003043   -0.1501456238
C       -0.9989567956   -0.5083840385    1.1433186774
H       -1.7686680839   -1.1598766521    1.5630317153
13   
From optimize.out: Frame 19 / 24, Energy=    -286.8548201052
C        1.6835210447    0.3899657816   -0.3092421281
C        1.1709974948   -0.8429888480   -0.2954719300
C       -0.2028737125   -1.0821887000    0.0246418434
C       -1.2547592552    0.3086300024   -0.0363562172
C       -0.3630392658    1.4468254579   -0.1529929345
N        0.9269864747    1.5199562950   -0.1741939854
H        2.7600388810    0.5325838771   -0.3584484490
H        1.8616687972   -1.6851903470   -0.3329389561
H       -0.8301277371   -1.7779641258   -0.5016156808
H       -2.2661105315    0.3989551792   -0.4054078298
H       -0.7566751184    2.4716201613   -0.1483025285
C       -0.9894974516   -0.5015970295    1.1235620828
H       -1.7401296204   -1.1786077043    1.5667667131
13   
From optimize.out: Frame 18 / 24, Energy=    -286.8547031652
C        1.6661720000    0.3934745989   -0.2920146685
C        1.1408379466   -0.8426228699   -0.2848662494
C       -0.2372208706   -1.0890312661   -0.0007910314
C       -1.2416069269    0.3005900320   -0.0504557044
C       -0.3649780343    1.4467446776   -0.1635811762
N        0.9204558798    1.5240686112   -0.1735467737
H        2.7442320074    0.5274302989   -0.3131174238
H        1.8359871384   -1.6820169371   -0.2957320819
H       -0.8874380506   -1.7491050659   -0.5435338579
H       -2.2560204384    0.3667148292   -0.4107189819
H       -0.7533351360    2.4739099486   -0.1638567771
C       -0.9230611569   -0.4841410517    1.1155501321
H       -1.6440243585   -1.1860158057    1.5766645940
13   
From optimize.out: Frame 18 / 24, Energy=    -286.8547031652
C        1.6476351064    0.3971472732   -0.2704613161
C        1.1041768205   -0.8426915422   -0.2693942721
C       -0.2833372338   -1.0954407463   -0.0317873452
C       -1.2206001537    0.2948057835   -0.0605979813
C       -0.3660437276    1.4548189958   -0.1726802714
N        0.9170695177    1.5355357977   -0.1719530730
H        2.7275483873    0.5180309424   -0.2676890533
H        1.7988434396   -1.6828149103   -0.2594735697
H       -0.9318960730   -1.7387118000   -0.5973974169
H       -2.2381027822    0.3309668057   -0.4172371706
H       -0.7608101732    2.4794947067   -0.1806252459
C       -0.8516292070   -0.4631780694    1.1117823276
H       -1.5428539211   -1.1879632368    1.5875143881
13   
From optimize.out: Frame 17 / 24, Energy=    -286.8545971168
C        1.6325960785    0.3962515865   -0.2510410160
C        1.0730545011   -0.8461061109   -0.2521281924
C       -0.3195657275   -1.0914521898   -0.0610649299
C       -1.2169636968    0.2865791948   -0.0698048503
C       -0.3705133804    1.4565270339   -0.1858299448
N        0.9121232425    1.5385707826   -0.1757277606
H        2.7129193939    0.5074225219   -0.2211945219
H        1.7642457415   -1.6882820555   -0.2142686617
H       -0.9652381733   -1.7118772619   -0.6564947610
H       -2.2406229830    0.2976791817   -0.4102120671
H       -0.7640013984    2.4809970510   -0.1926788826
C       -0.7794914824   -0.4412046745    1.0963110896
H       -1.4385421156   -1.1851050599    1.5941344985
13   
From optimize.out: Frame 15 / 24, Energy=    -286.8541353348
C        1.6220878896    0.3905453368   -0.2349360991
C        1.0495005799   -0.8528952871   -0.2338845282
C       -0.3433250181   -1.0766194148   -0.0869365179
C       -1.2319980346    0.2761983619   -0.0775206082
C       -0.3783625296    1.4513719365   -0.2025790183
N        0.9057844585    1.5324738312   -0.1850087373
H        2.7012641328    0.4960999250   -0.1760719683
H        1.7342206531   -1.6984205953   -0.1619849286
H       -0.9849605011   -1.6690023506   -0.7179734900
H       -2.2647447398    0.2688025139   -0.3891611621
H       -0.7624644290    2.4780764309   -0.1990682382
C       -0.7104911362   -0.4193409275    1.0692261193
H       -1.3365113255   -1.1772897607    1.5958991769
13   
From optimize.out: Frame 13 / 24, Energy=    -286.8535224494
C        1.6160791705    0.3825203800   -0.2141806261
C        1.0374754565   -0.8663269731   -0.2266457162
C       -0.3511180745   -1.0730106905   -0.1339591301
C       -1.2506088646    0.2603496301   -0.0708996747
C       -0.3879263488    1.4409593923   -0.2129289528
N        0.8995437627    1.5216837502   -0.1859611764
H        2.6926560509    0.4890400756   -0.1284428469
H        1.7183104633   -1.7142894871   -0.1406517278
H       -0.9817952432   -1.6253407374   -0.8118070691
H       -2.2883556190    0.2314110677   -0.3669096416
H       -0.7670271476    2.4681309058   -0.2165914347
C       -0.6659940975   -0.3782992130    1.0765465841
H       -1.2712395086   -1.1368281006    1.6324314122
13   
From optimize.out: Frame 13 / 24, Energy=    -286.8535224494
C        1.6119566608    0.3742285872   -0.1921630649
C        1.0304194113   -0.8817336473   -0.2245491630
C       -0.3525923977   -1.0751877411   -0.1881032775
C       -1.2685158386    0.2430555783   -0.0585383507
C       -0.3975293454    1.4292794956   -0.2197778749
N        0.8937411701    1.5100523166   -0.1828872782
H        2.6855462979    0.4841972634   -0.0818821281
H        1.7088827265   -1.7315317356   -0.1341429328
H       -0.9699373972   -1.5845710750   -0.9149473830
H       -2.3090562426    0.1918012370   -0.3462155376
H       -0.7743414414    2.4559582224   -0.2384869656
C       -0.6338968739   -0.3309426130    1.0991563201
H       -1.2246767297   -1.0846058886    1.6825376362
13   
From optimize.out: Frame 11 / 24, Energy=    -286.8515276178
C        1.6074395691    0.3653612778   -0.1704922310
C        1.0245775700   -0.8958492679   -0.2303615534
C       -0.3557891071   -1.0823328673   -0.2510930859
C       -1.2788882022    0.2316250667   -0.0406922846
C       -0.4077937514    1.4220169962   -0.2253743457
N        0.8877806705    1.5021083123   -0.1779285438
H        2.6768493192    0.4766031556   -0.0323022949
H        1.7001083068   -1.7469242828   -0.1299725574
H       -0.9532577814   -1.5632931381   -1.0186362191
H       -2.3207069028    0.1561175303   -0.3225258709
H       -0.7878612444    2.4456761616   -0.2630352103
C       -0.6087835884   -0.2833100117    1.1263832436
H       -1.1836748579   -1.0277989327    1.7360309533
13   
From optimize.out: Frame 10 / 24, Energy=    -286.8474564242
C        1.6026077502    0.3562117021   -0.1493729240
C        1.0193935599   -0.9088124000   -0.2413131059
C       -0.3604539734   -1.0925385306   -0.3191130955
C       -1.2839724673    0.2244478770   -0.0195495578
C       -0.4183950499    1.4179522119   -0.2302161377
N        0.8817577557    1.4968444261   -0.1719258840
H        2.6670812746    0.4670854453    0.0188462381
H        1.6915625194   -1.7607938376   -0.1267255307
H       -0.9338733035   -1.5555780032   -1.1210477795
H       -2.3261182400    0.1236663410   -0.2969618001
H       -0.8053743820    2.4369292201   -0.2889153197
C       -0.5881639044   -0.2363493411    1.1557233519
H       -1.1460515391   -0.9690651111    1.7905715449
13   
From optimize.out: Frame 9 / 24, Energy=    -286.8397144737
C        1.5977521463    0.3470421650   -0.1283037174
C        1.0142636136   -0.9216797105   -0.2526723787
C       -0.3652348802   -1.1029859562   -0.3875158745
C       -1.2886325424    0.2176127505    0.0018506952
C       -0.4290202635    1.4141442174   -0.2349962210
N        0.8757315652    1.4917962929   -0.1658414787
H        2.6572303861    0.4574166661    0.0701056211
H        1.6830374413   -1.7745376938   -0.1235532428
H       -0.9142781088   -1.5489493066   -1.2233280876
H       -2.3310292508    0.0914828017   -0.2712551598
H       -0.8232017726    2.4283074889   -0.3148945367
C       -0.5679093175   -0.1894557500    1.1852240438
H       -1.1087090166   -0.9101939655    1.8451803371
13   
From optimize.out: Frame 9 / 24, Energy=    -286.8397144737
C        1.5928967877    0.3378730911   -0.1072355749
C        1.0091339263   -0.9345463711   -0.2640310779
C       -0.3700155454   -1.1134328542   -0.4559151987
C       -1.2932923821    0.2107779693    0.0232498674
C       -0.4396449405    1.4103364152   -0.2397760629
N        0.8697056790    1.4867484147   -0.1597573806
H        2.6473799951    0.4477483752    0.1213624153
H        1.6745127937   -1.7882808559   -0.1203811151
H       -0.8946839037   -1.5423209448   -1.3256032300
H       -2.3359400136    0.0593008878   -0.2455498179
H       -0.8410282628    2.4196861932   -0.3408724416
C       -0.5476557535   -0.1425645273    1.2147232457
H       -1.0713683801   -0.8513257931    1.8997863713
13   
From optimize.out: Frame 8 / 24, Energy=    -286.8216786057
C        1.5855371223    0.3340402060   -0.0840119115
C        0.9802966392   -0.9367600635   -0.2553839939
C       -0.4031573889   -1.0904230914   -0.4802440280
C       -1.2730307051    0.1911260026    0.0178774813
C       -0.4458746105    1.4104508236   -0.2484302610
N        0.8689711066    1.4934526170   -0.1500279723
H        2.6363370350    0.4328123331    0.1644228158
H        1.6291063236   -1.8005224676   -0.0982228470
H       -0.9282856619   -1.5020392584   -1.3679091613
H       -2.3125050856    0.0009894291   -0.2447369386
H       -0.8693083230    2.4091839823   -0.3512169109
C       -0.4900973748   -0.1134599305    1.2006531066
H       -0.9779890769   -0.8288505824    1.8972306208
13   
From optimize.out: Frame 7 / 24, Energy=    -286.8085551488
C        1.5780690296    0.3307344729   -0.0609511920
C        0.9498132841   -0.9380038867   -0.2451098296
C       -0.4382889825   -1.0648219993   -0.5003303830
C       -1.2508861457    0.1706457402    0.0102336878
C       -0.4516234798    1.4109082153   -0.2572936557
N        0.8687127290    1.5010879705   -0.1401258131
H        2.6253568245    0.4176399495    0.2061094542
H        1.5811473326   -1.8124463580   -0.0747321296
H       -0.9660528974   -1.4594110384   -1.4043025148
H       -2.2869344780   -0.0587337255   -0.2461241688
H       -0.8980780222    2.3986758178   -0.3600304076
C       -0.4301336892   -0.0863602100    1.1829671966
H       -0.8811015050   -0.8099149483    1.8896897555
13   
From optimize.out: Frame 6 / 24, Energy=    -286.7740170881
C        1.5706016196    0.3274348141   -0.0378975760
C        0.9193206371   -0.9392376812   -0.2348217718
C       -0.4734322151   -1.0392009709   -0.5203693971
C       -1.2287279404    0.1501620211    0.0025689107
C       -0.4573661606    1.4113689408   -0.2661570482
N        0.8684591918    1.5087308586   -0.1302242681
H        2.6143798474    0.4024687916    0.2477724207
H        1.5331740961   -1.8243642322   -0.0512336096
H       -1.0038529827   -1.4167693763   -1.4406278994
H       -2.2613484997   -0.1184568866   -0.2475331506
H       -0.9268458137    2.3881700852   -0.3688264494
C       -0.3701600822   -0.0592870365    1.1652491920
H       -0.7842016975   -0.7910193278    1.8821006471
13   
From optimize.out: Frame 5 / 24, Energy=    -286.7510879796
C        1.5666594506    0.3150999897   -0.0162310491
C        0.9182034601   -0.9705738383   -0.2323027864
C       -0.4848564467   -1.0906757539   -0.5192868072
C       -1.2384457007    0.1640952339   -0.0102154493
C       -0.4830769086    1.4397706541   -0.2601207218
N        0.8576705954    1.5096982959   -0.1004039376
H        2.6092848612    0.3928937606    0.2736863440
H        1.5451391443   -1.8485142219   -0.0555076562
H       -1.0385516984   -1.4466078735   -1.4518747925
H       -2.2659565781   -0.1466300107   -0.2540484749
H       -0.9651886166    2.4108611642   -0.3454355953
C       -0.3273160713    0.0052289484    1.1245379119
H       -0.6935654910   -0.7346463484    1.8472030145
13   
From optimize.out: Frame 4 / 24, Energy=    -286.7077971221
C        1.5641599567    0.3037213187   -0.0038996256
C        0.9271501551   -1.0040262776   -0.2300951216
C       -0.4837455576   -1.1584191824   -0.5106912673
C       -1.2599628924    0.1911601496   -0.0209908369
C       -0.5076155501    1.4725042798   -0.2513741559
N        0.8465267983    1.5085549987   -0.0768738550
H        2.6067357212    0.3891987718    0.2840498546
H        1.5743545527   -1.8688184190   -0.0602926791
H       -1.0576929465   -1.5057348550   -1.4495016389
H       -2.2866760370   -0.1438642338   -0.2568332752
H       -0.9921357595    2.4427178668   -0.3145489592
C       -0.3010258932    0.0602909246    1.0836332173
H       -0.6300725478   -0.6872853421    1.8074183429
13   
From optimize.out: Frame 3 / 24, Energy=    -286.6756499965
C        1.5627650453    0.2983510211   -0.0118839958
C        0.9448301654   -1.0298336139   -0.2237580894
C       -0.4656440165   -1.2306161557   -0.4948213399
C       -1.2948358705    0.2341658765   -0.0253885376
C       -0.5210981110    1.5042021060   -0.2434656487
N        0.8390874297    1.5059895901   -0.0770888048
H        2.6066064659    0.3961143355    0.2669976073
H        1.6149198502   -1.8754355436   -0.0506845725
H       -1.0432361988   -1.6027555674   -1.4280892969
H       -2.3322158209   -0.0832727738   -0.2478556788
H       -0.9893836310    2.4821901754   -0.2796950775
C       -0.3014833195    0.0781171449    1.0498268829
H       -0.6203119881   -0.6772165952    1.7659065518
13   
From optimize.out: Frame 3 / 24, Energy=    -286.6756499965
C        1.5613702491    0.2929811672   -0.0198677066
C        0.9625087155   -1.0556388188   -0.2174215807
C       -0.4475439704   -1.3028071665   -0.4789527230
C       -1.3297059686    0.2771680516   -0.0297858752
C       -0.5345795585    1.5358973144   -0.2355577947
N        0.8316486754    1.5034243935   -0.0773037369
H        2.6064772213    0.4030293280    0.2499467683
H        1.6554817975   -1.8820521217   -0.0410772594
H       -1.0287806450   -1.6997682671   -1.4066787233
H       -2.3777518438   -0.0226863180   -0.2388788239
H       -0.9866317299    2.5216592241   -0.2448440742
C       -0.3019407081    0.0959418931    1.0160233405
H       -0.6105522346   -0.6671486797    1.7243981890
13   
From optimize.out: Frame 2 / 24, Energy=    -286.6254313898
C        1.5596481689    0.2874965090   -0.0269497381
C        0.9790610081   -1.0829100489   -0.2132640743
C       -0.4283543969   -1.3756437002   -0.4669317266
C       -1.3637977861    0.3215281216   -0.0355300363
C       -0.5488279927    1.5694685065   -0.2301955516
N        0.8248940627    1.5010578414   -0.0772577966
H        2.6042569943    0.4094006968    0.2377883084
H        1.6955209353   -1.8885415570   -0.0342189274
H       -1.0134361292   -1.7958608274   -1.3830512517
H       -2.4228691877    0.0347062832   -0.2254909710
H       -0.9825495366    2.5630502909   -0.2126268121
C       -0.3027370904    0.1153314889    0.9839717107
H       -0.6008090498   -0.6590836047    1.6837568666
13   
From optimize.out: Frame 1 / 24, Energy=    -286.5524627724
C        1.5532868487    0.2821087702   -0.0235387235
C        0.9796473634   -1.1116075396   -0.2298908139
C       -0.4071382033   -1.4270367995   -0.4930124620
C       -1.3785570006    0.3614236042   -0.0516758947
C       -0.5640073762    1.6074029983   -0.2483400658
N        0.8245046190    1.5019996271   -0.0752151079
H        2.5840917812    0.4076417096    0.2725068331
H        1.7164155510   -1.8931039826   -0.0570726374
H       -0.9892575054   -1.8512592512   -1.3460716164
H       -2.4429514030    0.0491493701   -0.1796342566
H       -0.9694875236    2.6073621529   -0.2158376929
C       -0.3107892991    0.1378876396    0.9777801558
H       -0.5957578521   -0.6719682991    1.6700022822
13   
C5H5N+CH->C6H6N atoms 1-13 frame 109 charge +0.000 sz -1.000 sz^2 0.500
C        1.5385791555    0.2772881960   -0.0091210695
C        0.9638877571   -1.1314163405   -0.2633497160
C       -0.3880800135   -1.4415603814   -0.5498891724
C       -1.3684316897    0.3859118387   -0.0740305392
C       -0.5751589840    1.6407903914   -0.2849875165
N        0.8264146122    1.5083323588   -0.0722941418
H        2.5498970921    0.3966034703    0.3477778631
H        1.7146750866   -1.8975575630   -0.1106740956
H       -0.9572624749   -1.8641058821   -1.3086721067
H       -2.4215997111    0.0263612494   -0.1117245988
H       -0.9537467269    2.6470080712   -0.2574738155
C       -0.3324213841    0.1525076037    1.0000269259
H       -0.5967527192   -0.7001630123    1.6944119829
13   
C5H5N+CH->C6H6N atoms 1-13 frame 110 charge -0.000 sz -1.000 sz^2 0.501
C        1.5170772918    0.2732491273    0.0081960800
C        0.9501966953   -1.1439966551   -0.2926058066
C       -0.3656189982   -1.4484384585   -0.5973423519
C       -1.3537532613    0.4057066476   -0.0911288760
C       -0.5829045781    1.6718866711   -0.3180372756
N        0.8221401739    1.5190453991   -0.0705977305
H        2.5162388335    0.3853111823    0.4222004985
H        1.7182188154   -1.9046050254   -0.1689202246
H       -0.9348565360   -1.9072360903   -1.2954760984
H       -2.3845774003    0.0174305857   -0.0451041433
H       -0.9447162000    2.6882844960   -0.3038050588
C       -0.3626774132    0.1595619776    1.0262848538
H       -0.5947674229   -0.7161998574    1.7263361334
13   
C5H5N+CH->C6H6N atoms 1-13 frame 111 charge +0.000 sz -1.000 sz^2 0.507
C        1.4952692880    0.2737695132    0.0283002319
C        0.9302659789   -1.1398529987   -0.3104918803
C       -0.3595841386   -1.4257423170   -0.6358666320
C       -1.3218184512    0.4002658624   -0.0959258000
C       -0.5802810488    1.6802845962   -0.3431859601
N        0.8189309319    1.5313228122   -0.0680899722
H        2.4848098691    0.3738829090    0.4844236261
H        1.7024390503   -1.9065878028   -0.2058316557
H       -0.9379920393   -1.9208844188   -1.3215288175
H       -2.3323941702   -0.0078478054   -0.0013020054
H       -0.9454440987    2.6989160904   -0.3523237699
C       -0.3739334378    0.1606065965    1.0580383639
H       -0.5802677335   -0.7181330373    1.7637842712
13   
C5H5N+CH->C6H6N atoms 1-13 frame 112 charge +0.000 sz -1.000 sz^2 0.520
C        1.4801927179    0.2786001955    0.0461947542
C        0.9010380998   -1.1187764214   -0.3156088293
C       -0.3819175588   -1.3715402128   -0.6677821386
C       -1.2748789162    0.3644932962   -0.0896716991
C       -0.5669295923    1.6582359429   -0.3576231691
N        0.8216482475    1.5401243949   -0.0639467039
H        2.4608584374    0.3627051885    0.5231732392
H        1.6560469347   -1.9014042418   -0.2074774475
H       -0.9576788771   -1.8586710392   -1.3691860098
H       -2.2749809947   -0.0623803990    0.0059250163
H       -0.9544197603    2.6659381098   -0.3940374589
C       -0.3539244504    0.1569899246    1.0882626846
H       -0.5550542874   -0.7143147383    1.8017777620
13   
C5H5N+CH->C6H6N atoms 1-13 frame 113 charge +0.000 sz -1.000 sz^2 0.537
C        1.4672746792    0.2836945210    0.0624268111
C        0.8720519247   -1.0966653960   -0.3186858996
C       -0.4074058301   -1.3162242806   -0.6971245831
C       -1.2288530716    0.3264937357   -0.0824484381
C       -0.5529565070    1.6330043409   -0.3696842374
N        0.8252449769    1.5476583253   -0.0597963845
H        2.4396818049    0.3522467910    0.5559864597
H        1.6076623474   -1.8955408641   -0.2035769900
H       -0.9778459488   -1.7872529127   -1.4159013305
H       -2.2206180525   -0.1183869767    0.0071764834
H       -0.9639148736    2.6284623564   -0.4319401865
C       -0.3303050874    0.1530250777    1.1160930989
H       -0.5300163621   -0.7105147178    1.8374751967
13   
C5H5N+CH->C6H6N atoms 1-13 frame 113 charge +0.000 sz -1.000 sz^2 0.537
C        1.4543567796    0.2887887916    0.0786586932
C        0.8430660617   -1.0745546087   -0.3217629369
C       -0.4328938268   -1.2609089441   -0.7264667116
C       -1.1828277227    0.2884945844   -0.0752252549
C       -0.5389835722    1.6077730107   -0.3817451759
N        0.8288416676    1.5551921744   -0.0556461097
H        2.4185054004    0.3417885061    0.5887993267
H        1.5592782813   -1.8896775497   -0.1996765744
H       -0.9980128033   -1.7158355555   -1.4626161480
H       -2.1662556958   -0.1743929513    0.0084279370
H       -0.9734098846    2.5909870067   -0.4698425059
C       -0.3066859787    0.1490602734    1.1439232134
H       -0.5049787064   -0.7067147382    1.8731722469
13   
C5H5N+CH->C6H6N atoms 1-13 frame 114 charge +0.000 sz -1.000 sz^2 0.555
C        1.4414391543    0.2938829541    0.0948902306
C        0.8140808143   -1.0524442909   -0.3248399087
C       -0.4583812823   -1.2055947822   -0.7558082170
C       -1.1368033512    0.2504962400   -0.0680022251
C       -0.5250109340    1.5825422162   -0.3938058582
N        0.8324382819    1.5627258636   -0.0514959230
H        2.3973294456    0.3313304433    0.6216114971
H        1.5108952426   -1.8838143597   -0.1957762417
H       -1.0181792296   -1.6444197146   -1.5093299736
H       -2.1118944934   -0.2303977366    0.0096793641
H       -0.9829046940    2.5535124526   -0.5077440205
C       -0.2830673716    0.1450955533    1.1717527371
H       -0.4799415824   -0.7029148392    1.9088685391
13   
C5H5N+CH->C6H6N atoms 1-13 frame 115 charge -0.000 sz -1.000 sz^2 0.576
C        1.4285219370    0.2989769557    0.1111212554
C        0.7850964823   -1.0303346715   -0.3279167834
C       -0.4838679328   -1.1502823673   -0.7851487957
C       -1.0907804332    0.2124990957   -0.0607794235
C       -0.5110387372    1.5573122187   -0.4058661596
N        0.8360347826    1.5702593149   -0.0473458674
H        2.3761541596    0.3208727108    0.6544226310
H        1.4625137319   -1.8779513548   -0.1918760321
H       -1.0383450190   -1.5730061294   -1.5560423238
H       -2.0575350080   -0.2864007531    0.0109307516
H       -0.9923992035    2.5160390822   -0.5456443380
C       -0.2594495104    0.1411309585    1.1995813817
H       -0.4549052492   -0.6991150603    1.9445637039
13   
C5H5N+CH->C6H6N atoms 1-13 frame 116 charge +0.000 sz -1.000 sz^2 0.609
C        1.4125407791    0.3008371336    0.1258192229
C        0.7720013771   -1.0128290653   -0.3308339287
C       -0.4859606805   -1.0941422150   -0.8218055649
C       -1.0642398174    0.1850400041   -0.0366202721
C       -0.4936962119    1.5252694230   -0.4271522495
N        0.8374700372    1.5693078731   -0.0636331567
H        2.3484890088    0.3155651916    0.6883903479
H        1.4306356058   -1.8744024959   -0.1834379674
H       -1.0267675906   -1.5029452590   -1.6166934291
H       -2.0394539456   -0.2925457204    0.0393385043
H       -0.9878527345    2.4738510857   -0.5994661896
C       -0.2445154796    0.1152090514    1.2363755899
H       -0.4586503479   -0.7082150068    1.9897190931
13   
C5H5N+CH->C6H6N atoms 1-13 frame 117 charge -0.000 sz -1.000 sz^2 0.648
C        1.3972849044    0.2987095552    0.1351200152
C        0.7795037911   -1.0047718078   -0.3328370181
C       -0.4620898084   -1.0513512639   -0.8571121161
C       -1.0656155353    0.1760067126   -0.0001808254
C       -0.4770914151    1.4939530195   -0.4530653917
N        0.8361914287    1.5593736499   -0.0980047907
H        2.3207902233    0.3172037911    0.7149940041
H        1.4247900382   -1.8742701826   -0.1722083033
H       -0.9836193262   -1.4521372987   -1.6771039126
H       -2.0654018169   -0.2429283245    0.0900587953
H       -0.9691957022    2.4372454668   -0.6569363279
C       -0.2428124331    0.0719957675    1.2735777963
H       -0.4927343485   -0.7290290850    2.0336980748
13   
C5H5N+CH->C6H6N atoms 1-13 frame 118 charge +0.000 sz -1.000 sz^2 0.708
C        1.3787582822    0.2988296945    0.1393006759
C        0.7870239061   -0.9990245475   -0.3231667665
C       -0.4455066722   -1.0221064344   -0.8608850407
C       -1.0679064091    0.1814793428    0.0268091840
C       -0.4606178308    1.4771365480   -0.4758754278
N        0.8320826841    1.5515250719   -0.1387128727
H        2.2965882133    0.3242299261    0.7236956551
H        1.4262051217   -1.8714050332   -0.1533974303
H       -0.9548989820   -1.4280145720   -1.6961835381
H       -2.0930741498   -0.1697535172    0.1319312238
H       -0.9451915598    2.4200888535   -0.6999560400
C       -0.2346448754    0.0127102098    1.2868291979
H       -0.5188177281   -0.7756955424    2.0396111795
13   
From optimize.out: Frame 1 / 31, Energy=    -286.5887998382
C        1.3648159946    0.3038826420    0.1319526481
C        0.7867383757   -0.9996351934   -0.2967950699
C       -0.4571553752   -1.0343485493   -0.8015472415
C       -1.0660520234    0.2087852066    0.0174111847
C       -0.4540931868    1.4983084485   -0.4783294560
N        0.8253823987    1.5538578531   -0.1644914318
H        2.2935849561    0.3363730048    0.6937363198
H        1.4365956864   -1.8643960263   -0.1315641557
H       -0.9763875139   -1.4668155708   -1.6238736413
H       -2.1004185205   -0.1036390309    0.1280776486
H       -0.9274329106    2.4499180029   -0.6887576812
C       -0.2166634394   -0.0395655730    1.2457242591
H       -0.5089144417   -0.8427252142    1.9684566170
13   
From optimize.out: Frame 2 / 31, Energy=    -286.6803572408
C        1.3508662863    0.3089382788    0.1246007095
C        0.7864526934   -1.0002461643   -0.2704093373
C       -0.4688102780   -1.0465971800   -0.7421778607
C       -1.0641966508    0.2361056035    0.0080081834
C       -0.4475650701    1.5194916174   -0.4807847903
N        0.8186785472    1.5561918760   -0.1902837111
H        2.2905801004    0.3485225465    0.6637610392
H        1.4469917814   -1.8573832890   -0.1097192608
H       -0.9978874826   -1.5056372208   -1.5515252588
H       -2.1077668001   -0.0374893564    0.1242220224
H       -0.9096648097    2.4797630284   -0.6775533622
C       -0.1986724331   -0.0918691787    1.2045974429
H       -0.4990058844   -0.9097905615    1.8972641837
13   
From optimize.out: Frame 2 / 31, Energy=    -286.6803572408
C        1.3369091921    0.3139965924    0.1172448782
C        0.7861668598   -1.0008574587   -0.2440096343
C       -0.4804713517   -1.0588522959   -0.6827770454
C       -1.0623402957    0.2634404658   -0.0013997964
C       -0.4410334970    1.5406860021   -0.4832414246
N        0.8119711462    1.5585271346   -0.2160896467
H        2.2875736538    0.3606785210    0.6337698875
H        1.4573933808   -1.8503668387   -0.0878627995
H       -1.0193988350   -1.5444794258   -1.4791385699
H       -2.1151189704    0.0286953425    0.1203643548
H       -0.8918873011    2.5096238560   -0.6663431108