13   
From optimize.out: Frame 23 / 24, Energy=    -286.8549095738
C        1.6801790246    0.3941026087   -0.1783820193
C        1.1262118113   -0.8348490310   -0.2685289378
C       -0.3162841307   -1.0621848678   -0.0823204238
C       -1.1557279371    0.3278757744    0.0469936080
C       -0.3269541053    1.5324844040   -0.1484785026
N        0.9598677316    1.5898455975   -0.1662576803
H        2.7570140642    0.5227856985   -0.2501939659
H        1.7478113132   -1.6980287218   -0.4937562742
H       -0.7575702086   -1.9017382680   -0.6224630194
H       -2.1622104709    0.3916870516   -0.3711500977
H       -0.8676481845    2.4600622154   -0.3521833492
C       -0.9589916683   -0.6131773555    1.1517287765
H       -1.7256972399   -1.1088651055    1.7349918851
13   
From optimize.out: Frame 22 / 24, Energy=    -286.8549035522
C        1.6843564137    0.3940397779   -0.2031168181
C        1.1340768195   -0.8386755846   -0.2603405032
C       -0.3093854237   -1.0610349168   -0.0615326198
C       -1.1528569538    0.3113442833    0.0137525575
C       -0.3246302427    1.5301850455   -0.1366127595
N        0.9617392823    1.5921238812   -0.1552068430
H        2.7580189320    0.5269434702   -0.3075472472
H        1.7518165991   -1.7031453627   -0.4907511032
H       -0.7386653601   -1.9176189201   -0.5846161101
H       -2.1492266306    0.3713762716   -0.4277042643
H       -0.8734821443    2.4669688699   -0.2623288572
C       -0.9765142875   -0.5948135696    1.1556281645
H       -1.7652470038   -1.0776932457    1.7203764035
13   
From optimize.out: Frame 21 / 24, Energy=    -286.8548897380
C        1.6947667232    0.3966813801   -0.2119973180
C        1.1403908600   -0.8358261860   -0.2399524319
C       -0.2961510203   -1.0544917335   -0.0215863259
C       -1.1573534868    0.3022958090   -0.0012349399
C       -0.3204952899    1.5269420096   -0.1345914569
N        0.9677922877    1.5936067770   -0.1559174352
H        2.7619195385    0.5282517621   -0.3692371528
H        1.7390270050   -1.7054726473   -0.4988382667
H       -0.7142588082   -1.9236059993   -0.5355256266
H       -2.1410065190    0.3684467960   -0.4703191696
H       -0.8763210436    2.4665971422   -0.1972224198
C       -0.9965136624   -0.5790965720    1.1572392885
H       -1.8017965844   -1.0843285378    1.6791832548
13   
From optimize.out: Frame 21 / 24, Energy=    -286.8548897380
C        1.6946663260    0.3973279795   -0.2477986117
C        1.1403488537   -0.8292083343   -0.2316398295
C       -0.3014111357   -1.0194671531   -0.0424683055
C       -1.1633395086    0.3072855389    0.0149726115
C       -0.3259441217    1.5145453485   -0.1410553500
N        0.9631346875    1.5859555785   -0.1693159180
H        2.7665093161    0.5182976875   -0.3795887607
H        1.7333425191   -1.7167880291   -0.4357516128
H       -0.7091450418   -1.9002647090   -0.5450336200
H       -2.1472127252    0.3529540218   -0.4570353605
H       -0.8686269109    2.4626611979   -0.1770227867
C       -0.9897750999   -0.5597322438    1.1729294727
H       -1.7925471585   -1.1135668834    1.6388080711
13   
From optimize.out: Frame 20 / 24, Energy=    -286.8548787835
C        1.6868906099    0.4020082737   -0.2647142972
C        1.1384633895   -0.8300368656   -0.2645032578
C       -0.2806931432   -1.0567992125    0.0154129791
C       -1.1716581612    0.3181244435   -0.0008825229
C       -0.3308064825    1.5073636108   -0.1324237021
N        0.9579730042    1.5789753069   -0.1519183530
H        2.7592718501    0.5278139748   -0.3897284175
H        1.7591230104   -1.7046850919   -0.4427076711
H       -0.7293338604   -1.9179793659   -0.4827836841
H       -2.1557777286    0.3740171039   -0.4697552926
H       -0.8393990048    2.4757208126   -0.1630230782
C       -0.9985281534   -0.5359136667    1.1630763628
H       -1.7955253300   -1.1386093237    1.5839509345
13   
From optimize.out: Frame 19 / 24, Energy=    -286.8548201052
C        1.6907672857    0.3936548080   -0.2869093001
C        1.1531614932   -0.8390452529   -0.2774274182
C       -0.2501767548   -1.0617710394    0.0131894793
C       -1.2101876393    0.3183941138   -0.0127287318
C       -0.3513493113    1.4849457839   -0.1385507539
N        0.9482786659    1.5555007264   -0.1637065869
H        2.7658222185    0.5230629853   -0.3858333186
H        1.8072755910   -1.7045041395   -0.3737739889
H       -0.7594706953   -1.8735860489   -0.5049266819
H       -2.2141239045    0.3913275384   -0.4271718205
H       -0.8151789312    2.4782754579   -0.1519765112
C       -0.9962547552   -0.5095982678    1.1471361880
H       -1.7685632628   -1.1566566652    1.5626794447
13   
From optimize.out: Frame 18 / 24, Energy=    -286.8547031652
C        1.6884690038    0.3888904260   -0.3110809206
C        1.1752637481   -0.8435424314   -0.2944511077
C       -0.2022802735   -1.0793562114    0.0281605225
C       -1.2517152334    0.3136651005   -0.0275249193
C       -0.3615034871    1.4548226984   -0.1478096426
N        0.9323583286    1.5256951813   -0.1734970048
H        2.7647478306    0.5302496890   -0.3743145729
H        1.8595112250   -1.6901883758   -0.3469663507
H       -0.7973898499   -1.8061694703   -0.4985286061
H       -2.2620145517    0.4068796010   -0.4047172129
H       -0.7684190934    2.4740336156   -0.1440122934
C       -1.0080084208   -0.5043164650    1.1305303141
H       -1.7690192264   -1.1706633578    1.5642117943
13   
From optimize.out: Frame 18 / 24, Energy=    -286.8547031652
C        1.6797987022    0.3907747701   -0.3078588071
C        1.1677879985   -0.8425723880   -0.2962398932
C       -0.2033201558   -1.0843195771    0.0219947462
C       -1.2570492684    0.3048421053   -0.0429999899
C       -0.3641946299    1.4408091454   -0.1568923176
N        0.9229452368    1.5156389392   -0.1747183229
H        2.7564963450    0.5343398834   -0.3465123867
H        1.8632919356   -1.6814303370   -0.3223861673
H       -0.8547564026   -1.7567452856   -0.5039380826
H       -2.2691919313    0.3929936480   -0.4059273800
H       -0.7478401428    2.4698045231   -0.1515300662
C       -0.9755716760   -0.4995512020    1.1183198924
H       -1.7183960113   -1.1845842247    1.5686887749
13   
From optimize.out: Frame 17 / 24, Energy=    -286.8545971168
C        1.6614817941    0.3944038592   -0.2865612379
C        1.1315619462   -0.8426402453   -0.2809515287
C       -0.2488892357   -1.0906529932   -0.0086337206
C       -1.2362917918    0.2991265011   -0.0530219039
C       -0.3652476761    1.4487876421   -0.1658834298
N        0.9195990622    1.5269700394   -0.1731435354
H        2.7400107168    0.5250520732   -0.3016231347
H        1.8265890375   -1.6822188403   -0.2865579509
H       -0.8986868221   -1.7464753611   -0.5571624189
H       -2.2514869119    0.3576698621   -0.4123682144
H       -0.7552264704    2.4753230044   -0.1680995361
C       -0.9049874406   -0.4788369966    1.1145968020
H       -1.6184262082   -1.1865085448    1.5794098096
13   
From optimize.out: Frame 15 / 24, Energy=    -286.8541353348
C        1.6431648859    0.3980329482   -0.2652636687
C        1.0953358940   -0.8427081027   -0.2656631643
C       -0.2944583155   -1.0969864093   -0.0392621874
C       -1.2155343153    0.2934108968   -0.0630438180
C       -0.3663007223    1.4567661387   -0.1748745420
N        0.9162528877    1.5383011397   -0.1715687479
H        2.7235250886    0.5157642629   -0.2567338828
H        1.7898861394   -1.6830073436   -0.2507297346
H       -0.9426172416   -1.7362054367   -0.6103867552
H       -2.2337818925    0.3223460762   -0.4188090489
H       -0.7626127980    2.4808414857   -0.1846690061
C       -0.8344032052   -0.4581227913    1.1108737116
H       -1.5184564051   -1.1884328649    1.5901308443
13   
From optimize.out: Frame 13 / 24, Energy=    -286.8535224494
C        1.6299370785    0.3958034147   -0.2474627473
C        1.0674487388   -0.8469610137   -0.2487229369
C       -0.3258824863   -1.0900598388   -0.0665502688
C       -1.2173233140    0.2848604110   -0.0715058543
C       -0.3715732405    1.4564668777   -0.1885862080
N        0.9110842675    1.5386386219   -0.1767741241
H        2.7102511134    0.5053238282   -0.2122531953
H        1.7577948891   -1.6896091171   -0.2050954422
H       -0.9709293599   -1.7057565509   -0.6680950466
H       -2.2423441288    0.2914732524   -0.4080491577
H       -0.7643507555    2.4810361896   -0.1946940826
C       -0.7656762750   -0.4369482556    1.0926472883
H       -1.4184365273   -1.1842678194    1.5951417755
13   
From optimize.out: Frame 13 / 24, Energy=    -286.8535224494
C        1.6203508200    0.3893816946   -0.2321638816
C        1.0455285515   -0.8542085752   -0.2306007051
C       -0.3471851483   -1.0736449735   -0.0914481093
C       -1.2352456327    0.2742814018   -0.0788517071
C       -0.3798650375    1.4502443974   -0.2056757058
N        0.9046115811    1.5311095283   -0.1868311034
H        2.6992752635    0.4940586234   -0.1680648596
H        1.7290035423   -1.7003706249   -0.1524443298
H       -0.9880656715   -1.6608684397   -0.7290118696
H       -2.2697021208    0.2637853521   -0.3849811426
H       -0.7620469743    2.4774214197   -0.2000362634
C       -0.6982783551   -0.4154443269    1.0640428831
H       -1.3183808183   -1.1757454772    1.5960667941
13   
From optimize.out: Frame 12 / 24, Energy=    -286.8518398403
C        1.6154454041    0.3815023961   -0.2115125275
C        1.0362806532   -0.8681249280   -0.2260589314
C       -0.3517015860   -1.0729165846   -0.1402663082
C       -1.2528882416    0.2582826328   -0.0697198656
C       -0.3891223711    1.4395818158   -0.2140050860
N        0.8987918722    1.5202852878   -0.1858321090
H        2.6916739866    0.4882954951   -0.1225642985
H        1.7167239770   -1.7163545691   -0.1389021099
H       -0.9808649266   -1.6200696443   -0.8240910384
H       -2.2911231587    0.2266078337   -0.3642284504
H       -0.7677660346    2.4667525120   -0.2190476546
C       -0.6612042204   -0.3727881514    1.0784017047
H       -1.2642453543   -1.1310540960    1.6378266749
13   
From optimize.out: Frame 11 / 24, Energy=    -286.8515276178
C        1.6115198967    0.3733179618   -0.1897406596
C        1.0296856285   -0.8834373554   -0.2243601515
C       -0.3527039206   -1.0754720726   -0.1940921018
C       -1.2704722947    0.2411492671   -0.0571385102
C       -0.3985818345    1.4279897236   -0.2205005841
N        0.8931088606    1.5087712266   -0.1825186078
H        2.6847791579    0.4836841961   -0.0767890302
H        1.7079010616   -1.7334318013   -0.1335471201
H       -0.9685693538   -1.5801269244   -0.9263219053
H       -2.3113013281    0.1874437162   -0.3439604581
H       -0.7751646323    2.4546068596   -0.2409206193
C       -0.6304782021   -0.3257038703    1.1017546399
H       -1.2197230393   -1.0787909268    1.6881351080
13   
From optimize.out: Frame 10 / 24, Energy=    -286.8474564242
C        1.6070342308    0.3645708638   -0.1685800994
C        1.0240701374   -0.8970822626   -0.2309577305
C       -0.3560955884   -1.0830144161   -0.2567555424
C       -1.2797242353    0.2306789362   -0.0390585226
C       -0.4087088598    1.4214236677   -0.2258585033
N        0.8872513701    1.5014464209   -0.1774725685
H        2.6760615720    0.4758997277   -0.0278829993
H        1.6993341774   -1.7482646208   -0.1296174616
H       -0.9517367355   -1.5616208761   -1.0278066885
H       -2.3216412491    0.1530055988   -0.3203965671
H       -0.7891225211    2.4447889894   -0.2652320655
C       -0.6066284536   -0.2790986217    1.1288298399
H       -1.1800938450   -1.0227334071    1.7407889087
13   
From optimize.out: Frame 9 / 24, Energy=    -286.8397144737
C        1.6022361477    0.3555099514   -0.1477604839
C        1.0190009617   -0.9097971437   -0.2421824385
C       -0.3608198593   -1.0933380789   -0.3243480049
C       -1.2843291059    0.2239247803   -0.0179117824
C       -0.4192082045    1.4176607836   -0.2305819606
N        0.8812965674    1.4964580891   -0.1714602405
H        2.6663273796    0.4663454873    0.0227691522
H        1.6909100896   -1.7618456639   -0.1264827534
H       -0.9323736704   -1.5550707047   -1.1288753583
H       -2.3264940829    0.1212033137   -0.2949944541
H       -0.8067387239    2.4362693934   -0.2909035262
C       -0.5866138076   -0.2327605439    1.1579810592
H       -1.1431936914   -0.9645596639    1.7947507914
13   
From optimize.out: Frame 9 / 24, Energy=    -286.8397144737
C        1.5974380645    0.3464490390   -0.1269408684
C        1.0139317860   -0.9225120248   -0.2534071465
C       -0.3655441303   -1.1036617417   -0.3919404673
C       -1.2889339766    0.2171706245    0.0032349578
C       -0.4297075491    1.4138978996   -0.2353054179
N        0.8753417646    1.4914697574   -0.1654479125
H        2.6565931872    0.4567912469    0.0734213037
H        1.6824860017   -1.7754267070   -0.1233480452
H       -0.9130106053   -1.5485205333   -1.2299440282
H       -2.3313469166    0.0894010287   -0.2695923412
H       -0.8243549267    2.4277497974   -0.3165749868
C       -0.5665991616   -0.1864224661    1.1871322784
H       -1.1062935379   -0.9063859206    1.8487126742
13   
From optimize.out: Frame 8 / 24, Energy=    -286.8216786057
C        1.5926399813    0.3373881266   -0.1061212529
C        1.0088626104   -0.9352269058   -0.2646318546
C       -0.3702684012   -1.1139854045   -0.4595329298
C       -1.2935388472    0.2104164686    0.0243816980
C       -0.4402068938    1.4101350155   -0.2400288751
N        0.8693869619    1.4864814257   -0.1594355845
H        2.6468589948    0.4472370065    0.1240734552
H        1.6740619138   -1.7890077500   -0.1202133371
H       -0.8936475402   -1.5419703620   -1.3310126981
H       -2.3361997504    0.0575987437   -0.2441902282
H       -0.8419711296    2.4192302014   -0.3422464475
C       -0.5465845157   -0.1400843883    1.2162834976
H       -1.0693933843   -0.8482121773    1.9026745570
13   
From optimize.out: Frame 7 / 24, Energy=    -286.8085551488
C        1.5853412605    0.3339478869   -0.0834022451
C        0.9795089309   -0.9368023405   -0.2551289836
C       -0.4040643046   -1.0897733592   -0.4808151377
C       -1.2724651918    0.1905940669    0.0176981272
C       -0.4460308981    1.4104595320   -0.2486619297
N        0.8689596394    1.4936448480   -0.1497685569
H        2.6360468913    0.4324145719    0.1655354518
H        1.6278666705   -1.8008399866   -0.0976164579
H       -0.9292408102   -1.5009381559   -1.3689265835
H       -2.3118517038   -0.0005715760   -0.2447520142
H       -0.8700621477    2.4089069572   -0.3514642719
C       -0.4885397386   -0.1127257595    1.2002220977
H       -0.9754685978   -0.8283166852    1.8970805039
13   
From optimize.out: Frame 6 / 24, Energy=    -286.7740170881
C        1.5779625565    0.3306874251   -0.0606224851
C        0.9493785087   -0.9380214786   -0.2449631386
C       -0.4387900677   -1.0644566852   -0.5006161066
C       -1.2505702058    0.1703536757    0.0101244006
C       -0.4517053611    1.4109147845   -0.2574200332
N        0.8687091140    1.5011969456   -0.1399846332
H        2.6252003107    0.4174236335    0.2067035002
H        1.5804633124   -1.8126162874   -0.0743970790
H       -0.9665918650   -1.4588030379   -1.4048204556
H       -2.2865696636   -0.0595852804   -0.2461442586
H       -0.8984882040    2.3985260231   -0.3601558248
C       -0.4292785634   -0.0859741907    1.1827145668
H       -0.8797198717   -0.8096455275    1.8895815472
13   
From optimize.out: Frame 6 / 24, Energy=    -286.7740170881
C        1.5705838525    0.3274269633   -0.0378427250
C        0.9192480865   -0.9392406167   -0.2347972936
C       -0.4735158308   -1.0391400112   -0.5204170756
C       -1.2286752198    0.1501132846    0.0025506740
C       -0.4573798241    1.4113700370   -0.2661781367
N        0.8684585886    1.5087490432   -0.1302007096
H        2.6143537301    0.4024326952    0.2478715486
H        1.5330599543   -1.8243925882   -0.0511777001
H       -1.0039429197   -1.4166679198   -1.4407143277
H       -2.2612876235   -0.1185989848   -0.2475365029
H       -0.9269142603    2.3881450891   -0.3688473777
C       -0.3700173882   -0.0592226218    1.1652070358
H       -0.7839711457   -0.7909743698    1.8820825905
13   
From optimize.out: Frame 5 / 24, Energy=    -286.7510879796
C        1.5669567226    0.3164760118   -0.0180424138
C        0.9174336202   -0.9667607815   -0.2324469644
C       -0.4845831652   -1.0834163661   -0.5200523148
C       -1.2364168380    0.1615233666   -0.0088964303
C       -0.4801535427    1.4361889928   -0.2610907736
N        0.8589676612    1.5097895755   -0.1035119491
H        2.6096180312    0.3935414107    0.2719242108
H        1.5422270867   -1.8459900615   -0.0546538172
H       -1.0356921926   -1.4410604481   -1.4516911935
H       -2.2642802825   -0.1455896140   -0.2534730367
H       -0.9615711429    2.4075754396   -0.3487004951
C       -0.3307936931   -0.0016189478    1.1291482349
H       -0.7017122649   -0.7406585781    1.8514869428
13   
From optimize.out: Frame 4 / 24, Energy=    -286.7077971221
C        1.5644052528    0.3046656890   -0.0024955688
C        0.9240411136   -0.9994880404   -0.2312094929
C       -0.4869287256   -1.1457232967   -0.5134820046
C       -1.2538304560    0.1835975640   -0.0202174983
C       -0.5052446328    1.4669301960   -0.2527648722
N        0.8478350163    1.5090061275   -0.0768360559
H        2.6067584508    0.3879826653    0.2870485036
H        1.5672211182   -1.8676547933   -0.0619822711
H       -1.0602351752   -1.4886736983   -1.4532670135
H       -2.2786678358   -0.1545192822   -0.2584119914
H       -0.9926197231    2.4357766351   -0.3206780374
C       -0.3009454545    0.0571561719    1.0895780836
H       -0.6317889487   -0.6890559380    1.8147182189
13   
From optimize.out: Frame 3 / 24, Energy=    -286.6756499965
C        1.5630269638    0.2993593863   -0.0103847938
C        0.9415104412   -1.0249878453   -0.2249479755
C       -0.4690428903   -1.2170599398   -0.4978011900
C       -1.2882878727    0.2260908161   -0.0245627942
C       -0.5185665297    1.4982502972   -0.2449506062
N        0.8404842983    1.5064712895   -0.0770484443
H        2.6066307358    0.3948158202    0.2701994582
H        1.6073030222   -1.8741930654   -0.0524886588
H       -1.0459507003   -1.5845382701   -1.4321098302
H       -2.3236649480   -0.0946498562   -0.2495413760
H       -0.9899003902    2.4747785747   -0.2862394896
C       -0.3013974299    0.0747699673    1.0561746001
H       -0.6221447001   -0.6791071745    1.7737011002
13   
From optimize.out: Frame 3 / 24, Energy=    -286.6756499965
C        1.5616486747    0.2940530836   -0.0182740188
C        0.9589797689   -1.0504876503   -0.2186864582
C       -0.4511570550   -1.2883965829   -0.4821203754
C       -1.3227452895    0.2685840682   -0.0289080900
C       -0.5318884267    1.5295703985   -0.2371363401
N        0.8331335804    1.5039364514   -0.0772608327
H        2.6065030208    0.4016489750    0.2533504128
H        1.6473849261   -1.8807313374   -0.0429950465
H       -1.0316662254   -1.6804028419   -1.4109526469
H       -2.3686620602   -0.0347804302   -0.2406707605
H       -0.9871810573    2.5137805143   -0.2518009417
C       -0.3018494054    0.0923837628    1.0227711165
H       -0.6125004514   -0.6691584111    1.7326839815
13   
From optimize.out: Frame 2 / 24, Energy=    -286.6254313898
C        1.5602703856    0.2887467808   -0.0261632438
C        0.9764490966   -1.0759874552   -0.2124249409
C       -0.4332712197   -1.3597332261   -0.4664395608
C       -1.3572027062    0.3110773203   -0.0332533858
C       -0.5452103236    1.5608904998   -0.2293220741
N        0.8257828625    1.5014016134   -0.0774732211
H        2.6063753058    0.4084821299    0.2365013674
H        1.6874668301   -1.8872696095   -0.0335014342
H       -1.0173817505   -1.7762674137   -1.3897954635
H       -2.4136591725    0.0250889958   -0.2318001450
H       -0.9844617244    2.5527824539   -0.2173623938
C       -0.3023013808    0.1099975582    0.9893676330
H       -0.6028562028   -0.6592096476    1.6916668627
13   
From optimize.out: Frame 1 / 24, Energy=    -286.5524627724
C        1.5579282945    0.2840406223   -0.0291236936
C        0.9862806143   -1.1020448477   -0.2155835300
C       -0.4147637662   -1.4196219740   -0.4682921260
C       -1.3820273011    0.3504152682   -0.0418229448
C       -0.5588276217    1.5931790462   -0.2326099380
N        0.8224373241    1.5001076185   -0.0766623399
H        2.5984017519    0.4119397152    0.2413455526
H        1.7177833544   -1.8920573576   -0.0362021563
H       -1.0025300046   -1.8500191452   -1.3644095196
H       -2.4483266673    0.0612895072   -0.2080517306
H       -0.9772640424    2.5914317044   -0.1995371514
C       -0.3039414386    0.1300750511    0.9690567968
H       -0.5951504972   -0.6587352086    1.6618927807
13   
C5H5N+CH->C6H6N atoms 1-13 frame 109 charge +0.000 sz -1.000 sz^2 0.500
C        1.5469312425    0.2794634542   -0.0158911344
C        0.9705643466   -1.1247018870   -0.2494820071
C       -0.3966963978   -1.4371900389   -0.5268624144
C       -1.3738050625    0.3764974951   -0.0651676970
C       -0.5711000970    1.6268800837   -0.2698795818
N        0.8273353991    1.5045903849   -0.0732333898
H        2.5644969089    0.4017563816    0.3151764738
H        1.7145425959   -1.8945371429   -0.0856509216
H       -0.9710832595   -1.8529573482   -1.3209612316
H       -2.4355909675    0.0325256858   -0.1407217541
H       -0.9588390117    2.6291759714   -0.2381582855
C       -0.3201661841    0.1485855423    0.9897251910
H       -0.5965895129   -0.6900885821    1.6811067526
13   
C5H5N+CH->C6H6N atoms 1-13 frame 110 charge -0.000 sz -1.000 sz^2 0.501
C        1.5278650309    0.2744977572   -0.0004363756
C        0.9553229743   -1.1400296957   -0.2811393246
C       -0.3770268463   -1.4471666919   -0.5794280831
C       -1.3615386837    0.3979886345   -0.0853998646
C       -0.5803657571    1.6586346461   -0.3043680971
N        0.8252334193    1.5131325930   -0.0710892668
H        2.5311683296    0.3899932741    0.3895991880
H        1.7148450466   -1.9014321822   -0.1427740248
H       -0.9395330610   -1.8784073113   -1.2929075183
H       -2.4036516147    0.0184534606   -0.0745268144
H       -0.9472143029    2.6698832325   -0.2822519331
C       -0.3481424535    0.1575388556    1.0132420746
H       -0.5969620815   -0.7130865725    1.7114800397
13   
C5H5N+CH->C6H6N atoms 1-13 frame 110 charge -0.000 sz -1.000 sz^2 0.501
C        1.5041728996    0.2717555048    0.0185223023
C        0.9440645935   -1.1487419682   -0.3063221173
C       -0.3519728258   -1.4499597574   -0.6187715642
C       -1.3444402679    0.4149390055   -0.0979819719
C       -0.5859415391    1.6877388648   -0.3343884721
N        0.8184400055    1.5261183518   -0.0700097502
H        2.4983800337    0.3797104212    0.4611984845
H        1.7222545485   -1.9084004094   -0.2001965482
H       -0.9292624341   -1.9417213397   -1.2985486575
H       -2.3617606504    0.0162070134   -0.0099084750
H       -0.9417279465    2.7102962558   -0.3295871050
C       -0.3800642650    0.1619820546    1.0418867458
H       -0.5921421521   -0.7199239973    1.7441071287
13   
C5H5N+CH->C6H6N atoms 1-13 frame 111 charge +0.000 sz -1.000 sz^2 0.507
C        1.4886392840    0.2752692287    0.0355812899
C        0.9199909495   -1.1332338977   -0.3135968614
C       -0.3652518424   -1.4077089914   -0.6485963392
C       -1.3049732943    0.3893396223   -0.0943946879
C       -0.5760660094    1.6747338340   -0.3497369401
N        0.8192964963    1.5351982725   -0.0666604246
H        2.4747049533    0.3695434980    0.5017180443
H        1.6876835962   -1.9052380596   -0.2100277939
H       -0.9444924709   -1.9053683703   -1.3386408120
H       -2.3105266529   -0.0257600361    0.0051067342
H       -0.9482113022    2.6904419402   -0.3692544478
C       -0.3693681658    0.1595823725    1.0700655386
H       -0.5714255415   -0.7167994131    1.7784366999
13   
C5H5N+CH->C6H6N atoms 1-13 frame 112 charge +0.000 sz -1.000 sz^2 0.520
C        1.4758739900    0.2803033182    0.0516214167
C        0.8913475108   -1.1113843161   -0.3166375481
C       -0.3904387369   -1.3530471223   -0.6775918346
C       -1.2594916656    0.3517893737   -0.0872568357
C       -0.5622581437    1.6498005739   -0.3616553967
N        0.8228506975    1.5426431206   -0.0625591790
H        2.4537787161    0.3592087620    0.5341432768
H        1.6398711148   -1.8994440114   -0.2061734559
H       -0.9644210844   -1.8347947015   -1.3848037644
H       -2.2568065055   -0.0811043845    0.0063434038
H       -0.9575941439    2.6534093053   -0.4067090084
C       -0.3460280813    0.1556644064    1.0975668823
H       -0.5466836679   -0.7130443245    1.8137120432
13   
C5H5N+CH->C6H6N atoms 1-13 frame 113 charge +0.000 sz -1.000 sz^2 0.537
C        1.4631086959    0.2853374077    0.0676615436
C        0.8627040722   -1.0895347344   -0.3196782348
C       -0.4156256313   -1.2983852531   -0.7065873301
C       -1.2140100368    0.3142391252   -0.0801189836
C       -0.5484502781    1.6248673138   -0.3735738533
N        0.8264048987    1.5500879687   -0.0584579335
H        2.4328524790    0.3488740260    0.5665685093
H        1.5920586335   -1.8936499631   -0.2023191178
H       -0.9843496979   -1.7642210326   -1.4309667168
H       -2.2030863581   -0.1364487329    0.0075800734
H       -0.9669769857    2.6163766703   -0.4441635690
C       -0.3226879968    0.1517464404    1.1250682260
H       -0.5219417944   -0.7092892359    1.8489873866
13   
C5H5N+CH->C6H6N atoms 1-13 frame 113 charge +0.000 sz -1.000 sz^2 0.537
C        1.4503434018    0.2903714973    0.0837016705
C        0.8340606335   -1.0676851528   -0.3227189214
C       -0.4408125258   -1.2437233840   -0.7355828256
C       -1.1685284081    0.2766888766   -0.0729811314
C       -0.5346424124    1.5999340537   -0.3854923100
N        0.8299590999    1.5575328167   -0.0543566879
H        2.4119262418    0.3385392900    0.5989937418
H        1.5442461522   -1.8878559148   -0.1984647798
H       -1.0042783115   -1.6936473638   -1.4771296692
H       -2.1493662107   -0.1917930812    0.0088167429
H       -0.9763598275    2.5793440353   -0.4816181296
C       -0.2993479123    0.1478284743    1.1525695697
H       -0.4971999209   -0.7055341473    1.8842627299
13   
C5H5N+CH->C6H6N atoms 1-13 frame 114 charge +0.000 sz -1.000 sz^2 0.555
C        1.4375781078    0.2954055868    0.0997417973
C        0.8054171949   -1.0458355711   -0.3257596081
C       -0.4659994203   -1.1890615148   -0.7645783211
C       -1.1230467794    0.2391386280   -0.0658432792
C       -0.5208345468    1.5750007936   -0.3974107666
N        0.8335133011    1.5649776648   -0.0502554424
H        2.3910000046    0.3282045540    0.6314189743
H        1.4964336709   -1.8820618665   -0.1946104418
H       -1.0242069250   -1.6230736949   -1.5232926216
H       -2.0956460634   -0.2471374296    0.0100534125
H       -0.9857426693    2.5423114004   -0.5190726902
C       -0.2760078278    0.1439105082    1.1800709134
H       -0.4724580474   -0.7017790588    1.9195380733
13   
C5H5N+CH->C6H6N atoms 1-13 frame 115 charge -0.000 sz -1.000 sz^2 0.576
C        1.4248128137    0.3004396763    0.1157819242
C        0.7767737562   -1.0239859895   -0.3288002948
C       -0.4911863147   -1.1343996457   -0.7935738165
C       -1.0775651506    0.2015883795   -0.0587054271
C       -0.5070266811    1.5500675336   -0.4093292232
N        0.8370675023    1.5724225129   -0.0461541968
H        2.3700737675    0.3178698180    0.6638442068
H        1.4486211896   -1.8762678183   -0.1907561037
H       -1.0441355385   -1.5525000261   -1.5694555739
H       -2.0419259160   -0.3024817780    0.0112900821
H       -0.9951255111    2.5052787654   -0.5565272508
C       -0.2526677434    0.1399925422    1.2075722571
H       -0.4477161739   -0.6980239702    1.9548134167
13   
C5H5N+CH->C6H6N atoms 1-13 frame 116 charge +0.000 sz -1.000 sz^2 0.609
C        1.4107636516    0.3008946898    0.1272727357
C        0.7713102834   -1.0112134181   -0.3311284216
C       -0.4852039503   -1.0883124897   -0.8258938372
C       -1.0623101605    0.1826436146   -0.0334220952
C       -0.4917658112    1.5216783798   -0.4297332226
N        0.8375283288    1.5688568385   -0.0661643052
H        2.3453632948    0.3152314560    0.6919449031
H        1.4280310925   -1.8741323764   -0.1823782196
H       -1.0242525179   -1.4957691757   -1.6235339977
H       -2.0390959767   -0.2911068684    0.0434002289
H       -0.9867995553    2.4693000070   -0.6056842271
C       -0.2433349408    0.1116201254    1.2405466339
H       -0.4602337383   -0.7096907826    1.9947738246
13   
C5H5N+CH->C6H6N atoms 1-13 frame 116 charge +0.000 sz -1.000 sz^2 0.609
C        1.3959118412    0.2984869582    0.1359194078
C        0.7803384535   -1.0041156090   -0.3330110707
C       -0.4597351995   -1.0475860699   -0.8602922833
C       -1.0659522497    0.1753306197    0.0032054213
C       -0.4755965526    1.4911286716   -0.4554422107
N        0.8360552403    1.5584076093   -0.1012483414
H        2.3182869951    0.3174047104    0.7173419874
H        1.4244598760   -1.8742842208   -0.1711723066
H       -0.9794800736   -1.4476925737   -1.6825610131
H       -2.0680815601   -0.2380204363    0.0948118454
H       -0.9674024196    2.4339801107   -0.6621573155
C       -0.2427592059    0.0679592835    1.2769426397
H       -0.4960451452   -0.7309990538    2.0376632396
13   
C5H5N+CH->C6H6N atoms 1-13 frame 117 charge -0.000 sz -1.000 sz^2 0.648
C        1.3813209935    0.2979009197    0.1406513060
C        0.7870763890   -0.9989123056   -0.3280141090
C       -0.4433655414   -1.0198562293   -0.8717918338
C       -1.0682472610    0.1764602924    0.0285366163
C       -0.4618171160    1.4732449724   -0.4754243566
N        0.8333142537    1.5510962868   -0.1339745539
H        2.2971402376    0.3219979248    0.7292024362
H        1.4242952473   -1.8726933484   -0.1574105722
H       -0.9509492068   -1.4208826178   -1.7094747132
H       -2.0917241919   -0.1819059230    0.1326395437