13   
From optimize.out: Frame 1 / 2, Energy=    -286.8516537540
C        1.1178816176    0.1496732200    0.5078923084
C        0.8410399622   -0.9836808585   -0.4922563429
C       -0.4767995815   -0.9588212516   -0.7513953835
C       -1.0712903975    0.1924421950    0.0847386178
C       -0.3802261137    1.4743468529   -0.4231877913
N        0.8763431445    1.4746647680   -0.1993402548
H        2.0814603827    0.1375130918    1.0150922173
H        1.5945333514   -1.6384525231   -0.9159342738
H       -1.0402832101   -1.5826395305   -1.4365990980
H       -2.1552406665    0.2135579672    0.1985264587
H       -0.8832598954    2.2891462779   -0.9412116041
C       -0.1689677260    0.0093921697    1.3096402405
H       -0.3351908680   -0.7771423788    2.0440349056
