
Running Job 1 of 1 optimize.in
qchem optimize.in_6627.0 ./optimize.d/ 1
/home/leeping/opt/qchem/5.0.2-openmp/exe/qcprog.exe_s optimize.in_6627.0 ./optimize.d/
Check license passed

                  Welcome to Q-Chem
     A Quantum Leap Into The Future Of Chemistry


 Q-Chem 5.0, Q-Chem, Inc., Pleasanton, CA (2017)

 Yihan Shao,  Zhengting Gan,  E. Epifanovsky,  A. T. B. Gilbert,  M. Wormit,  
 J. Kussmann,  A. W. Lange,  A. Behn,  Jia Deng,  Xintian Feng,  D. Ghosh,  
 M. Goldey,  P. R. Horn,  L. D. Jacobson,  I. Kaliman,  T. Kus,  A. Landau,  
 Jie Liu,  E. I. Proynov,  R. M. Richard,  R. P. Steele,  E. J. Sundstrom,  
 H. L. Woodcock III,  P. M. Zimmerman,  D. Zuev,  B. Albrecht,  E. Alguire,  
 S. A. Baeppler,  D. Barton,  Z. Benda,  Y. A. Bernard,  E. J. Berquist,  
 K. B. Bravaya,  H. Burton,  D. Casanova,  Chun-Min Chang,  Yunqing Chen,  
 A. Chien,  K. D. Closser,  M. P. Coons,  S. Dasgupta,  A. L. Dempwolff,  
 M. Diedenhofen,  Hainam Do,  R. G. Edgar,  Po-Tung Fang,  S. Fatehi,  
 Qingguo Feng,  J. Fosso-Tande,  Qinghui Ge,  A. Ghysels,  G. Gidofalvi,  
 J. Gomes,  J. Gonthier,  A. Gunina,  M. W. D. Hanson-Heine,  
 P. H. P. Harbach,  A. W. Hauser,  J. E. Herr,  E. G. Hohenstein,  
 Z. C. Holden,  Kerwin Hui,  T.-C. Jagau,  Hyunjun Ji,  B. Kaduk,  
 K. Khistyaev,  Jaehoon Kim,  P. Klunzinger,  K. Koh,  D. Kosenkov,  
 L. Koulias,  T. Kowalczyk,  C. M. Krauter,  A. Kunitsa,  Ka Un Lao,  
 A. Laurent,  K. V. Lawler,  Joonho Lee,  D. Lefrancois,  S. Lehtola,  
 D. S. Levine,  Yi-Pei Li,  You-Sheng Lin,  Fenglai Liu,  E. Livshits,  
 A. Luenser,  P. Manohar,  E. Mansoor,  S. F. Manzer,  Shan-Ping Mao,  
 Yuezhi Mao,  N. Mardirossian,  A. V. Marenich,  T. Markovich,  
 L. A. Martinez-Martinez,  S. A. Maurer,  N. J. Mayhall,  S. C. McKenzie,  
 J.-M. Mewes,  A. F. Morrison,  J. W. Mullinax,  K. Nanda,  
 T. S. Nguyen-Beck,  R. Olivares-Amaya,  J. A. Parkhill,  T. M. Perrine,  
 F. Plasser,  S. Prager,  A. Prociuk,  E. Ramos,  D. R. Rehn,  F. Rob,  
 M. Schneider,  N. Sergueev,  S. M. Sharada,  S. Sharma,  D. W. Small,  
 T. Stauch,  T. Stein,  Yu-Chuan Su,  A. J. W. Thom,  A. Tkatchenko,  
 T. Tsuchimochi,  L. Vogt,  O. Vydrov,  M. A. Watson,  J. Wenzel,  
 M. de Wergifosse,  T. A. Wesolowski,  A. White,  J. Witte,  A. Yamada,  
 Jun Yang,  K. Yao,  S. Yeganeh,  S. R. Yost,  Zhi-Qiang You,  A. Zech,  
 Igor Ying Zhang,  Xing Zhang,  Yan Zhao,  Ying Zhu,  B. R. Brooks,  
 G. K. L. Chan,  C. J. Cramer,  M. S. Gordon,  W. J. Hehre,  A. Klamt,  
 M. W. Schmidt,  C. D. Sherrill,  D. G. Truhlar,  A. Aspuru-Guzik,  R. Baer,  
 A. T. Bell,  N. A. Besley,  Jeng-Da Chai,  R. A. DiStasio Jr.,  A. Dreuw,  
 B. D. Dunietz,  T. R. Furlani,  Chao-Ping Hsu,  Yousung Jung,  Jing Kong,  
 D. S. Lambrecht,  WanZhen Liang,  C. Ochsenfeld,  V. A. Rassolov,  
 L. V. Slipchenko,  J. E. Subotnik,  T. Van Voorhis,  J. M. Herbert,  
 A. I. Krylov,  P. M. W. Gill,  M. Head-Gordon

 Contributors to earlier versions of Q-Chem not listed above: 
 R. D. Adamson,  B. Austin,  J. Baker,  G. J. O. Beran,  K. Brandhorst,  
 S. T. Brown,  E. F. C. Byrd,  A. K. Chakraborty,  C.-L. Cheng,  
 Siu Hung Chien,  D. M. Chipman,  D. L. Crittenden,  H. Dachsel,  
 R. J. Doerksen,  A. D. Dutoi,  L. Fusti-Molnar,  W. A. Goddard III,  
 A. Golubeva-Zadorozhnaya,  S. R. Gwaltney,  G. Hawkins,  A. Heyden,  
 S. Hirata,  G. Kedziora,  F. J. Keil,  C. Kelley,  Jihan Kim,  R. A. King,  
 R. Z. Khaliullin,  P. P. Korambath,  W. Kurlancheek,  A. M. Lee,  M. S. Lee,  
 S. V. Levchenko,  Ching Yeh Lin,  D. Liotard,  R. C. Lochan,  I. Lotan,  
 P. E. Maslen,  N. Nair,  D. P. O'Neill,  D. Neuhauser,  E. Neuscamman,  
 C. M. Oana,  R. Olson,  B. Peters,  R. Peverati,  P. A. Pieniazek,  
 Y. M. Rhee,  J. Ritchie,  M. A. Rohrdanz,  E. Rosta,  N. J. Russ,  
 H. F. Schaefer III,  N. E. Schultz,  N. Shenvi,  A. C. Simmonett,  A. Sodt,  
 D. Stuck,  K. S. Thanthiriwatte,  V. Vanovschi,  Tao Wang,  A. Warshel,  
 C. F. Williams,  Q. Wu,  X. Xu,  W. Zhang

 Please cite Q-Chem as follows:
 Y. Shao et al., Mol. Phys. 113, 184-215 (2015)
 DOI: 10.1080/00268976.2014.952696

 Q-Chem 5.0.2 for Intel X86 EM64T Linux

 Parts of Q-Chem use Armadillo 5.200.1 (Boston Tea Smuggler).
 http://arma.sourceforge.net/

 Q-Chem begins on Thu Mar  3 21:29:35 2022  

Host: 
0

     Scratch files written to ./optimize.d//
 Dec517 15110_ 26548  26544 5633   
Processing $rem in /home/leeping/opt/qchem/5.0.2-openmp/config/preferences.
 MEM_STATIC 2000
 MEM_TOTAL  8000
 SYMMETRY   OFF
 SYM_IGNORE TRUE 

Checking the input file for inconsistencies... 	...done.

--------------------------------------------------------------
User input:
--------------------------------------------------------------
$molecule
0 2
C        1.1893926159    0.3430764776    0.3777913106
C        0.6800432118   -1.0758653121   -0.1480580577
C       -0.5789747398   -0.9376362397   -0.8669185161
C       -1.0854324972    0.1294817327    0.1011401553
C       -0.5151694572    1.4384556318   -0.4320088713
N        0.7601117139    1.5284140858   -0.3209985905
H        2.1945874409    0.3386340181    0.7868700052
H        1.3975352713   -1.8895521398   -0.1863027082
H       -0.8645810205   -1.1589580651   -1.8926131035
H       -2.1340940856    0.1182411963    0.4063361366
H       -1.0953308714    2.1771220573   -0.9829099466
C        0.0639774128   -0.3473223776    1.0609130531
H       -0.0120649950   -0.6640910652    2.0967591331
$end

$rem
method                b3lyp
basis                 6-31g(d)
unrestricted          true
symmetry              off
sym_ignore            true
incdft                false
incfock               0
scf_convergence       8
thresh                14
jobtype               opt
scf_guess             read
scf_algorithm         diis
max_scf_cycles        100
geom_opt_tol_gradient 600
geom_opt_tol_displacement 2400
geom_opt_tol_energy   200
geom_opt_max_cycles   100
$end

--------------------------------------------------------------
 ----------------------------------------------------------------
             Standard Nuclear Orientation (Angstroms)
    I     Atom           X                Y                Z
 ----------------------------------------------------------------
    1      C       1.1893926159     0.3430764776     0.3777913106
    2      C       0.6800432118    -1.0758653121    -0.1480580577
    3      C      -0.5789747398    -0.9376362397    -0.8669185161
    4      C      -1.0854324972     0.1294817327     0.1011401553
    5      C      -0.5151694572     1.4384556318    -0.4320088713
    6      N       0.7601117139     1.5284140858    -0.3209985905
    7      H       2.1945874409     0.3386340181     0.7868700052
    8      H       1.3975352713    -1.8895521398    -0.1863027082
    9      H      -0.8645810205    -1.1589580651    -1.8926131035
   10      H      -2.1340940856     0.1182411963     0.4063361366
   11      H      -1.0953308714     2.1771220573    -0.9829099466
   12      C       0.0639774128    -0.3473223776     1.0609130531
   13      H      -0.0120649950    -0.6640910652     2.0967591331
 ----------------------------------------------------------------
 Nuclear Repulsion Energy =   282.1848453874 hartrees
 There are       25 alpha and       24 beta electrons
 Requested basis set is 6-31G(d)
 There are 40 shells and 117 basis functions

 Total QAlloc Memory Limit   8000 MB
 Mega-Array Size      1956 MB
 MEM_STATIC part      2000 MB
 A cutoff of  1.0D-14 yielded    812 shell pairs
 There are      7084 function pairs
 
 -------------------------------------------------------
 OpenMP Integral Computing Module                       
 Release: version 1.0, May 2013, Q-Chem Inc. Pittsburgh 
 -------------------------------------------------------
 Integral Job Info:
 Integral job number is                      11
 Integral operator is                         1
 short-range coefficients                     0
 long-range coefficients              100000000
 Omega coefficients                           0
 if combine SR and LR in K                    0
 Integral screening is                        0
 Integral computing path is                   2
 max size of driver memory is            800000
 size of driver memory is                593474
 size of scratch memory is              2361544
 max col of scratch BK array               1296
 max len of scratch array in speh3          155
 max len of scratch index in speh4           18
 max int batch size is                      520
 min int batch size is                       52
 fixed nKL is                                52
 max L of basis functions is                  2
 order of int derivative is                   0
 number of shells is                         40
 number of basis is                         117
 number of cartesian basis is               117
 number of contracted shell pairs           812
 number of primitive shell pairs           3615
 maxK2 (contraction) of shell pair           36
 max number of K2 of shell pair               1
 max number of CS2 of shell pair             84
 max number of PS2 of shell pair            426
 mem total for path MDJ                  535308
 -------------------------------------------------------
 Smallest overlap matrix eigenvalue = 1.65E-03

 Scale SEOQF with 1.000000e-01/1.000000e-01/1.000000e-01

 Standard Electronic Orientation quadrupole field applied
 Nucleus-field energy     =     0.0000000026 hartrees
 Guess MOs from SCF MO coefficient file
 Reading MOs from coefficient file
 Reading MOs from coefficient file
 An unrestricted hybrid HF-DFT SCF calculation will be
 performed using Pulay DIIS extrapolation
 Exchange:     0.2000 Hartree-Fock + 0.0800 Slater + 0.7200 B88
 Correlation:  0.1900 VWN1RPA + 0.8100 LYP
 Using SG-1 standard quadrature grid
 SCF converges when DIIS error is below 1.0E-08
Using Q-Chem read-in guess as SCF_GUESS READ specified.

 using 4 threads for integral computing
 -------------------------------------------------------
 OpenMP Integral computing Module                
 Release: version 1.0, May 2013, Q-Chem Inc. Pittsburgh 
 -------------------------------------------------------
 -------------------------------------------------------
 OpenMP BLAS3 based DFT computing Module                
 Release: version 1.0, May 2013, Q-Chem Inc. Pittsburgh 
 -------------------------------------------------------
 ---------------------------------------
  Cycle       Energy         DIIS Error
 ---------------------------------------
    1    -286.8383242969      1.84E-09
    2    -286.8383242969      2.84E-09 Convergence criterion met
 ---------------------------------------
 <S^2> = 0.7566
 SCF time:  CPU 4.58 s  wall 1.21 s
 SCF   energy in the final basis set = -286.83832430
 Total energy in the final basis set = -286.83832430
 
 --------------------------------------------------------------
 
                    Orbital Energies (a.u.)
 --------------------------------------------------------------
 
 Alpha MOs
 -- Occupied --
-14.320 -10.224 -10.220 -10.210 -10.209 -10.208 -10.206  -0.968
 -0.856  -0.749  -0.664  -0.606  -0.571  -0.535  -0.516  -0.467
 -0.439  -0.405  -0.400  -0.356  -0.336  -0.298  -0.273  -0.256
 -0.182
 -- Virtual --
  0.004   0.101   0.114   0.128   0.150   0.150   0.153   0.162
  0.177   0.200   0.221   0.262   0.280   0.296   0.348   0.391
  0.494   0.513   0.524   0.543   0.558   0.573   0.601   0.604
  0.605   0.659   0.675   0.678   0.720   0.741   0.770   0.777
  0.805   0.807   0.822   0.842   0.855   0.877   0.889   0.936
  0.954   0.973   1.043   1.096   1.206   1.237   1.328   1.390
  1.446   1.475   1.504   1.517   1.587   1.632   1.672   1.713
  1.743   1.828   1.873   1.881   1.932   1.954   1.987   2.026
  2.060   2.168   2.207   2.218   2.232   2.253   2.363   2.380
  2.456   2.490   2.502   2.541   2.590   2.626   2.664   2.676
  2.718   2.808   2.841   2.914   2.963   3.959   4.194   4.239
  4.362   4.433   4.508   4.640
 
 Beta MOs
 -- Occupied --
-14.319 -10.222 -10.219 -10.211 -10.209 -10.207 -10.193  -0.964
 -0.850  -0.741  -0.652  -0.601  -0.567  -0.528  -0.511  -0.461
 -0.434  -0.403  -0.393  -0.348  -0.332  -0.292  -0.262  -0.250
 -- Virtual --
 -0.062   0.020   0.103   0.118   0.134   0.151   0.156   0.157
  0.165   0.181   0.204   0.227   0.267   0.284   0.298   0.360
  0.394   0.497   0.518   0.532   0.553   0.561   0.578   0.607
  0.610   0.622   0.669   0.679   0.683   0.729   0.745   0.775
  0.787   0.808   0.810   0.824   0.844   0.858   0.882   0.892
  0.940   0.958   0.977   1.047   1.108   1.208   1.243   1.334
  1.392   1.449   1.480   1.514   1.525   1.594   1.640   1.677
  1.716   1.751   1.835   1.878   1.894   1.940   1.970   1.994
  2.034   2.068   2.172   2.222   2.226   2.242   2.270   2.368
  2.390   2.463   2.497   2.511   2.546   2.594   2.633   2.666
  2.684   2.725   2.813   2.846   2.917   2.965   3.961   4.208
  4.245   4.369   4.438   4.511   4.644
 --------------------------------------------------------------
 
          Ground-State Mulliken Net Atomic Charges

     Atom                 Charge (a.u.)    Spin (a.u.)
  --------------------------------------------------------
      1 C                    -0.019129       0.097114
      2 C                    -0.163341      -0.095945
      3 C                    -0.066209       0.888279
      4 C                    -0.258174      -0.065712
      5 C                     0.088692       0.047085
      6 N                    -0.342259       0.039285
      7 H                     0.151435       0.002849
      8 H                     0.147215       0.005282
      9 H                     0.136249      -0.019364
     10 H                     0.142842       0.022699
     11 H                     0.143033       0.001385
     12 C                    -0.108420       0.077818
     13 H                     0.148064      -0.000774
  --------------------------------------------------------
  Sum of atomic charges =    -0.000000
  Sum of spin   charges =     1.000000

 -----------------------------------------------------------------
                    Cartesian Multipole Moments
 -----------------------------------------------------------------
    Charge (ESU x 10^10)
                -0.0000
    Dipole Moment (Debye)
         X      -1.1304      Y      -1.5437      Z       0.7352
       Tot       2.0497
    Quadrupole Moments (Debye-Ang)
        XX     -38.5170     XY      -4.6532     YY     -43.7988
        XZ       2.2504     YZ       0.2914     ZZ     -39.0030
    Octopole Moments (Debye-Ang^2)
       XXX      -6.7048    XXY      -6.9564    XYY      -7.5103
       YYY     -20.7178    XXZ       3.9640    XYZ       2.6613
       YYZ       0.4253    XZZ      -4.6623    YZZ      -7.7411
       ZZZ       5.0657
    Hexadecapole Moments (Debye-Ang^3)
      XXXX    -213.3267   XXXY      -7.2698   XXYY     -89.6636
      XYYY     -24.0594   YYYY    -309.3291   XXXZ     -14.3215
      XXYZ       3.8137   XYYZ      -0.8125   YYYZ       7.1461
      XXZZ     -62.9304   XYZZ      -1.2331   YYZZ     -73.4006
      XZZZ     -15.5080   YZZZ       7.4178   ZZZZ    -143.6021
 -----------------------------------------------------------------
 Calculating analytic gradient of the SCF energy
 Gradient of SCF Energy
            1           2           3           4           5           6
    1   0.0000507  -0.0001395   0.0000958  -0.0000032   0.0000993  -0.0001430
    2   0.0001639  -0.0002599   0.0000153   0.0000803   0.0000481  -0.0000374
    3   0.0000186  -0.0000453   0.0000344   0.0000231   0.0000030   0.0000355
            7           8           9          10          11          12
    1   0.0000296   0.0000349  -0.0000215  -0.0000214   0.0000045   0.0000250
    2   0.0000039   0.0000286  -0.0000536   0.0000091  -0.0000320   0.0000156
    3  -0.0000422   0.0000231   0.0000300  -0.0000097  -0.0000679   0.0000001
           13
    1  -0.0000112
    2   0.0000181
    3  -0.0000028
 Max gradient component =       2.599E-04
 RMS gradient           =       6.958E-05
 Gradient time:  CPU 7.95 s  wall 2.02 s
 Geometry Optimization Parameters
   NAtoms,    NIC,     NZ,  NCons,   NDum,   NFix, NCnnct, MaxDiis
       13     128       0       0       0       0       0       0


** GEOMETRY OPTIMIZATION IN DELOCALIZED INTERNAL COORDINATES **
   Searching for a Minimum

   Optimization Cycle:   1

                       Coordinates (Angstroms)
     ATOM                X               Y               Z
      1  C         1.1893926159    0.3430764776    0.3777913106
      2  C         0.6800432118   -1.0758653121   -0.1480580577
      3  C        -0.5789747398   -0.9376362397   -0.8669185161
      4  C        -1.0854324972    0.1294817327    0.1011401553
      5  C        -0.5151694572    1.4384556318   -0.4320088713
      6  N         0.7601117139    1.5284140858   -0.3209985905
      7  H         2.1945874409    0.3386340181    0.7868700052
      8  H         1.3975352713   -1.8895521398   -0.1863027082
      9  H        -0.8645810205   -1.1589580651   -1.8926131035
     10  H        -2.1340940856    0.1182411963    0.4063361366
     11  H        -1.0953308714    2.1771220573   -0.9829099466
     12  C         0.0639774128   -0.3473223776    1.0609130531
     13  H        -0.0120649950   -0.6640910652    2.0967591331
   Point Group: c1    Number of degrees of freedom:    33


   Energy is   -286.838324297


 Attempting to Generate Delocalized Internal Coordinates

 33 Hessian modes will be used to form the next step
  Hessian Eigenvalues:
     0.011427    0.011974    0.012454    0.015977    0.018823    0.021173
     0.022780    0.037517    0.046061    0.053102    0.058637    0.072328
     0.088682    0.105023    0.119594    0.127323    0.141003    0.158465
     0.171827    0.183194    0.223646    0.262411    0.276488    0.290644
     0.329851    0.345564    0.349398    0.351060    0.352949    0.353361
     0.353666    0.370007    0.639095

 Minimum Search - Taking Simple RFO Step
 Searching for Lamda that Minimizes Along All modes
 Value Taken    Lamda =   0.00000000
 Step Taken.  Stepsize is  0.004239

                             Maximum     Tolerance    Cnvgd?
         Gradient           0.000088      0.000600     YES
         Displacement       0.002179      0.002400     YES
         Energy change     *********      0.000002      NO


                       Distance Matrix (Angstroms)
             C (  1)   C (  2)   C (  3)   C (  4)   C (  5)   N (  6)
   C (  2)  1.596668
   C (  3)  2.513295  1.456363
   C (  4)  2.301519  2.152177  1.527212
   C (  5)  2.182009  2.798387  2.416409  1.524093
   N (  6)  1.441393  2.611243  2.858773  2.353985  1.283261
   H (  7)  1.085257  2.273487  3.472251  3.357455  3.168289  2.168103
   H (  8)  2.312176  1.085515  2.296949  3.213137  3.846355  3.479504
   H (  9)  3.410228  2.331575  1.087476  2.384094  3.000335  3.511633
   H ( 10)  3.331205  3.106865  2.270342  1.092228  2.250934  3.300611
   H ( 11)  3.230355  3.798797  3.159398  2.316915  1.088902  2.074034
   C ( 12)  1.486562  1.540105  2.116221  1.571512  2.398589  2.431598
   H ( 13)  2.326529  2.384906  3.029785  2.400910  3.326933  3.353936
             H (  7)   H (  8)   H (  9)   H ( 10)   H ( 11)   C ( 12)
   H (  8)  2.558744
   H (  9)  4.333696  2.926164
   H ( 10)  4.350961  4.105467  2.920286
   H ( 11)  4.163619  4.835990  3.465579  2.692215
   C ( 12)  2.255024  2.390062  3.200670  2.340243  3.448772
   H ( 13)  2.755101  2.949763  4.109351  2.823576  4.327854  1.085865

 
 Final energy is   -286.838324296879     


 ******************************
 **  OPTIMIZATION CONVERGED  **
 ******************************

                       Coordinates (Angstroms)
     ATOM                X               Y               Z
      1  C         1.1893926159    0.3430764776    0.3777913106
      2  C         0.6800432118   -1.0758653121   -0.1480580577
      3  C        -0.5789747398   -0.9376362397   -0.8669185161
      4  C        -1.0854324972    0.1294817327    0.1011401553
      5  C        -0.5151694572    1.4384556318   -0.4320088713
      6  N         0.7601117139    1.5284140858   -0.3209985905
      7  H         2.1945874409    0.3386340181    0.7868700052
      8  H         1.3975352713   -1.8895521398   -0.1863027082
      9  H        -0.8645810205   -1.1589580651   -1.8926131035
     10  H        -2.1340940856    0.1182411963    0.4063361366
     11  H        -1.0953308714    2.1771220573   -0.9829099466
     12  C         0.0639774128   -0.3473223776    1.0609130531
     13  H        -0.0120649950   -0.6640910652    2.0967591331

Z-matrix Print:
$molecule
0 2
N 
C  1 1.283261
H  2 1.088902 1 121.714949
C  1 1.441393 2 106.275831 3 -175.880048 0
H  4 1.085257 1 117.513710 2 -165.254895 0
C  4 1.486562 1 112.286324 2 -16.545137 0
H  6 1.085865 4 128.819052 1 -127.993424 0
C  2 1.524093 1 113.689791 3 172.022512 0
H  8 1.092228 2 117.763721 1 156.575575 0
C  8 1.527212 2 104.731693 1 -68.268287 0
H  10 1.087476 8 130.766114 2 -72.281406 0
C  10 1.456363 8 92.299661 2 85.282074 0
H  12 1.085515 10 128.693912 8 161.647433 0
$end

 
 --------------------------------------------------------------
 
                    Orbital Energies (a.u.)
 --------------------------------------------------------------
 
 Alpha MOs
 -- Occupied --
-14.320 -10.224 -10.220 -10.210 -10.209 -10.208 -10.206  -0.968
 -0.856  -0.749  -0.664  -0.606  -0.571  -0.535  -0.516  -0.467
 -0.439  -0.405  -0.400  -0.356  -0.336  -0.298  -0.273  -0.256
 -0.182
 -- Virtual --
  0.004   0.101   0.114   0.128   0.150   0.150   0.153   0.162
  0.177   0.200   0.221   0.262   0.280   0.296   0.348   0.391
  0.494   0.513   0.524   0.543   0.558   0.573   0.601   0.604
  0.605   0.659   0.675   0.678   0.720   0.741   0.770   0.777
  0.805   0.807   0.822   0.842   0.855   0.877   0.889   0.936
  0.954   0.973   1.043   1.096   1.206   1.237   1.328   1.390
  1.446   1.475   1.504   1.517   1.587   1.632   1.672   1.713
  1.743   1.828   1.873   1.881   1.932   1.954   1.987   2.026
  2.060   2.168   2.207   2.218   2.232   2.253   2.363   2.380
  2.456   2.490   2.502   2.541   2.590   2.626   2.664   2.676
  2.718   2.808   2.841   2.914   2.963   3.959   4.194   4.239
  4.362   4.433   4.508   4.640
 
 Beta MOs
 -- Occupied --
-14.319 -10.222 -10.219 -10.211 -10.209 -10.207 -10.193  -0.964
 -0.850  -0.741  -0.652  -0.601  -0.567  -0.528  -0.511  -0.461
 -0.434  -0.403  -0.393  -0.348  -0.332  -0.292  -0.262  -0.250
 -- Virtual --
 -0.062   0.020   0.103   0.118   0.134   0.151   0.156   0.157
  0.165   0.181   0.204   0.227   0.267   0.284   0.298   0.360
  0.394   0.497   0.518   0.532   0.553   0.561   0.578   0.607
  0.610   0.622   0.669   0.679   0.683   0.729   0.745   0.775
  0.787   0.808   0.810   0.824   0.844   0.858   0.882   0.892
  0.940   0.958   0.977   1.047   1.108   1.208   1.243   1.334
  1.392   1.449   1.480   1.514   1.525   1.594   1.640   1.677
  1.716   1.751   1.835   1.878   1.894   1.940   1.970   1.994
  2.034   2.068   2.172   2.222   2.226   2.242   2.270   2.368
  2.390   2.463   2.497   2.511   2.546   2.594   2.633   2.666
  2.684   2.725   2.813   2.846   2.917   2.965   3.961   4.208
  4.245   4.369   4.438   4.511   4.644
 --------------------------------------------------------------
 
          Ground-State Mulliken Net Atomic Charges

     Atom                 Charge (a.u.)    Spin (a.u.)
  --------------------------------------------------------
      1 C                    -0.019129       0.097114
      2 C                    -0.163341      -0.095945
      3 C                    -0.066209       0.888279
      4 C                    -0.258174      -0.065712
      5 C                     0.088692       0.047085
      6 N                    -0.342259       0.039285
      7 H                     0.151435       0.002849
      8 H                     0.147215       0.005282
      9 H                     0.136249      -0.019364
     10 H                     0.142842       0.022699
     11 H                     0.143033       0.001385
     12 C                    -0.108420       0.077818
     13 H                     0.148064      -0.000774
  --------------------------------------------------------
  Sum of atomic charges =    -0.000000
  Sum of spin   charges =     1.000000

 -----------------------------------------------------------------
                    Cartesian Multipole Moments
 -----------------------------------------------------------------
    Charge (ESU x 10^10)
                -0.0000
    Dipole Moment (Debye)
         X      -1.1304      Y      -1.5437      Z       0.7352
       Tot       2.0497
    Quadrupole Moments (Debye-Ang)
        XX     -38.5170     XY      -4.6532     YY     -43.7988
        XZ       2.2504     YZ       0.2914     ZZ     -39.0030
    Octopole Moments (Debye-Ang^2)
       XXX      -6.7048    XXY      -6.9564    XYY      -7.5103
       YYY     -20.7178    XXZ       3.9640    XYZ       2.6613
       YYZ       0.4253    XZZ      -4.6623    YZZ      -7.7411
       ZZZ       5.0657
    Hexadecapole Moments (Debye-Ang^3)
      XXXX    -213.3267   XXXY      -7.2698   XXYY     -89.6636
      XYYY     -24.0594   YYYY    -309.3291   XXXZ     -14.3215
      XXYZ       3.8137   XYYZ      -0.8125   YYYZ       7.1461
      XXZZ     -62.9304   XYZZ      -1.2331   YYZZ     -73.4006
      XZZZ     -15.5080   YZZZ       7.4178   ZZZZ    -143.6021
 -----------------------------------------------------------------
Archival summary:
1\1\c8-73\OPT\ProcedureUnspecified\6-31G*\166(2)\hpark21\ThuMar321:29:392022ThuMar321:29:392022\0\\#,OPT,ProcedureUnspecified,6-31G*,\\0,2\N\C,1,1.28326\H,2,1.0889,1,121.715\C,1,1.44139,2,106.276,3,-175.88,0\H,4,1.08526,1,117.514,2,-165.255,0\C,4,1.48656,1,112.286,2,-16.5451,0\H,6,1.08586,4,128.819,1,-127.993,0\C,2,1.52409,1,113.69,3,172.023,0\H,8,1.09223,2,117.764,1,156.576,0\C,8,1.52721,2,104.732,1,-68.2683,0\H,10,1.08748,8,130.766,2,-72.2814,0\C,10,1.45636,8,92.2997,2,85.2821,0\H,12,1.08552,10,128.694,8,161.647,0\\\@

 Total job time:  4.18s(wall), 14.63s(cpu) 
 Thu Mar  3 21:29:39 2022

        *************************************************************
        *                                                           *
        *  Thank you very much for using Q-Chem.  Have a nice day.  *
        *                                                           *
        *************************************************************


