13   
From optimize.out: Frame 1 / 1, Energy=    -286.8383242969
C       -0.0191290000    0.0971140000    0.0000000000
C       -0.1633410000   -0.0959450000   -0.0000000000
C       -0.0662090000    0.8882790000   -0.0000000000
C       -0.2581740000   -0.0657120000    0.0000000000
C        0.0886920000    0.0470850000   -0.0000000000
N       -0.3422590000    0.0392850000   -0.0000000000
H        0.1514350000    0.0028490000    0.0000000000
H        0.1472150000    0.0052820000   -0.0000000000
H        0.1362490000   -0.0193640000   -0.0000000000
H        0.1428420000    0.0226990000    0.0000000000
H        0.1430330000    0.0013850000   -0.0000000000
C       -0.1084200000    0.0778180000    0.0000000000
H        0.1480640000   -0.0007740000    0.0000000000
