13   
From optimize.out: Frame 1 / 2, Energy=    -286.8549095738
C        1.6801790246    0.3941026087   -0.1783820193
C        1.1262118113   -0.8348490310   -0.2685289378
C       -0.3162841307   -1.0621848678   -0.0823204238
C       -1.1557279371    0.3278757744    0.0469936080
C       -0.3269541053    1.5324844040   -0.1484785026
N        0.9598677316    1.5898455975   -0.1662576803
H        2.7570140642    0.5227856985   -0.2501939659
H        1.7478113132   -1.6980287218   -0.4937562742
H       -0.7575702086   -1.9017382680   -0.6224630194
H       -2.1622104709    0.3916870516   -0.3711500977
H       -0.8676481845    2.4600622154   -0.3521833492
C       -0.9589916683   -0.6131773555    1.1517287765
H       -1.7256972399   -1.1088651055    1.7349918851
13   
From optimize.out: Frame 23 / 24, Energy=    -286.8549095738
C        1.6801790246    0.3941026087   -0.1783820193
C        1.1262118113   -0.8348490310   -0.2685289378
C       -0.3162841307   -1.0621848678   -0.0823204238
C       -1.1557279371    0.3278757744    0.0469936080
C       -0.3269541053    1.5324844040   -0.1484785026
N        0.9598677316    1.5898455975   -0.1662576803
H        2.7570140642    0.5227856985   -0.2501939659
H        1.7478113132   -1.6980287218   -0.4937562742
H       -0.7575702086   -1.9017382680   -0.6224630194
H       -2.1622104709    0.3916870516   -0.3711500977
H       -0.8676481845    2.4600622154   -0.3521833492
C       -0.9589916683   -0.6131773555    1.1517287765
H       -1.7256972399   -1.1088651055    1.7349918851
13   
From optimize.out: Frame 22 / 24, Energy=    -286.8549035522
C        1.6845415305    0.3940789135   -0.2033909865
C        1.1342159415   -0.8388105342   -0.2601326738
C       -0.3092860977   -1.0608836912   -0.0614594484
C       -1.1529335604    0.3111300786    0.0133759279
C       -0.3246008712    1.5301454509   -0.1365556530
N        0.9618271205    1.5921595045   -0.1552198751
H        2.7581647438    0.5270137162   -0.3082238729
H        1.7518041627   -1.7034400465   -0.4903680290
H       -0.7383008272   -1.9176709923   -0.5844071693
H       -2.1492982511    0.3715125023   -0.4280385464
H       -0.8738225255    2.4668575388   -0.2612950338
C       -0.9767610998   -0.5947203235    1.1554359635
H       -1.7655502661   -1.0773721171    1.7202793969
13   
From optimize.out: Frame 20 / 24, Energy=    -286.8548787835
C        1.6951508760    0.3967201698   -0.2119422449
C        1.1406141667   -0.8358235960   -0.2394085093
C       -0.2958035929   -1.0540159435   -0.0209163496
C       -1.1574604147    0.3021266722   -0.0015015986
C       -0.3203319033    1.5268917545   -0.1344495472
N        0.9680613441    1.5936397325   -0.1559682997
H        2.7620649173    0.5284376138   -0.3711007693
H        1.7387110281   -1.7057299545   -0.4986518493
H       -0.7135628487   -1.9236191603   -0.5342669713
H       -2.1409449757    0.3687158870   -0.4708176471
H       -0.8765648210    2.4664273311   -0.1960085548
C       -0.9971887334   -0.5790669188    1.1568886302
H       -1.8027450424   -1.0847035877    1.6781437109
13   
From optimize.out: Frame 19 / 24, Energy=    -286.8548201052
C        1.6942259783    0.3975508795   -0.2483455316
C        1.1401735042   -0.8292049690   -0.2327461350
C       -0.3007706365   -1.0211292878   -0.0401905398
C       -1.1634143230    0.3077519904    0.0145515509
C       -0.3259206141    1.5145310882   -0.1406981763
N        0.9629812934    1.5859123554   -0.1686033936
H        2.7660834204    0.5186470396   -0.3799112151
H        1.7339469923   -1.7162790123   -0.4368320679
H       -0.7092233516   -1.9015010189   -0.5427780430
H       -2.1470729235    0.3536503745   -0.4578502540
H       -0.8676230090    2.4632176185   -0.1765498787
C       -0.9902783050   -0.5590171749    1.1727700752
H       -1.7931080258   -1.1141298833    1.6371836089
13   
From optimize.out: Frame 18 / 24, Energy=    -286.8547031652
C        1.6874687924    0.4018267118   -0.2650796754
C        1.1388743863   -0.8301738386   -0.2650402918
C       -0.2801297024   -1.0558083424    0.0150585612
C       -1.1726045279    0.3179004501   -0.0015866032
C       -0.3316251692    1.5063478333   -0.1325456552
N        0.9578082239    1.5781039790   -0.1521350159
H        2.7598733115    0.5278549689   -0.3899686877
H        1.7605844502   -1.7048884817   -0.4394793297
H       -0.7320384055   -1.9157415971   -0.4823983248
H       -2.1576083952    0.3744114930   -0.4684360932
H       -0.8390002875    2.4754730370   -0.1628007231
C       -0.9978476427   -0.5351818473    1.1622349521
H       -1.7937550338   -1.1401243658    1.5821768866
13   
From optimize.out: Frame 15 / 24, Energy=    -286.8541353348
C        1.6903420225    0.3930739846   -0.2886171634
C        1.1540547011   -0.8397543619   -0.2779657448
C       -0.2479144914   -1.0636626248    0.0134654609
C       -1.2127133898    0.3187362054   -0.0129241620
C       -0.3522541044    1.4841305444   -0.1389925534
N        0.9475400064    1.5543764996   -0.1645818732
H        2.7656318604    0.5225297167   -0.3851054037
H        1.8100401060   -1.7041999126   -0.3714147012
H       -0.7586830289   -1.8722899354   -0.5076854165
H       -2.2173894586    0.3925056179   -0.4247647129
H       -0.8133152453    2.4788797437   -0.1511834774
C       -0.9969844629   -0.5079934092    1.1467241135
H       -1.7683545150   -1.1563320684    1.5630456342
13   
From optimize.out: Frame 13 / 24, Energy=    -286.8535224494
C        1.6885771186    0.3888887422   -0.3120196216
C        1.1766239540   -0.8434232465   -0.2956111237
C       -0.1995778988   -1.0795517889    0.0293289039
C       -1.2536345871    0.3129737401   -0.0287377125
C       -0.3617571658    1.4526669734   -0.1483286759
N        0.9314501026    1.5238006212   -0.1737394139
H        2.7647920335    0.5313104062   -0.3738027126
H        1.8622352039   -1.6891014104   -0.3462745345
H       -0.8014653684   -1.8009481373   -0.4958694662
H       -2.2639631176    0.4074240713   -0.4044612707
H       -0.7655219044    2.4731901621   -0.1438759262
C       -1.0085405203   -0.5050360867    1.1293138980
H       -1.7692178501   -1.1721940469    1.5640776558
13   
From optimize.out: Frame 12 / 24, Energy=    -286.8518398403
C        1.6785908784    0.3910140736   -0.3064544374
C        1.1653992390   -0.8425768625   -0.2952317727
C       -0.2063249980   -1.0847372049    0.0199750936
C       -1.2556805126    0.3044652162   -0.0436608387
C       -0.3642640682    1.4413352505   -0.1574851949
N        0.9227245888    1.5163861162   -0.1746144808
H        2.7554092765    0.5337274417   -0.3435523726
H        1.8608717327   -1.6814823312   -0.3200236412
H       -0.8576531910   -1.7560680829   -0.5074477153
H       -2.2680244557    0.3906643843   -0.4063520910
H       -0.7483272000    2.4701684138   -0.1526226632
C       -0.9709173250   -0.4981852996    1.1180743904
H       -1.7118039650   -1.1847111151    1.5693957239
13   
From optimize.out: Frame 10 / 24, Energy=    -286.8474564242
C        1.6601014240    0.3946773489   -0.2849562440
C        1.1288319354   -0.8426453591   -0.2797993910
C       -0.2523233411   -1.0911302821   -0.0109418950
C       -1.2347274995    0.2986957707   -0.0537771597
C       -0.3653270341    1.4493889050   -0.1665610039
N        0.9193468931    1.5278239560   -0.1730248588
H        2.7387683528    0.5243521398   -0.2982402614
H        1.8238230913   -1.6822782623   -0.2838579212
H       -0.9019974374   -1.7457014152   -0.5611734278
H       -2.2501526540    0.3550078464   -0.4128535985
H       -0.7557831072    2.4757388795   -0.1693482185
C       -0.8996681823   -0.4772759652    1.1143162283
H       -1.6108924409   -1.1866535624    1.5802177514
13   
From optimize.out: Frame 9 / 24, Energy=    -286.8397144737
C        1.6416119696    0.3983406242   -0.2634580505
C        1.0922646317   -0.8427138557   -0.2643670093
C       -0.2983216841   -1.0975233593   -0.0418588837
C       -1.2137744864    0.2929263252   -0.0638934807
C       -0.3663900001    1.4574425595   -0.1756368129
N        0.9159691974    1.5392617959   -0.1714352367
H        2.7221274291    0.5149768379   -0.2529281503
H        1.7867744499   -1.6830741933   -0.2476922011
H       -0.9463416838   -1.7353347475   -0.6148991402
H       -2.2322808524    0.3193513085   -0.4193551059
H       -0.7632390144    2.4813093453   -0.1860737738
C       -0.8284190396   -0.4563666309    1.1105580662
H       -1.5099809169   -1.1885960097    1.5910397788
13   
From optimize.out: Frame 8 / 24, Energy=    -286.8216786057
C        1.6290340478    0.3951984852   -0.2460215859
C        1.0653838454   -0.8476437379   -0.2470158129
C       -0.3278892085   -1.0885135497   -0.0688956588
C       -1.2190116060    0.2838638627   -0.0721978376
C       -0.3723543322    1.4558807167   -0.1901960478
N        0.9104745370    1.5379293773   -0.1777214970
H        2.7092171825    0.5042626399   -0.2080906304
H        1.7550827288   -1.6906228569   -0.2001356792
H       -0.9725436097   -1.7015280668   -0.6738334440
H       -2.2449212664    0.2888650374   -0.4058761383
H       -0.7641337381    2.4806956763   -0.1951973189
C       -0.7593273548   -0.4349225740    1.0899527380
H       -1.4090112259   -1.1834650102    1.5952289128
13   
From optimize.out: Frame 6 / 24, Energy=    -286.7740170881
C        1.6193574863    0.3887162721   -0.2305786041
C        1.0432571688   -0.8549595718   -0.2287228687
C       -0.3493925427   -1.0719440555   -0.0940280383
C       -1.2371027540    0.2731851986   -0.0796128886
C       -0.3807242383    1.4495996204   -0.2074465297
N        0.9039408775    1.5303293592   -0.1878732135
H        2.6981379395    0.4928913163   -0.1634860382
H        1.7260201660   -1.7014857387   -0.1469885905
H       -0.9898413462   -1.6562171072   -0.7353241067
H       -2.2725369721    0.2609163156   -0.3825908213
H       -0.7618082552    2.4770468551   -0.2005898233
C       -0.6912945429   -0.4132160771    1.0610788777
H       -1.3080129867   -1.1748623870    1.5961626451
13   
From optimize.out: Frame 5 / 24, Energy=    -286.7510879796
C        1.6150016623    0.3805772224   -0.2090514215
C        1.0355351474   -0.8698558546   -0.2258669002
C       -0.3518148905   -1.0732054586   -0.1463508106
C       -1.2548759542    0.2563458661   -0.0682976611
C       -0.3901916749    1.4382714383   -0.2147393413
N        0.8981494609    1.5189837309   -0.1854575487
H        2.6908945908    0.4877742309   -0.1173898327
H        1.7157266289   -1.7182849904   -0.1382967784
H       -0.9794750271   -1.6155544935   -0.8356472815
H       -2.2934041120    0.2221806966   -0.3619373435
H       -0.7686023768    2.4653795596   -0.2215201886
C       -0.6577309315   -0.3674657140    1.0810415355
H       -1.2592125231   -1.1251462337    1.6435135726
13   
From optimize.out: Frame 3 / 24, Energy=    -286.6756499965
C        1.6110391764    0.3723156902   -0.1870744614
C        1.0288779971   -0.8853125259   -0.2241521177
C       -0.3528266672   -1.0757850195   -0.2006836460
C       -1.2726256501    0.2390511032   -0.0555977886
C       -0.3997402470    1.4265701479   -0.2212960273
N        0.8924129151    1.5073612066   -0.1821128342
H        2.6839348124    0.4831194932   -0.0711833589
H        1.7068206013   -1.7355230910   -0.1328913443
H       -0.9670636293   -1.5752355111   -0.9388411685
H       -2.3137723608    0.1826476511   -0.3414784256
H       -0.7760706697    2.4531194945   -0.2435991978
C       -0.6267154725   -0.3199378964    1.1046144566
H       -1.2142708055   -1.0723907427    1.6942959138
13   
From optimize.out: Frame 2 / 24, Energy=    -286.6254313898
C        1.6064014560    0.3633759039   -0.1658343928
C        1.0234016107   -0.8987591107   -0.2324380534
C       -0.3567186288   -1.0843759085   -0.2656696871
C       -1.2803315291    0.2297881930   -0.0362696747
C       -0.4100935213    1.4209274157   -0.2264814364
N        0.8864660462    1.5007885559   -0.1766796582
H        2.6747778194    0.4746397073   -0.0212029555
H        1.6982232024   -1.7500556990   -0.1292040540
H       -0.9491831199   -1.5607570346   -1.0411357006
H       -2.3222812445    0.1488114895   -0.3170465173
H       -0.7914457591    2.4436654187   -0.2686176370
C       -0.6039889070   -0.2729875212    1.1326743246
H       -1.1752274250   -1.0150614102    1.7479054423
13   
From optimize.out: Frame 1 / 24, Energy=    -286.5524627724
C        1.6015581747    0.3542296372   -0.1448186554
C        1.0182846831   -0.9115937666   -0.2437684988
C       -0.3614874026   -1.0947968208   -0.3338988742
C       -1.2849797778    0.2229704127   -0.0149237310
C       -0.4206917703    1.4171290851   -0.2312493889
N        0.8804551489    1.4957532339   -0.1706106937
H        2.6649519304    0.4649954654    0.0299263420
H        1.6897197592   -1.7637646762   -0.1260398166
H       -0.9296376537   -1.5541451602   -1.1431564427
H       -2.3271797922    0.1167096253   -0.2914051151
H       -0.8092279075    2.4350655676   -0.2945309242
C       -0.5837857220   -0.2262129362    1.1621001499
H       -1.1379796700   -0.9563396671    1.8023756489
13   
C5H5N+CH->C6H6N atoms 1-13 frame 110 charge -0.000 sz -1.000 sz^2 0.501
C        1.5967148933    0.3450833705   -0.1238029180
C        1.0131677555   -0.9244284225   -0.2550989442
C       -0.3662561764   -1.1052177330   -0.4021280613
C       -1.2896280266    0.2161526323    0.0064222126
C       -0.4312900194    1.4133307544   -0.2360173414
N        0.8744442517    1.4907179118   -0.1645417293
H        2.6551260414    0.4553512236    0.0810556394
H        1.6812163159   -1.7774736534   -0.1228755793
H       -0.9100921875   -1.5475332859   -1.2451771849
H       -2.3320783399    0.0846077610   -0.2657637129
H       -0.8270100559    2.4264657166   -0.3204442114
C       -0.5635825370   -0.1794383512    1.1915259752
H       -1.1007319150   -0.8976179241    1.8568458555
13   
C5H5N+CH->C6H6N atoms 1-13 frame 111 charge +0.000 sz -1.000 sz^2 0.507
C        1.5915383321    0.3366862154   -0.1025340336
C        1.0048142398   -0.9357784362   -0.2636668609
C       -0.3748995569   -1.1110357979   -0.4641851140
C       -1.2908538948    0.2075931433    0.0240589903
C       -0.4412651488    1.4100771840   -0.2413063569
N        0.8691700454    1.4873021502   -0.1579856741
H        2.6451564906    0.4450048478    0.1309600922
H        1.6676788116   -1.7909495534   -0.1171174644
H       -0.8978711873   -1.5363257177   -1.3387807887
H       -2.3330850550    0.0489916199   -0.2435827251
H       -0.8461882660    2.4176254790   -0.3441645922
C       -0.5383107752   -0.1351933077    1.2149259566
H       -1.0558840356   -0.8439978267    1.9033785708
13   
C5H5N+CH->C6H6N atoms 1-13 frame 112 charge +0.000 sz -1.000 sz^2 0.520
C        1.5840901204    0.3333950399   -0.0795396870
C        0.9743999874   -0.9370090587   -0.2534052531
C       -0.4099524386   -1.0854806395   -0.4841726091
C       -1.2687526569    0.1871620866    0.0164139188
C       -0.4469930655    1.4105367251   -0.2501469622
N        0.8689171601    1.4949253890   -0.1481095853
H        2.6342077346    0.4298726939    0.1725159458
H        1.6198289114   -1.8028367875   -0.0936793576
H       -0.9355740911   -1.4937936846   -1.3750127831
H       -2.3075648567   -0.0105779967   -0.2449880845
H       -0.8748820972    2.4071467560   -0.3529380200
C       -0.4784913565   -0.1081897377    1.1972535038
H       -0.9592333513   -0.8251507857    1.8958089736
13   
C5H5N+CH->C6H6N atoms 1-13 frame 114 charge +0.000 sz -1.000 sz^2 0.555
C        1.5766419086    0.3301038643   -0.0565453404
C        0.9439857350   -0.9382396812   -0.2431436453
C       -0.4450053202   -1.0599254811   -0.5041601042
C       -1.2466514189    0.1667310299    0.0087688473
C       -0.4527209823    1.4109962661   -0.2589875675
N        0.8686642747    1.5025486277   -0.1382334966
H        2.6232589786    0.4147405401    0.2140717994
H        1.5719790111   -1.8147240217   -0.0702412509
H       -0.9732769948   -1.4512616515   -1.4112447774
H       -2.2820446583   -0.0701476134   -0.2463934439
H       -0.9035759285    2.3966680330   -0.3617114478
C       -0.4186719378   -0.0811861676    1.1795810510
H       -0.8625826671   -0.8063037447    1.8882393763
13   
C5H5N+CH->C6H6N atoms 1-13 frame 115 charge -0.000 sz -1.000 sz^2 0.576
C        1.5691936968    0.3268126888   -0.0335509938
C        0.9135714827   -0.9394703036   -0.2328820375
C       -0.4800582018   -1.0343703227   -0.5241475994
C       -1.2245501809    0.1462999732    0.0011237758
C       -0.4584488990    1.4114558071   -0.2678281728
N        0.8684113893    1.5101718665   -0.1283574079
H        2.6123102226    0.3996083863    0.2556276531
H        1.5241291108   -1.8266112559   -0.0468031441
H       -1.0109798985   -1.4087296184   -1.4474767718
H       -2.2565244600   -0.1297172300   -0.2477988033
H       -0.9322697598    2.3861893099   -0.3704848756
C       -0.3588525192   -0.0541825975    1.1619085982
H       -0.7659319829   -0.7874567036    1.8806697790
13   
C5H5N+CH->C6H6N atoms 1-13 frame 116 charge +0.000 sz -1.000 sz^2 0.609
C        1.5664169332    0.3139453397   -0.0142666475
C        0.9184161694   -0.9734508817   -0.2323522853
C       -0.4856516826   -1.0954721846   -0.5190247913
C       -1.2393523493    0.1652799860   -0.0113444134
C       -0.4854687550    1.4422529548   -0.2594284467
N        0.8566523845    1.5096869246   -0.0974314695
H        2.6089707174    0.3920715023    0.2758714818
H        1.5467206072   -1.8507277831   -0.0566061851
H       -1.0417074811   -1.4490376010   -1.4526821882
H       -2.2662118281   -0.1494118143   -0.2548626976
H       -0.9687221964    2.4128315047   -0.3433487743
C       -0.3239837077    0.0112379168    1.1211361624
H       -0.6860788116   -0.7292058640    1.8443402549
13   
C5H5N+CH->C6H6N atoms 1-13 frame 118 charge +0.000 sz -1.000 sz^2 0.708
C        1.5641196146    0.3035660046   -0.0041305411
C        0.9276614776   -1.0047726500   -0.2299118486
C       -0.4832220440   -1.1605071868   -0.5102322941
C       -1.2609714517    0.1924039157   -0.0211180226
C       -0.5080054784    1.4734210107   -0.2511454345
N        0.8463116448    1.5084808047   -0.0768800715
H        2.6067319830    0.3893987764    0.2835566876
H        1.5755277393   -1.8690097925   -0.0600148037
H       -1.0572748437   -1.5085407854   -1.4488823739
H       -2.2879930904   -0.1421118717   -0.2565736346
H       -0.9920561653    2.4438594431   -0.3135409521
C       -0.3010391224    0.0608064756    1.0826555063
H       -0.6297902632   -0.6869941445    1.8062177828
13   
C5H5N+CH->C6H6N atoms 1-13 frame 119 charge +0.000 sz -1.000 sz^2 0.781
C        1.5627283419    0.2982097162   -0.0120940830
C        0.9452953673   -1.0305126645   -0.2235913475
C       -0.4651677232   -1.2325158249   -0.4944037654
C       -1.2957534592    0.2352974566   -0.0255042513
C       -0.5214528684    1.5050361490   -0.2432575576
N        0.8388916827    1.5059220883   -0.0770944606
H        2.6066030649    0.3962962999    0.2665489233
H        1.6159872169   -1.8756096555   -0.0504317610
H       -1.0428558083   -1.6053084065   -1.4275258887
H       -2.3334140779   -0.0816784725   -0.2476194575
H       -0.9893112162    2.4832287831   -0.2787779913
C       -0.3014953555    0.0785861940    1.0489373601
H       -0.6200551652   -0.6769516632    1.7648142806
13   
C5H5N+CH->C6H6N atoms 1-13 frame 120 charge +0.000 sz -1.000 sz^2 0.858
C        1.5613370693    0.2928534278   -0.0200576249
C        0.9629292570   -1.0562526790   -0.2172708463
C       -0.4471134023   -1.3045244631   -0.4785752367
C       -1.3305354666    0.2781909974   -0.0298904801
C       -0.5349002583    1.5366512873   -0.2353696808
N        0.8314717206    1.5033633720   -0.0773088498
H        2.6064741468    0.4031938235    0.2495411590
H        1.6564466946   -1.8822095184   -0.0408487184
H       -1.0284367729   -1.7020760277   -1.4061694036
H       -2.3788350653   -0.0212450733   -0.2386652803
H       -0.9865662670    2.5225981230   -0.2440150304
C       -0.3019515886    0.0963659123    1.0152192140
H       -0.6103200673   -0.6669091818    1.7234107785
13   
C5H5N+CH->C6H6N atoms 1-13 frame 122 charge +0.000 sz -1.000 sz^2 1.014
C        1.5599457967    0.2874971394   -0.0280211668
C        0.9805631467   -1.0819926935   -0.2109503452
C       -0.4290590814   -1.3765331012   -0.4627467080
C       -1.3653174741    0.3210845382   -0.0342767088
C       -0.5483476482    1.5682664257   -0.2274818040
N        0.8240517585    1.5008046556   -0.0775232389
H        2.6063452287    0.4100913470    0.2325333947
H        1.6969061722   -1.8888093814   -0.0312656758
H       -1.0140177375   -1.7988436489   -1.3848129185
H       -2.4242560528    0.0391883259   -0.2297111032
H       -0.9838213179    2.5619674630   -0.2092520696
C       -0.3024078217    0.1141456307    0.9815010678
H       -0.6005849693   -0.6568667005    1.6820072763
13   
C5H5N+CH->C6H6N atoms 1-13 frame 123 charge +0.000 sz -1.000 sz^2 1.071
C        1.5560274569    0.2831348068   -0.0259458053
C        0.9825347731   -1.1083237483   -0.2238878231
C       -0.4100733851   -1.4246748480   -0.4827418696
C       -1.3802970320    0.3572530661   -0.0474897750
C       -0.5621438043    1.6016771519   -0.2420128933
N        0.8243140874    1.5009344747   -0.0757186252
H        2.5901120537    0.4097901595    0.2595441537
H        1.7171343611   -1.8921701310   -0.0473371077
H       -0.9965190592   -1.8502773755   -1.3540027523
H       -2.4471776094    0.0526773631   -0.1910351624
H       -0.9722274164    2.6005747057   -0.2085884951
C       -0.3064827147    0.1358657036    0.9742062500
H       -0.5952017112   -0.6664613286    1.6650099053
13   
C5H5N+CH->C6H6N atoms 1-13 frame 124 charge +0.000 sz -1.000 sz^2 1.110
C        1.5426824919    0.2780989134   -0.0122492634
C        0.9665168532   -1.1291849188   -0.2578899659
C       -0.3921166464   -1.4403461161   -0.5410705413
C       -1.3710994602    0.3823272066   -0.0707956724
C       -0.5737079145    1.6350857580   -0.2788834235
N        0.8273345946    1.5063520348   -0.0725744475
H        2.5559677488    0.3987454959    0.3339930534
H        1.7140406498   -1.8960454584   -0.0997646218
H       -0.9618641288   -1.8564424023   -1.3113622610
H       -2.4288732279    0.0278554711   -0.1240163257
H       -0.9552841871    2.6392428287   -0.2488653836
C       -0.3265650133    0.1514078272    0.9952509155
H       -0.5970317603   -0.6970966403    1.6882279372
13   
C5H5N+CH->C6H6N atoms 1-13 frame 126 charge +0.000 sz -1.000 sz^2 1.139
C        1.5218768800    0.2735427048    0.0042662107
C        0.9518883688   -1.1428939561   -0.2884717661
C       -0.3708390344   -1.4485314753   -0.5911204677
C       -1.3574375645    0.4028875996   -0.0895001393
C       -0.5822234951    1.6666396971   -0.3128209809
N        0.8237558315    1.5162152266   -0.0707356427
H        2.5224941629    0.3871147605    0.4090663085
H        1.7162206210   -1.9034409902   -0.1581568397
H       -0.9347763650   -1.8918617364   -1.2914353989
H       -2.3930128156    0.0168442870   -0.0570424525
H       -0.9452970090    2.6808566232   -0.2946747978
C       -0.3564820619    0.1590373812    1.0204073583
H       -0.5961675187   -0.7164101221    1.7202186079
13   
C5H5N+CH->C6H6N atoms 1-13 frame 127 charge +0.000 sz -1.000 sz^2 1.140
C        1.4973412542    0.2713329421    0.0241719473
C        0.9417743845   -1.1502757292   -0.3121196640
C       -0.3446172284   -1.4497608215   -0.6275335232
C       -1.3391300480    0.4188866383   -0.1001478512
C       -0.5867863991    1.6951103528   -0.3416369739
N        0.8161570558    1.5301393856   -0.0697870869
H        2.4893313632    0.3770749061    0.4795810922
H        1.7250432779   -1.9099005064   -0.2154638003
H       -0.9292277863   -1.9636277795   -1.3041496501
H       -2.3501006187    0.0172259416    0.0067404018
H       -0.9408690025    2.7205779730   -0.3424353084
C       -0.3887757579    0.1626641031    1.0502542966
H       -0.5901404947   -0.7194474060    1.7525261201
13   
C5H5N+CH->C6H6N atoms 1-13 frame 128 charge +0.000 sz -1.000 sz^2 1.136
C        1.4702473398    0.2700059754    0.0471498068
C        0.9360658214   -1.1538192375   -0.3309930465
C       -0.3172125279   -1.4462922986   -0.6558394736
C       -1.3168832394    0.4314246642   -0.1038698223
C       -0.5869123128    1.7204649056   -0.3648823706
N        0.8065615433    1.5461525400   -0.0688862750
H        2.4530162549    0.3661260734    0.5427440359
H        1.7362252770   -1.9130886732   -0.2722528315
H       -0.9305568856   -2.0540666841   -1.3302235551
H       -2.3094589557    0.0271795800    0.0630503443
H       -0.9386559363    2.7543020931   -0.3892324725
C       -0.4209952247    0.1627861065    1.0829303873
H       -0.5814411540   -0.7111750447    1.7803052728
13   
C5H5N+CH->C6H6N atoms 1-13 frame 130 charge +0.000 sz -1.000 sz^2 1.110
C        1.4389749403    0.2674130999    0.0737454208
C        0.9336694270   -1.1559611388   -0.3490284963
C       -0.2914196438   -1.4406416259   -0.6839485191
C       -1.2903719683    0.4421306011   -0.1027400928
C       -0.5824373593    1.7442677201   -0.3844471506
N        0.7956311699    1.5632277738   -0.0677947753
H        2.4090529984    0.3507973658    0.6010072276
H        1.7462791717   -1.9123841417   -0.3335126888
H       -0.9214346947   -2.1466219242   -1.3513421663
H       -2.2745047134    0.0457473852    0.1119769073
H       -0.9358371861    2.7816491626   -0.4365260893
C       -0.4545533977    0.1591080437    1.1182161523
H       -0.5730487439   -0.6987323214    1.8043942705
13   
C5H5N+CH->C6H6N atoms 1-13 frame 131 charge +0.000 sz -1.000 sz^2 1.097
C        1.4019839674    0.2620712542    0.1043011767
C        0.9349871226   -1.1576734020   -0.3679486510
C       -0.2698603657   -1.4343519998   -0.7156575247
C       -1.2591565156    0.4514462564   -0.0969381036
C       -0.5722924620    1.7666699438   -0.4009618699
N        0.7838252146    1.5807500826   -0.0670481251
H        2.3550391574    0.3290567352    0.6542796573
H        1.7532714682   -1.9066808515   -0.4013709425
H       -0.8916143742   -2.2288597804   -1.3571980816
H       -2.2478983510    0.0741453137    0.1508970105
H       -0.9306544042    2.8010913504   -0.4855774368
C       -0.4898429606    0.1513813558    1.1556401170
H       -0.5677874969   -0.6890462582    1.8275827736
13   
C5H5N+CH->C6H6N atoms 1-13 frame 132 charge -0.000 sz -1.000 sz^2 1.081
C        1.3593615907    0.2533051766    0.1373828572
C        0.9404865091   -1.1591862183   -0.3878968909
C       -0.2556940870   -1.4288366729   -0.7515058216
C       -1.2246619770    0.4590964773   -0.0861474049
C       -0.5559136766    1.7863559734   -0.4142153744
N        0.7722043062    1.5976249725   -0.0678929386
H        2.2934256277    0.3015217598    0.7001775826
H        1.7566652099   -1.8956248686   -0.4734853226
H       -0.8383338185   -2.2881560083   -1.3419915202
H       -2.2314251933    0.1134343740    0.1746019686
H       -0.9224619869    2.8109388975   -0.5359052523
C       -0.5249621391    0.1405022972    1.1929356260
H       -0.5686903653   -0.6909761601    1.8539424911
13   
C5H5N+CH->C6H6N atoms 1-13 frame 134 charge +0.000 sz -1.000 sz^2 1.062
C        1.3131994655    0.2418763582    0.1702136826
C        0.9490099239   -1.1603206011   -0.4081467172
C       -0.2498046427   -1.4248933073   -0.7890221655
C       -1.1901283420    0.4646915304   -0.0706047553
C       -0.5349687102    1.8019232163   -0.4240965988
N        0.7618509493    1.6128523537   -0.0713575214
H        2.2314119441    0.2718976321    0.7378415088
H        1.7584345053   -1.8811772725   -0.5449445508
H       -0.7699814326   -2.3210175949   -1.3085946331
H       -2.2229548553    0.1618237401    0.1813491625
H       -0.9126983736    2.8122541632   -0.5856770733
C       -0.5569496538    0.1283361225    1.2277960876
H       -0.5764207779   -0.7082463405    1.8852435739
13   
C5H5N+CH->C6H6N atoms 1-13 frame 135 charge +0.000 sz -1.000 sz^2 1.049
C        1.2647604263    0.2288151548    0.2014098038
C        0.9589521569   -1.1606998171   -0.4284358664
C       -0.2510488500   -1.4223890514   -0.8256835360
C       -1.1577009282    0.4679908893   -0.0498879553
C       -0.5114360650    1.8127760280   -0.4305044417
N        0.7532487695    1.6262966183   -0.0778808429
H        2.1745128928    0.2435843208    0.7687757736
H        1.7616001931   -1.8653871160   -0.6135108589
H       -0.6969421333   -2.3333508187   -1.2634140372
H       -2.2187456316    0.2175179613    0.1726820081
H       -0.9034894851    2.8069057344   -0.6339134682
C       -0.5838151517    0.1158553076    1.2603168190
H       -0.5898961936   -0.7379152114    1.9200466023
13   
C5H5N+CH->C6H6N atoms 1-13 frame 136 charge -0.000 sz -1.000 sz^2 1.038
C        1.2137774047    0.2149963888    0.2316437335
C        0.9691409540   -1.1595514502   -0.4492464651
C       -0.2573923830   -1.4200852301   -0.8597780059
C       -1.1277981640    0.4691675850   -0.0222810828
C       -0.4864949213    1.8191435733   -0.4331694181
N        0.7467880889    1.6387780507   -0.0875899546
H        2.1248283844    0.2189527975    0.7958428511
H        1.7692361623   -1.8487825919   -0.6801187848
H       -0.6286692884   -2.3388549258   -1.2139084352
H       -2.2148281868    0.2805502519    0.1509830990
H       -0.8965856662    2.7960773298   -0.6809667007
C       -0.6042878334    0.1031605757    1.2928478494
H       -0.6077145511   -0.7735523547    1.9557413141
13   
C5H5N+CH->C6H6N atoms 1-13 frame 138 charge -0.000 sz -1.000 sz^2 1.020
C        1.1600539864    0.2013310993    0.2626368667
C        0.9788453579   -1.1557140246   -0.4712724750
C       -0.2666207133   -1.4157445023   -0.8900252748
C       -1.1001068140    0.4690357687    0.0141223251
C       -0.4608526190    1.8218911085   -0.4317254440
N        0.7435172044    1.6515135680   -0.1001966606
H        2.0818636794    0.1997984668    0.8214925693
H        1.7830867973   -1.8299943478   -0.7462339800