13   
From optimize.out: Frame 1 / 2, Energy=    -286.8549095738
C        1.6801790246    0.3941026087   -0.1783820193
C        1.1262118113   -0.8348490310   -0.2685289378
C       -0.3162841307   -1.0621848678   -0.0823204238
C       -1.1557279371    0.3278757744    0.0469936080
C       -0.3269541053    1.5324844040   -0.1484785026
N        0.9598677316    1.5898455975   -0.1662576803
H        2.7570140642    0.5227856985   -0.2501939659
H        1.7478113132   -1.6980287218   -0.4937562742
H       -0.7575702086   -1.9017382680   -0.6224630194
H       -2.1622104709    0.3916870516   -0.3711500977
H       -0.8676481845    2.4600622154   -0.3521833492
C       -0.9589916683   -0.6131773555    1.1517287765
H       -1.7256972399   -1.1088651055    1.7349918851
13   
From optimize.out: Frame 23 / 24, Energy=    -286.8549095738
C        1.6867530756    0.3946294901   -0.2051735182
C        1.1355496679   -0.8381878993   -0.2558126688
C       -0.3064756352   -1.0594520917   -0.0530081360
C       -1.1538771947    0.3092532955    0.0102746695
C       -0.3237109940    1.5294672095   -0.1361166299
N        0.9631266603    1.5924680618   -0.1553758861
H        2.7589777449    0.5273105313   -0.3213307225
H        1.7490748654   -1.7039173837   -0.4920948125
H       -0.7331441324   -1.9189109031   -0.5739553170
H       -2.1475569895    0.3709295407   -0.4369559592
H       -0.8743941640    2.4667678609   -0.2476859006
C       -0.9810192921   -0.5914573313    1.1557387756
H       -1.7733036122   -1.0789003808    1.7114961056
13   
From optimize.out: Frame 22 / 24, Energy=    -286.8549035522
C        1.6945580848    0.3972525935   -0.2352740676
C        1.1403317345   -0.8315815441   -0.2351384186
C       -0.2989871016   -1.0329380220   -0.0332696844
C       -1.1612764309    0.3057320864    0.0087872866
C       -0.3239138549    1.5189694788   -0.1384544577
N        0.9648054061    1.5886870535   -0.1640664633
H        2.7646404815    0.5221625776   -0.3767476155
H        1.7356576324   -1.7124911228   -0.4590299275
H       -0.7107815510   -1.9094430624   -0.5397219407
H       -2.1448725384    0.3590600043   -0.4625065042
H       -0.8708337788    2.4643701420   -0.1835369781
C       -0.9927596583   -0.5662165112    1.1670674655
H       -1.7965684253   -1.1035636735    1.6518913056
13   
From optimize.out: Frame 20 / 24, Energy=    -286.8548787835
C        1.6876106891    0.4013944516   -0.2662420923
C        1.1396240778   -0.8306469801   -0.2656786253
C       -0.2785387294   -1.0561962322    0.0149798847
C       -1.1745853349    0.3179417245   -0.0021465173
C       -0.3326439450    1.5052506154   -0.1328640402
N        0.9573011200    1.5769321791   -0.1527497135
H        2.7601577019    0.5275919772   -0.3897285107
H        1.7630268558   -1.7048544762   -0.4361179057
H       -0.7333542708   -1.9135957034   -0.4836471473
H       -2.1605607290    0.3753050853   -0.4662793485
H       -0.8377318120    2.4756412798   -0.1622269964
C       -0.9978050139   -0.5338391254    1.1614689374
H       -1.7925006096   -1.1409247957    1.5812320750
13   
From optimize.out: Frame 19 / 24, Energy=    -286.8548201052
C        1.6899573669    0.3921618234   -0.2937176599
C        1.1589736029   -0.8405539845   -0.2818115029
C       -0.2373796741   -1.0671256211    0.0169228513
C       -1.2216320436    0.3174802932   -0.0163706785
C       -0.3543252685    1.4772731522   -0.1410273337
N        0.9440332595    1.5477125775   -0.1665777321
H        2.7654488226    0.5244434420   -0.3826420156
H        1.8214158731   -1.7009092387   -0.3659354763
H       -0.7680073131   -1.8567412017   -0.5051101651
H       -2.2275400497    0.3957570507   -0.4203396378
H       -0.8028988282    2.4776397162   -0.1495908183
C       -0.9995030714   -0.5073488695    1.1429296086
H       -1.7685426763   -1.1597891396    1.5632705603
13   
From optimize.out: Frame 18 / 24, Energy=    -286.8547031652
C        1.6834447864    0.3899810359   -0.3091594486
C        1.1708551195   -0.8429882556   -0.2954161599
C       -0.2030455056   -1.0822167836    0.0245216029
C       -1.2546860708    0.3086008660   -0.0364073098
C       -0.3630455642    1.4468431432   -0.1530345809
N        0.9269657086    1.5199900076   -0.1741891461
H        2.7599698557    0.5325526184   -0.3582558409
H        1.8615344610   -1.6851856578   -0.3327831400
H       -0.8303425601   -1.7778824644   -0.5018199961
H       -2.2660504033    0.3988105911   -0.4054330396
H       -0.7566848512    2.4716371636   -0.1483712277
C       -0.9892044405   -0.5015151904    1.1235374610
H       -1.7397105353   -1.1786270739    1.5668108258
13   
From optimize.out: Frame 13 / 24, Energy=    -286.8535224494
C        1.6658130368    0.3935457195   -0.2915972921
C        1.1401280112   -0.8426241997   -0.2845666376
C       -0.2381139048   -1.0891553844   -0.0013912688
C       -1.2412001349    0.3004780212   -0.0506521076
C       -0.3649986713    1.4469010352   -0.1637573783
N        0.9203903035    1.5242906710   -0.1735159120
H        2.7439089325    0.5272482823   -0.3122377126
H        1.8352678582   -1.6820323897   -0.2950299431
H       -0.8882989712   -1.7489038024   -0.5445769150
H       -2.2556734665    0.3660225759   -0.4108452053
H       -0.7534798886    2.4740180963   -0.1641814952
C       -0.9216778916   -0.4837351078    1.1154771694
H       -1.6420652132   -1.1860535173    1.5768746981
13   
From optimize.out: Frame 12 / 24, Energy=    -286.8518398403
C        1.6473111974    0.3972114486   -0.2700846984
C        1.1035362134   -0.8426927421   -0.2691239188
C       -0.2841430593   -1.0955527439   -0.0323289668
C       -1.2202330867    0.2947047110   -0.0607752049
C       -0.3660623492    1.4549600843   -0.1728392666
N        0.9170103453    1.5357361723   -0.1719252251
H        2.7272568620    0.5178667004   -0.2668952496
H        1.7981944002   -1.6828288538   -0.2588399978
H       -0.9326729211   -1.7385301907   -0.5983386149
H       -2.2377896937    0.3303421539   -0.4173510677
H       -0.7609407901    2.4795922933   -0.1809182538
C       -0.8503810235   -0.4628117676    1.1117164899
H       -1.5410860948   -1.1879972657    1.5877039746
13   
From optimize.out: Frame 10 / 24, Energy=    -286.8474564242
C        1.6325849065    0.3960855389   -0.2509440543
C        1.0729725294   -0.8462519885   -0.2519142093
C       -0.3195420345   -1.0910570987   -0.0612629378
C       -1.2175331208    0.2864222761   -0.0698534441
C       -0.3706705485    1.4563216388   -0.1860858469
N        0.9120257283    1.5383055309   -0.1759468300
H        2.7128618594    0.5072873529   -0.2207486593
H        1.7640295823   -1.6884918023   -0.2135613064
H       -0.9651465740   -1.7110719921   -0.6571957682
H       -2.2413527656    0.2974715817   -0.4096813702
H       -0.7638811497    2.4808689205   -0.1926216613
C       -0.7788325492   -0.4409764212    1.0957698046
H       -1.4375158637   -1.1849135368    1.5940462832
13   
From optimize.out: Frame 9 / 24, Energy=    -286.8397144737
C        1.6219866545    0.3904775206   -0.2347745364
C        1.0492690931   -0.8529718245   -0.2336931495
C       -0.3435499835   -1.0764460667   -0.0871994500
C       -1.2321873021    0.2760866429   -0.0775981836
C       -0.3784500946    1.4513062244   -0.2027594909
N        0.9057161041    1.5323943206   -0.1851149434
H        2.7011482230    0.4959809595   -0.1756053202
H        1.7339166039   -1.6985342416   -0.1614289098
H       -0.9851414681   -1.6685283126   -0.7186167982
H       -2.2650336522    0.2685101176   -0.3889175538
H       -0.7624401001    2.4780382574   -0.1991246539
C       -0.7097793847   -0.4191138366    1.0689240443
H       -1.3354546935   -1.1771997611    1.5959089455
13   
From optimize.out: Frame 8 / 24, Energy=    -286.8216786057
C        1.6161164452    0.3826602437   -0.2145608582
C        1.0375114389   -0.8660434594   -0.2265978262
C       -0.3511949408   -1.0728826286   -0.1329598803
C       -1.2503272716    0.2606555446   -0.0711935593
C       -0.3877686806    1.4411706519   -0.2128728972
N        0.8996316541    1.5218874096   -0.1860757881
H        2.6927483759    0.4890838430   -0.1291872021
H        1.7183610466   -1.7139855697   -0.1405212677
H       -0.9821280719   -1.6259612476   -0.8099716420
H       -2.2880635995    0.2320942763   -0.3672231735
H       -0.7668635621    2.4683655623   -0.2161634949
C       -0.6663208429   -0.3791745722    1.0759325066
H       -1.2717019914   -1.1378700538    1.6313950831
13   
From optimize.out: Frame 6 / 24, Energy=    -286.7740170881
C        1.6120300928    0.3743816881   -0.1925703371
C        1.0305427802   -0.8814472077   -0.2245809410
C       -0.3525736477   -1.0751399373   -0.1870963934
C       -1.2681869051    0.2433760811   -0.0587737019
C       -0.3973523933    1.4294963413   -0.2196563678
N        0.8938474785    1.5102677027   -0.1829492617
H        2.6856752750    0.4842835240   -0.0827384162
H        1.7090477710   -1.7312122829   -0.1342431051
H       -0.9701674025   -1.5853182574   -0.9130350166
H       -2.3086787827    0.1925338547   -0.3465946777
H       -0.7742030407    2.4561854233   -0.2380778023
C       -0.6344716456   -0.3318233880    1.0987194719
H       -1.2255095797   -1.0855835418    1.6815965490
13   
From optimize.out: Frame 5 / 24, Energy=    -286.7510879796
C        1.6075314348    0.3655540793   -0.1710095272
C        1.0247359301   -0.8954828556   -0.2304191884
C       -0.3557703539   -1.0822827418   -0.2498358638
C       -1.2784539947    0.2320450974   -0.0409789620
C       -0.4075709501    1.4223022652   -0.2252180135
N        0.8879149985    1.5023899797   -0.1780034494
H        2.6770089172    0.4767058038   -0.0333806611
H        1.7003179553   -1.7465148348   -0.1301024608
H       -0.9535396990   -1.5642847097   -1.0162116781
H       -2.3202080583    0.1570556570   -0.3229993422
H       -0.7876996246    2.4459689005   -0.2625219041
C       -0.6095262258   -0.2844269616    1.1258375488
H       -1.1847403293   -1.0290296795    1.7348435018
13   
From optimize.out: Frame 3 / 24, Energy=    -286.6756499965
C        1.6027259487    0.3564349133   -0.1498858053
C        1.0195184366   -0.9084991750   -0.2410365906
C       -0.3603375933   -1.0922842121   -0.3174479874
C       -1.2838590285    0.2246142624   -0.0200704976
C       -0.4181364036    1.4180449088   -0.2300997776
N        0.8819044494    1.4969673113   -0.1720739949
H        2.6673210718    0.4673208094    0.0175984465
H        1.6917700427   -1.7604592751   -0.1268027527
H       -0.9343503033   -1.5557393635   -1.1185580010
H       -2.3259986928    0.1244497752   -0.2975875690
H       -0.8049404153    2.4371390963   -0.2882829155
C       -0.5886569556   -0.2374908575    1.1550052256
H       -1.1469605568   -0.9704981935    1.7892422196
13   
From optimize.out: Frame 2 / 24, Energy=    -286.6254313898
C        1.5978795245    0.3472827116   -0.1288564307
C        1.0143981886   -0.9213421594   -0.2523743884
C       -0.3651094615   -1.1027118865   -0.3857214488
C       -1.2885102936    0.2177920580    0.0012892975
C       -0.4287415299    1.4142441134   -0.2348708240
N        0.8758896516    1.4919287217   -0.1660010922
H        2.6574888067    0.4576703094    0.0687609221
H        1.6832610816   -1.7741771481   -0.1236364621
H       -0.9147921540   -1.5491231987   -1.2206449450
H       -2.3309004192    0.0923270798   -0.2719295280
H       -0.8227341026    2.4285336648   -0.3142130180
C       -0.5684406607   -0.1906859202    1.1844501454
H       -1.1096886315   -0.9117383456    1.8437477722
13   
From optimize.out: Frame 1 / 24, Energy=    -286.5524627724
C        1.5925394564    0.3383101884   -0.1066473426
C        1.0064297731   -0.9335833933   -0.2620098634
C       -0.3732279650   -1.1099106097   -0.4521835521
C       -1.2906168173    0.2092485110    0.0206481148
C       -0.4393360025    1.4107064103   -0.2402834845
N        0.8701900538    1.4879627435   -0.1592535864
H        2.6470845580    0.4470057915    0.1213087898
H        1.6702969056   -1.7883433734   -0.1182310586
H       -0.9002346752   -1.5384932122   -1.3206782621
H       -2.3328903607    0.0558796255   -0.2478724309
H       -0.8424792842    2.4193351422   -0.3395771746
C       -0.5431982232   -0.1437501052    1.2104005028
H       -1.0645574188   -0.8543677185    1.8943793477
13   
C5H5N+CH->C6H6N atoms 1-13 frame 110 charge -0.000 sz -1.000 sz^2 0.501
C        1.5854428903    0.3339927945   -0.0837159998
C        0.9799239292   -0.9367855488   -0.2552690018
C       -0.4035860129   -1.0901220558   -0.4805424111
C       -1.2727667602    0.1908728458    0.0178024431
C       -0.4459527415    1.4104532616   -0.2485413009
N        0.8689630900    1.4935408300   -0.1499033148
H        2.6361962856    0.4326210481    0.1649684279
H        1.6285195758   -1.8006777869   -0.0979362677
H       -0.9287263593   -1.5015184996   -1.3684322029
H       -2.3121999234    0.0002412432   -0.2447328383
H       -0.8696706243    2.4090499379   -0.3513445597
C       -0.4893559663   -0.1130942195    1.2004632359
H       -0.9767873830   -0.8285738505    1.8971837900
13   
C5H5N+CH->C6H6N atoms 1-13 frame 111 charge +0.000 sz -1.000 sz^2 0.507
C        1.5779897669    0.3306994487   -0.0607064899
C        0.9494896205   -0.9380169828   -0.2450006272
C       -0.4386620097   -1.0645500454   -0.5005430867
C       -1.2506509478    0.1704283161    0.0101523302
C       -0.4516844354    1.4109131057   -0.2573877360
N        0.8687100379    1.5011690958   -0.1400207134
H        2.6252403096    0.4174789155    0.2065516850
H        1.5806381215   -1.8125728600   -0.0744827050
H       -0.9664541257   -1.4589584193   -1.4046880900
H       -2.2866628961   -0.0593676559   -0.2461391244
H       -0.8983833774    2.3985643049   -0.3601237730
C       -0.4294971005   -0.0860728423    1.1827791292
H       -0.8800729638   -0.8097143810    1.8896092010
13   
C5H5N+CH->C6H6N atoms 1-13 frame 114 charge +0.000 sz -1.000 sz^2 0.555
C        1.5705364798    0.3274060305   -0.0376964744
C        0.9190546432   -0.9392484438   -0.2347320269
C       -0.4737387771   -1.0389774731   -0.5205442017
C       -1.2285346496    0.1499833373    0.0025020492
C       -0.4574162553    1.4113729598   -0.2662343655
N        0.8684569802    1.5087975292   -0.1301378948
H        2.6142840928    0.4023364504    0.2481358556
H        1.5327556153   -1.8244681944   -0.0510286270
H       -1.0041827210   -1.4163974040   -1.4409447735
H       -2.2611253077   -0.1189778645   -0.2475454414
H       -0.9270967613    2.3880784414   -0.3689031792
C       -0.3696369196   -0.0590508714    1.1650946340
H       -0.7833564198   -0.7908544972    1.8820344457
13   
C5H5N+CH->C6H6N atoms 1-13 frame 115 charge -0.000 sz -1.000 sz^2 0.576
C        1.5669091179    0.3162260929   -0.0176848212
C        0.9175574428   -0.9674277832   -0.2324461845
C       -0.4846602314   -1.0846418057   -0.5199328153
C       -1.2367286471    0.1619157557   -0.0091344118
C       -0.4806794528    1.4367941231   -0.2609173083
N        0.8587366823    1.5097728811   -0.1029131295
H        2.6095626488    0.3934074241    0.2722832387
H        1.5427162371   -1.8464530995   -0.0548685842
H       -1.0362609799   -1.4418929623   -1.4517595219
H       -2.2644947304   -0.1459209254   -0.2536106137
H       -0.9622609579    2.4081091434   -0.3481586811
C       -0.3301642467   -0.0003579485    1.1283631259
H       -0.7002328828   -0.7395308958    1.8507797070
13   
C5H5N+CH->C6H6N atoms 1-13 frame 116 charge +0.000 sz -1.000 sz^2 0.609
C        1.5642837612    0.3043076226   -0.0048547801
C        0.9270008874   -1.0025346659   -0.2300862212
C       -0.4833956451   -1.1558603450   -0.5108605303
C       -1.2594267366    0.1904658730   -0.0204196845
C       -0.5063951980    1.4711940096   -0.2517372673
N        0.8470505051    1.5085669836   -0.0783484976
H        2.6068919437    0.3895897464    0.2830075689
H        1.5734694294   -1.8677035174   -0.0597712531
H       -1.0561625339   -1.5042891997   -1.4491538759
H       -2.2864367888   -0.1426334628   -0.2564513858
H       -0.9903889206    2.4416424536   -0.3156707627
C       -0.3026785451    0.0572647328    1.0854050029
H       -0.6338121587   -0.6900102309    1.8089416867
13   
C5H5N+CH->C6H6N atoms 1-13 frame 118 charge +0.000 sz -1.000 sz^2 0.708
C        1.5628155543    0.2985454770   -0.0115948857
C        0.9441899810   -1.0288991431   -0.2239875502
C       -0.4662994643   -1.2280019392   -0.4953959820
C       -1.2935731373    0.2326086605   -0.0252292991
C       -0.5206099142    1.5030543434   -0.2437520119
N        0.8393568055    1.5060824823   -0.0770810216
H        2.6066111462    0.3958639263    0.2676150607
H        1.6134510010   -1.8751959408   -0.0510324773
H       -1.0437596704   -1.5992424956   -1.4288646272
H       -2.3305668480   -0.0854667605   -0.2481807531
H       -0.9894832842    2.4807609028   -0.2809571192
C       -0.3014667564    0.0774716663    1.0510509935
H       -0.6206654131   -0.6775811795    1.7674096731
13   
C5H5N+CH->C6H6N atoms 1-13 frame 119 charge +0.000 sz -1.000 sz^2 0.781
C        1.5614233901    0.2931857559   -0.0195635313
C        0.9618351718   -1.0546556537   -0.2176629984
C       -0.4482335729   -1.3000567259   -0.4795573092
C       -1.3283774357    0.2755296907   -0.0296183389
C       -0.5340659222    1.5346897431   -0.2358590799
N        0.8319320882    1.5035221262   -0.0772955481
H        2.6064821455    0.4027658703    0.2505963965
H        1.6539364081   -1.8818000335   -0.0414432931
H       -1.0293313942   -1.6960721328   -1.4074944552
H       -2.3760169446   -0.0249946310   -0.2392208374
H       -0.9867365759    2.5201554735   -0.2461718796
C       -0.3019232818    0.0952627793    1.0173112382
H       -0.6109240762   -0.6675322622    1.7259796365
13   
C5H5N+CH->C6H6N atoms 1-13 frame 120 charge +0.000 sz -1.000 sz^2 0.858
C        1.5600313614    0.2878265569   -0.0275314005
C        0.9794786436   -1.0804096551   -0.2113390628
C       -0.4301694415   -1.3721044929   -0.4637201794
C       -1.3631783434    0.3184465395   -0.0340069511
C       -0.5475206194    1.5663220608   -0.2279669169
N        0.8245080941    1.5009620194   -0.0775100537
H        2.6063531573    0.4096671419    0.2335793904
H        1.6944178710   -1.8884034828   -0.0318550432
H       -1.0149045236   -1.7928923367   -1.3861263652
H       -2.4214626134    0.0354716072   -0.2302617947
H       -0.9839901352    2.5595462065   -0.2113900289
C       -0.3023797628    0.1130521590    0.9835747699
H       -0.6011836882   -0.6574843238    1.6845536360
13   
C5H5N+CH->C6H6N atoms 1-13 frame 122 charge +0.000 sz -1.000 sz^2 1.014
C        1.5529990770    0.2819920089   -0.0228376418
C        0.9788998181   -1.1130577847   -0.2316039473
C       -0.4059984529   -1.4282311371   -0.4959784258
C       -1.3782098222    0.3629431540   -0.0527785945
C       -0.5647680539    1.6092585845   -0.2503799421
N        0.8249995327    1.5021638844   -0.0750051153
H        2.5823636686    0.4072837882    0.2764388816
H        1.7164323036   -1.8930495611   -0.0592345111
H       -0.9886547976   -1.8516764083   -1.3443263231
H       -2.4430237864    0.0470445181   -0.1758265426
H       -0.9683824804    2.6093496832   -0.2177285506
C       -0.3110400012    0.1393926859    0.9789819270
H       -0.5956170052   -0.6734134159    1.6702787855
13   
C5H5N+CH->C6H6N atoms 1-13 frame 123 charge +0.000 sz -1.000 sz^2 1.071
C        1.5378620520    0.2770432881   -0.0084228030
C        0.9631275884   -1.1323611575   -0.2649754450
C       -0.3871868491   -1.4422425771   -0.5526665790
C       -1.3679341437    0.3870908318   -0.0751292992
C       -0.5756808843    1.6423964714   -0.2867463960
N        0.8265054331    1.5086372319   -0.0721484159
H        2.5482122736    0.3960507777    0.3513867313
H        1.7145457261   -1.8977589248   -0.1132934801
H       -0.9555881809   -1.8646486868   -1.3067454181
H       -2.4205647502    0.0253042964   -0.1084991887
H       -0.9529702637    2.6488843041   -0.2594789396
C       -0.3334964765    0.1531755140    1.0010793968
H       -0.5968315246   -0.7015713694    1.6956398367
13   
C5H5N+CH->C6H6N atoms 1-13 frame 124 charge +0.000 sz -1.000 sz^2 1.110
C        1.5160184551    0.2730150749    0.0090191469
C        0.9494734307   -1.1446565182   -0.2941182263
C       -0.3645779966   -1.4488250089   -0.5998148924
C       -1.3530662389    0.4067077250   -0.0920425167
C       -0.5833129896    1.6734376977   -0.3197014384
N        0.8219414552    1.5195399285   -0.0705091540
H        2.5145758089    0.3847175226    0.4259032773
H        1.7183272261   -1.9049833430   -0.1718401477
H       -0.9334515187   -1.9089974712   -1.2944712084
H       -2.3827665767    0.0169354155   -0.0418128812
H       -0.9442397242    2.6903409766   -0.3060786792
C       -0.3641928982    0.1599033415    1.0275339769
H       -0.5947284330   -0.7171353410    1.7279327431
13   
C5H5N+CH->C6H6N atoms 1-13 frame 126 charge +0.000 sz -1.000 sz^2 1.139
C        1.4907602361    0.2710106264    0.0297531899
C        0.9403877943   -1.1511364351   -0.3167039433
C       -0.3379607214   -1.4489183293   -0.6344089407
C       -1.3337263752    0.4219320814   -0.1010519051
C       -0.5868169831    1.7012688860   -0.3472832003
N        0.8138263390    1.5340289254   -0.0695682828
H        2.4805105490    0.3744154725    0.4949231527
H        1.7277593468   -1.9106749011   -0.2292576595
H       -0.9295506199   -1.9855950766   -1.3104829114
H       -2.3402288993    0.0196436460    0.0204178920
H       -0.9403314564    2.7287694452   -0.3538021777
C       -0.3966017549    0.1626937373    1.0581912060
H       -0.5880274549   -0.7174380780    1.7592735803
13   
C5H5N+CH->C6H6N atoms 1-13 frame 127 charge +0.000 sz -1.000 sz^2 1.140
C        1.4625967424    0.2693716446    0.0536562578
C        0.9354795585   -1.1543432403   -0.3354053067
C       -0.3109024597   -1.4449098968   -0.6627161762
C       -1.3103974224    0.4340438048   -0.1035934410
C       -0.5858175434    1.7262881157   -0.3696687720
N        0.8038874956    1.5503298894   -0.0686192464
H        2.4422609185    0.3623760007    0.5569977622
H        1.7386848996   -1.9129163140   -0.2872396734
H       -0.9283251985   -2.0767097462   -1.3353900916
H       -2.3009076184    0.0317220777    0.0750199227
H       -0.9379663467    2.7609923830   -0.4008025608
C       -0.4292050224    0.1618862914    1.0915628296
H       -0.5793880032   -0.7081310101    1.7861984958
13   
C5H5N+CH->C6H6N atoms 1-13 frame 130 charge +0.000 sz -1.000 sz^2 1.110
C        1.4298276323    0.2660921423    0.0813013970
C        0.9339952732   -1.1563845556   -0.3537071644
C       -0.2860883605   -1.4390862965   -0.6917896765
C       -1.2826528590    0.4444342217   -0.1013053486
C       -0.5799286796    1.7498074511   -0.3885309909
N        0.7927117357    1.5675607757   -0.0676101400
H        2.3956961925    0.3454212367    0.6141806936
H        1.7480082609   -1.9109738043   -0.3502930084
H       -0.9140605805   -2.1669581021   -1.3527902456
H       -2.2679253625    0.0527697633    0.1216012601
H       -0.9345555626    2.7864569216   -0.4486557456
C       -0.4632799728    0.1571973506    1.1274705326
H       -0.5717477171   -0.6963371045    1.8101284366
13   
C5H5N+CH->C6H6N atoms 1-13 frame 131 charge +0.000 sz -1.000 sz^2 1.097
C        1.3912756727    0.2598688959    0.1126125008
C        0.9363687690   -1.1580534766   -0.3729603760
C       -0.2663012801   -1.4329663486   -0.7246639237
C       -1.2504902301    0.4533682707   -0.0942270867
C       -0.5681775141    1.7716157920   -0.4042916333
N        0.7809056188    1.5849896701   -0.0672603730
H        2.3395595927    0.3221389456    0.6658108892
H        1.7541240998   -1.9039031856   -0.4194887035
H       -0.8782283564   -2.2437571544   -1.3533776390
H       -2.2437596933    0.0840161579    0.1568525601
H       -0.9285961703    2.8035654132   -0.4982216187
C       -0.4986661785    0.1486481397    1.1650101084
H       -0.5680143303   -0.6895311200    1.8342052956
13   
C5H5N+CH->C6H6N atoms 1-13 frame 132 charge -0.000 sz -1.000 sz^2 1.081
C        1.3475614122    0.2503836886    0.1457752265
C        0.9426653043   -1.1594761945   -0.3930732463
C       -0.2541885997   -1.4278286514   -0.7610959251
C       -1.2158343276    0.4605267110   -0.0821743201
C       -0.5505596263    1.7903353449   -0.4167412592
N        0.7695577327    1.6015174670   -0.0687785715
H        2.2775733997    0.2939491016    0.7098054117
H        1.7571174855   -1.8919317065   -0.4917520650
H       -0.8208612617   -2.2965562409   -1.3334544516
H       -2.2292599659    0.1258038902    0.1763267179
H       -0.9199661664    2.8112751118   -0.5486281581
C       -0.5331389373    0.1373923227    1.2018468204
H       -0.5706664495   -0.6953908445    1.8619438204
13   
C5H5N+CH->C6H6N atoms 1-13 frame 134 charge +0.000 sz -1.000 sz^2 1.062
C        1.3006572894    0.2384944597    0.1782912013
C        0.9515842366   -1.1604187904   -0.4134001261
C       -0.2501268016   -1.4242448878   -0.7985147849
C       -1.1817320084    0.4655458236   -0.0652406160
C       -0.5288754726    1.8047333025   -0.4257557625
N        0.7596236125    1.6163334370   -0.0730465856
H        2.2166792423    0.2645665508    0.7458512258
H        1.7592541874   -1.8770887744   -0.5626982205
H       -0.7510695846   -2.3242109998   -1.2968961561
H       -2.2218649735    0.1762444788    0.1791050020
H       -0.9103139435    2.8108693105   -0.5981667792
C       -0.5639058571    0.1251045023    1.2362165836
H       -0.5799099271   -0.7159284128    1.8942550183
13   
C5H5N+CH->C6H6N atoms 1-13 frame 135 charge +0.000 sz -1.000 sz^2 1.049
C        1.2514660137    0.2252117517    0.2092936507
C        0.9616090036   -1.1604003671   -0.4338624708
C       -0.2527029996   -1.4217883033   -0.8345740634
C       -1.1499034366    0.4682977263   -0.0426891440
C       -0.5049323733    1.8144364391   -0.4311993651
N        0.7515640723    1.6295512962   -0.0804126061
H        2.1615570825    0.2371613662    0.7758338272
H        1.7635913604   -1.8610572943   -0.6308796461
H       -0.6791391993   -2.3347860783   -1.2505048788
H       -2.2177241126    0.2339543602    0.1670237666
H       -0.9016892344    2.8040821027   -0.6461831429
C       -0.5891536403    0.1125450094    1.2687996615
H       -0.5945425365   -0.7472080087    1.9293544113
13   
C5H5N+CH->C6H6N atoms 1-13 frame 136 charge -0.000 sz -1.000 sz^2 1.038
C        1.1996664993    0.2114070862    0.2397843393
C        0.9716898969   -1.1585435183   -0.4550317809
C       -0.2598162812   -1.4189451016   -0.8677227042
C       -1.1205247992    0.4691329623   -0.0127194230
C       -0.4797597560    1.8198652364   -0.4327901462
N        0.7459289637    1.6421231409   -0.0909012115
H        2.1135433450    0.2139217522    0.8025799642
H        1.7728741475   -1.8438477024   -0.6974844941
H       -0.6142458559   -2.3433727970   -1.2018175288
H       -2.2129478312    0.2991772589    0.1424382058
H       -0.8955648939    2.7918678160   -0.6930680665
C       -0.6076474188    0.0997739059    1.3020812356
H       -0.6131960163   -0.7825600396    1.9646516103
13   
C5H5N+CH->C6H6N atoms 1-13 frame 138 charge -0.000 sz -1.000 sz^2 1.020
C        1.1455654808    0.1979671053    0.2713015633
C        0.9810472524   -1.1537534533   -0.4775222394
C       -0.2693750631   -1.4136277578   -0.8966381833
C       -1.0935478118    0.4688733869    0.0262406363
C       -0.4542728432    1.8217803347   -0.4302025590
N        0.7440458928    1.6550350548   -0.1041409572
H        2.0719955687    0.1966073745    0.8280383561
H        1.7882631099   -1.8238490310   -0.7633097738
H       -0.5645914147   -2.3670579265   -1.1582125861
H       -2.2041714608    0.3717754658    0.1074929252
H       -0.8924570611    2.7742250561   -0.7385399831
C       -0.6179003514    0.0868293695    1.3381616658
H       -0.6346012984   -0.8148049789    1.9973311351
13   
C5H5N+CH->C6H6N atoms 1-13 frame 139 charge +0.000 sz -1.000 sz^2 1.007
C        1.0914699220    0.1854980680    0.3044541299
C        0.9887027292   -1.1455425920   -0.5015625553
C       -0.2797556687   -1.4050243487   -0.9200465866
C       -1.0699688523    0.4681761769    0.0739728001
C       -0.4303236668    1.8203908159   -0.4235933768
N        0.7480609872    1.6681338490   -0.1195152139
H        2.0356113635    0.1864342010    0.8523220215
H        1.8084504559   -1.7989473094   -0.8264701354
H       -0.5356039560   -2.4133479652   -1.1246421994
H       -2.1888991638    0.4482462640    0.0646298481
H       -0.8921636472    2.7501549025   -0.7807047644
C       -0.6180745883    0.0737326756    1.3768870253
H       -0.6575059147   -0.8379047375    2.0242690069
13   
C5H5N+CH->C6H6N atoms 1-13 frame 141 charge +0.000 sz -1.000 sz^2 0.975
C        1.0399004766    0.1735337800    0.3394479201
C        0.9937496218   -1.1346213783   -0.5275089740
C       -0.2899526467   -1.3950454210   -0.9380002830
C       -1.0509471114    0.4671442569    0.1287214783
C       -0.4100846497    1.8150388678   -0.4143113605
N        0.7601730791    1.6800702898   -0.1369833498
H        2.0012307822    0.1826401679    0.8752073539
H        1.8300900557   -1.7670676589   -0.8844339116
H       -0.5261676608   -2.4719638288   -1.1011297668
H       -2.1655984319    0.5224224999    0.0168908848
H       -0.8939539400    2.7175168295   -0.8185182771
C       -0.6072607214    0.0599623122    1.4165372022
H       -0.6811788536   -0.8496307170    2.0440810834
13   
C5H5N+CH->C6H6N atoms 1-13 frame 142 charge -0.000 sz -1.000 sz^2 0.961
C        0.9918299280    0.1608457782    0.3769484705
C        0.9955963887   -1.1220046151   -0.5562188440
C       -0.2995590184   -1.3869487773   -0.9518530604
C       -1.0369895684    0.4660074880    0.1890324649
C       -0.3946425682    1.8044862575   -0.4043828439
N        0.7824046963    1.6893247613   -0.1579007158
H        1.9646248804    0.1828267996    0.8978220364
H        1.8498512267   -1.7259693176   -0.9360387941