
Running Job 1 of 1 optimize.in
qchem optimize.in_51586.0 ./optimize.d/ 1
/home/leeping/opt/qchem/5.0.2-openmp/exe/qcprog.exe_s optimize.in_51586.0 ./optimize.d/
Check license passed

                  Welcome to Q-Chem
     A Quantum Leap Into The Future Of Chemistry


 Q-Chem 5.0, Q-Chem, Inc., Pleasanton, CA (2017)

 Yihan Shao,  Zhengting Gan,  E. Epifanovsky,  A. T. B. Gilbert,  M. Wormit,  
 J. Kussmann,  A. W. Lange,  A. Behn,  Jia Deng,  Xintian Feng,  D. Ghosh,  
 M. Goldey,  P. R. Horn,  L. D. Jacobson,  I. Kaliman,  T. Kus,  A. Landau,  
 Jie Liu,  E. I. Proynov,  R. M. Richard,  R. P. Steele,  E. J. Sundstrom,  
 H. L. Woodcock III,  P. M. Zimmerman,  D. Zuev,  B. Albrecht,  E. Alguire,  
 S. A. Baeppler,  D. Barton,  Z. Benda,  Y. A. Bernard,  E. J. Berquist,  
 K. B. Bravaya,  H. Burton,  D. Casanova,  Chun-Min Chang,  Yunqing Chen,  
 A. Chien,  K. D. Closser,  M. P. Coons,  S. Dasgupta,  A. L. Dempwolff,  
 M. Diedenhofen,  Hainam Do,  R. G. Edgar,  Po-Tung Fang,  S. Fatehi,  
 Qingguo Feng,  J. Fosso-Tande,  Qinghui Ge,  A. Ghysels,  G. Gidofalvi,  
 J. Gomes,  J. Gonthier,  A. Gunina,  M. W. D. Hanson-Heine,  
 P. H. P. Harbach,  A. W. Hauser,  J. E. Herr,  E. G. Hohenstein,  
 Z. C. Holden,  Kerwin Hui,  T.-C. Jagau,  Hyunjun Ji,  B. Kaduk,  
 K. Khistyaev,  Jaehoon Kim,  P. Klunzinger,  K. Koh,  D. Kosenkov,  
 L. Koulias,  T. Kowalczyk,  C. M. Krauter,  A. Kunitsa,  Ka Un Lao,  
 A. Laurent,  K. V. Lawler,  Joonho Lee,  D. Lefrancois,  S. Lehtola,  
 D. S. Levine,  Yi-Pei Li,  You-Sheng Lin,  Fenglai Liu,  E. Livshits,  
 A. Luenser,  P. Manohar,  E. Mansoor,  S. F. Manzer,  Shan-Ping Mao,  
 Yuezhi Mao,  N. Mardirossian,  A. V. Marenich,  T. Markovich,  
 L. A. Martinez-Martinez,  S. A. Maurer,  N. J. Mayhall,  S. C. McKenzie,  
 J.-M. Mewes,  A. F. Morrison,  J. W. Mullinax,  K. Nanda,  
 T. S. Nguyen-Beck,  R. Olivares-Amaya,  J. A. Parkhill,  T. M. Perrine,  
 F. Plasser,  S. Prager,  A. Prociuk,  E. Ramos,  D. R. Rehn,  F. Rob,  
 M. Schneider,  N. Sergueev,  S. M. Sharada,  S. Sharma,  D. W. Small,  
 T. Stauch,  T. Stein,  Yu-Chuan Su,  A. J. W. Thom,  A. Tkatchenko,  
 T. Tsuchimochi,  L. Vogt,  O. Vydrov,  M. A. Watson,  J. Wenzel,  
 M. de Wergifosse,  T. A. Wesolowski,  A. White,  J. Witte,  A. Yamada,  
 Jun Yang,  K. Yao,  S. Yeganeh,  S. R. Yost,  Zhi-Qiang You,  A. Zech,  
 Igor Ying Zhang,  Xing Zhang,  Yan Zhao,  Ying Zhu,  B. R. Brooks,  
 G. K. L. Chan,  C. J. Cramer,  M. S. Gordon,  W. J. Hehre,  A. Klamt,  
 M. W. Schmidt,  C. D. Sherrill,  D. G. Truhlar,  A. Aspuru-Guzik,  R. Baer,  
 A. T. Bell,  N. A. Besley,  Jeng-Da Chai,  R. A. DiStasio Jr.,  A. Dreuw,  
 B. D. Dunietz,  T. R. Furlani,  Chao-Ping Hsu,  Yousung Jung,  Jing Kong,  
 D. S. Lambrecht,  WanZhen Liang,  C. Ochsenfeld,  V. A. Rassolov,  
 L. V. Slipchenko,  J. E. Subotnik,  T. Van Voorhis,  J. M. Herbert,  
 A. I. Krylov,  P. M. W. Gill,  M. Head-Gordon

 Contributors to earlier versions of Q-Chem not listed above: 
 R. D. Adamson,  B. Austin,  J. Baker,  G. J. O. Beran,  K. Brandhorst,  
 S. T. Brown,  E. F. C. Byrd,  A. K. Chakraborty,  C.-L. Cheng,  
 Siu Hung Chien,  D. M. Chipman,  D. L. Crittenden,  H. Dachsel,  
 R. J. Doerksen,  A. D. Dutoi,  L. Fusti-Molnar,  W. A. Goddard III,  
 A. Golubeva-Zadorozhnaya,  S. R. Gwaltney,  G. Hawkins,  A. Heyden,  
 S. Hirata,  G. Kedziora,  F. J. Keil,  C. Kelley,  Jihan Kim,  R. A. King,  
 R. Z. Khaliullin,  P. P. Korambath,  W. Kurlancheek,  A. M. Lee,  M. S. Lee,  
 S. V. Levchenko,  Ching Yeh Lin,  D. Liotard,  R. C. Lochan,  I. Lotan,  
 P. E. Maslen,  N. Nair,  D. P. O'Neill,  D. Neuhauser,  E. Neuscamman,  
 C. M. Oana,  R. Olson,  B. Peters,  R. Peverati,  P. A. Pieniazek,  
 Y. M. Rhee,  J. Ritchie,  M. A. Rohrdanz,  E. Rosta,  N. J. Russ,  
 H. F. Schaefer III,  N. E. Schultz,  N. Shenvi,  A. C. Simmonett,  A. Sodt,  
 D. Stuck,  K. S. Thanthiriwatte,  V. Vanovschi,  Tao Wang,  A. Warshel,  
 C. F. Williams,  Q. Wu,  X. Xu,  W. Zhang

 Please cite Q-Chem as follows:
 Y. Shao et al., Mol. Phys. 113, 184-215 (2015)
 DOI: 10.1080/00268976.2014.952696

 Q-Chem 5.0.2 for Intel X86 EM64T Linux

 Parts of Q-Chem use Armadillo 5.200.1 (Boston Tea Smuggler).
 http://arma.sourceforge.net/

 Q-Chem begins on Fri Mar  4 05:46:38 2022  

Host: 
0

     Scratch files written to ./optimize.d//
 Dec517 15110_ 26548  26544 5633   
Processing $rem in /home/leeping/opt/qchem/5.0.2-openmp/config/preferences.
 MEM_STATIC 2000
 MEM_TOTAL  8000
 SYMMETRY   OFF
 SYM_IGNORE TRUE 

Checking the input file for inconsistencies... 	...done.

--------------------------------------------------------------
User input:
--------------------------------------------------------------
$molecule
0 2
C        1.6500234617    0.6054662198   -0.2623269699
C        1.2325746745   -0.7329617889   -0.3362170362
C       -0.2559647801   -0.7503191053   -0.4537266461
C       -1.3115348783    0.5419118886    0.8585487964
C       -0.5677066057    0.7997117074   -0.4520205131
N        0.6917772394    1.5248709807   -0.3214182596
H        2.6847934793    0.9219090544   -0.1378675780
H        1.8797572563   -1.6011290235   -0.2742709021
H       -0.6496916009   -1.3699829537   -1.2702100914
H       -1.8178740554    1.2180200326    1.5408240070
H       -1.1692559991    1.2031145147   -1.2759942128
C       -1.0616590323   -0.7720564340    0.8550882347
H       -1.3052391595   -1.5885550930    1.5295911710
$end

$rem
method                b3lyp
basis                 6-31g(d)
unrestricted          true
symmetry              off
sym_ignore            true
incdft                false
incfock               0
scf_convergence       8
thresh                14
jobtype               opt
scf_guess             read
scf_algorithm         diis
max_scf_cycles        100
geom_opt_tol_gradient 600
geom_opt_tol_displacement 2400
geom_opt_tol_energy   200
geom_opt_max_cycles   100
$end

--------------------------------------------------------------
 ----------------------------------------------------------------
             Standard Nuclear Orientation (Angstroms)
    I     Atom           X                Y                Z
 ----------------------------------------------------------------
    1      C       1.6500234617     0.6054662198    -0.2623269699
    2      C       1.2325746745    -0.7329617889    -0.3362170362
    3      C      -0.2559647801    -0.7503191053    -0.4537266461
    4      C      -1.3115348783     0.5419118886     0.8585487964
    5      C      -0.5677066057     0.7997117074    -0.4520205131
    6      N       0.6917772394     1.5248709807    -0.3214182596
    7      H       2.6847934793     0.9219090544    -0.1378675780
    8      H       1.8797572563    -1.6011290235    -0.2742709021
    9      H      -0.6496916009    -1.3699829537    -1.2702100914
   10      H      -1.8178740554     1.2180200326     1.5408240070
   11      H      -1.1692559991     1.2031145147    -1.2759942128
   12      C      -1.0616590323    -0.7720564340     0.8550882347
   13      H      -1.3052391595    -1.5885550930     1.5295911710
 ----------------------------------------------------------------
 Nuclear Repulsion Energy =   273.0246405426 hartrees
 There are       25 alpha and       24 beta electrons
 Requested basis set is 6-31G(d)
 There are 40 shells and 117 basis functions

 Total QAlloc Memory Limit   8000 MB
 Mega-Array Size      1956 MB
 MEM_STATIC part      2000 MB
 A cutoff of  1.0D-14 yielded    806 shell pairs
 There are      7078 function pairs
 
 -------------------------------------------------------
 OpenMP Integral Computing Module                       
 Release: version 1.0, May 2013, Q-Chem Inc. Pittsburgh 
 -------------------------------------------------------
 Integral Job Info:
 Integral job number is                      11
 Integral operator is                         1
 short-range coefficients                     0
 long-range coefficients              100000000
 Omega coefficients                           0
 if combine SR and LR in K                    0
 Integral screening is                        0
 Integral computing path is                   2
 max size of driver memory is            800000
 size of driver memory is                593474
 size of scratch memory is              2361544
 max col of scratch BK array               1296
 max len of scratch array in speh3          155
 max len of scratch index in speh4           18
 max int batch size is                      520
 min int batch size is                       52
 fixed nKL is                                52
 max L of basis functions is                  2
 order of int derivative is                   0
 number of shells is                         40
 number of basis is                         117
 number of cartesian basis is               117
 number of contracted shell pairs           806
 number of primitive shell pairs           3534
 maxK2 (contraction) of shell pair           36
 max number of K2 of shell pair               1
 max number of CS2 of shell pair             89
 max number of PS2 of shell pair            396
 mem total for path MDJ                  535308
 -------------------------------------------------------
 Smallest overlap matrix eigenvalue = 9.72E-04

 Scale SEOQF with 1.000000e-01/1.000000e-01/1.000000e-01

 Standard Electronic Orientation quadrupole field applied
 Nucleus-field energy     =     0.0000000033 hartrees
 Guess MOs from SCF MO coefficient file
 Reading MOs from coefficient file
 Reading MOs from coefficient file
 An unrestricted hybrid HF-DFT SCF calculation will be
 performed using Pulay DIIS extrapolation
 Exchange:     0.2000 Hartree-Fock + 0.0800 Slater + 0.7200 B88
 Correlation:  0.1900 VWN1RPA + 0.8100 LYP
 Using SG-1 standard quadrature grid
 SCF converges when DIIS error is below 1.0E-08
Using Q-Chem read-in guess as SCF_GUESS READ specified.

 using 4 threads for integral computing
 -------------------------------------------------------
 OpenMP Integral computing Module                
 Release: version 1.0, May 2013, Q-Chem Inc. Pittsburgh 
 -------------------------------------------------------
 -------------------------------------------------------
 OpenMP BLAS3 based DFT computing Module                
 Release: version 1.0, May 2013, Q-Chem Inc. Pittsburgh 
 -------------------------------------------------------
 ---------------------------------------
  Cycle       Energy         DIIS Error
 ---------------------------------------
    1    -286.8754359123      1.16E-09
    2    -286.8754359123      2.05E-09 Convergence criterion met
 ---------------------------------------
 <S^2> = 0.7770
 SCF time:  CPU 4.78 s  wall 1.21 s
 SCF   energy in the final basis set = -286.87543591
 Total energy in the final basis set = -286.87543591
 
 --------------------------------------------------------------
 
                    Orbital Energies (a.u.)
 --------------------------------------------------------------
 
 Alpha MOs
 -- Occupied --
-14.328 -10.217 -10.216 -10.207 -10.202 -10.200 -10.195  -0.944
 -0.837  -0.752  -0.665  -0.618  -0.554  -0.523  -0.515  -0.481
 -0.428  -0.402  -0.386  -0.355  -0.341  -0.322  -0.270  -0.253
 -0.203
 -- Virtual --
  0.012   0.030   0.114   0.130   0.143   0.147   0.160   0.166
  0.186   0.188   0.216   0.266   0.295   0.363   0.409   0.452
  0.486   0.502   0.531   0.544   0.575   0.593   0.597   0.618
  0.624   0.634   0.654   0.680   0.694   0.747   0.774   0.786
  0.813   0.825   0.839   0.855   0.860   0.876   0.909   0.928
  0.956   0.970   1.018   1.064   1.090   1.170   1.234   1.411
  1.420   1.436   1.471   1.496   1.520   1.572   1.637   1.693
  1.761   1.820   1.882   1.887   1.934   1.948   1.977   2.028
  2.051   2.143   2.174   2.211   2.222   2.265   2.309   2.353
  2.412   2.425   2.521   2.561   2.573   2.606   2.618   2.674
  2.693   2.863   2.907   2.916   2.993   3.909   4.085   4.196
  4.295   4.372   4.448   4.716
 
 Beta MOs
 -- Occupied --
-14.318 -10.219 -10.218 -10.203 -10.199 -10.198 -10.194  -0.932
 -0.831  -0.734  -0.665  -0.610  -0.549  -0.520  -0.512  -0.475
 -0.420  -0.396  -0.381  -0.343  -0.334  -0.301  -0.264  -0.246
 -- Virtual --
 -0.087   0.016   0.054   0.116   0.132   0.147   0.149   0.162
  0.168   0.190   0.193   0.222   0.270   0.297   0.368   0.414
  0.455   0.491   0.509   0.535   0.548   0.579   0.598   0.613
  0.618   0.629   0.634   0.661   0.684   0.707   0.751   0.776
  0.794   0.821   0.831   0.845   0.859   0.863   0.884   0.913
  0.931   0.962   0.975   1.025   1.070   1.094   1.176   1.238
  1.418   1.436   1.441   1.478   1.504   1.524   1.579   1.640
  1.698   1.773   1.828   1.898   1.900   1.938   1.954   1.979
  2.031   2.054   2.148   2.185   2.224   2.234   2.269   2.321
  2.357   2.417   2.431   2.534   2.570   2.584   2.616   2.626
  2.678   2.697   2.866   2.909   2.919   2.996   3.924   4.094
  4.195   4.300   4.375   4.457   4.716
 --------------------------------------------------------------
 
          Ground-State Mulliken Net Atomic Charges

     Atom                 Charge (a.u.)    Spin (a.u.)
  --------------------------------------------------------
      1 C                     0.048157      -0.231028
      2 C                    -0.114873       0.693716
      3 C                    -0.193306      -0.054124
      4 C                    -0.075725       0.031506
      5 C                    -0.062374      -0.027538
      6 N                    -0.351288       0.517069
      7 H                     0.140547       0.007449
      8 H                     0.143428      -0.032163
      9 H                     0.148104       0.025260
     10 H                     0.137422       0.003573
     11 H                     0.151538       0.025398
     12 C                    -0.104852       0.033984
     13 H                     0.133221       0.006898
  --------------------------------------------------------
  Sum of atomic charges =     0.000000
  Sum of spin   charges =     1.000000

 -----------------------------------------------------------------
                    Cartesian Multipole Moments
 -----------------------------------------------------------------
    Charge (ESU x 10^10)
                 0.0000
    Dipole Moment (Debye)
         X      -0.2911      Y      -2.1311      Z       0.0923
       Tot       2.1528
    Quadrupole Moments (Debye-Ang)
        XX     -37.4484     XY      -2.4193     YY     -43.0007
        XZ      -0.3803     YZ       0.5079     ZZ     -39.9566
    Octopole Moments (Debye-Ang^2)
       XXX       4.8075    XXY      -4.1472    XYY      -6.6590
       YYY     -31.9064    XXZ       1.8718    XYZ       0.5691
       YYZ       3.2247    XZZ      -6.7582    YZZ      -6.0900
       ZZZ       2.4538
    Hexadecapole Moments (Debye-Ang^3)
      XXXX    -343.8009   XXXY     -13.5524   XXYY     -95.1957
      XYYY     -26.3265   YYYY    -278.8029   XXXZ      47.5834
      XXYZ       4.9158   XYYZ      14.4134   YYYZ      12.5664
      XXZZ     -81.5109   XYZZ      -5.7010   YYZZ     -61.7523
      XZZZ      48.0704   YZZZ       9.4956   ZZZZ    -141.1381
 -----------------------------------------------------------------
 Calculating analytic gradient of the SCF energy
 Gradient of SCF Energy
            1           2           3           4           5           6
    1   0.0000215   0.0000224   0.0000882  -0.0001158   0.0000466  -0.0000583
    2  -0.0001042  -0.0002199  -0.0003104   0.0002891  -0.0001110   0.0004656
    3  -0.0000925  -0.0001620   0.0004399   0.0001050   0.0003612  -0.0000985
            7           8           9          10          11          12
    1  -0.0000303   0.0000536  -0.0001196  -0.0000437  -0.0000036   0.0000559
    2   0.0000896  -0.0000498  -0.0000428  -0.0000019  -0.0000044  -0.0000904
    3   0.0000327   0.0000076   0.0000244   0.0000117  -0.0000469  -0.0004069
           13
    1   0.0000831
    2   0.0000906
    3  -0.0001757
 Max gradient component =       4.656E-04
 RMS gradient           =       1.706E-04
 Gradient time:  CPU 7.43 s  wall 1.97 s
 Geometry Optimization Parameters
   NAtoms,    NIC,     NZ,  NCons,   NDum,   NFix, NCnnct, MaxDiis
       13     105       0       0       0       0       0       0


** GEOMETRY OPTIMIZATION IN DELOCALIZED INTERNAL COORDINATES **
   Searching for a Minimum

   Optimization Cycle:   1

                       Coordinates (Angstroms)
     ATOM                X               Y               Z
      1  C         1.6500234617    0.6054662198   -0.2623269699
      2  C         1.2325746745   -0.7329617889   -0.3362170362
      3  C        -0.2559647801   -0.7503191053   -0.4537266461
      4  C        -1.3115348783    0.5419118886    0.8585487964
      5  C        -0.5677066057    0.7997117074   -0.4520205131
      6  N         0.6917772394    1.5248709807   -0.3214182596
      7  H         2.6847934793    0.9219090544   -0.1378675780
      8  H         1.8797572563   -1.6011290235   -0.2742709021
      9  H        -0.6496916009   -1.3699829537   -1.2702100914
     10  H        -1.8178740554    1.2180200326    1.5408240070
     11  H        -1.1692559991    1.2031145147   -1.2759942128
     12  C        -1.0616590323   -0.7720564340    0.8550882347
     13  H        -1.3052391595   -1.5885550930    1.5295911710
   Point Group: c1    Number of degrees of freedom:    33


   Energy is   -286.875435912


 Attempting to Generate Delocalized Internal Coordinates

 33 Hessian modes will be used to form the next step
  Hessian Eigenvalues:
     0.006733    0.011666    0.014284    0.017005    0.018261    0.022867
     0.035953    0.041048    0.045177    0.059626    0.065083    0.095579
     0.105545    0.159604    0.159728    0.159903    0.159960    0.172943
     0.190473    0.228915    0.261883    0.291574    0.318729    0.339020
     0.340100    0.349043    0.351947    0.353004    0.354420    0.356160
     0.418737    0.513279    0.556237

 Minimum Search - Taking Simple RFO Step
 Searching for Lamda that Minimizes Along All modes
 Value Taken    Lamda =  -0.00000403
 Step Taken.  Stepsize is  0.006792

                             Maximum     Tolerance    Cnvgd?
         Gradient           0.000465      0.000600     YES
         Displacement       0.002977      0.002400      NO
         Energy change     *********      0.000002      NO


 New Cartesian Coordinates Obtained by Inverse Iteration

 Displacement from previous Coordinates is:  0.007329
 ----------------------------------------------------------------
             Standard Nuclear Orientation (Angstroms)
    I     Atom           X                Y                Z
 ----------------------------------------------------------------
    1      C       1.6498773297     0.6053363316    -0.2614063252
    2      C       1.2320132521    -0.7326144010    -0.3358000045
    3      C      -0.2563663173    -0.7498196624    -0.4545436273
    4      C      -1.3115480229     0.5414367578     0.8579470566
    5      C      -0.5681618042     0.7998136589    -0.4529308365
    6      N       0.6915350329     1.5243020201    -0.3212637431
    7      H       2.6848692102     0.9212056089    -0.1373903425
    8      H       1.8788878251    -1.6008833980    -0.2740313674
    9      H      -0.6491205709    -1.3694978263    -1.2713786681
   10      H      -1.8170457292     1.2177521266     1.5405782435
   11      H      -1.1698071979     1.2036636398    -1.2765442676
   12      C      -1.0612819420    -0.7722878761     0.8554763354
   13      H      -1.3038510658    -1.5884069800     1.5312875465
 ----------------------------------------------------------------
 Nuclear Repulsion Energy =   273.0455921811 hartrees
 There are       25 alpha and       24 beta electrons
 Applying Cartesian multipole field
    Component          Value
    ---------          -----
     (2,0,0)        1.00000E-11
     (0,2,0)        2.00000E-11
     (0,0,2)       -3.00000E-11
 Nucleus-field energy     =     0.0000000033 hartrees
 Requested basis set is 6-31G(d)
 There are 40 shells and 117 basis functions
 A cutoff of  1.0D-14 yielded    806 shell pairs
 There are      7078 function pairs
 Smallest overlap matrix eigenvalue = 9.72E-04
 Guess MOs from SCF MO coefficient file
 Reading MOs from coefficient file
 Reading MOs from coefficient file
 An unrestricted hybrid HF-DFT SCF calculation will be
 performed using Pulay DIIS extrapolation
 Exchange:     0.2000 Hartree-Fock + 0.0800 Slater + 0.7200 B88
 Correlation:  0.1900 VWN1RPA + 0.8100 LYP
 Using SG-1 standard quadrature grid
 SCF converges when DIIS error is below 1.0E-08
 Geometry optimization detected.  Setting ReadMinima to 0
 Setting SaveMinima to 0
Using Q-Chem read-in guess as SCF_GUESS READ specified.

 using 4 threads for integral computing
 -------------------------------------------------------
 OpenMP Integral computing Module                
 Release: version 1.0, May 2013, Q-Chem Inc. Pittsburgh 
 -------------------------------------------------------
 -------------------------------------------------------
 OpenMP BLAS3 based DFT computing Module                
 Release: version 1.0, May 2013, Q-Chem Inc. Pittsburgh 
 -------------------------------------------------------
 ---------------------------------------
  Cycle       Energy         DIIS Error
 ---------------------------------------
    1    -286.8757222405      5.01E-05
    2    -286.8754380225      8.04E-06
    3    -286.8754380407      9.11E-06
    4    -286.8754381760      1.70E-06
    5    -286.8754381797      9.77E-07
    6    -286.8754381816      3.14E-07
    7    -286.8754381819      1.16E-07
    8    -286.8754381820      3.64E-08
    9    -286.8754381820      1.68E-08
   10    -286.8754381820      1.06E-08
   11    -286.8754381820      2.85E-09 Convergence criterion met
 ---------------------------------------
 <S^2> = 0.7770
 SCF time:  CPU 26.18 s  wall 6.80 s
 SCF   energy in the final basis set = -286.87543818
 Total energy in the final basis set = -286.87543818
 
 --------------------------------------------------------------
 
                    Orbital Energies (a.u.)
 --------------------------------------------------------------
 
 Alpha MOs
 -- Occupied --
-14.328 -10.217 -10.216 -10.207 -10.202 -10.200 -10.195  -0.944
 -0.837  -0.752  -0.665  -0.618  -0.554  -0.523  -0.515  -0.481
 -0.428  -0.403  -0.386  -0.355  -0.341  -0.322  -0.270  -0.253
 -0.203
 -- Virtual --
  0.012   0.031   0.114   0.130   0.143   0.147   0.160   0.166
  0.186   0.188   0.216   0.266   0.295   0.363   0.409   0.452
  0.486   0.502   0.531   0.544   0.575   0.593   0.597   0.618
  0.624   0.634   0.655   0.680   0.695   0.747   0.773   0.786
  0.813   0.825   0.839   0.855   0.860   0.876   0.909   0.928
  0.956   0.970   1.018   1.065   1.090   1.170   1.234   1.411
  1.420   1.437   1.472   1.495   1.519   1.572   1.637   1.694
  1.761   1.821   1.883   1.887   1.934   1.948   1.977   2.028
  2.051   2.143   2.175   2.211   2.222   2.265   2.309   2.353
  2.412   2.425   2.522   2.560   2.573   2.606   2.618   2.674
  2.693   2.864   2.907   2.917   2.993   3.909   4.085   4.197
  4.295   4.372   4.448   4.716
 
 Beta MOs
 -- Occupied --
-14.318 -10.219 -10.218 -10.203 -10.199 -10.198 -10.194  -0.932
 -0.831  -0.734  -0.665  -0.610  -0.549  -0.520  -0.512  -0.475
 -0.420  -0.396  -0.381  -0.343  -0.334  -0.301  -0.264  -0.246
 -- Virtual --
 -0.087   0.016   0.054   0.116   0.132   0.147   0.149   0.162
  0.168   0.190   0.193   0.222   0.270   0.297   0.368   0.414
  0.455   0.491   0.509   0.534   0.548   0.579   0.598   0.613
  0.618   0.629   0.634   0.661   0.684   0.707   0.751   0.776
  0.794   0.821   0.831   0.845   0.859   0.863   0.884   0.913
  0.931   0.962   0.976   1.025   1.070   1.094   1.177   1.238
  1.418   1.436   1.441   1.478   1.504   1.524   1.579   1.639
  1.699   1.773   1.828   1.898   1.900   1.938   1.954   1.979
  2.031   2.053   2.148   2.185   2.225   2.234   2.269   2.321
  2.357   2.417   2.432   2.534   2.569   2.584   2.616   2.627
  2.678   2.697   2.867   2.908   2.920   2.996   3.924   4.094
  4.195   4.301   4.375   4.457   4.716
 --------------------------------------------------------------
 
          Ground-State Mulliken Net Atomic Charges

     Atom                 Charge (a.u.)    Spin (a.u.)
  --------------------------------------------------------
      1 C                     0.048301      -0.230851
      2 C                    -0.114883       0.693427
      3 C                    -0.193426      -0.054082
      4 C                    -0.075829       0.031726
      5 C                    -0.062246      -0.027617
      6 N                    -0.351378       0.517048
      7 H                     0.140588       0.007443
      8 H                     0.143352      -0.032152
      9 H                     0.148100       0.025221
     10 H                     0.137364       0.003595
     11 H                     0.151560       0.025383
     12 C                    -0.104801       0.033978
     13 H                     0.133299       0.006881
  --------------------------------------------------------
  Sum of atomic charges =    -0.000000
  Sum of spin   charges =     1.000000

 -----------------------------------------------------------------
                    Cartesian Multipole Moments
 -----------------------------------------------------------------
    Charge (ESU x 10^10)
                -0.0000
    Dipole Moment (Debye)
         X      -0.2895      Y      -2.1311      Z       0.0916
       Tot       2.1526
    Quadrupole Moments (Debye-Ang)
        XX     -37.4512     XY      -2.4185     YY     -43.0029
        XZ      -0.3778     YZ       0.5032     ZZ     -39.9484
    Octopole Moments (Debye-Ang^2)
       XXX       4.8490    XXY      -4.1381    XYY      -6.6501
       YYY     -31.8930    XXZ       1.8640    XYZ       0.5773
       YYZ       3.2253    XZZ      -6.7528    YZZ      -6.0977
       ZZZ       2.4581
    Hexadecapole Moments (Debye-Ang^3)
      XXXX    -343.6861   XXXY     -13.5336   XXYY     -95.1811
      XYYY     -26.3157   YYYY    -278.6909   XXXZ      47.5282
      XXYZ       4.9091   XYYZ      14.3937   YYYZ      12.5752
      XXZZ     -81.5017   XYZZ      -5.6879   YYZZ     -61.7260
      XZZZ      47.9902   YZZZ       9.4994   ZZZZ    -141.1486
 -----------------------------------------------------------------
 Calculating analytic gradient of the SCF energy
 Gradient of SCF Energy
            1           2           3           4           5           6
    1   0.0000558  -0.0000229   0.0000080  -0.0000452   0.0000120  -0.0000007
    2  -0.0000272   0.0000031  -0.0000299  -0.0000074   0.0000644  -0.0000127
    3   0.0000304  -0.0000594   0.0002243   0.0000018   0.0000459  -0.0000345
            7           8           9          10          11          12
    1   0.0000104   0.0000182  -0.0000370  -0.0000025  -0.0000422   0.0000357
    2   0.0000181   0.0000341   0.0000050  -0.0000344  -0.0000287   0.0000669
    3  -0.0000454  -0.0000130  -0.0000051  -0.0000137  -0.0000283  -0.0001117
           13
    1   0.0000103
    2  -0.0000511
    3   0.0000087
 Max gradient component =       2.243E-04
 RMS gradient           =       5.098E-05
 Gradient time:  CPU 7.75 s  wall 1.97 s
 Geometry Optimization Parameters
   NAtoms,    NIC,     NZ,  NCons,   NDum,   NFix, NCnnct, MaxDiis
       13     105       0       0       0       0       0       0

 Cartesian Hessian Update
 Hessian Updated using BFGS Update


** GEOMETRY OPTIMIZATION IN DELOCALIZED INTERNAL COORDINATES **
   Searching for a Minimum

   Optimization Cycle:   2

                       Coordinates (Angstroms)
     ATOM                X               Y               Z
      1  C         1.6498773297    0.6053363316   -0.2614063252
      2  C         1.2320132521   -0.7326144010   -0.3358000045
      3  C        -0.2563663173   -0.7498196624   -0.4545436273
      4  C        -1.3115480229    0.5414367578    0.8579470566
      5  C        -0.5681618042    0.7998136589   -0.4529308365
      6  N         0.6915350329    1.5243020201   -0.3212637431
      7  H         2.6848692102    0.9212056089   -0.1373903425
      8  H         1.8788878251   -1.6008833980   -0.2740313674
      9  H        -0.6491205709   -1.3694978263   -1.2713786681
     10  H        -1.8170457292    1.2177521266    1.5405782435
     11  H        -1.1698071979    1.2036636398   -1.2765442676
     12  C        -1.0612819420   -0.7722878761    0.8554763354
     13  H        -1.3038510658   -1.5884069800    1.5312875465
   Point Group: c1    Number of degrees of freedom:    33


   Energy is   -286.875438182

 Hessian Updated using BFGS Update

 33 Hessian modes will be used to form the next step
  Hessian Eigenvalues:
     0.006754    0.011425    0.014379    0.016935    0.018266    0.023695
     0.036594    0.038411    0.044665    0.060130    0.062620    0.088414
     0.104243    0.156719    0.159692    0.159808    0.160952    0.172783
     0.194860    0.239735    0.248411    0.287782    0.318849    0.338716
     0.339929    0.349009    0.352646    0.354077    0.355648    0.361932
     0.422222    0.516282    0.554388

 Minimum Search - Taking Simple RFO Step
 Searching for Lamda that Minimizes Along All modes
 Value Taken    Lamda =   0.00000000
 Step Taken.  Stepsize is  0.005087

                             Maximum     Tolerance    Cnvgd?
         Gradient           0.000100      0.000600     YES
         Displacement       0.002505      0.002400      NO
         Energy change     -0.000002      0.000002      NO


 New Cartesian Coordinates Obtained by Inverse Iteration

 Displacement from previous Coordinates is:  0.006778
 ----------------------------------------------------------------
             Standard Nuclear Orientation (Angstroms)
    I     Atom           X                Y                Z
 ----------------------------------------------------------------
    1      C       1.6493822686     0.6054315847    -0.2613163220
    2      C       1.2316998081    -0.7325597808    -0.3355951762
    3      C      -0.2565587562    -0.7498704742    -0.4553974102
    4      C      -1.3107823099     0.5413563108     0.8579312711
    5      C      -0.5684718934     0.7996530701    -0.4535632100
    6      N       0.6910650605     1.5242853725    -0.3219107119
    7      H       2.6842140604     0.9212890271    -0.1361487065
    8      H       1.8784123584    -1.6008965265    -0.2729527705
    9      H      -0.6486939211    -1.3698350139    -1.2722589853
   10      H      -1.8150202374     1.2180038187     1.5412354483
   11      H      -1.1704839203     1.2039483201    -1.2766023092
   12      C      -1.0613045191    -0.7725030533     0.8551316219
   13      H      -1.3034579986    -1.5883026555     1.5314472605
 ----------------------------------------------------------------
 Nuclear Repulsion Energy =   273.0569290872 hartrees
 There are       25 alpha and       24 beta electrons
 Applying Cartesian multipole field
    Component          Value
    ---------          -----
     (2,0,0)        1.00000E-11
     (0,2,0)        2.00000E-11
     (0,0,2)       -3.00000E-11
 Nucleus-field energy     =     0.0000000033 hartrees
 Requested basis set is 6-31G(d)
 There are 40 shells and 117 basis functions
 A cutoff of  1.0D-14 yielded    806 shell pairs
 There are      7078 function pairs
 Smallest overlap matrix eigenvalue = 9.73E-04
 Guess MOs from SCF MO coefficient file
 Reading MOs from coefficient file
 Reading MOs from coefficient file
 An unrestricted hybrid HF-DFT SCF calculation will be
 performed using Pulay DIIS extrapolation
 Exchange:     0.2000 Hartree-Fock + 0.0800 Slater + 0.7200 B88
 Correlation:  0.1900 VWN1RPA + 0.8100 LYP
 Using SG-1 standard quadrature grid
 SCF converges when DIIS error is below 1.0E-08
 Geometry optimization detected.  Setting ReadMinima to 0
 Setting SaveMinima to 0
Using Q-Chem read-in guess as SCF_GUESS READ specified.

 using 4 threads for integral computing
 -------------------------------------------------------
 OpenMP Integral computing Module                
 Release: version 1.0, May 2013, Q-Chem Inc. Pittsburgh 
 -------------------------------------------------------
 -------------------------------------------------------
 OpenMP BLAS3 based DFT computing Module                
 Release: version 1.0, May 2013, Q-Chem Inc. Pittsburgh 
 -------------------------------------------------------
 ---------------------------------------
  Cycle       Energy         DIIS Error
 ---------------------------------------
    1    -286.8754449835      3.10E-05
    2    -286.8754384553      4.42E-06
    3    -286.8754384792      4.43E-06
    4    -286.8754385117      1.32E-06
    5    -286.8754385145      6.32E-07
    6    -286.8754385153      2.10E-07
    7    -286.8754385155      6.95E-08
    8    -286.8754385155      2.36E-08
    9    -286.8754385155      1.22E-08
   10    -286.8754385155      5.01E-09 Convergence criterion met
 ---------------------------------------
 <S^2> = 0.7770
 SCF time:  CPU 23.44 s  wall 5.93 s
 SCF   energy in the final basis set = -286.87543852
 Total energy in the final basis set = -286.87543852
 
 --------------------------------------------------------------
 
                    Orbital Energies (a.u.)
 --------------------------------------------------------------
 
 Alpha MOs
 -- Occupied --
-14.328 -10.217 -10.216 -10.207 -10.203 -10.200 -10.195  -0.944
 -0.837  -0.752  -0.665  -0.618  -0.554  -0.523  -0.515  -0.481
 -0.428  -0.403  -0.386  -0.355  -0.341  -0.322  -0.270  -0.253
 -0.203
 -- Virtual --
  0.012   0.031   0.114   0.130   0.143   0.147   0.160   0.166
  0.186   0.188   0.216   0.266   0.295   0.363   0.409   0.452
  0.486   0.502   0.531   0.544   0.575   0.593   0.597   0.618
  0.624   0.634   0.655   0.680   0.695   0.747   0.773   0.786
  0.813   0.825   0.839   0.855   0.860   0.876   0.910   0.927
  0.956   0.970   1.018   1.065   1.091   1.170   1.234   1.411
  1.420   1.436   1.471   1.496   1.519   1.572   1.637   1.694
  1.761   1.821   1.883   1.887   1.935   1.948   1.977   2.028
  2.050   2.142   2.175   2.211   2.222   2.265   2.309   2.353
  2.412   2.425   2.522   2.560   2.574   2.606   2.618   2.674
  2.693   2.864   2.906   2.917   2.993   3.909   4.085   4.197
  4.295   4.373   4.448   4.716
 
 Beta MOs
 -- Occupied --
-14.318 -10.219 -10.218 -10.203 -10.199 -10.198 -10.194  -0.932
 -0.831  -0.734  -0.665  -0.610  -0.549  -0.520  -0.512  -0.475
 -0.420  -0.396  -0.381  -0.343  -0.334  -0.301  -0.264  -0.246
 -- Virtual --
 -0.087   0.016   0.054   0.116   0.132   0.147   0.149   0.162
  0.167   0.190   0.193   0.222   0.270   0.296   0.368   0.414
  0.455   0.491   0.509   0.534   0.548   0.579   0.598   0.613
  0.618   0.629   0.634   0.661   0.684   0.707   0.751   0.776
  0.794   0.821   0.831   0.845   0.859   0.863   0.884   0.913
  0.931   0.963   0.976   1.025   1.070   1.094   1.177   1.238
  1.418   1.436   1.441   1.478   1.504   1.524   1.579   1.639
  1.699   1.774   1.828   1.898   1.900   1.938   1.954   1.979
  2.031   2.053   2.148   2.185   2.225   2.234   2.269   2.322
  2.357   2.417   2.432   2.534   2.569   2.585   2.616   2.627
  2.678   2.697   2.867   2.908   2.920   2.996   3.925   4.094
  4.195   4.301   4.375   4.457   4.716
 --------------------------------------------------------------
 
          Ground-State Mulliken Net Atomic Charges

     Atom                 Charge (a.u.)    Spin (a.u.)
  --------------------------------------------------------
      1 C                     0.048314      -0.230799
      2 C                    -0.114846       0.693387
      3 C                    -0.193460      -0.054077
      4 C                    -0.075774       0.031888
      5 C                    -0.062270      -0.027628
      6 N                    -0.351355       0.516924
      7 H                     0.140560       0.007440
      8 H                     0.143366      -0.032151
      9 H                     0.148091       0.025228
     10 H                     0.137376       0.003600
     11 H                     0.151569       0.025345
     12 C                    -0.104886       0.033963
     13 H                     0.133315       0.006883
  --------------------------------------------------------
  Sum of atomic charges =    -0.000000
  Sum of spin   charges =     1.000000

 -----------------------------------------------------------------
                    Cartesian Multipole Moments
 -----------------------------------------------------------------
    Charge (ESU x 10^10)
                -0.0000
    Dipole Moment (Debye)
         X      -0.2885      Y      -2.1309      Z       0.0934
       Tot       2.1523
    Quadrupole Moments (Debye-Ang)
        XX     -37.4579     XY      -2.4184     YY     -43.0012
        XZ      -0.3730     YZ       0.5054     ZZ     -39.9453
    Octopole Moments (Debye-Ang^2)
       XXX       4.8652    XXY      -4.1380    XYY      -6.6413
       YYY     -31.8857    XXZ       1.8763    XYZ       0.5806
       YYZ       3.2407    XZZ      -6.7505    YZZ      -6.0963
       ZZZ       2.4918
    Hexadecapole Moments (Debye-Ang^3)
      XXXX    -343.5567   XXXY     -13.5316   XXYY     -95.1548
      XYYY     -26.3163   YYYY    -278.6936   XXXZ      47.5200
      XXYZ       4.9063   XYYZ      14.3877   YYYZ      12.5958
      XXZZ     -81.4839   XYZZ      -5.6895   YYZZ     -61.7288
      XZZZ      47.9334   YZZZ       9.5153   ZZZZ    -141.1748
 -----------------------------------------------------------------
 Calculating analytic gradient of the SCF energy
 Gradient of SCF Energy
            1           2           3           4           5           6
    1  -0.0000218  -0.0000153   0.0000808   0.0000431  -0.0000116  -0.0000235
    2  -0.0000046   0.0000085   0.0000423  -0.0000290   0.0000101  -0.0000351
    3  -0.0000233  -0.0000081   0.0000515   0.0000137  -0.0000245  -0.0000186
            7           8           9          10          11          12
    1  -0.0000089   0.0000115  -0.0000023  -0.0000016  -0.0000086  -0.0000475
    2   0.0000042   0.0000193   0.0000022  -0.0000112  -0.0000070   0.0000233
    3  -0.0000167  -0.0000096   0.0000015   0.0000110  -0.0000000  -0.0000056
           13
    1   0.0000057
    2  -0.0000229
    3   0.0000288
 Max gradient component =       8.078E-05
 RMS gradient           =       2.470E-05
 Gradient time:  CPU 7.77 s  wall 1.97 s
 Geometry Optimization Parameters
   NAtoms,    NIC,     NZ,  NCons,   NDum,   NFix, NCnnct, MaxDiis
       13     105       0       0       0       0       0       0

 Cartesian Hessian Update
 Hessian Updated using BFGS Update


** GEOMETRY OPTIMIZATION IN DELOCALIZED INTERNAL COORDINATES **
   Searching for a Minimum

   Optimization Cycle:   3

                       Coordinates (Angstroms)
     ATOM                X               Y               Z
      1  C         1.6493822686    0.6054315847   -0.2613163220
      2  C         1.2316998081   -0.7325597808   -0.3355951762
      3  C        -0.2565587562   -0.7498704742   -0.4553974102
      4  C        -1.3107823099    0.5413563108    0.8579312711
      5  C        -0.5684718934    0.7996530701   -0.4535632100
      6  N         0.6910650605    1.5242853725   -0.3219107119
      7  H         2.6842140604    0.9212890271   -0.1361487065
      8  H         1.8784123584   -1.6008965265   -0.2729527705
      9  H        -0.6486939211   -1.3698350139   -1.2722589853
     10  H        -1.8150202374    1.2180038187    1.5412354483
     11  H        -1.1704839203    1.2039483201   -1.2766023092
     12  C        -1.0613045191   -0.7725030533    0.8551316219
     13  H        -1.3034579986   -1.5883026555    1.5314472605
   Point Group: c1    Number of degrees of freedom:    33


   Energy is   -286.875438516

 Hessian Updated using BFGS Update

 33 Hessian modes will be used to form the next step
  Hessian Eigenvalues:
     0.008336    0.011141    0.014225    0.016594    0.018264    0.023688
     0.033026    0.037347    0.044555    0.059179    0.064457    0.083878
     0.100199    0.156429    0.159742    0.160130    0.160935    0.173328
     0.194765    0.239378    0.255331    0.290735    0.319692    0.338709
     0.339953    0.349219    0.353029    0.353984    0.357189    0.362646
     0.425122    0.516745    0.555505

 Minimum Search - Taking Simple RFO Step
 Searching for Lamda that Minimizes Along All modes
 Value Taken    Lamda =   0.00000000
 Step Taken.  Stepsize is  0.003007

                             Maximum     Tolerance    Cnvgd?
         Gradient           0.000039      0.000600     YES
         Displacement       0.001880      0.002400     YES
         Energy change     -0.000000      0.000002     YES


                       Distance Matrix (Angstroms)
             C (  1)   C (  2)   C (  3)   C (  4)   C (  5)   N (  6)
   C (  2)  1.403637
   C (  3)  2.346726  1.493173
   C (  4)  3.165343  3.084085  2.122142
   C (  5)  2.234627  2.366899  1.580606  1.528973
   N (  6)  1.329036  2.320738  2.467305  2.523008  1.459061
   H (  7)  1.089178  2.210157  3.397475  4.134313  3.270400  2.090635
   H (  8)  2.218214  1.084514  2.305566  4.004886  3.432565  3.343494
   H (  9)  3.194501  2.195299  1.097902  2.937469  2.320211  3.327769
   H ( 10)  3.953040  4.075499  3.207472  1.085823  2.389168  3.137768
   H ( 11)  3.056252  3.225840  2.308039  2.239407  1.096935  2.116463
   C ( 12)  3.239287  2.584046  1.538055  1.337338  2.104101  3.119530
   H ( 13)  4.092156  3.262693  2.397190  2.233635  3.191051  4.135367
             H (  7)   H (  8)   H (  9)   H ( 10)   H ( 11)   C ( 12)
   H (  8)  2.651311
   H (  9)  4.200985  2.727319
   H ( 10)  4.810901  4.987878  3.996621
   H ( 11)  4.029792  4.262656  2.626146  2.890646
   C ( 12)  4.228531  3.255879  2.247853  2.236279  2.909050
   H ( 13)  4.998045  3.657912  2.887423  2.852569  3.962258  1.087001

 
 Final energy is   -286.875438515504     


 ******************************
 **  OPTIMIZATION CONVERGED  **
 ******************************

                       Coordinates (Angstroms)
     ATOM                X               Y               Z
      1  C         1.6493822686    0.6054315847   -0.2613163220
      2  C         1.2316998081   -0.7325597808   -0.3355951762
      3  C        -0.2565587562   -0.7498704742   -0.4553974102
      4  C        -1.3107823099    0.5413563108    0.8579312711
      5  C        -0.5684718934    0.7996530701   -0.4535632100
      6  N         0.6910650605    1.5242853725   -0.3219107119
      7  H         2.6842140604    0.9212890271   -0.1361487065
      8  H         1.8784123584   -1.6008965265   -0.2729527705
      9  H        -0.6486939211   -1.3698350139   -1.2722589853
     10  H        -1.8150202374    1.2180038187    1.5412354483
     11  H        -1.1704839203    1.2039483201   -1.2766023092
     12  C        -1.0613045191   -0.7725030533    0.8551316219
     13  H        -1.3034579986   -1.5883026555    1.5314472605

Z-matrix Print:
$molecule
0 2
N 
C  1 1.329036
H  2 1.089178 1 119.329314
C  2 1.403637 1 116.235033 3 178.575020 0
H  4 1.084514 2 125.642089 1 -178.149422 0
C  1 1.459061 2 106.451800 3 -178.526350 0
H  6 1.096935 1 111.003074 2 -130.649083 0
C  4 1.493173 2 108.173110 1 -0.565708 0
H  8 1.097902 4 114.975702 2 129.880593 0
C  6 1.528973 1 115.189215 2 94.867058 0
H  10 1.085823 6 131.297398 1 68.761098 0
C  10 1.337338 6 94.221067 1 -109.130184 0
H  12 1.087001 10 133.984908 6 179.262575 0
$end

 
 --------------------------------------------------------------
 
                    Orbital Energies (a.u.)
 --------------------------------------------------------------
 
 Alpha MOs
 -- Occupied --
-14.328 -10.217 -10.216 -10.207 -10.203 -10.200 -10.195  -0.944
 -0.837  -0.752  -0.665  -0.618  -0.554  -0.523  -0.515  -0.481
 -0.428  -0.403  -0.386  -0.355  -0.341  -0.322  -0.270  -0.253
 -0.203
 -- Virtual --
  0.012   0.031   0.114   0.130   0.143   0.147   0.160   0.166
  0.186   0.188   0.216   0.266   0.295   0.363   0.409   0.452
  0.486   0.502   0.531   0.544   0.575   0.593   0.597   0.618
  0.624   0.634   0.655   0.680   0.695   0.747   0.773   0.786
  0.813   0.825   0.839   0.855   0.860   0.876   0.910   0.927
  0.956   0.970   1.018   1.065   1.091   1.170   1.234   1.411
  1.420   1.436   1.471   1.496   1.519   1.572   1.637   1.694
  1.761   1.821   1.883   1.887   1.935   1.948   1.977   2.028
  2.050   2.142   2.175   2.211   2.222   2.265   2.309   2.353
  2.412   2.425   2.522   2.560   2.574   2.606   2.618   2.674
  2.693   2.864   2.906   2.917   2.993   3.909   4.085   4.197
  4.295   4.373   4.448   4.716
 
 Beta MOs
 -- Occupied --
-14.318 -10.219 -10.218 -10.203 -10.199 -10.198 -10.194  -0.932
 -0.831  -0.734  -0.665  -0.610  -0.549  -0.520  -0.512  -0.475
 -0.420  -0.396  -0.381  -0.343  -0.334  -0.301  -0.264  -0.246
 -- Virtual --
 -0.087   0.016   0.054   0.116   0.132   0.147   0.149   0.162
  0.167   0.190   0.193   0.222   0.270   0.296   0.368   0.414
  0.455   0.491   0.509   0.534   0.548   0.579   0.598   0.613
  0.618   0.629   0.634   0.661   0.684   0.707   0.751   0.776
  0.794   0.821   0.831   0.845   0.859   0.863   0.884   0.913
  0.931   0.963   0.976   1.025   1.070   1.094   1.177   1.238
  1.418   1.436   1.441   1.478   1.504   1.524   1.579   1.639
  1.699   1.774   1.828   1.898   1.900   1.938   1.954   1.979
  2.031   2.053   2.148   2.185   2.225   2.234   2.269   2.322
  2.357   2.417   2.432   2.534   2.569   2.585   2.616   2.627
  2.678   2.697   2.867   2.908   2.920   2.996   3.925   4.094
  4.195   4.301   4.375   4.457   4.716
 --------------------------------------------------------------
 
          Ground-State Mulliken Net Atomic Charges

     Atom                 Charge (a.u.)    Spin (a.u.)
  --------------------------------------------------------
      1 C                     0.048314      -0.230799
      2 C                    -0.114846       0.693387
      3 C                    -0.193460      -0.054077
      4 C                    -0.075774       0.031888
      5 C                    -0.062270      -0.027628
      6 N                    -0.351355       0.516924
      7 H                     0.140560       0.007440
      8 H                     0.143366      -0.032151
      9 H                     0.148091       0.025228
     10 H                     0.137376       0.003600
     11 H                     0.151569       0.025345
     12 C                    -0.104886       0.033963
     13 H                     0.133315       0.006883
  --------------------------------------------------------
  Sum of atomic charges =    -0.000000
  Sum of spin   charges =     1.000000

 -----------------------------------------------------------------
                    Cartesian Multipole Moments
 -----------------------------------------------------------------
    Charge (ESU x 10^10)
                -0.0000
    Dipole Moment (Debye)
         X      -0.2885      Y      -2.1309      Z       0.0934
       Tot       2.1523
    Quadrupole Moments (Debye-Ang)
        XX     -37.4579     XY      -2.4184     YY     -43.0012
        XZ      -0.3730     YZ       0.5054     ZZ     -39.9453
    Octopole Moments (Debye-Ang^2)
       XXX       4.8652    XXY      -4.1380    XYY      -6.6413
       YYY     -31.8857    XXZ       1.8763    XYZ       0.5806
       YYZ       3.2407    XZZ      -6.7505    YZZ      -6.0963
       ZZZ       2.4918
    Hexadecapole Moments (Debye-Ang^3)
      XXXX    -343.5567   XXXY     -13.5316   XXYY     -95.1548
      XYYY     -26.3163   YYYY    -278.6936   XXXZ      47.5200
      XXYZ       4.9063   XYYZ      14.3877   YYYZ      12.5958
      XXZZ     -81.4839   XYZZ      -5.6895   YYZZ     -61.7288
      XZZZ      47.9334   YZZZ       9.5153   ZZZZ    -141.1748
 -----------------------------------------------------------------
Archival summary:
1\1\c8-66\OPT\ProcedureUnspecified\6-31G*\166(2)\hpark21\FriMar405:47:002022FriMar405:47:002022\0\\#,OPT,ProcedureUnspecified,6-31G*,\\0,2\N\C,1,1.32904\H,2,1.08918,1,119.329\C,2,1.40364,1,116.235,3,178.575,0\H,4,1.08451,2,125.642,1,-178.149,0\C,1,1.45906,2,106.452,3,-178.526,0\H,6,1.09694,1,111.003,2,-130.649,0\C,4,1.49317,2,108.173,1,-0.565708,0\H,8,1.0979,4,114.976,2,129.881,0\C,6,1.52897,1,115.189,2,94.8671,0\H,10,1.08582,6,131.297,1,68.7611,0\C,10,1.33734,6,94.2211,1,-109.13,0\H,12,1.087,10,133.985,6,179.263,0\\\@

 Total job time:  21.81s(wall), 81.34s(cpu) 
 Fri Mar  4 05:47:00 2022

        *************************************************************
        *                                                           *
        *  Thank you very much for using Q-Chem.  Have a nice day.  *
        *                                                           *
        *************************************************************


