13   
From optimize.out: Frame 1 / 3, Energy=    -286.8754359123
C        1.6500234617    0.6054662198   -0.2623269699
C        1.2325746745   -0.7329617889   -0.3362170362
C       -0.2559647801   -0.7503191053   -0.4537266461
C       -1.3115348783    0.5419118886    0.8585487964
C       -0.5677066057    0.7997117074   -0.4520205131
N        0.6917772394    1.5248709807   -0.3214182596
H        2.6847934793    0.9219090544   -0.1378675780
H        1.8797572563   -1.6011290235   -0.2742709021
H       -0.6496916009   -1.3699829537   -1.2702100914
H       -1.8178740554    1.2180200326    1.5408240070
H       -1.1692559991    1.2031145147   -1.2759942128
C       -1.0616590323   -0.7720564340    0.8550882347
H       -1.3052391595   -1.5885550930    1.5295911710
13   
From optimize.out: Frame 2 / 3, Energy=    -286.8754381820
C        1.6498773297    0.6053363316   -0.2614063252
C        1.2320132521   -0.7326144010   -0.3358000045
C       -0.2563663173   -0.7498196624   -0.4545436273
C       -1.3115480229    0.5414367578    0.8579470566
C       -0.5681618042    0.7998136589   -0.4529308365
N        0.6915350329    1.5243020201   -0.3212637431
H        2.6848692102    0.9212056089   -0.1373903425
H        1.8788878251   -1.6008833980   -0.2740313674
H       -0.6491205709   -1.3694978263   -1.2713786681
H       -1.8170457292    1.2177521266    1.5405782435
H       -1.1698071979    1.2036636398   -1.2765442676
C       -1.0612819420   -0.7722878761    0.8554763354
H       -1.3038510658   -1.5884069800    1.5312875465
