13   
From optimize.out: Frame 1 / 3, Energy=    -286.8754359123
C        0.0481570000   -0.2310280000   -0.0000000000
C       -0.1148730000    0.6937160000   -0.0000000000
C       -0.1933060000   -0.0541240000   -0.0000000000
C       -0.0757250000    0.0315060000    0.0000000000
C       -0.0623740000   -0.0275380000   -0.0000000000
N       -0.3512880000    0.5170690000   -0.0000000000
H        0.1405470000    0.0074490000   -0.0000000000
H        0.1434280000   -0.0321630000   -0.0000000000
H        0.1481040000    0.0252600000   -0.0000000000
H        0.1374220000    0.0035730000    0.0000000000
H        0.1515380000    0.0253980000   -0.0000000000
C       -0.1048520000    0.0339840000    0.0000000000
H        0.1332210000    0.0068980000    0.0000000000
13   
From optimize.out: Frame 2 / 3, Energy=    -286.8754381820
C        0.0483010000   -0.2308510000   -0.0000000000
C       -0.1148830000    0.6934270000   -0.0000000000
C       -0.1934260000   -0.0540820000   -0.0000000000
C       -0.0758290000    0.0317260000    0.0000000000
C       -0.0622460000   -0.0276170000   -0.0000000000
N       -0.3513780000    0.5170480000   -0.0000000000
H        0.1405880000    0.0074430000   -0.0000000000
H        0.1433520000   -0.0321520000   -0.0000000000
H        0.1481000000    0.0252210000   -0.0000000000
H        0.1373640000    0.0035950000    0.0000000000
H        0.1515600000    0.0253830000   -0.0000000000
C       -0.1048010000    0.0339780000    0.0000000000
H        0.1332990000    0.0068810000    0.0000000000
