13   
Frame   0 IRC: Energy =  -286.8764760000 ; +0.0000 kcal/mol
C       -0.0506030000   -0.0518400000   -0.0000000000
C       -0.0195320000    0.0272220000    0.0000000000
C       -0.1423000000   -0.0340800000    0.0000000000
C        0.0738920000    0.0544890000   -0.0000000000
C       -0.2521570000   -0.0377100000   -0.0000000000
N       -0.1818080000    0.0181420000   -0.0000000000
H        0.1281830000    0.0050320000   -0.0000000000
H        0.1441500000    0.0244950000    0.0000000000
H        0.1442020000    0.0164870000   -0.0000000000
H        0.1332480000    0.0028370000   -0.0000000000
H        0.1249380000    0.0008980000   -0.0000000000
C       -0.2507410000    0.9962660000    0.0000000000
H        0.1485290000   -0.0222380000    0.0000000000
13   
Frame   1 IRC: Energy =  -286.8764740000 ; +0.0013 kcal/mol
C       -0.0504590000   -0.0519070000   -0.0000000000
C       -0.0196250000    0.0272200000    0.0000000000
C       -0.1423400000   -0.0341660000    0.0000000000
C        0.0738360000    0.0545780000   -0.0000000000
C       -0.2522420000   -0.0377340000   -0.0000000000
N       -0.1817560000    0.0181770000   -0.0000000000
H        0.1281440000    0.0050370000   -0.0000000000
H        0.1441510000    0.0244960000    0.0000000000
H        0.1442050000    0.0164600000   -0.0000000000
H        0.1332640000    0.0028350000   -0.0000000000
H        0.1249400000    0.0008990000   -0.0000000000
C       -0.2506350000    0.9963490000    0.0000000000
H        0.1485190000   -0.0222430000    0.0000000000
13   
Frame   2 IRC: Energy =  -286.8764650000 ; +0.0069 kcal/mol
C       -0.0503500000   -0.0520150000   -0.0000000000
C       -0.0197810000    0.0271120000    0.0000000000
C       -0.1418350000   -0.0345050000    0.0000000000
C        0.0730850000    0.0549730000   -0.0000000000
C       -0.2520610000   -0.0378300000   -0.0000000000
N       -0.1818010000    0.0182460000   -0.0000000000
H        0.1281660000    0.0050310000   -0.0000000000
H        0.1441480000    0.0246160000    0.0000000000
H        0.1441960000    0.0164470000   -0.0000000000
H        0.1332750000    0.0028200000   -0.0000000000
H        0.1249330000    0.0009000000   -0.0000000000
C       -0.2504910000    0.9964720000    0.0000000000
H        0.1485160000   -0.0222680000    0.0000000000
13   
Frame   3 IRC: Energy =  -286.8764620000 ; +0.0088 kcal/mol
C       -0.0501890000   -0.0520700000   -0.0000000000
C       -0.0198710000    0.0271070000    0.0000000000
C       -0.1418900000   -0.0345830000    0.0000000000
C        0.0730440000    0.0550470000   -0.0000000000
C       -0.2521630000   -0.0378430000   -0.0000000000
N       -0.1817480000    0.0182740000   -0.0000000000
H        0.1281240000    0.0050360000   -0.0000000000
H        0.1441490000    0.0246200000    0.0000000000
H        0.1442000000    0.0164200000   -0.0000000000
H        0.1332910000    0.0028190000   -0.0000000000
H        0.1249380000    0.0009000000   -0.0000000000
C       -0.2503910000    0.9965440000    0.0000000000
H        0.1485050000   -0.0222720000    0.0000000000
13   
Frame   4 IRC: Energy =  -286.8764510000 ; +0.0157 kcal/mol
C       -0.0500410000   -0.0522130000   -0.0000000000
C       -0.0200820000    0.0269650000    0.0000000000
C       -0.1412800000   -0.0350230000    0.0000000000
C        0.0721170000    0.0555550000   -0.0000000000
C       -0.2519420000   -0.0379680000   -0.0000000000
N       -0.1817930000    0.0183680000   -0.0000000000
H        0.1281450000    0.0050300000   -0.0000000000
H        0.1441460000    0.0247650000    0.0000000000
H        0.1441890000    0.0164010000   -0.0000000000
H        0.1333070000    0.0027990000   -0.0000000000
H        0.1249270000    0.0009010000   -0.0000000000
C       -0.2501920000    0.9967260000    0.0000000000
H        0.1484990000   -0.0223070000    0.0000000000
13   
Frame   5 IRC: Energy =  -286.8764480000 ; +0.0176 kcal/mol
C       -0.0498660000   -0.0522520000   -0.0000000000
C       -0.0201740000    0.0269590000    0.0000000000
C       -0.1413530000   -0.0350940000    0.0000000000
C        0.0720970000    0.0556130000   -0.0000000000
C       -0.2520620000   -0.0379700000   -0.0000000000
N       -0.1817360000    0.0183860000   -0.0000000000
H        0.1280980000    0.0050350000   -0.0000000000
H        0.1441470000    0.0247700000    0.0000000000
H        0.1441920000    0.0163760000   -0.0000000000
H        0.1333240000    0.0028000000   -0.0000000000
H        0.1249350000    0.0009010000   -0.0000000000
C       -0.2500910000    0.9967920000    0.0000000000
H        0.1484860000   -0.0223150000    0.0000000000
13   
Frame   6 IRC: Energy =  -286.8764300000 ; +0.0289 kcal/mol
C       -0.0496250000   -0.0524470000   -0.0000000000
C       -0.0204740000    0.0267380000    0.0000000000
C       -0.1405540000   -0.0357160000    0.0000000000
C        0.0708200000    0.0563150000   -0.0000000000
C       -0.2517730000   -0.0381350000   -0.0000000000
N       -0.1817780000    0.0185220000   -0.0000000000
H        0.1281190000    0.0050290000   -0.0000000000
H        0.1441440000    0.0249670000    0.0000000000
H        0.1441800000    0.0163380000   -0.0000000000
H        0.1333480000    0.0027710000   -0.0000000000
H        0.1249240000    0.0009020000   -0.0000000000
C       -0.2498070000    0.9970740000    0.0000000000
H        0.1484770000   -0.0223580000    0.0000000000
13   
Frame   7 IRC: Energy =  -286.8764260000 ; +0.0314 kcal/mol
C       -0.0494380000   -0.0524400000   -0.0000000000
C       -0.0204670000    0.0266910000    0.0000000000
C       -0.1407490000   -0.0357570000    0.0000000000
C        0.0708760000    0.0563300000   -0.0000000000
C       -0.2519630000   -0.0381160000   -0.0000000000
N       -0.1816950000    0.0185200000   -0.0000000000
H        0.1280700000    0.0050370000   -0.0000000000
H        0.1441400000    0.0249870000    0.0000000000
H        0.1441890000    0.0163010000   -0.0000000000
H        0.1333630000    0.0027750000   -0.0000000000
H        0.1249310000    0.0009020000   -0.0000000000
C       -0.2497190000    0.9971340000    0.0000000000
H        0.1484620000   -0.0223640000    0.0000000000
13   
Frame   8 IRC: Energy =  -286.8763550000 ; +0.0759 kcal/mol
C       -0.0483970000   -0.0528970000   -0.0000000000
C       -0.0216400000    0.0258420000    0.0000000000
C       -0.1384680000   -0.0378490000    0.0000000000
C        0.0670610000    0.0584900000   -0.0000000000
C       -0.2512320000   -0.0385400000   -0.0000000000
N       -0.1817320000    0.0188990000   -0.0000000000
H        0.1280370000    0.0050250000   -0.0000000000
H        0.1441350000    0.0255840000    0.0000000000
H        0.1441460000    0.0161740000   -0.0000000000
H        0.1334570000    0.0026910000   -0.0000000000
H        0.1249140000    0.0009000000   -0.0000000000
C       -0.2486840000    0.9982260000    0.0000000000
H        0.1484030000   -0.0225430000    0.0000000000
13   
Frame   9 IRC: Energy =  -286.8763480000 ; +0.0803 kcal/mol
C       -0.0480760000   -0.0530930000   -0.0000000000
C       -0.0224330000    0.0260280000    0.0000000000
C       -0.1378810000   -0.0380750000    0.0000000000
C        0.0664340000    0.0586740000   -0.0000000000
C       -0.2508970000   -0.0385990000   -0.0000000000
N       -0.1818700000    0.0189330000   -0.0000000000
H        0.1279490000    0.0050050000   -0.0000000000
H        0.1441770000    0.0254900000    0.0000000000
H        0.1441390000    0.0161900000   -0.0000000000
H        0.1334870000    0.0026800000   -0.0000000000
H        0.1249500000    0.0009000000   -0.0000000000
C       -0.2484020000    0.9983890000    0.0000000000
H        0.1484250000   -0.0225210000    0.0000000000
13   
Frame  10 IRC: Energy =  -286.8763120000 ; +0.1029 kcal/mol
C       -0.0478000000   -0.0529300000   -0.0000000000
C       -0.0218910000    0.0252220000    0.0000000000
C       -0.1377990000   -0.0388150000    0.0000000000
C        0.0655000000    0.0594180000   -0.0000000000
C       -0.2511650000   -0.0386360000   -0.0000000000
N       -0.1815900000    0.0190380000   -0.0000000000
H        0.1279950000    0.0050350000   -0.0000000000
H        0.1441100000    0.0259370000    0.0000000000
H        0.1441340000    0.0160740000   -0.0000000000
H        0.1335020000    0.0026610000   -0.0000000000
H        0.1249030000    0.0008950000   -0.0000000000
C       -0.2482430000    0.9987570000    0.0000000000
H        0.1483420000   -0.0226550000    0.0000000000
13   
Frame  11 IRC: Energy =  -286.8762990000 ; +0.1111 kcal/mol
C       -0.0476440000   -0.0532440000   -0.0000000000
C       -0.0228830000    0.0254080000    0.0000000000
C       -0.1366580000   -0.0392910000    0.0000000000
C        0.0643120000    0.0598980000   -0.0000000000
C       -0.2504710000   -0.0387940000   -0.0000000000
N       -0.1818980000    0.0191290000   -0.0000000000
H        0.1279910000    0.0049940000   -0.0000000000
H        0.1441660000    0.0258840000    0.0000000000
H        0.1441160000    0.0161100000   -0.0000000000
H        0.1335320000    0.0026300000   -0.0000000000
H        0.1249250000    0.0008950000   -0.0000000000
C       -0.2478770000    0.9990210000    0.0000000000
H        0.1483890000   -0.0226380000    0.0000000000
13   
Frame  12 IRC: Energy =  -286.8762720000 ; +0.1280 kcal/mol
C       -0.0472580000   -0.0530060000   -0.0000000000
C       -0.0224070000    0.0247610000    0.0000000000
C       -0.1369350000   -0.0396800000    0.0000000000
C        0.0638960000    0.0602330000   -0.0000000000
C       -0.2508610000   -0.0387290000   -0.0000000000
N       -0.1815540000    0.0191600000   -0.0000000000
H        0.1279410000    0.0050330000   -0.0000000000
H        0.1441090000    0.0261840000    0.0000000000
H        0.1441170000    0.0160120000   -0.0000000000
H        0.1335420000    0.0026280000   -0.0000000000
H        0.1249100000    0.0008900000   -0.0000000000
C       -0.2478080000    0.9992510000    0.0000000000
H        0.1483090000   -0.0227370000    0.0000000000
13   
Frame  13 IRC: Energy =  -286.8762560000 ; +0.1381 kcal/mol
C       -0.0469880000   -0.0533470000   -0.0000000000
C       -0.0236120000    0.0249760000    0.0000000000
C       -0.1356530000   -0.0402100000    0.0000000000
C        0.0625450000    0.0607430000   -0.0000000000
C       -0.2500910000   -0.0388810000   -0.0000000000
N       -0.1818740000    0.0192560000   -0.0000000000
H        0.1279030000    0.0049880000   -0.0000000000
H        0.1441730000    0.0261050000    0.0000000000
H        0.1440950000    0.0160540000   -0.0000000000
H        0.1335810000    0.0025960000   -0.0000000000
H        0.1249470000    0.0008890000   -0.0000000000
C       -0.2473820000    0.9995500000    0.0000000000
H        0.1483560000   -0.0227200000    0.0000000000
13   
Frame  14 IRC: Energy =  -286.8762230000 ; +0.1588 kcal/mol
C       -0.0467450000   -0.0529830000   -0.0000000000
C       -0.0227520000    0.0241470000    0.0000000000
C       -0.1361760000   -0.0406380000    0.0000000000
C        0.0623310000    0.0610890000   -0.0000000000
C       -0.2506500000   -0.0387810000   -0.0000000000
N       -0.1814880000    0.0192700000   -0.0000000000
H        0.1279190000    0.0050320000   -0.0000000000
H        0.1440940000    0.0265040000    0.0000000000
H        0.1441030000    0.0159320000   -0.0000000000
H        0.1335820000    0.0025960000   -0.0000000000
H        0.1249010000    0.0008810000   -0.0000000000
C       -0.2473810000    0.9997960000    0.0000000000
H        0.1482610000   -0.0228450000    0.0000000000
13   
Frame  15 IRC: Energy =  -286.8762030000 ; +0.1713 kcal/mol
C       -0.0464060000   -0.0533290000   -0.0000000000
C       -0.0240980000    0.0243540000    0.0000000000
C       -0.1347650000   -0.0412300000    0.0000000000
C        0.0608220000    0.0616390000   -0.0000000000
C       -0.2498130000   -0.0389230000   -0.0000000000
N       -0.1818150000    0.0193690000   -0.0000000000
H        0.1278630000    0.0049850000   -0.0000000000
H        0.1441640000    0.0264180000    0.0000000000
H        0.1440750000    0.0159800000   -0.0000000000
H        0.1336280000    0.0025610000   -0.0000000000
H        0.1249490000    0.0008800000   -0.0000000000
C       -0.2469130000    1.0001280000    0.0000000000
H        0.1483070000   -0.0228340000    0.0000000000
13   
Frame  16 IRC: Energy =  -286.8761650000 ; +0.1952 kcal/mol
C       -0.0462650000   -0.0529710000   -0.0000000000
C       -0.0233180000    0.0234800000    0.0000000000
C       -0.1350200000   -0.0417700000    0.0000000000
C        0.0603210000    0.0620940000   -0.0000000000
C       -0.2501490000   -0.0388480000   -0.0000000000
N       -0.1815220000    0.0193900000   -0.0000000000
H        0.1279250000    0.0050160000   -0.0000000000
H        0.1440920000    0.0268390000    0.0000000000
H        0.1440800000    0.0158680000   -0.0000000000
H        0.1336230000    0.0025520000   -0.0000000000
H        0.1248920000    0.0008700000   -0.0000000000
C       -0.2468870000    1.0004400000    0.0000000000
H        0.1482280000   -0.0229590000    0.0000000000
13   
Frame  17 IRC: Energy =  -286.8761430000 ; +0.2090 kcal/mol
C       -0.0459160000   -0.0533230000   -0.0000000000
C       -0.0247760000    0.0237130000    0.0000000000
C       -0.1334890000   -0.0423810000    0.0000000000
C        0.0587150000    0.0626550000   -0.0000000000
C       -0.2492540000   -0.0389770000   -0.0000000000
N       -0.1818480000    0.0194870000   -0.0000000000
H        0.1278580000    0.0049650000   -0.0000000000
H        0.1441690000    0.0267280000    0.0000000000
H        0.1440430000    0.0159300000   -0.0000000000
H        0.1336770000    0.0025160000   -0.0000000000
H        0.1249520000    0.0008680000   -0.0000000000
C       -0.2464050000    1.0007690000    0.0000000000
H        0.1482750000   -0.0229510000    0.0000000000
13   
Frame  18 IRC: Energy =  -286.8760970000 ; +0.2378 kcal/mol
C       -0.0456380000   -0.0528020000   -0.0000000000
C       -0.0237480000    0.0226300000    0.0000000000
C       -0.1340940000   -0.0428810000    0.0000000000
C        0.0583960000    0.0630000000   -0.0000000000
C       -0.2497860000   -0.0388180000   -0.0000000000
N       -0.1814380000    0.0194800000   -0.0000000000
H        0.1278840000    0.0050140000   -0.0000000000
H        0.1440740000    0.0272160000    0.0000000000
H        0.1440620000    0.0157810000   -0.0000000000
H        0.1336590000    0.0025140000   -0.0000000000
H        0.1248900000    0.0008550000   -0.0000000000
C       -0.2464300000    1.0011030000    0.0000000000
H        0.1481690000   -0.0230920000    0.0000000000
13   
Frame  19 IRC: Energy =  -286.8760700000 ; +0.2548 kcal/mol
C       -0.0451550000   -0.0530430000   -0.0000000000
C       -0.0250410000    0.0227560000    0.0000000000
C       -0.1328440000   -0.0434700000    0.0000000000
C        0.0569610000    0.0634630000   -0.0000000000
C       -0.2491720000   -0.0388460000   -0.0000000000
N       -0.1816000000    0.0195470000   -0.0000000000
H        0.1277640000    0.0049770000   -0.0000000000
H        0.1441430000    0.0271280000    0.0000000000
H        0.1440280000    0.0158200000   -0.0000000000
H        0.1337290000    0.0024880000   -0.0000000000
H        0.1249640000    0.0008510000   -0.0000000000
C       -0.2459660000    1.0014180000    0.0000000000
H        0.1481890000   -0.0230870000    0.0000000000
13   
Frame  20 IRC: Energy =  -286.8760280000 ; +0.2811 kcal/mol
C       -0.0450860000   -0.0525640000   -0.0000000000
C       -0.0240780000    0.0218040000    0.0000000000
C       -0.1333740000   -0.0439250000    0.0000000000
C        0.0568070000    0.0638060000   -0.0000000000
C       -0.2495080000   -0.0387640000   -0.0000000000
N       -0.1813410000    0.0195390000   -0.0000000000
H        0.1277870000    0.0050210000   -0.0000000000
H        0.1440760000    0.0275910000    0.0000000000
H        0.1440640000    0.0157180000   -0.0000000000
H        0.1336720000    0.0024930000   -0.0000000000
H        0.1248430000    0.0008380000   -0.0000000000
C       -0.2459380000    1.0017200000    0.0000000000
H        0.1480770000   -0.0232760000    0.0000000000
13   
Frame  21 IRC: Energy =  -286.8760030000 ; +0.2968 kcal/mol
C       -0.0444450000   -0.0521130000   -0.0000000000
C       -0.0233880000    0.0213900000    0.0000000000
C       -0.1349140000   -0.0436670000    0.0000000000
C        0.0580230000    0.0633450000   -0.0000000000
C       -0.2506350000   -0.0385100000   -0.0000000000
N       -0.1807400000    0.0194460000   -0.0000000000
H        0.1275400000    0.0051040000   -0.0000000000
H        0.1440080000    0.0276770000    0.0000000000
H        0.1441010000    0.0156290000   -0.0000000000
H        0.1336700000    0.0025410000   -0.0000000000
H        0.1248300000    0.0008340000   -0.0000000000
C       -0.2460090000    1.0016720000    0.0000000000
H        0.1479600000   -0.0233450000    0.0000000000
13   
Frame  22 IRC: Energy =  -286.8756750000 ; +0.5026 kcal/mol
C       -0.0427570000   -0.0508670000   -0.0000000000
C       -0.0270150000    0.0178280000    0.0000000000
C       -0.1286010000   -0.0487730000    0.0000000000
C        0.0481980000    0.0666990000   -0.0000000000
C       -0.2468810000   -0.0377720000   -0.0000000000
N       -0.1813280000    0.0194860000   -0.0000000000
H        0.1276470000    0.0049160000   -0.0000000000
H        0.1440450000    0.0288370000    0.0000000000
H        0.1439080000    0.0155660000   -0.0000000000
H        0.1338560000    0.0023350000   -0.0000000000
H        0.1250060000    0.0007280000   -0.0000000000
C       -0.2440200000    1.0049190000    0.0000000000
H        0.1479430000   -0.0239030000    0.0000000000
13   
Frame  23 IRC: Energy =  -286.8756190000 ; +0.5378 kcal/mol
C       -0.0422760000   -0.0515630000   -0.0000000000
C       -0.0298520000    0.0186440000    0.0000000000
C       -0.1263670000   -0.0494700000    0.0000000000
C        0.0459270000    0.0672770000   -0.0000000000
C       -0.2453180000   -0.0379560000   -0.0000000000
N       -0.1820380000    0.0195590000   -0.0000000000
H        0.1274600000    0.0047960000   -0.0000000000
H        0.1442230000    0.0283110000    0.0000000000
H        0.1438860000    0.0156200000   -0.0000000000
H        0.1339550000    0.0022740000   -0.0000000000
H        0.1251640000    0.0007220000   -0.0000000000
C       -0.2428660000    1.0055740000    0.0000000000
H        0.1481030000   -0.0237880000    0.0000000000
13   
Frame  24 IRC: Energy =  -286.8751870000 ; +0.8089 kcal/mol
C       -0.0409670000   -0.0471370000   -0.0000000000
C       -0.0275910000    0.0119380000    0.0000000000
C       -0.1254950000   -0.0534690000    0.0000000000
C        0.0408740000    0.0682670000   -0.0000000000
C       -0.2449070000   -0.0354500000   -0.0000000000
N       -0.1807900000    0.0189980000   -0.0000000000
H        0.1275050000    0.0048700000   -0.0000000000
H        0.1438800000    0.0306150000    0.0000000000
H        0.1438140000    0.0153650000   -0.0000000000
H        0.1339080000    0.0022480000   -0.0000000000
H        0.1250170000    0.0005490000   -0.0000000000
C       -0.2428320000    1.0081380000    0.0000000000
H        0.1475860000   -0.0249330000    0.0000000000
13   
Frame  25 IRC: Energy =  -286.8751210000 ; +0.8503 kcal/mol
C       -0.0406640000   -0.0471840000   -0.0000000000
C       -0.0297190000    0.0119620000    0.0000000000
C       -0.1229520000   -0.0542900000    0.0000000000
C        0.0382540000    0.0688600000   -0.0000000000
C       -0.2433750000   -0.0352930000   -0.0000000000
N       -0.1812100000    0.0190080000   -0.0000000000
H        0.1274400000    0.0047940000   -0.0000000000
H        0.1439820000    0.0305400000    0.0000000000
H        0.1437350000    0.0155580000   -0.0000000000
H        0.1339700000    0.0022120000   -0.0000000000
H        0.1251220000    0.0005250000   -0.0000000000
C       -0.2422620000    1.0083390000    0.0000000000
H        0.1476800000   -0.0250310000    0.0000000000
13   
Frame  26 IRC: Energy =  -286.8748740000 ; +1.0053 kcal/mol
C       -0.0401090000   -0.0445440000   -0.0000000000
C       -0.0277030000    0.0083900000    0.0000000000
C       -0.1237020000   -0.0558210000    0.0000000000
C        0.0368880000    0.0684660000   -0.0000000000
C       -0.2437150000   -0.0335930000   -0.0000000000
N       -0.1804160000    0.0185810000   -0.0000000000
H        0.1274590000    0.0048350000   -0.0000000000
H        0.1437560000    0.0315920000    0.0000000000
H        0.1437460000    0.0153010000   -0.0000000000
H        0.1339380000    0.0022160000   -0.0000000000
H        0.1250400000    0.0004250000   -0.0000000000
C       -0.2426100000    1.0096550000    0.0000000000
H        0.1474260000   -0.0255040000    0.0000000000
13   
Frame  27 IRC: Energy =  -286.8747930000 ; +1.0561 kcal/mol
C       -0.0402410000   -0.0435960000   -0.0000000000
C       -0.0252030000    0.0072750000    0.0000000000
C       -0.1263950000   -0.0557570000    0.0000000000
C        0.0392200000    0.0677860000   -0.0000000000
C       -0.2453180000   -0.0331610000   -0.0000000000
N       -0.1797830000    0.0184270000   -0.0000000000
H        0.1274990000    0.0049100000   -0.0000000000
H        0.1435780000    0.0318020000    0.0000000000
H        0.1438110000    0.0150230000   -0.0000000000
H        0.1338870000    0.0022410000   -0.0000000000
H        0.1248970000    0.0004150000   -0.0000000000
C       -0.2430980000    1.0102350000    0.0000000000
H        0.1471460000   -0.0256000000    0.0000000000
13   
Frame  28 IRC: Energy =  -286.8742310000 ; +1.4088 kcal/mol
C       -0.0386790000   -0.0397350000   -0.0000000000
C       -0.0299550000    0.0025190000    0.0000000000
C       -0.1184120000   -0.0604160000    0.0000000000
C        0.0279690000    0.0682820000   -0.0000000000
C       -0.2399290000   -0.0294620000   -0.0000000000
N       -0.1804990000    0.0176150000   -0.0000000000
H        0.1272210000    0.0046340000   -0.0000000000
H        0.1436650000    0.0328400000    0.0000000000
H        0.1435990000    0.0153480000   -0.0000000000
H        0.1340490000    0.0021580000   -0.0000000000
H        0.1252530000    0.0001510000   -0.0000000000
C       -0.2415240000    1.0128220000    0.0000000000
H        0.1472420000   -0.0267550000    0.0000000000
13   
Frame  29 IRC: Energy =  -286.8741080000 ; +1.4859 kcal/mol
C       -0.0389370000   -0.0379700000   -0.0000000000
C       -0.0273220000    0.0003360000    0.0000000000
C       -0.1197630000   -0.0606390000    0.0000000000
C        0.0286720000    0.0676230000   -0.0000000000
C       -0.2408860000   -0.0284830000   -0.0000000000
N       -0.1797770000    0.0174090000   -0.0000000000
H        0.1273940000    0.0047300000   -0.0000000000
H        0.1434580000    0.0337020000    0.0000000000
H        0.1436090000    0.0152740000   -0.0000000000
H        0.1339670000    0.0021980000   -0.0000000000
H        0.1250750000    0.0001080000   -0.0000000000
C       -0.2425360000    1.0127440000    0.0000000000
H        0.1470460000   -0.0270320000    0.0000000000
13   
Frame  30 IRC: Energy =  -286.8738460000 ; +1.6504 kcal/mol
C       -0.0381130000   -0.0366080000   -0.0000000000
C       -0.0305900000   -0.0009330000    0.0000000000
C       -0.1156610000   -0.0626070000    0.0000000000
C        0.0233470000    0.0675120000   -0.0000000000
C       -0.2380090000   -0.0266090000   -0.0000000000
N       -0.1803910000    0.0169450000   -0.0000000000
H        0.1271400000    0.0045310000   -0.0000000000
H        0.1435790000    0.0336390000    0.0000000000
H        0.1435050000    0.0154250000   -0.0000000000
H        0.1341040000    0.0021600000   -0.0000000000
H        0.1253620000   -0.0000210000   -0.0000000000
C       -0.2414300000    1.0140660000    0.0000000000
H        0.1471560000   -0.0275010000    0.0000000000
13   
Frame  31 IRC: Energy =  -286.8736600000 ; +1.7671 kcal/mol
C       -0.0378700000   -0.0342570000   -0.0000000000
C       -0.0278400000   -0.0037300000    0.0000000000
C       -0.1173460000   -0.0630760000    0.0000000000
C        0.0238150000    0.0663960000   -0.0000000000
C       -0.2389690000   -0.0251280000   -0.0000000000
N       -0.1794820000    0.0166100000   -0.0000000000
H        0.1271050000    0.0046310000   -0.0000000000
H        0.1433360000    0.0344210000    0.0000000000
H        0.1435530000    0.0152400000   -0.0000000000
H        0.1340150000    0.0021990000   -0.0000000000
H        0.1252230000   -0.0000880000   -0.0000000000
C       -0.2424030000    1.0146450000    0.0000000000
H        0.1468640000   -0.0278630000    0.0000000000
13   
Frame  32 IRC: Energy =  -286.8734260000 ; +1.9139 kcal/mol
C       -0.0374640000   -0.0332100000   -0.0000000000
C       -0.0308320000   -0.0045040000    0.0000000000
C       -0.1134790000   -0.0646930000    0.0000000000
C        0.0191280000    0.0662210000   -0.0000000000
C       -0.2362510000   -0.0233390000   -0.0000000000
N       -0.1802180000    0.0161720000   -0.0000000000
H        0.1269870000    0.0044170000   -0.0000000000
H        0.1434580000    0.0343140000    0.0000000000
H        0.1434100000    0.0154250000   -0.0000000000
H        0.1341430000    0.0021610000   -0.0000000000
H        0.1254980000   -0.0002080000   -0.0000000000
C       -0.2413870000    1.0155450000    0.0000000000
H        0.1470070000   -0.0282990000    0.0000000000
13   
Frame  33 IRC: Energy =  -286.8724980000 ; +2.4962 kcal/mol
C       -0.0365950000   -0.0244670000   -0.0000000000
C       -0.0287610000   -0.0131680000    0.0000000000
C       -0.1099510000   -0.0681430000    0.0000000000
C        0.0119990000    0.0619530000   -0.0000000000
C       -0.2338480000   -0.0153970000   -0.0000000000
N       -0.1792340000    0.0143670000   -0.0000000000
H        0.1269400000    0.0042830000   -0.0000000000
H        0.1430150000    0.0363270000    0.0000000000
H        0.1433460000    0.0153710000   -0.0000000000
H        0.1341650000    0.0022690000   -0.0000000000
H        0.1255290000   -0.0006310000   -0.0000000000
C       -0.2432540000    1.0172450000    0.0000000000
H        0.1466490000   -0.0300090000    0.0000000000
13   
Frame  34 IRC: Energy =  -286.8723370000 ; +2.5973 kcal/mol
C       -0.0360280000   -0.0230180000   -0.0000000000
C       -0.0264750000   -0.0149480000    0.0000000000
C       -0.1095200000   -0.0688500000    0.0000000000
C        0.0126480000    0.0614640000   -0.0000000000
C       -0.2351010000   -0.0146750000   -0.0000000000
N       -0.1788300000    0.0142310000   -0.0000000000
H        0.1270370000    0.0043390000   -0.0000000000
H        0.1427570000    0.0369690000    0.0000000000
H        0.1432390000    0.0156210000   -0.0000000000
H        0.1340740000    0.0022580000   -0.0000000000
H        0.1254130000   -0.0006470000   -0.0000000000
C       -0.2454820000    1.0175390000    0.0000000000
H        0.1462690000   -0.0302820000    0.0000000000
13   
Frame  35 IRC: Energy =  -286.8714900000 ; +3.1288 kcal/mol
C       -0.0354990000   -0.0160910000   -0.0000000000
C       -0.0293180000   -0.0203210000    0.0000000000
C       -0.1044570000   -0.0711390000    0.0000000000
C        0.0027470000    0.0566560000   -0.0000000000
C       -0.2296750000   -0.0061520000   -0.0000000000
N       -0.1788140000    0.0123920000   -0.0000000000
H        0.1266770000    0.0039900000   -0.0000000000
H        0.1427590000    0.0375190000    0.0000000000
H        0.1431970000    0.0153430000   -0.0000000000
H        0.1342850000    0.0023830000   -0.0000000000
H        0.1258270000   -0.0011200000   -0.0000000000
C       -0.2442640000    1.0182600000    0.0000000000
H        0.1465360000   -0.0317210000    0.0000000000
13   
Frame  36 IRC: Energy =  -286.8712750000 ; +3.2637 kcal/mol
C       -0.0353830000   -0.0140910000   -0.0000000000
C       -0.0268160000   -0.0224480000    0.0000000000
C       -0.1051100000   -0.0718000000    0.0000000000
C        0.0036610000    0.0556960000   -0.0000000000
C       -0.2306490000   -0.0048560000   -0.0000000000
N       -0.1786560000    0.0120820000   -0.0000000000
H        0.1269290000    0.0039980000   -0.0000000000
H        0.1425110000    0.0383160000    0.0000000000
H        0.1432150000    0.0153530000   -0.0000000000
H        0.1342270000    0.0023890000   -0.0000000000
H        0.1256180000   -0.0011730000   -0.0000000000
C       -0.2458480000    1.0186050000    0.0000000000
H        0.1463010000   -0.0320710000    0.0000000000
13   
Frame  37 IRC: Energy =  -286.8701440000 ; +3.9734 kcal/mol
C       -0.0336940000   -0.0049830000   -0.0000000000
C       -0.0294550000   -0.0286140000    0.0000000000
C       -0.0977080000   -0.0739710000    0.0000000000
C       -0.0073260000    0.0484570000   -0.0000000000
C       -0.2254200000    0.0069490000   -0.0000000000
N       -0.1783270000    0.0097680000   -0.0000000000
H        0.1265840000    0.0035870000   -0.0000000000
H        0.1423430000    0.0388530000    0.0000000000
H        0.1430110000    0.0152220000   -0.0000000000
H        0.1344590000    0.0025670000   -0.0000000000
H        0.1261450000   -0.0017820000   -0.0000000000
C       -0.2468730000    1.0175800000    0.0000000000
H        0.1462590000   -0.0336330000    0.0000000000
13   
Frame  38 IRC: Energy =  -286.8699070000 ; +4.1221 kcal/mol
C       -0.0328480000   -0.0049080000   -0.0000000000
C       -0.0314120000   -0.0284600000    0.0000000000
C       -0.0925640000   -0.0754780000    0.0000000000
C       -0.0106310000    0.0485290000   -0.0000000000
C       -0.2247000000    0.0081180000   -0.0000000000
N       -0.1793270000    0.0093740000   -0.0000000000
H        0.1264000000    0.0034020000   -0.0000000000
H        0.1424520000    0.0384240000    0.0000000000
H        0.1428640000    0.0157370000   -0.0000000000
H        0.1344480000    0.0025000000   -0.0000000000
H        0.1264860000   -0.0018440000   -0.0000000000
C       -0.2474550000    1.0185200000    0.0000000000
H        0.1462860000   -0.0339130000    0.0000000000
13   