13   
Frame   0 IRC: Energy =  -286.8764760000 ; +0.0000 kcal/mol
C        1.4731537715    0.4353056382   -0.3602869158
C        0.8918625603   -0.7821237417    0.2299101613
C       -0.7448770212   -0.8167797289    0.1560221046
C       -1.3097990373    0.4472149195   -0.3413355092
C       -0.5450485139    1.5428957205   -0.5655089561
N        0.8476419844    1.5292068480   -0.6388755411
H        2.5257322127    0.3799889962   -0.6446383605
H        1.4575968164   -1.6964639705    0.0419893326
H       -1.2444382515   -1.7415090924   -0.1366772498
H       -2.3796792055    0.4832094823   -0.5291522961
H       -1.0004169054    2.4876161052   -0.8463188491
C        0.0160460007   -0.7871998898    1.4019463193
H        0.0122255892   -1.4813612868    2.2329257594
13   
Frame   1 IRC: Energy =  -286.8764740000 ; +0.0013 kcal/mol
C        1.4730651479    0.4353258383   -0.3604638419
C        0.8919782688   -0.7820850176    0.2299946121
C       -0.7448310982   -0.8169673890    0.1556496778
C       -1.3096499670    0.4472123731   -0.3414106188
C       -0.5450613963    1.5427122594   -0.5652817384
N        0.8477132713    1.5290458593   -0.6390221826
H        2.5256896735    0.3797611730   -0.6451858431
H        1.4577092768   -1.6963898763    0.0424576987
H       -1.2440662347   -1.7417223397   -0.1372211328
H       -2.3797234449    0.4831915433   -0.5289392872
H       -1.0004396848    2.4877807090   -0.8456467545
C        0.0157991529   -0.7870786971    1.4019487275
H        0.0118170346   -1.4807864359    2.2331206833
13   
Frame   2 IRC: Energy =  -286.8764650000 ; +0.0069 kcal/mol
C        1.4732648181    0.4350139582   -0.3609528141
C        0.8920201885   -0.7818744165    0.2303834831
C       -0.7444304410   -0.8174548815    0.1547767826
C       -1.3096428614    0.4468348266   -0.3416006898
C       -0.5449450662    1.5428007143   -0.5647808138
N        0.8476499447    1.5288571039   -0.6395024834
H        2.5254326441    0.3791258725   -0.6467039231
H        1.4580997327   -1.6962624668    0.0437617481
H       -1.2430466350   -1.7424056564   -0.1388319237
H       -2.3797076758    0.4831625546   -0.5282819467
H       -1.0004197042    2.4880432628   -0.8436510612
C        0.0150879393   -0.7866209307    1.4015786601
H        0.0106371160   -1.4792199410    2.2338049820
13   
Frame   3 IRC: Energy =  -286.8764620000 ; +0.0088 kcal/mol
C        1.4731677480    0.4350468076   -0.3611293467
C        0.8921262183   -0.7818315690    0.2304707806
C       -0.7443817821   -0.8176469652    0.1544074303
C       -1.3094804617    0.4468483068   -0.3416755379
C       -0.5449768069    1.5426058247   -0.5645547677
N        0.8477412430    1.5286820809   -0.6396451961
H        2.5253950366    0.3789028156   -0.6472397705
H        1.4582112826   -1.6961967584    0.0442169983
H       -1.2426789050   -1.7426225181   -0.1393753513
H       -2.3797598259    0.4831451095   -0.5280655083
H       -1.0004438492    2.4882073747   -0.8429872524
C        0.0148488215   -0.7864880062    1.4015680866
H        0.0102312806   -1.4786525029    2.2340094352
13   
Frame   4 IRC: Energy =  -286.8764510000 ; +0.0157 kcal/mol
C        1.4733936687    0.4346633938   -0.3617599421
C        0.8921980277   -0.7815750854    0.2309359871
C       -0.7438820476   -0.8182737513    0.1532604523
C       -1.3094486472    0.4463711269   -0.3419215712
C       -0.5448210926    1.5426685689   -0.5639094783
N        0.8476608868    1.5284292161   -0.6402701371
H        2.5250703571    0.3780909235   -0.6491610716
H        1.4586854167   -1.6960265479    0.0458829618
H       -1.2413344147   -1.7434880167   -0.1414579363
H       -2.3797424402    0.4831089688   -0.5271820472
H       -1.0004125262    2.4885401083   -0.8404143052
C        0.0139285269   -0.7859291998    1.4011094514
H        0.0087042847   -1.4765797049    2.2348876366
13   
Frame   5 IRC: Energy =  -286.8764480000 ; +0.0176 kcal/mol
C        1.4732818752    0.4347083569   -0.3619378057
C        0.8922984713   -0.7815281752    0.2310199487
C       -0.7438342568   -0.8184684432    0.1529064275
C       -1.3092709248    0.4463791756   -0.3419943267
C       -0.5448717053    1.5424488335   -0.5636826870
N        0.8477784802    1.5282446505   -0.6404114821
H        2.5250307052    0.3778745204   -0.6496801760
H        1.4587891801   -1.6959634399    0.0463290798
H       -1.2409552956   -1.7436825872   -0.1419909037
H       -2.3797972047    0.4830947066   -0.5269599238
H       -1.0004356118    2.4887086669   -0.8397603786
C        0.0136838948   -0.7858098475    1.4010718544
H        0.0083023924   -1.4760064173    2.2350903733
13   
Frame   6 IRC: Energy =  -286.8764300000 ; +0.0289 kcal/mol
C        1.4735814901    0.4341957332   -0.3628267106
C        0.8924113292   -0.7811979825    0.2316551127
C       -0.7431183005   -0.8193917679    0.1512015682
C       -1.3091933916    0.4457605553   -0.3423546672
C       -0.5446669602    1.5424942513   -0.5627672527
N        0.8476815125    1.5278408251   -0.6413055713
H        2.5246257469    0.3767307003   -0.6523762690
H        1.4594373220   -1.6957372807    0.0486505892
H       -1.2390382766   -1.7449689234   -0.1449982833
H       -2.3798117954    0.4830520845   -0.5256450883
H       -1.0004158208    2.4892088780   -0.8361022945
C        0.0123857760   -0.7849894691    1.4004879533
H        0.0061213684   -1.4729976043    2.2363809136
13   
Frame   7 IRC: Energy =  -286.8764260000 ; +0.0314 kcal/mol
C        1.4734393308    0.4342721405   -0.3630117031
C        0.8924609007   -0.7811932279    0.2318056676
C       -0.7431012201   -0.8195618391    0.1507792175
C       -1.3090172233    0.4458096481   -0.3424291777
C       -0.5447527994    1.5422637200   -0.5625467373
N        0.8478100244    1.5276607980   -0.6414441224
H        2.5246364864    0.3765161043   -0.6528978927
H        1.4595448367   -1.6956820354    0.0490813225
H       -1.2386696438   -1.7452005536   -0.1455433927
H       -2.3798501003    0.4830334824   -0.5254094767
H       -1.0004304310    2.4893554374   -0.8354448570
C        0.0122094307   -0.7848488472    1.4004639400
H        0.0057204082   -1.4724248275    2.2365972122
13   
Frame   8 IRC: Energy =  -286.8763550000 ; +0.0759 kcal/mol
C        1.4741599934    0.4328165218   -0.3659806585
C        0.8928840368   -0.7802066688    0.2334372950
C       -0.7406830599   -0.8228065028    0.1449155526
C       -1.3084089830    0.4438633981   -0.3436084213
C       -0.5442057888    1.5417905224   -0.5595064362
N        0.8477968044    1.5260476436   -0.6444563806
H        2.5234706703    0.3728816014   -0.6612347449
H        1.4613893799   -1.6950121451    0.0563280294
H       -1.2319917080   -1.7493933115   -0.1557153760
H       -2.3800808020    0.4828673748   -0.5203369820
H       -1.0003644711    2.4909909552   -0.8233126224
C        0.0078350717   -0.7822176267    1.3984095234
H       -0.0018011437   -1.4616217625    2.2410612216
13   
Frame   9 IRC: Energy =  -286.8763480000 ; +0.0803 kcal/mol
C        1.4742190282    0.4328281957   -0.3661500285
C        0.8934312975   -0.7797657776    0.2329551740
C       -0.7405391314   -0.8231038505    0.1445815122
C       -1.3082249777    0.4437316292   -0.3436713138
C       -0.5441300668    1.5415461397   -0.5592225122
N        0.8480119974    1.5254933609   -0.6446013673
H        2.5230946747    0.3726190808   -0.6617430927
H        1.4614927766   -1.6950155206    0.0568549038
H       -1.2315086828   -1.7496493094   -0.1564212145
H       -2.3801916768    0.4828643046   -0.5199856605
H       -1.0004945281    2.4913389467   -0.8225129550
C        0.0071858261   -0.7818319235    1.3982649486
H       -0.0023465371   -1.4610552761    2.2416516058
13   
Frame  10 IRC: Energy =  -286.8763120000 ; +0.1029 kcal/mol
C        1.4743127235    0.4322243591   -0.3675566870
C        0.8928850825   -0.7799366073    0.2345237005
C       -0.7394776049   -0.8244814561    0.1417200188
C       -1.3079987352    0.4430003970   -0.3442327366
C       -0.5440584940    1.5414026565   -0.5579376425
N        0.8478598301    1.5252393303   -0.6460292743
H        2.5231061749    0.3710195497   -0.6655125225
H        1.4622926559   -1.6946446609    0.0599976751
H       -1.2284785999   -1.7515968610   -0.1610389253
H       -2.3801998800    0.4827654797   -0.5175762333
H       -1.0002693391    2.4917302827   -0.8169973258
C        0.0057667759   -0.7809527564    1.3973833471
H       -0.0057405896   -1.4557697133    2.2432566059
13   
Frame  11 IRC: Energy =  -286.8762990000 ; +0.1111 kcal/mol
C        1.4747649867    0.4318165427   -0.3678408421
C        0.8934937819   -0.7792867582    0.2339805893
C       -0.7390932523   -0.8249942071    0.1410968716
C       -1.3079133453    0.4425943196   -0.3443507144
C       -0.5438020950    1.5412609154   -0.5575045162
N        0.8478595570    1.5247663596   -0.6464166381
H        2.5224832834    0.3705579673   -0.6664308007
H        1.4625079366   -1.6946480199    0.0609247399
H       -1.2275880420   -1.7521038928   -0.1623791602
H       -2.3802982505    0.4827631342   -0.5168618598
H       -1.0004084564    2.4921865085   -0.8154643346
C        0.0047561696   -0.7803389657    1.3970149475
H       -0.0067622736   -1.4545739036    2.2442317178
13   
Frame  12 IRC: Energy =  -286.8762720000 ; +0.1280 kcal/mol
C        1.4745196091    0.4317252026   -0.3688464289
C        0.8930752132   -0.7795485281    0.2351229118
C       -0.7384304090   -0.8259032672    0.1390821382
C       -1.3076959258    0.4421663848   -0.3447275020
C       -0.5438556312    1.5411004560   -0.5566457541
N        0.8479605249    1.5243977781   -0.6473303439
H        2.5226663762    0.3694891101   -0.6689557267
H        1.4630099158   -1.6943866057    0.0629986520
H       -1.2255223395   -1.7534329694   -0.1655128706
H       -2.3803119843    0.4826880332   -0.5151722065
H       -1.0002303860    2.4923903298   -0.8117396935
C        0.0038837841   -0.7798032284    1.3964695840
H       -0.0090687476   -1.4508826959    2.2452572403
13   
Frame  13 IRC: Energy =  -286.8762560000 ; +0.1381 kcal/mol
C        1.4749533039    0.4313554413   -0.3691884848
C        0.8938177561   -0.7788078246    0.2344528710
C       -0.7379807989   -0.8265236204    0.1383766825
C       -1.3075535659    0.4417017490   -0.3448612849
C       -0.5435848662    1.5408907669   -0.5561400160
N        0.8480628628    1.5237454011   -0.6477599267
H        2.5219652564    0.3689651661   -0.6699895136
H        1.4632351799   -1.6943880496    0.0640491026
H       -1.2244775036   -1.7540027203   -0.1670672472
H       -2.3804612190    0.4826883151   -0.5143189276
H       -1.0004045459    2.4929380642   -0.8099761718
C        0.0026885844   -0.7791133460    1.3960448936
H       -0.0102604441   -1.4494493429    2.2463780229
13   
Frame  14 IRC: Energy =  -286.8762230000 ; +0.1588 kcal/mol
C        1.4747786768    0.4310851106   -0.3702860073
C        0.8931159538   -0.7792362935    0.2359272536
C       -0.7372415698   -0.8275177019    0.1360493491
C       -1.3073072340    0.4413315789   -0.3453007236
C       -0.5436798399    1.5406692462   -0.5552062198
N        0.8479768008    1.5236242123   -0.6488396132
H        2.5222867108    0.3677989112   -0.6727479471
H        1.4637808720   -1.6941012021    0.0662837598
H       -1.2221680875   -1.7555155181   -0.1705793103
H       -2.3804396447    0.4825916382   -0.5123537349
H       -1.0001442021    2.4930541157   -0.8058232407
C        0.0018847264   -0.7785736898    1.3954243580
H       -0.0128431625   -1.4452104078    2.2474520764
13   
Frame  15 IRC: Energy =  -286.8762030000 ; +0.1713 kcal/mol
C        1.4752244928    0.4307059378   -0.3706974144
C        0.8939321930   -0.7784371967    0.2351935526
C       -0.7367010376   -0.8282559407    0.1352328425
C       -1.3071319643    0.4407780188   -0.3454529825
C       -0.5433876039    1.5404193998   -0.5546284729
N        0.8481493355    1.5228527687   -0.6493386611
H        2.5215238216    0.3672054080   -0.6739201709
H        1.4640200621   -1.6940955726    0.0674720957
H       -1.2209390699   -1.7561667045   -0.1723959277
H       -2.3806308723    0.4825947108   -0.5113218591
H       -1.0003394749    2.4936744254   -0.8037751998
C        0.0005201063   -0.7778185146    1.3949203328
H       -0.0142399884   -1.4434567401    2.2487118649
13   
Frame  16 IRC: Energy =  -286.8761650000 ; +0.1952 kcal/mol
C        1.4752602269    0.4302399106   -0.3718281946
C        0.8932442458   -0.7787798965    0.2365762941
C       -0.7358581996   -0.8293207719    0.1327393910
C       -1.3069707940    0.4402714842   -0.3459039446
C       -0.5433773248    1.5402686517   -0.5536627669
N        0.8479223532    1.5227757068   -0.6505272506
H        2.5217552502    0.3659768952   -0.6767583489
H        1.4645819380   -1.6938346563    0.0698035737
H       -1.2184462372   -1.7578091627   -0.1762019007
H       -2.3805744780    0.4824911403   -0.5091043590
H       -1.0000636615    2.4937731734   -0.7993219153
C       -0.0004254250   -0.7771601887    1.3941883458
H       -0.0170478939   -1.4388922861    2.2500010760
13   
Frame  17 IRC: Energy =  -286.8761430000 ; +0.2090 kcal/mol
C        1.4757249454    0.4298510209   -0.3722270675
C        0.8941301775   -0.7779523425    0.2357377685
C       -0.7352555724   -0.8301209742    0.1320046564
C       -1.3068167945    0.4396303735   -0.3460409248
C       -0.5430330434    1.5400149600   -0.5530845062
N        0.8481796747    1.5219633269   -0.6510319053
H        2.5209328446    0.3654093742   -0.6778642055
H        1.4647845555   -1.6938236767    0.0709589599
H       -1.2172064059   -1.7584133973   -0.1780147785
H       -2.3808239619    0.4825055253   -0.5080442106
H       -1.0002989571    2.4944537053   -0.7973072501
C       -0.0018641887   -0.7764214128    1.3936524162
H       -0.0184532739   -1.4370964826    2.2512610473
13   
Frame  18 IRC: Energy =  -286.8760970000 ; +0.2378 kcal/mol
C        1.4755448354    0.4295614990   -0.3735119293
C        0.8932566262   -0.7784483238    0.2373719170
C       -0.7344313925   -0.8312111473    0.1291239604
C       -1.3065650036    0.4392019976   -0.3465218381
C       -0.5431528066    1.5397959738   -0.5520432008
N        0.8479650500    1.5217643152   -0.6522898495
H        2.5213968734    0.3640675869   -0.6809228266
H        1.4653671529   -1.6935515731    0.0734282497
H       -1.2144562013   -1.7602748175   -0.1822249623
H       -2.3806881371    0.4823676262   -0.5055033045
H       -0.9999210954    2.4944038652   -0.7924237213
C       -0.0027679001   -0.7757050505    1.3928815126
H       -0.0215480012   -1.4319719517    2.2526359927
13   
Frame  19 IRC: Energy =  -286.8760700000 ; +0.2548 kcal/mol
C        1.4758110810    0.4293116122   -0.3740342325
C        0.8940621778   -0.7777530792    0.2367168424
C       -0.7337298531   -0.8322278606    0.1281613263
C       -1.3062801968    0.4386096307   -0.3467020851
C       -0.5428915077    1.5393837459   -0.5513022748
N        0.8484542281    1.5208428320   -0.6529170634
H        2.5206897605    0.3634113738   -0.6822654197
H        1.4656065318   -1.6935322833    0.0747280076
H       -1.2130083551   -1.7610662208   -0.1844566974
H       -2.3810675425    0.4823717831   -0.5042071277
H       -1.0001653045    2.4951513120   -0.7900321789
C       -0.0042435615   -0.7748518651    1.3923698422
H       -0.0232374581   -1.4296509806    2.2539410609
13   
Frame  20 IRC: Energy =  -286.8760280000 ; +0.2811 kcal/mol
C        1.4755164711    0.4290602984   -0.3749298937
C        0.8934089837   -0.7781314525    0.2382236880
C       -0.7333576922   -0.8328038476    0.1257708918
C       -1.3060059139    0.4383226412   -0.3468679798
C       -0.5428876411    1.5390343329   -0.5506548518
N        0.8478706456    1.5207527500   -0.6540256716
H        2.5207920591    0.3623425928   -0.6845843945
H        1.4659082470   -1.6932996383    0.0767205569
H       -1.2105529503   -1.7624638267   -0.1878097284
H       -2.3804642182    0.4821819056   -0.5019914031
H       -0.9995766453    2.4946951395   -0.7859197812
C       -0.0049055250   -0.7745130506    1.3912969672
H       -0.0257458205   -1.4251778447    2.2547716002
13   
Frame  21 IRC: Energy =  -286.8760030000 ; +0.2968 kcal/mol
C        1.4743922889    0.4300237919   -0.3752885108
C        0.8930907328   -0.7787890503    0.2390633353
C       -0.7335729336   -0.8327833301    0.1250359999
C       -1.3054905112    0.4389108173   -0.3469548334
C       -0.5433287101    1.5383217601   -0.5504424205
N        0.8482571106    1.5202677332   -0.6540844806
H        2.5214058956    0.3620929865   -0.6852055384
H        1.4658830250   -1.6931059514    0.0771369443
H       -1.2100380439   -1.7627850337   -0.1884419292
H       -2.3803430173    0.4820894277   -0.5015774834
H       -0.9993842435    2.4945168211   -0.7851068366
C       -0.0046660319   -0.7746658034    1.3912503237
H       -0.0262055614   -1.4240941688    2.2546154295
13   
Frame  22 IRC: Energy =  -286.8756750000 ; +0.5026 kcal/mol
C        1.4777038639    0.4260032521   -0.3813229289
C        0.8940512439   -0.7768070868    0.2387002709
C       -0.7266139978   -0.8413763161    0.1112730290
C       -1.3045027320    0.4335068860   -0.3493447594
C       -0.5418040517    1.5365660753   -0.5447442156
N        0.8486580853    1.5160696086   -0.6614084664
H        2.5197370755    0.3559335268   -0.6983502825
H        1.4689174119   -1.6927915074    0.0888300268
H       -1.1947489965   -1.7722180868   -0.2124821162
H       -2.3819516400    0.4820797679   -0.4845514022
H       -0.9995260483    2.4975238276   -0.7593241669
C       -0.0148800207   -0.7690634832    1.3855224062
H       -0.0450401936   -1.3954264640    2.2672026054
13   
Frame  23 IRC: Energy =  -286.8756190000 ; +0.5378 kcal/mol
C        1.4784372242    0.4255557157   -0.3814057664
C        0.8962786259   -0.7753092631    0.2362512797
C       -0.7264215697   -0.8422232685    0.1106255063
C       -1.3042379287    0.4327054239   -0.3493286320
C       -0.5414302893    1.5358771032   -0.5441974560
N        0.8493808124    1.5146680058   -0.6617412187
H        2.5183090654    0.3556047411   -0.6987363052
H        1.4689538361   -1.6928714120    0.0895717687
H       -1.1937697488   -1.7724622808   -0.2137977959
H       -2.3823545162    0.4821558216   -0.4835538531
H       -1.0001145003    2.4987546198   -0.7580352931
C       -0.0168129558   -0.7679696836    1.3852427541
H       -0.0462180553   -1.3944855232    2.2691050117
13   
Frame  24 IRC: Energy =  -286.8751870000 ; +0.8089 kcal/mol
C        1.4791302831    0.4233678379   -0.3876996145
C        0.8937760000   -0.7766962973    0.2406134086
C       -0.7200378390   -0.8499956203    0.0952475486
C       -1.3026015533    0.4288877540   -0.3508889357
C       -0.5407951205    1.5334190565   -0.5392836183
N        0.8487660363    1.5117424260   -0.6697455397
H        2.5196574138    0.3498461447   -0.7112922308
H        1.4719953695   -1.6921351575    0.1000080650
H       -1.1778765959   -1.7822422958   -0.2390943333
H       -2.3823115921    0.4814854025   -0.4628357800
H       -0.9984244632    2.4981872793   -0.7319606870
C       -0.0240868918   -0.7649335388    1.3783752475
H       -0.0671910469   -1.3609329911    2.2785564695
13   
Frame  25 IRC: Energy =  -286.8751210000 ; +0.8503 kcal/mol
C        1.4799701159    0.4227178934   -0.3882295180
C        0.8949475808   -0.7756498360    0.2393664529
C       -0.7189500628   -0.8510833409    0.0944078913
C       -1.3026166528    0.4275749394   -0.3509158594
C       -0.5402001298    1.5330386154   -0.5386834874
N        0.8491397226    1.5105977062   -0.6705801666
H        2.5185180038    0.3492858094   -0.7122865917
H        1.4722065214   -1.6921220702    0.1012156601
H       -1.1760508867   -1.7830199581   -0.2418463502
H       -2.3824737408    0.4815173274   -0.4604968502
H       -0.9987239845    2.4990061119   -0.7292093270
C       -0.0261430637   -0.7640862991    1.3766001135
H       -0.0696234235   -1.3577768988    2.2806580328
13   
Frame  26 IRC: Energy =  -286.8748740000 ; +1.0053 kcal/mol
C        1.4800237381    0.4220374702   -0.3911173328
C        0.8933721842   -0.7768646729    0.2414806137
C       -0.7162324675   -0.8546389858    0.0867243800
C       -1.3017017961    0.4264303250   -0.3516127062
C       -0.5402397062    1.5317334956   -0.5364112255
N        0.8487692460    1.5093938545   -0.6742803019
H        2.5198665506    0.3467623191   -0.7178981010
H        1.4738607248   -1.6918040068    0.1056101410
H       -1.1689359730   -1.7876486704   -0.2536051486
H       -2.3824591344    0.4811835552   -0.4505076607
H       -0.9978195811    2.4983521059   -0.7176024811
C       -0.0290168636   -0.7627929243    1.3743620386
H       -0.0794869218   -1.3421438653    2.2848577846
13   
Frame  27 IRC: Energy =  -286.8747930000 ; +1.0561 kcal/mol
C        1.4791764910    0.4223313297   -0.3916627155
C        0.8921790779   -0.7784856326    0.2431969250
C       -0.7162597935   -0.8551504771    0.0848057860
C       -1.3010528519    0.4274930820   -0.3519394050
C       -0.5408279773    1.5313060147   -0.5360928456
N        0.8482326461    1.5100868273   -0.6748934275
H        2.5213795806    0.3463224127   -0.7190770378
H        1.4740345388   -1.6914275330    0.1062203762
H       -1.1679332915   -1.7884896183   -0.2552958304
H       -2.3824844799    0.4810325154   -0.4491135071
H       -0.9972425568    2.4974729981   -0.7158572791
C       -0.0284297699   -0.7635576146    1.3758954291
H       -0.0807716136   -1.3389343041    2.2838135316
13   
Frame  28 IRC: Energy =  -286.8742310000 ; +1.4088 kcal/mol
C        1.4821920477    0.4193812496   -0.3965743310
C        0.8951847146   -0.7757878926    0.2408021312
C       -0.7097654339   -0.8634077483    0.0720177204
C       -1.2997716243    0.4213150715   -0.3518393002
C       -0.5388890357    1.5280252867   -0.5318603684
N        0.8493183392    1.5042448360   -0.6828951126
H        2.5188973021    0.3419074355   -0.7279967852
H        1.4776462249   -1.6910332545    0.1147665564
H       -1.1532672655   -1.7961827679   -0.2794302677
H       -2.3825005768    0.4806232679   -0.4260244192
H       -0.9970714357    2.4990210625   -0.6934119431
C       -0.0388622051   -0.7603569457    1.3664350371
H       -0.1031110514   -1.3077496006    2.2960110824
13   
Frame  29 IRC: Energy =  -286.8741080000 ; +1.4859 kcal/mol
C        1.4819210612    0.4192915075   -0.3976999142
C        0.8930997152   -0.7773029842    0.2432547768
C       -0.7085319812   -0.8642737106    0.0692385906
C       -1.2996339240    0.4214417874   -0.3520254671
C       -0.5389990670    1.5279507020   -0.5312958293
N        0.8483843574    1.5046880110   -0.6843989746
H        2.5203219370    0.3410454350   -0.7300457129
H        1.4784268204   -1.6907511975    0.1161463183
H       -1.1509259594   -1.7981402238   -0.2838085160
H       -2.3820829750    0.4803997697   -0.4219936764
H       -0.9962491300    2.4977854820   -0.6893795297
C       -0.0388620939   -0.7604573376    1.3652810825
H       -0.1068687606   -1.3016772409    2.2967268519
13   
Frame  30 IRC: Energy =  -286.8738460000 ; +1.6504 kcal/mol
C        1.4832846265    0.4180324907   -0.3994134970
C        0.8957020848   -0.7754092812    0.2408645675
C       -0.7061664000   -0.8680333601    0.0645579814
C       -1.2988602241    0.4186361078   -0.3517814809
C       -0.5381526633    1.5261830641   -0.5296469003
N        0.8494846720    1.5017126199   -0.6876115354
H        2.5185824695    0.3394745188   -0.7331275949
H        1.4798017723   -1.6905264011    0.1194723655
H       -1.1450811774   -1.8005444555   -0.2930788925
H       -2.3823287868    0.4803186946   -0.4126022722
H       -0.9965663369    2.4991104905   -0.6809729186
C       -0.0438161503   -0.7595131322    1.3617999489
H       -0.1158838864   -1.2894413561    2.3015402284
13   
Frame  31 IRC: Energy =  -286.8736600000 ; +1.7671 kcal/mol
C        1.4824976614    0.4184936303   -0.4010353066
C        0.8940314173   -0.7771116522    0.2432051686
C       -0.7048947266   -0.8693939683    0.0600764076
C       -1.2983831496    0.4186364267   -0.3518318364
C       -0.5383942133    1.5257210294   -0.5288507619
N        0.8488579476    1.5012990817   -0.6897610433
H        2.5202841844    0.3382196713   -0.7359506161
H        1.4809399336   -1.6900810759    0.1215557338
H       -1.1415135947   -1.8032030152   -0.2995196502
H       -2.3817417892    0.4800061112   -0.4062775967
H       -0.9955455628    2.4976136987   -0.6751933556
C       -0.0444786855   -0.7598204447    1.3610165072
H       -0.1216594226   -1.2803794929    2.3025663496
13   
Frame  32 IRC: Energy =  -286.8734260000 ; +1.9139 kcal/mol
C        1.4840516436    0.4168778324   -0.4023480001
C        0.8964089658   -0.7750644672    0.2409461985
C       -0.7026269331   -0.8728502074    0.0567876454
C       -1.2978147803    0.4160240122   -0.3518031958
C       -0.5376467689    1.5242771213   -0.5274009165
N        0.8497898875    1.4989258456   -0.6925095176
H        2.5183942712    0.3371295306   -0.7380961567
H        1.4819927120   -1.6897242207    0.1242179919
H       -1.1367784193   -1.8044988978   -0.3066987314
H       -2.3820458409    0.4800709580   -0.3984753826
H       -0.9959165682    2.4989100387   -0.6687732258
C       -0.0487915055   -0.7593954376    1.3577835987
H       -0.1290166639   -1.2706821081    2.3063696919
13   
Frame  33 IRC: Energy =  -286.8724980000 ; +2.4962 kcal/mol
C        1.4852475422    0.4154025161   -0.4083510956
C        0.8956439035   -0.7761470008    0.2436364540
C       -0.6957177191   -0.8812495680    0.0405309219
C       -1.2955825083    0.4122436551   -0.3501649170
C       -0.5365461843    1.5206432798   -0.5244209805
N        0.8487938321    1.4949234593   -0.7038065133
H        2.5199265437    0.3326077068   -0.7479290119
H        1.4880601720   -1.6876161016    0.1340639770
H       -1.1209979549   -1.8139467837   -0.3349859649
H       -2.3801002754    0.4791381703   -0.3669057273
H       -0.9938184989    2.4969834932   -0.6451712826
C       -0.0573053170   -0.7599277307    1.3494252059
H       -0.1576035356   -1.2330550958    2.3140789343
13   
Frame  34 IRC: Energy =  -286.8723370000 ; +2.5973 kcal/mol
C        1.4857368705    0.4158100303   -0.4098180697
C        0.8937835428   -0.7771569536    0.2454681895
C       -0.6937704775   -0.8800907559    0.0390765724
C       -1.2961378310    0.4127610315   -0.3502017085
C       -0.5372761563    1.5196499499   -0.5239681597
N        0.8488060492    1.4948799457   -0.7051246018
H        2.5203924734    0.3320301328   -0.7491912390
H        1.4891338598   -1.6875277303    0.1352126784
H       -1.1198515890   -1.8167892644   -0.3390159661
H       -2.3789252107    0.4789272307   -0.3631159834
H       -0.9932466147    2.4961585598   -0.6423180666
C       -0.0578218991   -0.7608909097    1.3497207064
H       -0.1608230176   -1.2277612666    2.3132756480
13   
Frame  35 IRC: Energy =  -286.8714900000 ; +3.1288 kcal/mol
C        1.4864510062    0.4138245425   -0.4139787194
C        0.8971156738   -0.7751651389    0.2441274482
C       -0.6890722844   -0.8903235566    0.0257493826
C       -1.2933310208    0.4071397601   -0.3482442953
C       -0.5349694039    1.5172526985   -0.5220756457
N        0.8486587409    1.4897014221   -0.7155460687
H        2.5199657408    0.3288511893   -0.7562581172
H        1.4939549948   -1.6847495254    0.1445868610
H       -1.1059036802   -1.8210904530   -0.3607583421
H       -2.3777953735    0.4784359264   -0.3347836029
H       -0.9920453219    2.4958368170   -0.6235899293
C       -0.0669339778   -0.7613758630    1.3405483278
H       -0.1860950939   -1.1983378191    2.3202227009
13   
Frame  36 IRC: Energy =  -286.8712750000 ; +3.2637 kcal/mol
C        1.4870097792    0.4134238045   -0.4154928086
C        0.8954334627   -0.7758972090    0.2460870131
C       -0.6874808493   -0.8904119104    0.0223942161
C       -1.2927922434    0.4082658761   -0.3481908537
C       -0.5355157556    1.5155689034   -0.5215353314
N        0.8476059167    1.4898525320   -0.7178968761
H        2.5206370431    0.3280852399   -0.7579944358
H        1.4953265619   -1.6841819484    0.1466233055
H       -1.1035893268   -1.8239412953   -0.3661511955
H       -2.3766238481    0.4780946658   -0.3285096264
H       -0.9911933931    2.4946585942   -0.6194474652
C       -0.0673766622   -0.7621342877    1.3399528680
H       -0.1914406849   -1.1913829651    2.3201611901
13   
Frame  37 IRC: Energy =  -286.8701440000 ; +3.9734 kcal/mol
C        1.4881861572    0.4123795463   -0.4216366504
C        0.8974833181   -0.7738964618    0.2457175198
C       -0.6805848459   -0.9003628681    0.0079801424
C       -1.2901641842    0.4021125221   -0.3453166304
C       -0.5334973630    1.5123983262   -0.5205717049
N        0.8480712082    1.4843108584   -0.7315368128
H        2.5208850257    0.3249897072   -0.7655620900
H        1.5015183557   -1.6804141500    0.1597234869
H       -1.0888683024   -1.8305963687   -0.3907801059
H       -2.3731506448    0.4770733210   -0.2927898010
H       -0.9893732839    2.4939098215   -0.5983451415
C       -0.0787946041   -0.7632221818    1.3302092236
H       -0.2217108366   -1.1586820723    2.3229085644
13   
Frame  38 IRC: Energy =  -286.8699070000 ; +4.1221 kcal/mol
C        1.4899889601    0.4115621817   -0.4228057245
C        0.8994420965   -0.7719665089    0.2436996626
C       -0.6786339569   -0.8995656023    0.0072269111
C       -1.2916864399    0.4005283581   -0.3446880216
C       -0.5349916052    1.5107684146   -0.5200461035
N        0.8507554303    1.4827437801   -0.7336620003
H        2.5187046869    0.3247812221   -0.7660512936
H        1.5026053061   -1.6802948620    0.1616942787
H       -1.0874438478   -1.8328026394   -0.3947669823
H       -2.3710203473    0.4770044996   -0.2877314732
H       -0.9895654372    2.4948944726   -0.5954201343
C       -0.0821472216   -0.7636251766    1.3291953176
H       -0.2260076241   -1.1540281397    2.3233555634
13   