
Running Job 1 of 1 qcfsm.in
qchem qcfsm.in_13542.0 ./qcfsm.d/ 1
/home/leeping/opt/qchem/5.0.2-openmp/exe/qcprog.exe_s qcfsm.in_13542.0 ./qcfsm.d/
Check license passed

                  Welcome to Q-Chem
     A Quantum Leap Into The Future Of Chemistry


 Q-Chem 5.0, Q-Chem, Inc., Pleasanton, CA (2017)

 Yihan Shao,  Zhengting Gan,  E. Epifanovsky,  A. T. B. Gilbert,  M. Wormit,  
 J. Kussmann,  A. W. Lange,  A. Behn,  Jia Deng,  Xintian Feng,  D. Ghosh,  
 M. Goldey,  P. R. Horn,  L. D. Jacobson,  I. Kaliman,  T. Kus,  A. Landau,  
 Jie Liu,  E. I. Proynov,  R. M. Richard,  R. P. Steele,  E. J. Sundstrom,  
 H. L. Woodcock III,  P. M. Zimmerman,  D. Zuev,  B. Albrecht,  E. Alguire,  
 S. A. Baeppler,  D. Barton,  Z. Benda,  Y. A. Bernard,  E. J. Berquist,  
 K. B. Bravaya,  H. Burton,  D. Casanova,  Chun-Min Chang,  Yunqing Chen,  
 A. Chien,  K. D. Closser,  M. P. Coons,  S. Dasgupta,  A. L. Dempwolff,  
 M. Diedenhofen,  Hainam Do,  R. G. Edgar,  Po-Tung Fang,  S. Fatehi,  
 Qingguo Feng,  J. Fosso-Tande,  Qinghui Ge,  A. Ghysels,  G. Gidofalvi,  
 J. Gomes,  J. Gonthier,  A. Gunina,  M. W. D. Hanson-Heine,  
 P. H. P. Harbach,  A. W. Hauser,  J. E. Herr,  E. G. Hohenstein,  
 Z. C. Holden,  Kerwin Hui,  T.-C. Jagau,  Hyunjun Ji,  B. Kaduk,  
 K. Khistyaev,  Jaehoon Kim,  P. Klunzinger,  K. Koh,  D. Kosenkov,  
 L. Koulias,  T. Kowalczyk,  C. M. Krauter,  A. Kunitsa,  Ka Un Lao,  
 A. Laurent,  K. V. Lawler,  Joonho Lee,  D. Lefrancois,  S. Lehtola,  
 D. S. Levine,  Yi-Pei Li,  You-Sheng Lin,  Fenglai Liu,  E. Livshits,  
 A. Luenser,  P. Manohar,  E. Mansoor,  S. F. Manzer,  Shan-Ping Mao,  
 Yuezhi Mao,  N. Mardirossian,  A. V. Marenich,  T. Markovich,  
 L. A. Martinez-Martinez,  S. A. Maurer,  N. J. Mayhall,  S. C. McKenzie,  
 J.-M. Mewes,  A. F. Morrison,  J. W. Mullinax,  K. Nanda,  
 T. S. Nguyen-Beck,  R. Olivares-Amaya,  J. A. Parkhill,  T. M. Perrine,  
 F. Plasser,  S. Prager,  A. Prociuk,  E. Ramos,  D. R. Rehn,  F. Rob,  
 M. Schneider,  N. Sergueev,  S. M. Sharada,  S. Sharma,  D. W. Small,  
 T. Stauch,  T. Stein,  Yu-Chuan Su,  A. J. W. Thom,  A. Tkatchenko,  
 T. Tsuchimochi,  L. Vogt,  O. Vydrov,  M. A. Watson,  J. Wenzel,  
 M. de Wergifosse,  T. A. Wesolowski,  A. White,  J. Witte,  A. Yamada,  
 Jun Yang,  K. Yao,  S. Yeganeh,  S. R. Yost,  Zhi-Qiang You,  A. Zech,  
 Igor Ying Zhang,  Xing Zhang,  Yan Zhao,  Ying Zhu,  B. R. Brooks,  
 G. K. L. Chan,  C. J. Cramer,  M. S. Gordon,  W. J. Hehre,  A. Klamt,  
 M. W. Schmidt,  C. D. Sherrill,  D. G. Truhlar,  A. Aspuru-Guzik,  R. Baer,  
 A. T. Bell,  N. A. Besley,  Jeng-Da Chai,  R. A. DiStasio Jr.,  A. Dreuw,  
 B. D. Dunietz,  T. R. Furlani,  Chao-Ping Hsu,  Yousung Jung,  Jing Kong,  
 D. S. Lambrecht,  WanZhen Liang,  C. Ochsenfeld,  V. A. Rassolov,  
 L. V. Slipchenko,  J. E. Subotnik,  T. Van Voorhis,  J. M. Herbert,  
 A. I. Krylov,  P. M. W. Gill,  M. Head-Gordon

 Contributors to earlier versions of Q-Chem not listed above: 
 R. D. Adamson,  B. Austin,  J. Baker,  G. J. O. Beran,  K. Brandhorst,  
 S. T. Brown,  E. F. C. Byrd,  A. K. Chakraborty,  C.-L. Cheng,  
 Siu Hung Chien,  D. M. Chipman,  D. L. Crittenden,  H. Dachsel,  
 R. J. Doerksen,  A. D. Dutoi,  L. Fusti-Molnar,  W. A. Goddard III,  
 A. Golubeva-Zadorozhnaya,  S. R. Gwaltney,  G. Hawkins,  A. Heyden,  
 S. Hirata,  G. Kedziora,  F. J. Keil,  C. Kelley,  Jihan Kim,  R. A. King,  
 R. Z. Khaliullin,  P. P. Korambath,  W. Kurlancheek,  A. M. Lee,  M. S. Lee,  
 S. V. Levchenko,  Ching Yeh Lin,  D. Liotard,  R. C. Lochan,  I. Lotan,  
 P. E. Maslen,  N. Nair,  D. P. O'Neill,  D. Neuhauser,  E. Neuscamman,  
 C. M. Oana,  R. Olson,  B. Peters,  R. Peverati,  P. A. Pieniazek,  
 Y. M. Rhee,  J. Ritchie,  M. A. Rohrdanz,  E. Rosta,  N. J. Russ,  
 H. F. Schaefer III,  N. E. Schultz,  N. Shenvi,  A. C. Simmonett,  A. Sodt,  
 D. Stuck,  K. S. Thanthiriwatte,  V. Vanovschi,  Tao Wang,  A. Warshel,  
 C. F. Williams,  Q. Wu,  X. Xu,  W. Zhang

 Please cite Q-Chem as follows:
 Y. Shao et al., Mol. Phys. 113, 184-215 (2015)
 DOI: 10.1080/00268976.2014.952696

 Q-Chem 5.0.2 for Intel X86 EM64T Linux

 Parts of Q-Chem use Armadillo 5.200.1 (Boston Tea Smuggler).
 http://arma.sourceforge.net/

 Q-Chem begins on Tue Mar  1 23:30:55 2022  

Host: 
0

     Scratch files written to ./qcfsm.d//
 Dec517 15110_ 26548  26544 5633   
Processing $rem in /home/leeping/opt/qchem/5.0.2-openmp/config/preferences.
 MEM_STATIC 2000
 MEM_TOTAL  8000
 SYMMETRY   OFF
 SYM_IGNORE TRUE 
 Now reading second FSM geometry

Checking the input file for inconsistencies... 	...done.

--------------------------------------------------------------
User input:
--------------------------------------------------------------
$molecule
0 2
C        1.4682868321    0.4430805743   -0.3533865526
C        0.8844022873   -0.7856752825    0.2151865042
C       -0.7449520357   -0.8069154899    0.1733851284
C       -1.3123418507    0.4543349172   -0.3313042279
C       -0.5485538449    1.5422439192   -0.5750737492
N        0.8458281931    1.5355327297   -0.6342302106
H        2.5297900783    0.3980229984   -0.6089834875
H        1.4422790578   -1.6995033966    0.0014279069
H       -1.2580007387   -1.7281406933   -0.1086990447
H       -2.3831085016    0.4873436658   -0.5171458804
H       -1.0036800811    2.4809373004   -0.8802618728
C        0.0353959252   -0.7960443043    1.4088119362
H        0.0446546791   -1.5252169379    2.2102735501
****
C        1.5164453084    0.3970222276   -0.4801239439
C        0.8530395677   -0.7814352775    0.1266787600
C       -0.5919705350   -1.0631990086   -0.2533895305
C       -1.1148078620    0.3154644788    0.1140434293
C       -0.4546574914    1.4958704863   -0.4938079486
N        0.8464149501    1.5090209217   -0.7765295707
H        2.5823589227    0.3744990098   -0.6984255131
H        1.4771284433   -1.6491137615    0.3343578233
H       -1.0844877022   -1.9529302133   -0.6202567259
H       -2.1825490230    0.3920951705    0.3125006709
H       -1.0321072959    2.3891884563   -0.7240367870
C       -0.3068280923   -0.5383995524    1.0779775531
H       -0.5079791906   -0.8880829378    2.0810117830
$end

$rem
method                b3lyp
basis                 6-31g(d)
unrestricted          true
symmetry              off
sym_ignore            true
incdft                false
incfock               0
scf_convergence       8
thresh                14
jobtype               fsm
scf_guess             core
scf_guess_mix         5
scf_algorithm         diis
max_scf_cycles        100
fsm_nnode             21
fsm_ngrad             6
fsm_mode              2
fsm_opt_mode          2
$end

--------------------------------------------------------------
 ----------------------------------------------------------------
             Standard Nuclear Orientation (Angstroms)
    I     Atom           X                Y                Z
 ----------------------------------------------------------------
    1      C       1.4682868321     0.4430805743    -0.3533865526
    2      C       0.8844022873    -0.7856752825     0.2151865042
    3      C      -0.7449520357    -0.8069154899     0.1733851284
    4      C      -1.3123418507     0.4543349172    -0.3313042279
    5      C      -0.5485538449     1.5422439192    -0.5750737492
    6      N       0.8458281931     1.5355327297    -0.6342302106
    7      H       2.5297900783     0.3980229984    -0.6089834875
    8      H       1.4422790578    -1.6995033966     0.0014279069
    9      H      -1.2580007387    -1.7281406933    -0.1086990447
   10      H      -2.3831085016     0.4873436658    -0.5171458804
   11      H      -1.0036800811     2.4809373004    -0.8802618728
   12      C       0.0353959252    -0.7960443043     1.4088119362
   13      H       0.0446546791    -1.5252169379     2.2102735501
 ----------------------------------------------------------------
 Nuclear Repulsion Energy =   269.1169012410 hartrees
 There are       25 alpha and       24 beta electrons
 Requested basis set is 6-31G(d)
 There are 40 shells and 117 basis functions

 Total QAlloc Memory Limit   8000 MB
 Mega-Array Size      1956 MB
 MEM_STATIC part      2000 MB
 beginning FSman 

*******************************************
*******************************************
******** Starting FSM Calculation *********
*******************************************
*******************************************
-FSM parameters:
 Maximum displacement of each coordinate during optimization (Angstrom)      0.05
 Maximum optimization steps for each new node                                6
 The scaling factor for optimization (hartrees/Angstrom^2)                   1.75
 The number of LST interpolations used for reparameterization                100
-Aligning product structure to maximum coincidence with the reactant structure
 Total R --> P Distance 1.690032
 New node interpolation distace (Angstroms): 0.08
-Performing force calculation on reactant structure in state:0
 ----------------------------------------------------------------
             Standard Nuclear Orientation (Angstroms)
    I     Atom           X                Y                Z
 ----------------------------------------------------------------
    1      C       1.4682868321     0.4430805743    -0.3533865526
    2      C       0.8844022873    -0.7856752825     0.2151865042
    3      C      -0.7449520357    -0.8069154899     0.1733851284
    4      C      -1.3123418507     0.4543349172    -0.3313042279
    5      C      -0.5485538449     1.5422439192    -0.5750737492
    6      N       0.8458281931     1.5355327297    -0.6342302106
    7      H       2.5297900783     0.3980229984    -0.6089834875
    8      H       1.4422790578    -1.6995033966     0.0014279069
    9      H      -1.2580007387    -1.7281406933    -0.1086990447
   10      H      -2.3831085016     0.4873436658    -0.5171458804
   11      H      -1.0036800811     2.4809373004    -0.8802618728
   12      C       0.0353959252    -0.7960443043     1.4088119362
   13      H       0.0446546791    -1.5252169379     2.2102735501
 ----------------------------------------------------------------
 Nuclear Repulsion Energy =   269.1169012410 hartrees
 There are       25 alpha and       24 beta electrons

                       Distance Matrix (Angstroms)
             C (  1)   C (  2)   C (  3)   C (  4)   C (  5)   N (  6)
   C (  2)  1.474462
   C (  3)  2.595844  1.630029
   C (  4)  2.780739  2.581078  1.472208
   C (  5)  2.307586  2.845537  2.473320  1.351422
   N (  6)  1.288324  2.472044  2.944467  2.432787  1.395652
   H (  7)  1.092771  2.188081  3.576019  3.852565  3.284295  2.032312
   H (  8)  2.171920  1.091788  2.368599  3.512501  3.847687  3.350414
   H (  9)  3.493811  2.362844  1.091534  2.194472  3.378792  3.918398
   H ( 10)  3.855129  3.582390  2.198976  1.087275  2.117017  3.396828
   H ( 11)  3.246703  3.928819  3.462237  2.122203  1.086934  2.091651
   C ( 12)  2.587267  1.464807  1.461280  2.531373  3.121601  3.204227
   H ( 13)  3.531753  2.287459  2.299641  3.495666  4.185615  4.254559
             H (  7)   H (  8)   H (  9)   H ( 10)   H ( 11)   C ( 12)
   H (  8)  2.440266
   H (  9)  4.372438  2.702676
   H ( 10)  4.914569  4.436757  2.518148
   H ( 11)  4.110661  4.923025  4.286762  2.451345
   C ( 12)  3.423346  2.185472  2.201027  3.347471  4.130151
   H ( 13)  4.221725  2.619681  2.667531  4.169323  5.167174  1.083568

 
 Requested basis set is 6-31G(d)
 There are 40 shells and 117 basis functions
 A cutoff of  1.0D-14 yielded    804 shell pairs
 There are      7076 function pairs
 
 -------------------------------------------------------
 OpenMP Integral Computing Module                       
 Release: version 1.0, May 2013, Q-Chem Inc. Pittsburgh 
 -------------------------------------------------------
 Integral Job Info:
 Integral job number is                      11
 Integral operator is                         1
 short-range coefficients                     0
 long-range coefficients              100000000
 Omega coefficients                           0
 if combine SR and LR in K                    0
 Integral screening is                        0
 Integral computing path is                   2
 max size of driver memory is            800000
 size of driver memory is                593474
 size of scratch memory is              2361544
 max col of scratch BK array               1296
 max len of scratch array in speh3          155
 max len of scratch index in speh4           18
 max int batch size is                      520
 min int batch size is                       52
 fixed nKL is                                52
 max L of basis functions is                  2
 order of int derivative is                   0
 number of shells is                         40
 number of basis is                         117
 number of cartesian basis is               117
 number of contracted shell pairs           804
 number of primitive shell pairs           3488
 maxK2 (contraction) of shell pair           36
 max number of K2 of shell pair               1
 max number of CS2 of shell pair             86
 max number of PS2 of shell pair            390
 mem total for path MDJ                  535308
 -------------------------------------------------------
 Smallest overlap matrix eigenvalue = 1.47E-03

 Scale SEOQF with 1.000000e-01/1.000000e-01/1.000000e-01

 Standard Electronic Orientation quadrupole field applied
 Nucleus-field energy     =     0.0000000035 hartrees
 Guess MOs from core Hamiltonian diagonalization
 Mixing HOMO and LUMO in initial guess
 Adding  50% of the LUMO to the HOMO
 An unrestricted hybrid HF-DFT SCF calculation will be
 performed using Pulay DIIS extrapolation
 Exchange:     0.2000 Hartree-Fock + 0.0800 Slater + 0.7200 B88
 Correlation:  0.1900 VWN1RPA + 0.8100 LYP
 Using SG-1 standard quadrature grid
 SCF converges when DIIS error is below 1.0E-08
 using 4 threads for integral computing
 -------------------------------------------------------
 OpenMP Integral computing Module                
 Release: version 1.0, May 2013, Q-Chem Inc. Pittsburgh 
 -------------------------------------------------------
 -------------------------------------------------------
 OpenMP BLAS3 based DFT computing Module                
 Release: version 1.0, May 2013, Q-Chem Inc. Pittsburgh 
 -------------------------------------------------------
 ---------------------------------------
  Cycle       Energy         DIIS Error
 ---------------------------------------
    1    -237.9402257431      1.30E-01
    2    -233.1453327641      1.00E-01
    3    -251.2616691092      1.06E-01
    4    -279.9021224506      6.23E-02
    5    -282.0426337047      4.60E-02
    6    -286.1787595081      1.66E-02
    7    -286.3495629377      1.59E-02
    8    -286.8310633796      3.31E-03
    9    -286.8536090916      8.48E-04
   10    -286.8546203090      4.13E-04
   11    -286.8549296450      7.95E-05
   12    -286.8549458209      3.28E-05
   13    -286.8549490785      1.30E-05
   14    -286.8549500496      2.48E-06
   15    -286.8549501421      1.20E-06
   16    -286.8549501655      3.84E-07
   17    -286.8549501747      1.44E-07
   18    -286.8549501770      4.38E-08
   19    -286.8549501781      1.88E-08
   20    -286.8549501785      8.18E-09 Convergence criterion met
 ---------------------------------------
 <S^2> = 0.7532
 SCF time:  CPU 52.69 s  wall 45.36 s
 SCF   energy in the final basis set = -286.85495018
 Total energy in the final basis set = -286.85495018
 
 --------------------------------------------------------------
 
                    Orbital Energies (a.u.)
 --------------------------------------------------------------
 
 Alpha MOs
 -- Occupied --
-14.323 -10.230 -10.224 -10.221 -10.219 -10.206 -10.195  -0.934
 -0.868  -0.765  -0.667  -0.641  -0.570  -0.532  -0.491  -0.482
 -0.451  -0.425  -0.377  -0.373  -0.359  -0.300  -0.255  -0.229
 -0.219
 -- Virtual --
 -0.031   0.048   0.085   0.130   0.135   0.151   0.156   0.173
  0.184   0.228   0.244   0.286   0.296   0.328   0.400   0.437
  0.504   0.506   0.529   0.551   0.552   0.581   0.592   0.605
  0.617   0.630   0.647   0.669   0.672   0.713   0.753   0.803
  0.832   0.845   0.860   0.867   0.879   0.896   0.902   0.924
  0.937   1.001   1.077   1.099   1.114   1.170   1.212   1.328
  1.349   1.434   1.488   1.522   1.547   1.567   1.602   1.700
  1.724   1.766   1.816   1.828   1.897   1.914   1.949   2.021
  2.032   2.055   2.147   2.203   2.220   2.242   2.295   2.344
  2.437   2.469   2.503   2.529   2.545   2.579   2.633   2.673
  2.733   2.806   2.838   3.019   3.234   4.027   4.106   4.140
  4.276   4.317   4.397   4.609
 
 Beta MOs
 -- Occupied --
-14.323 -10.229 -10.224 -10.221 -10.207 -10.204 -10.194  -0.932
 -0.858  -0.763  -0.659  -0.639  -0.556  -0.527  -0.488  -0.473
 -0.447  -0.422  -0.375  -0.371  -0.351  -0.291  -0.250  -0.225
 -- Virtual --
 -0.072  -0.029   0.051   0.091   0.131   0.137   0.154   0.162
  0.179   0.186   0.233   0.246   0.291   0.311   0.330   0.403
  0.439   0.508   0.531   0.541   0.557   0.558   0.587   0.595
  0.611   0.622   0.640   0.650   0.673   0.674   0.719   0.766
  0.806   0.833   0.847   0.862   0.869   0.884   0.902   0.905
  0.925   0.941   1.013   1.079   1.104   1.119   1.175   1.215
  1.331   1.351   1.440   1.496   1.526   1.550   1.570   1.609
  1.705   1.730   1.787   1.821   1.830   1.920   1.925   1.963
  2.025   2.038   2.064   2.159   2.213   2.230   2.252   2.300
  2.354   2.440   2.475   2.514   2.535   2.547   2.589   2.637
  2.674   2.737   2.816   2.848   3.019   3.235   4.028   4.111
  4.141   4.300   4.321   4.401   4.610
 --------------------------------------------------------------
 
          Ground-State Mulliken Net Atomic Charges

     Atom                 Charge (a.u.)    Spin (a.u.)
  --------------------------------------------------------
      1 C                     0.088754       0.019307
      2 C                    -0.194305      -0.017040
      3 C                    -0.175860      -0.016664
      4 C                    -0.083952       0.040994
      5 C                    -0.009349      -0.014617
      6 N                    -0.391608       0.002427
      7 H                     0.142785       0.005874
      8 H                     0.155337       0.022608
      9 H                     0.155153       0.017060
     10 H                     0.139628       0.003637
     11 H                     0.136798       0.000770
     12 C                    -0.121161       0.958835
     13 H                     0.157780      -0.023191
  --------------------------------------------------------
  Sum of atomic charges =    -0.000000
  Sum of spin   charges =     1.000000

 -----------------------------------------------------------------
                    Cartesian Multipole Moments
 -----------------------------------------------------------------
    Charge (ESU x 10^10)
                -0.0000
    Dipole Moment (Debye)
         X      -0.7418      Y      -2.7015      Z       0.4229
       Tot       2.8332
    Quadrupole Moments (Debye-Ang)
        XX     -37.6450     XY      -3.2091     YY     -40.9947
        XZ       1.1239     YZ      -0.3997     ZZ     -42.2599
    Octopole Moments (Debye-Ang^2)
       XXX      -8.2354    XXY     -10.4407    XYY     -10.5732
       YYY     -31.5853    XXZ      -2.6565    XYZ       3.0817
       YYZ       4.0872    XZZ      -3.4826    YZZ     -12.2730
       ZZZ       5.7400
    Hexadecapole Moments (Debye-Ang^3)
      XXXX    -277.5324   XXXY      -4.4829   XXYY    -107.3562
      XYYY     -19.3794   YYYY    -323.5878   XXXZ       1.6158
      XXYZ      24.8174   XYYZ       8.6060   YYYZ      67.3429
      XXZZ     -81.7428   XYZZ      -2.7034   YYZZ     -79.3438
      XZZZ       2.1018   YZZZ      63.4535   ZZZZ    -161.1763
 -----------------------------------------------------------------
 Calculating analytic gradient of the SCF energy
 Gradient of SCF Energy
            1           2           3           4           5           6
    1  -0.0000118   0.0000079   0.0000191  -0.0000179   0.0000020  -0.0000174
    2  -0.0000075   0.0000385  -0.0000161   0.0000073  -0.0000084   0.0000202
    3  -0.0000120  -0.0000091   0.0000314  -0.0000087   0.0000296  -0.0000022
            7           8           9          10          11          12
    1   0.0000024   0.0000026   0.0000014  -0.0000040  -0.0000043   0.0000001
    2   0.0000067  -0.0000052  -0.0000050   0.0000023   0.0000060  -0.0000265
    3   0.0000087  -0.0000089  -0.0000224   0.0000116   0.0000152  -0.0000263
           13
    1   0.0000197
    2  -0.0000125
    3  -0.0000069
 Max gradient component =       3.853E-05
 RMS gradient           =       1.510E-05
 Gradient time:  CPU 7.81 s  wall 10.46 s
-Performing force calculation on product structure in state0
 ----------------------------------------------------------------
             Standard Nuclear Orientation (Angstroms)
    I     Atom           X                Y                Z
 ----------------------------------------------------------------
    1      C       1.5164575236     0.3969307635    -0.4801609859
    2      C       0.8529926434    -0.7814920680     0.1266443969
    3      C      -0.5920462744    -1.0631573671    -0.2533872964
    4      C      -1.1147842998     0.3155349336     0.1140788364
    5      C      -0.4545746931     1.4959064919    -0.4937751031
    6      N       0.8464906921     1.5089767144    -0.7765329148
    7      H       2.5823635791     0.3743416514    -0.6984926519
    8      H       1.4770312898    -1.6492136479     0.3342943355
    9      H      -1.0846311510    -1.9528518253    -0.6202527024
   10      H      -2.1825149625     0.3922319047     0.3125669544
   11      H      -1.0319732432     2.3892648495    -0.7239757753
   12      C      -0.3068327299    -0.5383942505     1.0779788811
   13      H      -0.5079783739    -0.8880781498     2.0810140257
 ----------------------------------------------------------------
 Nuclear Repulsion Energy =   277.2176352797 hartrees
 There are       25 alpha and       24 beta electrons

                       Distance Matrix (Angstroms)
             C (  1)   C (  2)   C (  3)   C (  4)   C (  5)   N (  6)
   C (  2)  1.482255
   C (  3)  2.574698  1.520492
   C (  4)  2.698737  2.252947  1.519565
   C (  5)  2.256746  2.698369  2.574003  1.482781
   N (  6)  1.331667  2.462117  2.993149  2.462538  1.331501
   H (  7)  1.088271  2.237750  3.513033  3.785846  3.243888  2.075269
   H (  8)  2.202635  1.088799  2.229330  3.259791  3.782669  3.406712
   H (  9)  3.508100  2.384182  1.081104  2.384477  3.508119  3.967104
   H ( 10)  3.782967  3.259832  2.228913  1.088728  2.203194  3.407071
   H ( 11)  3.243970  3.785545  3.512009  2.238202  1.088334  2.075162
   C ( 12)  2.574300  1.519648  1.459198  1.520225  2.574999  2.993509
   H ( 13)  3.508448  2.383939  2.342467  2.384477  3.509384  3.968127
             H (  7)   H (  8)   H (  9)   H ( 10)   H ( 11)   C ( 12)
   H (  8)  2.526496
   H (  9)  4.343823  2.750540
   H ( 10)  4.870999  4.190495  2.752257
   H ( 11)  4.138115  4.870765  4.343675  2.527114
   C ( 12)  3.512320  2.229161  2.343000  2.229373  3.513411
   H ( 13)  4.343912  2.751476  2.960256  2.751485  4.345517  1.081119

 
 Applying Cartesian multipole field
    Component          Value
    ---------          -----
     (2,0,0)        1.00000E-11
     (0,2,0)        2.00000E-11
     (0,0,2)       -3.00000E-11
 Nucleus-field energy     =     0.0000000036 hartrees
 Requested basis set is 6-31G(d)
 There are 40 shells and 117 basis functions
 A cutoff of  1.0D-14 yielded    808 shell pairs
 There are      7080 function pairs
 Smallest overlap matrix eigenvalue = 1.59E-03
 Guess MOs from core Hamiltonian diagonalization
 Mixing HOMO and LUMO in initial guess
 Adding  50% of the LUMO to the HOMO
 An unrestricted hybrid HF-DFT SCF calculation will be
 performed using Pulay DIIS extrapolation
 Exchange:     0.2000 Hartree-Fock + 0.0800 Slater + 0.7200 B88
 Correlation:  0.1900 VWN1RPA + 0.8100 LYP
 Using SG-1 standard quadrature grid
 SCF converges when DIIS error is below 1.0E-08
 using 4 threads for integral computing
 -------------------------------------------------------
 OpenMP Integral computing Module                
 Release: version 1.0, May 2013, Q-Chem Inc. Pittsburgh 
 -------------------------------------------------------
 -------------------------------------------------------
 OpenMP BLAS3 based DFT computing Module                
 Release: version 1.0, May 2013, Q-Chem Inc. Pittsburgh 
 -------------------------------------------------------
 ---------------------------------------
  Cycle       Energy         DIIS Error
 ---------------------------------------
    1    -240.3665601662      1.30E-01
    2    -241.5736884019      1.02E-01
    3    -280.7471199811      4.95E-02
    4    -283.2563112799      4.26E-02
    5    -286.3259908002      1.61E-02
    6    -286.7191152436      9.49E-03
    7    -286.8411964151      3.03E-03
    8    -286.8568797560      8.09E-04
    9    -286.8581360187      2.64E-04
   10    -286.8583645446      7.92E-05
   11    -286.8584206760      3.80E-05
   12    -286.8584464247      9.01E-06
   13    -286.8584537149      5.56E-06
   14    -286.8584560280      2.41E-06
   15    -286.8584562494      7.64E-07
   16    -286.8584562579      1.35E-07
   17    -286.8584562581      4.65E-08
   18    -286.8584562581      1.72E-08
   19    -286.8584562581      3.77E-09 Convergence criterion met
 ---------------------------------------
 <S^2> = 0.7737
 SCF time:  CPU 50.03 s  wall 52.77 s
 SCF   energy in the final basis set = -286.85845626
 Total energy in the final basis set = -286.85845626
 
 --------------------------------------------------------------
 
                    Orbital Energies (a.u.)
 --------------------------------------------------------------
 
 Alpha MOs
 -- Occupied --
-14.317 -10.216 -10.216 -10.215 -10.215 -10.215 -10.215  -0.960
 -0.896  -0.750  -0.643  -0.635  -0.589  -0.545  -0.482  -0.471
 -0.465  -0.408  -0.395  -0.365  -0.338  -0.299  -0.298  -0.227
 -0.173
 -- Virtual --
  0.016   0.089   0.114   0.142   0.143   0.153   0.159   0.166
  0.198   0.211   0.231   0.274   0.291   0.304   0.321   0.388
  0.526   0.528   0.540   0.541   0.564   0.589   0.592   0.595
  0.615   0.617   0.632   0.656   0.672   0.735   0.791   0.802
  0.814   0.838   0.854   0.854   0.882   0.888   0.925   0.938
  0.958   0.983   1.144   1.156   1.165   1.197   1.256   1.370
  1.414   1.457   1.489   1.500   1.582   1.616   1.646   1.677
  1.741   1.742   1.860   1.868   1.877   1.916   1.993   2.025
  2.037   2.134   2.160   2.202   2.247   2.287   2.358   2.467
  2.473   2.484   2.526   2.578   2.596   2.609   2.623   2.690
  2.733   2.771   2.804   2.989   3.153   4.017   4.114   4.179
  4.381   4.454   4.461   4.550
 
 Beta MOs
 -- Occupied --
-14.320 -10.216 -10.216 -10.213 -10.213 -10.207 -10.207  -0.955
 -0.894  -0.738  -0.631  -0.630  -0.584  -0.542  -0.476  -0.466
 -0.464  -0.405  -0.377  -0.362  -0.323  -0.298  -0.294  -0.227
 -- Virtual --
 -0.064   0.036   0.091   0.120   0.144   0.144   0.161   0.165
  0.170   0.210   0.213   0.235   0.277   0.300   0.308   0.329
  0.393   0.528   0.534   0.547   0.563   0.566   0.592   0.599
  0.605   0.621   0.639   0.652   0.659   0.678   0.740   0.795
  0.804   0.817   0.842   0.847   0.857   0.883   0.897   0.931
  0.942   0.961   0.992   1.147   1.157   1.168   1.199   1.256
  1.387   1.420   1.457   1.497   1.515   1.583   1.633   1.659
  1.684   1.748   1.750   1.863   1.881   1.886   1.919   1.999
  2.030   2.050   2.143   2.164   2.224   2.256   2.297   2.374
  2.475   2.477   2.497   2.541   2.583   2.597   2.618   2.625
  2.694   2.736   2.776   2.810   2.991   3.157   4.014   4.130
  4.191   4.384   4.459   4.472   4.552
 --------------------------------------------------------------
 
          Ground-State Mulliken Net Atomic Charges

     Atom                 Charge (a.u.)    Spin (a.u.)
  --------------------------------------------------------
      1 C                     0.076673       0.597354
      2 C                    -0.221163      -0.053390
      3 C                    -0.089948       0.094717
      4 C                    -0.221291      -0.053298
      5 C                     0.076657       0.596995
      6 N                    -0.395285      -0.205356
      7 H                     0.135583      -0.032063
      8 H                     0.142128       0.000520
      9 H                     0.154185      -0.004294
     10 H                     0.142164       0.000516
     11 H                     0.135561      -0.032043
     12 C                    -0.089476       0.094627
     13 H                     0.154210      -0.004285
  --------------------------------------------------------
  Sum of atomic charges =    -0.000000
  Sum of spin   charges =     1.000000

 -----------------------------------------------------------------
                    Cartesian Multipole Moments
 -----------------------------------------------------------------
    Charge (ESU x 10^10)
                -0.0000
    Dipole Moment (Debye)
         X      -1.3320      Y      -2.3749      Z       1.2209
       Tot       2.9841
    Quadrupole Moments (Debye-Ang)
        XX     -37.5216     XY      -3.3867     YY     -41.6915
        XZ       0.5355     YZ       0.8880     ZZ     -41.7397
    Octopole Moments (Debye-Ang^2)
       XXX      -9.1299    XXY      -9.2044    XYY     -12.1024
       YYY     -28.7579    XXZ       3.1730    XYZ       2.3747
       YYZ       5.9834    XZZ      -6.1526    YZZ     -10.8916
       ZZZ      15.9410
    Hexadecapole Moments (Debye-Ang^3)
      XXXX    -259.9832   XXXY     -16.0126   XXYY     -99.7909
      XYYY     -28.2847   YYYY    -313.2829   XXXZ      20.4651
      XXYZ      17.2261   XYYZ      18.4559   YYYZ      53.1524
      XXZZ     -72.5585   XYZZ      -5.3691   YYZZ     -78.7881
      XZZZ      24.5501   YZZZ      44.9092   ZZZZ    -134.5573
 -----------------------------------------------------------------
 Calculating analytic gradient of the SCF energy
 Gradient of SCF Energy
            1           2           3           4           5           6
    1   0.0000150   0.0000390  -0.0000929   0.0000178   0.0000600  -0.0000610
    2  -0.0000336  -0.0000466   0.0000879  -0.0001563   0.0000413   0.0000146
    3   0.0000157   0.0000076  -0.0000074  -0.0000478  -0.0000510   0.0000160
            7           8           9          10          11          12
    1   0.0000016  -0.0000002   0.0000363  -0.0000055  -0.0000045  -0.0000071
    2   0.0000033   0.0000085  -0.0000184   0.0000130  -0.0000048   0.0001503
    3   0.0000062   0.0000208   0.0000026  -0.0000136  -0.0000098   0.0000816
           13
    1   0.0000015
    2  -0.0000592
    3  -0.0000210
 Max gradient component =       1.563E-04
 RMS gradient           =       4.983E-05
 Gradient time:  CPU 7.86 s  wall 3.36 s

STARTING FREEZING STRING ITERATION # 1
 The distance between the innermost nodes (Angstroms): 1.690
-Adding two new nodes
 The distance between the previous and current R_nodes (Angstroms): 0.0843
 The distance between the previous and current P_nodes (Angstroms): 0.0822
-Optimizing new reactant side node
 Using BFGS, step: 2 E_tol 0.0035
 max_steps 6, node_spacing 0.0805, sigma 0.7000
 ----------------------------------------------------------------
             Standard Nuclear Orientation (Angstroms)
    I     Atom           X                Y                Z
 ----------------------------------------------------------------
    1      C       1.4712917029     0.4410457165    -0.3602785862
    2      C       0.8837453967    -0.7851549691     0.2097728072
    3      C      -0.7370641378    -0.8260179089     0.1483240052
    4      C      -1.3060498190     0.4511441826    -0.3094877520
    5      C      -0.5424276244     1.5418979771    -0.5713917857
    6      N       0.8476005296     1.5349981202    -0.6416482062
    7      H       2.5331395548     0.3970691658    -0.6137189326
    8      H       1.4477176406    -1.6995893749     0.0166889705
    9      H      -1.2509818465    -1.7448455741    -0.1361543618
   10      H      -2.3798167777     0.4866535495    -0.4768478814
   11      H      -1.0044398143     2.4785302695    -0.8728152339
   12      C       0.0192535610    -0.7811246534     1.3957485244
   13      H       0.0177389106    -1.4957013137     2.2101749617
 ----------------------------------------------------------------
 Nuclear Repulsion Energy =   269.3917246583 hartrees
 There are       25 alpha and       24 beta electrons

                       Distance Matrix (Angstroms)
             C (  1)   C (  2)   C (  3)   C (  4)   C (  5)   N (  6)
   C (  2)  1.474360
   C (  3)  2.596336  1.622489
   C (  4)  2.777824  2.567736  1.471217
   C (  5)  2.304671  2.838902  2.482519  1.357003
   N (  6)  1.290307  2.471707  2.951206  2.433779  1.391820
   H (  7)  1.092560  2.190044  3.573637  3.851604  3.282002  2.033889
   H (  8)  2.173702  1.091575  2.356635  3.509314  3.848864  3.355012
   H (  9)  3.498446  2.365953  1.090543  2.203508  3.390304  3.926442
   H ( 10)  3.853142  3.569283  2.193760  1.087311  2.120962  3.397412
   H ( 11)  3.247042  3.922867  3.469042  2.125700  1.087010  2.091350
   C ( 12)  2.585681  1.467617  1.459486  2.486513  3.095410  3.193989
   H ( 13)  3.531435  2.292695  2.295525  3.448380  4.156670  4.243431
             H (  7)   H (  8)   H (  9)   H ( 10)   H ( 11)   C ( 12)
   H (  8)  2.443672
   H (  9)  4.374408  2.703403
   H ( 10)  4.915679  4.435454  2.523872
   H ( 11)  4.112673  4.925543  4.294224  2.452759
   C ( 12)  3.427203  2.187668  2.211104  3.296880  4.101180
   H ( 13)  4.228971  2.626364  2.678990  4.110729  5.132660  1.083472

 
 Applying Cartesian multipole field
    Component          Value
    ---------          -----
     (2,0,0)        1.00000E-11
     (0,2,0)        2.00000E-11
     (0,0,2)       -3.00000E-11
 Nucleus-field energy     =     0.0000000036 hartrees
 Requested basis set is 6-31G(d)
 There are 40 shells and 117 basis functions
 A cutoff of  1.0D-14 yielded    805 shell pairs
 There are      7077 function pairs
 Smallest overlap matrix eigenvalue = 1.44E-03
 Guess MOs from core Hamiltonian diagonalization
 Mixing HOMO and LUMO in initial guess
 Adding  50% of the LUMO to the HOMO
 An unrestricted hybrid HF-DFT SCF calculation will be
 performed using Pulay DIIS extrapolation
 Exchange:     0.2000 Hartree-Fock + 0.0800 Slater + 0.7200 B88
 Correlation:  0.1900 VWN1RPA + 0.8100 LYP
 Using SG-1 standard quadrature grid
 SCF converges when DIIS error is below 1.0E-08
 using 4 threads for integral computing
 -------------------------------------------------------
 OpenMP Integral computing Module                
 Release: version 1.0, May 2013, Q-Chem Inc. Pittsburgh 
 -------------------------------------------------------
 -------------------------------------------------------
 OpenMP BLAS3 based DFT computing Module                
 Release: version 1.0, May 2013, Q-Chem Inc. Pittsburgh 
 -------------------------------------------------------
 ---------------------------------------
  Cycle       Energy         DIIS Error
 ---------------------------------------
    1    -237.9748979015      1.30E-01
    2    -233.1995129404      1.00E-01
    3    -251.1221424436      1.07E-01
    4    -280.0200693813      6.20E-02
    5    -282.0639649265      4.57E-02
    6    -286.2351661881      1.63E-02
    7    -286.2512307750      1.72E-02
    8    -286.8359833299      2.85E-03
    9    -286.8524756042      1.07E-03
   10    -286.8542092342      3.87E-04
   11    -286.8544774959      6.37E-05
   12    -286.8544901894      1.41E-05
   13    -286.8544916215      1.22E-05
   14    -286.8544921723      2.58E-06
   15    -286.8544923293      9.90E-07
   16    -286.8544923945      3.24E-07
   17    -286.8544924393      1.20E-07
   18    -286.8544924585      8.38E-08
   19    -286.8544924728      4.82E-08
   20    -286.8544924817      2.47E-08
   21    -286.8544924848      8.14E-09 Convergence criterion met
 ---------------------------------------
 <S^2> = 0.7532
 SCF time:  CPU 54.55 s  wall 55.73 s
 SCF   energy in the final basis set = -286.85449248
 Total energy in the final basis set = -286.85449248
 
 --------------------------------------------------------------
 
                    Orbital Energies (a.u.)
 --------------------------------------------------------------
 
 Alpha MOs
 -- Occupied --
-14.323 -10.230 -10.223 -10.221 -10.218 -10.207 -10.196  -0.935
 -0.869  -0.764  -0.666  -0.641  -0.571  -0.533  -0.490  -0.482
 -0.451  -0.426  -0.376  -0.374  -0.358  -0.300  -0.255  -0.230
 -0.218
 -- Virtual --
 -0.032   0.050   0.085   0.130   0.137   0.152   0.156   0.173
  0.184   0.226   0.242   0.287   0.294   0.328   0.398   0.436
  0.506   0.510   0.531   0.549   0.557   0.582   0.591   0.604
  0.616   0.628   0.648   0.668   0.671   0.712   0.753   0.805
  0.831   0.845   0.860   0.867   0.878   0.896   0.903   0.925
  0.941   1.002   1.077   1.100   1.113   1.171   1.211   1.330
  1.353   1.440   1.492   1.520   1.546   1.569   1.601   1.701
  1.726   1.781   1.817   1.830   1.896   1.910   1.947   2.020
  2.036   2.056   2.145   2.208   2.225   2.239   2.289   2.342
  2.441   2.474   2.504   2.533   2.550   2.576   2.634   2.674
  2.729   2.800   2.837   3.019   3.234   4.031   4.112   4.141
  4.281   4.321   4.395   4.609
 
 Beta MOs
 -- Occupied --
-14.322 -10.229 -10.223 -10.221 -10.207 -10.204 -10.195  -0.933
 -0.859  -0.762  -0.659  -0.639  -0.556  -0.528  -0.487  -0.473
 -0.448  -0.423  -0.374  -0.371  -0.350  -0.291  -0.250  -0.224
 -- Virtual --
 -0.071  -0.030   0.053   0.091   0.132   0.138   0.154   0.162
  0.178   0.186   0.231   0.244   0.291   0.308   0.330   0.401
  0.438   0.512   0.533   0.542   0.555   0.563   0.588   0.595
  0.609   0.622   0.638   0.650   0.672   0.673   0.719   0.766
  0.807   0.833   0.847   0.861   0.869   0.883   0.902   0.906
  0.926   0.945   1.015   1.079   1.105   1.118   1.176   1.213
  1.333   1.355   1.447   1.499   1.524   1.549   1.573   1.608
  1.706   1.732   1.800   1.822   1.833   1.917   1.928   1.958
  2.025   2.042   2.066   2.156   2.218   2.235   2.249   2.295
  2.352   2.445   2.479   2.515   2.538   2.553   2.587   2.638
  2.675   2.734   2.810   2.847   3.020   3.235   4.031   4.117
  4.142   4.306   4.324   4.399   4.610
 --------------------------------------------------------------
 
          Ground-State Mulliken Net Atomic Charges

     Atom                 Charge (a.u.)    Spin (a.u.)
  --------------------------------------------------------
      1 C                     0.089155       0.014821
      2 C                    -0.195131      -0.016101
      3 C                    -0.171681      -0.018906
      4 C                    -0.087894       0.044491
      5 C                    -0.006658      -0.016313
      6 N                    -0.392332       0.004385
      7 H                     0.142810       0.005877
      8 H                     0.155865       0.023662
      9 H                     0.155894       0.015003
     10 H                     0.139079       0.003925
     11 H                     0.137043       0.000780
     12 C                    -0.123152       0.960485
     13 H                     0.157003      -0.022108
  --------------------------------------------------------
  Sum of atomic charges =    -0.000000
  Sum of spin   charges =     1.000000

 -----------------------------------------------------------------
                    Cartesian Multipole Moments
 -----------------------------------------------------------------
    Charge (ESU x 10^10)
                -0.0000
    Dipole Moment (Debye)
         X      -0.7585      Y      -2.7139      Z       0.4368
       Tot       2.8515
    Quadrupole Moments (Debye-Ang)
        XX     -37.6067     XY      -3.1833     YY     -41.0017
        XZ       1.0655     YZ      -0.3365     ZZ     -42.2907
    Octopole Moments (Debye-Ang^2)
       XXX      -8.2490    XXY     -10.4898    XYY     -10.6658
       YYY     -31.5166    XXZ      -2.3429    XYZ       3.0929
       YYZ       4.1096    XZZ      -3.6029    YZZ     -12.2068
       ZZZ       6.2288
    Hexadecapole Moments (Debye-Ang^3)
      XXXX    -276.6128   XXXY      -5.1874   XXYY    -107.0422
      XYYY     -19.9271   YYYY    -323.3288   XXXZ       2.5188
      XXYZ      24.5623   XYYZ       9.0743   YYYZ      66.5904
      XXZZ     -81.4496   XYZZ      -2.7511   YYZZ     -79.4266
      XZZZ       3.1652   YZZZ      62.5302   ZZZZ    -159.2889
 -----------------------------------------------------------------
 Calculating analytic gradient of the SCF energy
 Gradient of SCF Energy
            1           2           3           4           5           6
    1   0.0006990   0.0005808  -0.0003240  -0.0003306   0.0051331  -0.0033585
    2  -0.0021080  -0.0007019  -0.0044857  -0.0037078   0.0049190   0.0022198
    3   0.0010835  -0.0012195  -0.0033293   0.0079653  -0.0024649   0.0003930
            7           8           9          10          11          12
    1   0.0000610  -0.0000028  -0.0000726   0.0001693  -0.0000156  -0.0017317
    2   0.0000984  -0.0000735   0.0000790  -0.0007560  -0.0001362   0.0048180
    3   0.0001776  -0.0002320   0.0003816   0.0000291  -0.0009153  -0.0014339
           13
    1  -0.0008075
    2  -0.0001653
    3  -0.0004352
 Max gradient component =       7.965E-03
 RMS gradient           =       2.380E-03
 Gradient time:  CPU 7.89 s  wall 3.29 s
 ----------------------------------------------------------------
             Standard Nuclear Orientation (Angstroms)
    I     Atom           X                Y                Z
 ----------------------------------------------------------------
    1      C       1.4693367640     0.4487611146    -0.3663007579
    2      C       0.8813796298    -0.7822791908     0.2131949556
    3      C      -0.7336563143    -0.8137596984     0.1545290316
    4      C      -1.3033137390     0.4646611994    -0.3344877520
    5      C      -0.5608634578     1.5226942074    -0.5608120478
    6      N       0.8610185535     1.5262855818    -0.6450793042
    7      H       2.5337558720     0.3965978426    -0.6156706578
    8      H       1.4493141965    -1.6991673684     0.0215728159
    9      H      -1.2486963570    -1.7498198046    -0.1447702099
   10      H      -2.3797663297     0.4895207168    -0.4663243233
   11      H      -1.0045592530     2.4784704607    -0.8672790607
   12      C       0.0217276106    -0.7958899556     1.3979043065
   13      H       0.0140301271    -1.4871699260     2.2118895336
 ----------------------------------------------------------------
 Nuclear Repulsion Energy =   269.7872786339 hartrees
 There are       25 alpha and       24 beta electrons

                       Distance Matrix (Angstroms)
             C (  1)   C (  2)   C (  3)   C (  4)   C (  5)   N (  6)
   C (  2)  1.482218
   C (  3)  2.591988  1.616408
   C (  4)  2.772879  2.574432  1.482568
   C (  5)  2.304969  2.827022  2.449610  1.312208
   N (  6)  1.268396  2.463031  2.942477  2.430606  1.424381
   H (  7)  1.094484  2.192514  3.568495  3.847960  3.293595  2.018690
   H (  8)  2.182761  1.095424  2.359446  3.519360  3.841924  3.345753
   H (  9)  3.502933  2.366748  1.109529  2.223264  3.369800  3.928622
   H ( 10)  3.850618  3.565711  2.189447  1.084781  2.093987  3.407275
   H ( 11)  3.238960  3.918760  3.457782  2.104412  1.097404  2.106279
   C ( 12)  2.599451  1.463804  1.454959  2.519108  3.090601  3.204792
   H ( 13)  3.537345  2.289966  2.290251  3.468296  4.132512  4.237992
             H (  7)   H (  8)   H (  9)   H ( 10)   H ( 11)   C ( 12)
   H (  8)  2.444243
   H (  9)  4.374449  2.703608
   H ( 10)  4.916670  4.437370  2.529301
   H ( 11)  4.113049  4.925872  4.296517  2.451098
   C ( 12)  3.433191  2.179037  2.214453  3.300728  4.111661
   H ( 13)  4.229976  2.627255  2.686505  4.100048  5.122998  1.067942

 
 Applying Cartesian multipole field
    Component          Value
    ---------          -----
     (2,0,0)        1.00000E-11
     (0,2,0)        2.00000E-11
     (0,0,2)       -3.00000E-11
 Nucleus-field energy     =     0.0000000035 hartrees
 Requested basis set is 6-31G(d)
 There are 40 shells and 117 basis functions
 A cutoff of  1.0D-14 yielded    805 shell pairs
 There are      7077 function pairs
 Smallest overlap matrix eigenvalue = 1.42E-03
 Guess MOs from core Hamiltonian diagonalization
 Mixing HOMO and LUMO in initial guess
 Adding  50% of the LUMO to the HOMO
 An unrestricted hybrid HF-DFT SCF calculation will be
 performed using Pulay DIIS extrapolation
 Exchange:     0.2000 Hartree-Fock + 0.0800 Slater + 0.7200 B88
 Correlation:  0.1900 VWN1RPA + 0.8100 LYP
 Using SG-1 standard quadrature grid
 SCF converges when DIIS error is below 1.0E-08
 using 4 threads for integral computing
 -------------------------------------------------------
 OpenMP Integral computing Module                
 Release: version 1.0, May 2013, Q-Chem Inc. Pittsburgh 
 -------------------------------------------------------
 -------------------------------------------------------
 OpenMP BLAS3 based DFT computing Module                
 Release: version 1.0, May 2013, Q-Chem Inc. Pittsburgh 
 -------------------------------------------------------
 ---------------------------------------
  Cycle       Energy         DIIS Error
 ---------------------------------------
    1    -237.7533384530      1.30E-01
    2    -232.6226503364      1.01E-01
    3    -251.4873633081      1.06E-01
    4    -279.6574084723      6.40E-02
    5    -282.1464294738      4.57E-02
    6    -286.2148278182      1.59E-02
    7    -286.4892361880      1.41E-02
    8    -286.8294598404      3.38E-03
    9    -286.8502707384      1.01E-03
   10    -286.8518335666      3.51E-04
   11    -286.8520770876      7.50E-05
   12    -286.8520918333      3.22E-05
   13    -286.8520955213      7.23E-06
   14    -286.8520964404      3.24E-06
   15    -286.8520966469      1.16E-06
   16    -286.8520967482      2.63E-07
   17    -286.8520967958      1.51E-07
   18    -286.8520968101      5.22E-08
   19    -286.8520968208      3.10E-08
   20    -286.8520968272      1.63E-08
   21    -286.8520968282      5.05E-09 Convergence criterion met
 ---------------------------------------
 <S^2> = 0.7532
 SCF time:  CPU 54.39 s  wall 41.82 s
 SCF   energy in the final basis set = -286.85209683
 Total energy in the final basis set = -286.85209683
 
 --------------------------------------------------------------
 
                    Orbital Energies (a.u.)
 --------------------------------------------------------------
 
 Alpha MOs
 -- Occupied --
-14.323 -10.229 -10.224 -10.220 -10.216 -10.205 -10.192  -0.937
 -0.869  -0.771  -0.663  -0.639  -0.572  -0.530  -0.490  -0.484
 -0.456  -0.424  -0.377  -0.368  -0.357  -0.300  -0.258  -0.237
 -0.216
 -- Virtual --
 -0.026   0.052   0.086   0.126   0.137   0.154   0.156   0.173
  0.184   0.227   0.239   0.282   0.300   0.330   0.409   0.438
  0.497   0.507   0.526   0.551   0.556   0.579   0.593   0.605
  0.617   0.629   0.654   0.674   0.681   0.719   0.755   0.801
  0.830   0.841   0.855   0.869   0.882   0.898   0.907   0.920
  0.939   1.017   1.079   1.096   1.125   1.172   1.211   1.331
  1.353   1.430   1.491   1.522   1.542   1.574   1.611   1.696
  1.719   1.771   1.816   1.832   1.900   1.921   1.940   2.020
  2.038   2.055   2.159   2.216   2.227   2.236   2.303   2.355
  2.435   2.474   2.516   2.533   2.546   2.599   2.638   2.682
  2.749   2.808   2.849   3.029   3.242   4.020   4.111   4.149
  4.282   4.318   4.398   4.612
 
 Beta MOs
 -- Occupied --
-14.323 -10.228 -10.224 -10.220 -10.205 -10.201 -10.191  -0.935
 -0.859  -0.769  -0.656  -0.637  -0.558  -0.525  -0.487  -0.475
 -0.451  -0.421  -0.376  -0.365  -0.350  -0.290  -0.252  -0.233
 -- Virtual --
 -0.069  -0.023   0.055   0.091   0.128   0.138   0.156   0.162
  0.178   0.186   0.231   0.242   0.287   0.314   0.332   0.413
  0.440   0.500   0.528   0.542   0.557   0.562   0.586   0.597
  0.609   0.623   0.643   0.655   0.676   0.685   0.725   0.766
  0.803   0.831   0.843   0.856   0.870   0.885   0.905   0.910
  0.921   0.943   1.031   1.081   1.105   1.127   1.178   1.213
  1.333   1.355   1.435   1.499   1.527   1.544   1.577   1.616
  1.700   1.725   1.789   1.822   1.835   1.924   1.932   1.954
  2.024   2.044   2.066   2.172   2.223   2.235   2.250   2.307
  2.366   2.439   2.479   2.524   2.539   2.549   2.610   2.642
  2.683   2.754   2.817   2.859   3.030   3.243   4.021   4.116
  4.151   4.308   4.320   4.402   4.613
 --------------------------------------------------------------
 
          Ground-State Mulliken Net Atomic Charges

     Atom                 Charge (a.u.)    Spin (a.u.)
  --------------------------------------------------------
      1 C                     0.096915       0.019223
      2 C                    -0.197400      -0.018345
      3 C                    -0.178121      -0.020140
      4 C                    -0.070896       0.040959
      5 C                    -0.018194      -0.013408
      6 N                    -0.390687       0.003389
      7 H                     0.140401       0.006342
      8 H                     0.153825       0.024169
      9 H                     0.151824       0.018189
     10 H                     0.140419       0.003707
     11 H                     0.135818       0.000861
     12 C                    -0.121716       0.960373
     13 H                     0.157815      -0.025319
  --------------------------------------------------------
  Sum of atomic charges =    -0.000000
  Sum of spin   charges =     1.000000

 -----------------------------------------------------------------
                    Cartesian Multipole Moments
 -----------------------------------------------------------------
    Charge (ESU x 10^10)
                 0.0000
    Dipole Moment (Debye)
         X      -0.7665      Y      -2.6257      Z       0.4624
       Tot       2.7741
    Quadrupole Moments (Debye-Ang)
        XX     -37.5908     XY      -3.1826     YY     -41.0659
        XZ       1.0484     YZ      -0.3124     ZZ     -42.1716
    Octopole Moments (Debye-Ang^2)
       XXX      -8.5128    XXY     -10.2851    XYY     -10.5606
       YYY     -31.0386    XXZ      -2.1396    XYZ       3.0365
       YYZ       4.3161    XZZ      -3.5926    YZZ     -12.2017
       ZZZ       6.5812
    Hexadecapole Moments (Debye-Ang^3)
      XXXX    -277.3843   XXXY      -5.0562   XXYY    -107.0108
      XYYY     -19.5302   YYYY    -321.7134   XXXZ       2.2689
      XXYZ      24.6842   XYYZ       8.9536   YYYZ      66.9252
      XXZZ     -81.5513   XYZZ      -2.6407   YYZZ     -79.1680
      XZZZ       2.8814   YZZZ      62.5284   ZZZZ    -158.9488
 -----------------------------------------------------------------
 Calculating analytic gradient of the SCF energy
 Gradient of SCF Energy
            1           2           3           4           5           6
    1  -0.0117577  -0.0005609   0.0043300   0.0198742  -0.0298667   0.0228865
    2   0.0182185   0.0033429   0.0081690   0.0367972  -0.0423463  -0.0153211
    3  -0.0062711   0.0011891   0.0056310  -0.0098753   0.0138141   0.0032683
            7           8           9          10          11          12
    1   0.0001579   0.0012744  -0.0047844   0.0018348  -0.0020535  -0.0004012
    2   0.0003197  -0.0022650  -0.0099545  -0.0017279   0.0060325  -0.0087806
    3  -0.0003540   0.0009440  -0.0024588   0.0013600  -0.0029762   0.0037959
           13
    1  -0.0009332
    2   0.0075155
    3  -0.0080672
 Max gradient component =       4.235E-02
 RMS gradient           =       1.295E-02
 Gradient time:  CPU 7.24 s  wall 2.68 s
WARNING!!!!! energy has increased from optimization step!
 ----------------------------------------------------------------
             Standard Nuclear Orientation (Angstroms)
    I     Atom           X                Y                Z
 ----------------------------------------------------------------
    1      C       1.4759518197     0.4384523963    -0.3625854913
    2      C       0.8817120052    -0.7841901429     0.2126232483
    3      C      -0.7362981587    -0.8179647079     0.1519040060
    4      C      -1.3147390031     0.4438160916    -0.3293732381
    5      C      -0.5440225006     1.5467756630    -0.5687408937
    6      N       0.8479673043     1.5350092612    -0.6467705029
    7      H       2.5335884049     0.3964362966    -0.6153719926
    8      H       1.4484602876    -1.6978862682     0.0206788828
    9      H      -1.2461426762    -1.7437649895    -0.1427631747
   10      H      -2.3808741844     0.4905021302    -0.4679950966
   11      H      -1.0033901983     2.4750923764    -0.8657399268
   12      C       0.0223299845    -0.7912433793     1.3960350161
   13      H       0.0151642111    -1.4921295401     2.2164656891
 ----------------------------------------------------------------
 Nuclear Repulsion Energy =   269.1197825467 hartrees
 There are       25 alpha and       24 beta electrons

                       Distance Matrix (Angstroms)
             C (  1)   C (  2)   C (  3)   C (  4)   C (  5)   N (  6)
   C (  2)  1.476090
   C (  3)  2.595637  1.619501
   C (  4)  2.790894  2.574132  1.469120
   C (  5)  2.313261  2.841945  2.479576  1.366682
   N (  6)  1.295208  2.473536  2.946908  2.443101  1.394225
   H (  7)  1.088238  2.192750  3.571504  3.859231  3.285901  2.034368
   H (  8)  2.170620  1.092194  2.358951  3.513502  3.852951  3.355249
   H (  9)  3.495739  2.361112  1.097213  2.196597  3.391473  3.922968
   H ( 10)  3.858617  3.568270  2.191116  1.076123  2.121294  3.398290
   H ( 11)  3.247800  3.916555  3.457045  2.123843  1.077497  2.087877
   C ( 12)  2.591894  1.462549  1.457427  2.508019  3.106032  3.204088
   H ( 13)  3.537309  2.295096  2.298175  3.463788  4.159929  4.249147
             H (  7)   H (  8)   H (  9)   H ( 10)   H ( 11)   C ( 12)
   H (  8)  2.443000
   H (  9)  4.369232  2.699945
   H ( 10)  4.917572  4.437527  2.526923
   H ( 11)  4.110196  4.920474  4.287235  2.448318
   C ( 12)  3.429688  2.178865  2.210027  3.300435  4.103252
   H ( 13)  4.234200  2.630238  2.687039  4.108304  5.126041  1.079073

 
 Applying Cartesian multipole field
    Component          Value
    ---------          -----
     (2,0,0)        1.00000E-11
     (0,2,0)        2.00000E-11
     (0,0,2)       -3.00000E-11
 Nucleus-field energy     =     0.0000000036 hartrees
 Requested basis set is 6-31G(d)
 There are 40 shells and 117 basis functions
 A cutoff of  1.0D-14 yielded    805 shell pairs
 There are      7077 function pairs
 Smallest overlap matrix eigenvalue = 1.48E-03
 Guess MOs from core Hamiltonian diagonalization
 Mixing HOMO and LUMO in initial guess
 Adding  50% of the LUMO to the HOMO
 An unrestricted hybrid HF-DFT SCF calculation will be
 performed using Pulay DIIS extrapolation
 Exchange:     0.2000 Hartree-Fock + 0.0800 Slater + 0.7200 B88
 Correlation:  0.1900 VWN1RPA + 0.8100 LYP
 Using SG-1 standard quadrature grid
 SCF converges when DIIS error is below 1.0E-08
 using 4 threads for integral computing
 -------------------------------------------------------
 OpenMP Integral computing Module                
 Release: version 1.0, May 2013, Q-Chem Inc. Pittsburgh 
 -------------------------------------------------------
 -------------------------------------------------------
 OpenMP BLAS3 based DFT computing Module                
 Release: version 1.0, May 2013, Q-Chem Inc. Pittsburgh 
 -------------------------------------------------------
 ---------------------------------------
  Cycle       Energy         DIIS Error
 ---------------------------------------
    1    -237.9936246118      1.30E-01
    2    -232.5186516243      1.01E-01
    3    -251.1134343205      1.06E-01
    4    -279.4367570863      6.40E-02
    5    -281.7452681686      4.82E-02
    6    -285.6794143605      2.04E-02
    7    -286.4359732829      1.49E-02
    8    -286.8085104454      4.96E-03
    9    -286.8497907663      1.56E-03
   10    -286.8537612388      4.21E-04
   11    -286.8542376005      1.15E-04
   12    -286.8542750165      5.94E-05
   13    -286.8542847638      1.44E-05
   14    -286.8542877884      3.00E-06
   15    -286.8542888857      1.63E-06
   16    -286.8542893899      4.51E-07
   17    -286.8542899337      2.84E-07
   18    -286.8542902573      1.67E-07
   19    -286.8542903883      8.86E-08
   20    -286.8542904091      3.85E-08
   21    -286.8542904124      1.37E-08
   22    -286.8542904134      4.75E-09 Convergence criterion met
 ---------------------------------------
 <S^2> = 0.7533
 SCF time:  CPU 57.06 s  wall 53.54 s
 SCF   energy in the final basis set = -286.85429041
 Total energy in the final basis set = -286.85429041
 
 --------------------------------------------------------------
 
                    Orbital Energies (a.u.)
 --------------------------------------------------------------
 
 Alpha MOs
 -- Occupied --
-14.323 -10.230 -10.223 -10.221 -10.217 -10.207 -10.196  -0.933
 -0.869  -0.764  -0.667  -0.640  -0.571  -0.532  -0.492  -0.483
 -0.451  -0.425  -0.376  -0.373  -0.359  -0.300  -0.255  -0.229
 -0.217
 -- Virtual --
 -0.034   0.049   0.086   0.132   0.136   0.152   0.156   0.174
  0.185   0.227   0.244   0.285   0.297   0.326   0.396   0.436
  0.505   0.508   0.531   0.550   0.556   0.581   0.591   0.603
  0.617   0.627   0.646   0.665   0.671   0.712   0.752   0.803
  0.833   0.844   0.863   0.869   0.881   0.896   0.906   0.927
  0.941   1.005   1.076   1.095   1.110   1.169   1.208   1.329
  1.353   1.424   1.490   1.520   1.543   1.566   1.607   1.704
  1.727   1.773   1.820   1.830   1.898   1.913   1.947   2.024
  2.033   2.054   2.144   2.202   2.221   2.242   2.289   2.340
  2.436   2.473   2.506   2.529   2.543   2.579   2.631   2.673
  2.728   2.801   2.836   3.012   3.226   4.023   4.109   4.139
  4.277   4.320   4.395   4.608
 
 Beta MOs
 -- Occupied --
-14.323 -10.230 -10.224 -10.221 -10.207 -10.203 -10.194  -0.931
 -0.859  -0.762  -0.659  -0.638  -0.556  -0.527  -0.490  -0.474
 -0.447  -0.423  -0.373  -0.372  -0.351  -0.291  -0.250  -0.223
 -- Virtual --
 -0.070  -0.031   0.051   0.092   0.134   0.137   0.155   0.162
  0.179   0.188   0.232   0.246   0.291   0.311   0.328   0.399
  0.438   0.510   0.533   0.542   0.555   0.563   0.587   0.595
  0.609   0.622   0.637   0.648   0.670   0.672   0.719   0.764
  0.806   0.835   0.846   0.864   0.872   0.885   0.902   0.909
  0.929   0.944   1.018   1.078   1.101   1.114   1.175   1.211
  1.331   1.355   1.430   1.498   1.524   1.546   1.568   1.613
  1.709   1.733   1.793   1.825   1.833   1.915   1.932   1.959
  2.028   2.038   2.063   2.156   2.212   2.231   2.252   2.294
  2.349   2.440   2.478   2.516   2.535   2.545   2.589   2.635
  2.674   2.733   2.811   2.847   3.013   3.227   4.023   4.114
  4.140   4.302   4.324   4.399   4.609
 --------------------------------------------------------------
 
          Ground-State Mulliken Net Atomic Charges

     Atom                 Charge (a.u.)    Spin (a.u.)
  --------------------------------------------------------
      1 C                     0.088248       0.016381
      2 C                    -0.194410      -0.019249
      3 C                    -0.173263      -0.020183
      4 C                    -0.088077       0.046363
      5 C                    -0.007581      -0.017286
      6 N                    -0.393073       0.004144
      7 H                     0.144485       0.005710
      8 H                     0.155151       0.024755
      9 H                     0.153735       0.016944
     10 H                     0.140636       0.003125
     11 H                     0.137722       0.000819
     12 C                    -0.121648       0.962531
     13 H                     0.158075      -0.024054
  --------------------------------------------------------
  Sum of atomic charges =    -0.000000
  Sum of spin   charges =     1.000000

 -----------------------------------------------------------------
                    Cartesian Multipole Moments
 -----------------------------------------------------------------
    Charge (ESU x 10^10)
                -0.0000
    Dipole Moment (Debye)
         X      -0.7464      Y      -2.6764      Z       0.4762
       Tot       2.8190
    Quadrupole Moments (Debye-Ang)
        XX     -37.5138     XY      -3.2478     YY     -41.0401
        XZ       1.0435     YZ      -0.3409     ZZ     -42.2530
    Octopole Moments (Debye-Ang^2)
       XXX      -8.1804    XXY     -10.2726    XYY     -10.6715
       YYY     -31.1729    XXZ      -2.2215    XYZ       3.0848
       YYZ       4.2871    XZZ      -3.5732    YZZ     -12.3091
       ZZZ       6.8055
    Hexadecapole Moments (Debye-Ang^3)
      XXXX    -276.3497   XXXY      -5.4069   XXYY    -107.2245
      XYYY     -20.1152   YYYY    -323.6361   XXXZ       2.0289
      XXYZ      24.6694   XYYZ       9.0437   YYYZ      67.0549
      XXZZ     -81.7018   XYZZ      -2.7486   YYZZ     -79.5026
      XZZZ       2.8232   YZZZ      62.7166   ZZZZ    -159.3734
 -----------------------------------------------------------------
 Calculating analytic gradient of the SCF energy
 Gradient of SCF Energy
            1           2           3           4           5           6
    1   0.0083437  -0.0036352   0.0041560  -0.0155129   0.0056999  -0.0042287
    2  -0.0069379   0.0000075   0.0042173  -0.0139726   0.0186359   0.0058094
    3  -0.0000435   0.0005563   0.0017816   0.0015545  -0.0027050  -0.0013945
            7           8           9          10          11          12
    1  -0.0022803   0.0004876  -0.0018482   0.0074023   0.0022810   0.0000126
    2   0.0005257   0.0000949  -0.0026989  -0.0000113  -0.0061158  -0.0017394
    3   0.0010323   0.0005416  -0.0012516   0.0024502   0.0008394  -0.0014391
           13
    1  -0.0008776
    2   0.0021853
    3  -0.0019222
 Max gradient component =       1.864E-02
 RMS gradient           =       5.515E-03
 Gradient time:  CPU 7.91 s  wall 3.90 s
 FSM gradient convergence criteria satisfied
done with opt_step_by_gradient, Reactant, iter1
-Optimizing new product side node
 Using BFGS, step: 2 E_tol 0.0035061
 max_steps 6, node_spacing 0.0804777, sigma 0.7000000
 ----------------------------------------------------------------
             Standard Nuclear Orientation (Angstroms)
    I     Atom           X                Y                Z
 ----------------------------------------------------------------
    1      C       1.5146225494     0.3996431668    -0.4743022486
    2      C       0.8556780345    -0.7814014787     0.1301170496
    3      C      -0.5984892419    -1.0552873140    -0.2378592530
    4      C      -1.1268022963     0.3254626813     0.0941467329
    5      C      -0.4586491711     1.4994284406    -0.4989699181
    6      N       0.8478902501     1.5110070028    -0.7700094850
    7      H       2.5804092798     0.3757454859    -0.6941798746
    8      H       1.4790467465    -1.6542206057     0.3178147409
    9      H      -1.0955352786    -1.9458608885    -0.5969491774
   10      H      -2.1980419842     0.3999554023     0.2733917428
   11      H      -1.0304754994     2.3953985685    -0.7324318749
   12      C      -0.2901956303    -0.5495817798     1.0957726374
   13      H      -0.4816006237    -0.9206872353     2.0929820972
 ----------------------------------------------------------------
 Nuclear Repulsion Energy =   276.6249969516 hartrees
 There are       25 alpha and       24 beta electrons

                       Distance Matrix (Angstroms)
             C (  1)   C (  2)   C (  3)   C (  4)   C (  5)   N (  6)
   C (  2)  1.481350
   C (  3)  2.576426  1.524802
   C (  4)  2.702917  2.270830  1.515194
   C (  5)  2.259190  2.706546  2.571829  1.475267
   N (  6)  1.329325  2.462808  2.993504  2.460019  1.334407
   H (  7)  1.088494  2.234536  3.515890  3.790436  3.246020  2.072726
   H (  8)  2.201607  1.088867  2.232409  3.280186  3.790423  3.405934
   H (  9)  3.511318  2.385754  1.081259  2.374342  3.505031  3.969482
   H ( 10)  3.787205  3.277398  2.222089  1.088684  2.197924  3.405998
   H ( 11)  3.244564  3.793893  3.512613  2.230952  1.088234  2.076492
   C ( 12)  2.573622  1.516330  1.459232  1.571263  2.601927  3.003732
   H ( 13)  3.509862  2.379192  2.337649  2.442236  3.546224  3.984646
             H (  7)   H (  8)   H (  9)   H ( 10)   H ( 11)   C ( 12)
   H (  8)  2.521487
   H (  9)  4.348779  2.747785
   H ( 10)  4.875487  4.212196  2.734203
   H ( 11)  4.137505  4.878538  4.343860  2.521247
   C ( 12)  3.507212  2.226132  2.337408  2.284252  3.544468
   H ( 13)  4.338769  2.744709  2.943404  2.828635  4.390974  1.081102

 
 Applying Cartesian multipole field
    Component          Value
    ---------          -----
     (2,0,0)        1.00000E-11
     (0,2,0)        2.00000E-11
     (0,0,2)       -3.00000E-11
 Nucleus-field energy     =     0.0000000037 hartrees
 Requested basis set is 6-31G(d)
 There are 40 shells and 117 basis functions
 A cutoff of  1.0D-14 yielded    808 shell pairs
 There are      7080 function pairs
 Smallest overlap matrix eigenvalue = 1.60E-03
 Guess MOs from core Hamiltonian diagonalization
 Mixing HOMO and LUMO in initial guess
 Adding  50% of the LUMO to the HOMO
 An unrestricted hybrid HF-DFT SCF calculation will be
 performed using Pulay DIIS extrapolation
 Exchange:     0.2000 Hartree-Fock + 0.0800 Slater + 0.7200 B88
 Correlation:  0.1900 VWN1RPA + 0.8100 LYP
 Using SG-1 standard quadrature grid
 SCF converges when DIIS error is below 1.0E-08
 using 4 threads for integral computing
 -------------------------------------------------------
 OpenMP Integral computing Module                
 Release: version 1.0, May 2013, Q-Chem Inc. Pittsburgh 
 -------------------------------------------------------
 -------------------------------------------------------
 OpenMP BLAS3 based DFT computing Module                
 Release: version 1.0, May 2013, Q-Chem Inc. Pittsburgh 
 -------------------------------------------------------
 ---------------------------------------
  Cycle       Energy         DIIS Error
 ---------------------------------------
    1    -240.7105190045      1.29E-01
    2    -241.7730732848      1.02E-01
    3    -281.3607396515      4.72E-02
    4    -284.2989968473      3.61E-02
    5    -286.2691210730      1.66E-02
    6    -286.7467285922      8.16E-03
    7    -286.8371461565      3.31E-03
    8    -286.8556995775      7.67E-04
    9    -286.8569654200      2.48E-04
   10    -286.8572335247      9.23E-05
   11    -286.8573105814      3.30E-05
   12    -286.8573493188      1.07E-05
   13    -286.8573595341      6.82E-06
   14    -286.8573626523      3.11E-06
   15    -286.8573628479      1.47E-06
   16    -286.8573628669      4.50E-07
   17    -286.8573628704      5.15E-08
   18    -286.8573628705      1.44E-08
   19    -286.8573628705      4.11E-09 Convergence criterion met
 ---------------------------------------
 <S^2> = 0.7735
 SCF time:  CPU 49.79 s  wall 45.89 s
 SCF   energy in the final basis set = -286.85736287
 Total energy in the final basis set = -286.85736287
 
 --------------------------------------------------------------
 
                    Orbital Energies (a.u.)
 --------------------------------------------------------------
 
 Alpha MOs
 -- Occupied --
-14.317 -10.218 -10.217 -10.216 -10.215 -10.215 -10.215  -0.956
 -0.894  -0.751  -0.642  -0.637  -0.587  -0.544  -0.482  -0.472
 -0.465  -0.409  -0.395  -0.365  -0.336  -0.301  -0.295  -0.228
 -0.172
 -- Virtual --
  0.015   0.089   0.114   0.140   0.142   0.152   0.158   0.165
  0.191   0.210   0.230   0.273   0.292   0.303   0.323   0.390
  0.525   0.530   0.540   0.541   0.557   0.588   0.589   0.593
  0.615   0.618   0.631   0.655   0.672   0.733   0.792   0.803
  0.815   0.838   0.854   0.856   0.883   0.890   0.923   0.938
  0.956   0.983   1.142   1.157   1.167   1.189   1.253   1.368
  1.414   1.459   1.488   1.500   1.582   1.607   1.637   1.679
  1.742   1.746   1.833   1.874   1.880   1.911   1.990   2.023
  2.040   2.121   2.158   2.198   2.245   2.279   2.357   2.460
  2.475   2.484   2.524   2.578   2.584   2.605   2.624   2.686
  2.729   2.764   2.799   2.990   3.155   4.018   4.114   4.174
  4.374   4.447   4.460   4.551
 
 Beta MOs
 -- Occupied --
-14.320 -10.219 -10.217 -10.215 -10.213 -10.207 -10.207  -0.952
 -0.891  -0.739  -0.632  -0.630  -0.582  -0.541  -0.476  -0.466
 -0.463  -0.406  -0.377  -0.362  -0.321  -0.298  -0.292  -0.229
 -- Virtual --
 -0.064   0.033   0.091   0.121   0.142   0.144   0.159   0.165
  0.169   0.202   0.213   0.233   0.277   0.301   0.307   0.331
  0.394   0.527   0.537   0.548   0.558   0.564   0.591   0.596
  0.603   0.621   0.638   0.652   0.659   0.678   0.738   0.796
  0.804   0.818   0.842   0.847   0.858   0.884   0.898   0.928
  0.942   0.960   0.991   1.145   1.158   1.170   1.190   1.253
  1.384   1.421   1.460   1.497   1.514   1.583   1.622   1.651
  1.686   1.750   1.755   1.839   1.884   1.889   1.913   1.995
  2.028   2.053   2.129   2.163   2.220   2.254   2.289   2.373
  2.469   2.479   2.496   2.539   2.582   2.586   2.613   2.626
  2.690   2.732   2.768   2.805   2.993   3.159   4.014   4.129
  4.184   4.378   4.453   4.470   4.553
 --------------------------------------------------------------
 
          Ground-State Mulliken Net Atomic Charges

     Atom                 Charge (a.u.)    Spin (a.u.)
  --------------------------------------------------------
      1 C                     0.077690       0.585930
      2 C                    -0.219396      -0.051976
      3 C                    -0.085774       0.093071
      4 C                    -0.221329      -0.057996
      5 C                     0.076803       0.597971
      6 N                    -0.395668      -0.203842
      7 H                     0.135310      -0.031502
      8 H                     0.142972       0.000519
      9 H                     0.153847      -0.004238
     10 H                     0.143553       0.000769
     11 H                     0.136212      -0.032173
     12 C                    -0.099593       0.108340
     13 H                     0.155371      -0.004873
  --------------------------------------------------------
  Sum of atomic charges =     0.000000
  Sum of spin   charges =     1.000000

 -----------------------------------------------------------------
                    Cartesian Multipole Moments
 -----------------------------------------------------------------
    Charge (ESU x 10^10)
                -0.0000
    Dipole Moment (Debye)
         X      -1.3447      Y      -2.4168      Z       1.1539
       Tot       2.9967
    Quadrupole Moments (Debye-Ang)
        XX     -37.4750     XY      -3.4162     YY     -41.6635
        XZ       0.6274     YZ       0.7249     ZZ     -41.7981
    Octopole Moments (Debye-Ang^2)
       XXX      -9.3321    XXY      -9.2956    XYY     -12.0909
       YYY     -28.9451    XXZ       2.8583    XYZ       2.4701
       YYZ       5.9297    XZZ      -5.9844    YZZ     -11.0927
       ZZZ      15.5127
    Hexadecapole Moments (Debye-Ang^3)
      XXXX    -260.5831   XXXY     -15.8185   XXYY    -100.0957
      XYYY     -28.1092   YYYY    -314.1418   XXXZ      19.8764
      XXYZ      17.5476   XYYZ      18.0408   YYYZ      53.5994
      XXZZ     -73.1128   XYZZ      -5.1908   YYZZ     -78.8458
      XZZZ      23.7704   YZZZ      45.3375   ZZZZ    -134.8885
 -----------------------------------------------------------------
 Calculating analytic gradient of the SCF energy
 Gradient of SCF Energy
            1           2           3           4           5           6
    1  -0.0009707   0.0019889  -0.0015001  -0.0078796  -0.0025666   0.0015023
    2   0.0000485  -0.0002188   0.0001197   0.0111921  -0.0009623  -0.0003300
    3   0.0003372   0.0002850   0.0004157  -0.0106644   0.0008858   0.0004325
            7           8           9          10          11          12
    1   0.0000140   0.0001844  -0.0005297  -0.0008073  -0.0000582   0.0094818
    2  -0.0000521  -0.0000398   0.0002548   0.0003747  -0.0001064  -0.0088252
    3   0.0000450  -0.0001332   0.0008604  -0.0020849  -0.0004961   0.0101414
           13
    1   0.0011406
    2  -0.0014551
    3  -0.0000242
 Max gradient component =       1.119E-02
 RMS gradient           =       3.923E-03
 Gradient time:  CPU 7.92 s  wall 5.60 s
 ----------------------------------------------------------------
             Standard Nuclear Orientation (Angstroms)
    I     Atom           X                Y                Z
 ----------------------------------------------------------------
    1      C       1.5164654338     0.4007514520    -0.4726622515
    2      C       0.8517428572    -0.7807886540     0.1309534515
    3      C      -0.5971495558    -1.0523659852    -0.2324777204
    4      C      -1.1115496998     0.3004626813     0.1136990414
    5      C      -0.4536645435     1.5034230336    -0.5035724415
    6      N       0.8446129025     1.5127807323    -0.7683454192
    7      H       2.5796489431     0.3766403125    -0.6923812369
    8      H       1.4796849165    -1.6560680736     0.3111606439
    9      H      -1.0984848845    -1.9438712049    -0.5892963466
   10      H      -2.2027020241     0.4024398052     0.2622101785
   11      H      -1.0295739295     2.3983175808    -0.7348585057
   12      C      -0.3078829470    -0.5314008789     1.0769337378
   13      H      -0.4732902978    -0.9307194675     2.0981599695
 ----------------------------------------------------------------
 Nuclear Repulsion Energy =   277.5600567860 hartrees
 There are       25 alpha and       24 beta electrons

                       Distance Matrix (Angstroms)
             C (  1)   C (  2)   C (  3)   C (  4)   C (  5)   N (  6)
   C (  2)  1.483996
   C (  3)  2.576161  1.518264
   C (  4)  2.694502  2.241410  1.488150
   C (  5)  2.257931  2.706351  2.574129  1.503646
   N (  6)  1.332450  2.463585  2.990955  2.464607  1.325035
   H (  7)  1.085918  2.236779  3.513633  3.778957  3.241339  2.075316
   H (  8)  2.201417  1.092200  2.230076  3.252922  3.792626  3.407382
   H (  9)  3.514089  2.382207  1.083254  2.351895  3.508130  3.969399
   H ( 10)  3.791075  3.278245  2.222380  1.105924  2.204023  3.403091
   H ( 11)  3.246742  3.794167  3.513772  2.264457  1.089037  2.073131
   C ( 12)  2.568736  1.517170  1.438624  1.505224  2.580651  2.985294
   H ( 13)  3.512986  2.376572  2.337095  2.421006  3.562927  3.990541
             H (  7)   H (  8)   H (  9)   H ( 10)   H ( 11)   C ( 12)
   H (  8)  2.519706
   H (  9)  4.350180  2.746018
   H ( 10)  4.876760  4.218984  2.729383
   H ( 11)  4.137085  4.881453  4.345174  2.520695
   C ( 12)  3.506117  2.246482  2.323025  2.264105  3.519471
   H ( 13)  4.337828  2.744742  2.939348  2.852874  4.406578  1.108926

 
 Applying Cartesian multipole field
    Component          Value
    ---------          -----
     (2,0,0)        1.00000E-11
     (0,2,0)        2.00000E-11
     (0,0,2)       -3.00000E-11
 Nucleus-field energy     =     0.0000000037 hartrees
 Requested basis set is 6-31G(d)
 There are 40 shells and 117 basis functions
 A cutoff of  1.0D-14 yielded    808 shell pairs
 There are      7080 function pairs
 Smallest overlap matrix eigenvalue = 1.54E-03
 Guess MOs from core Hamiltonian diagonalization
 Mixing HOMO and LUMO in initial guess
 Adding  50% of the LUMO to the HOMO
 An unrestricted hybrid HF-DFT SCF calculation will be
 performed using Pulay DIIS extrapolation
 Exchange:     0.2000 Hartree-Fock + 0.0800 Slater + 0.7200 B88
 Correlation:  0.1900 VWN1RPA + 0.8100 LYP
 Using SG-1 standard quadrature grid
 SCF converges when DIIS error is below 1.0E-08
 using 4 threads for integral computing
 -------------------------------------------------------
 OpenMP Integral computing Module                
 Release: version 1.0, May 2013, Q-Chem Inc. Pittsburgh 
 -------------------------------------------------------
 -------------------------------------------------------
 OpenMP BLAS3 based DFT computing Module                
 Release: version 1.0, May 2013, Q-Chem Inc. Pittsburgh 
 -------------------------------------------------------
 ---------------------------------------
  Cycle       Energy         DIIS Error
 ---------------------------------------
    1    -239.7275948171      1.31E-01
    2    -241.4606886064      1.02E-01
    3    -279.6796858580      5.32E-02
    4    -281.9822345532      4.49E-02
    5    -283.1996844472      3.78E-02
    6    -286.3182489755      1.83E-02
    7    -286.8283380699      3.81E-03
    8    -286.8424721768      2.54E-03
    9    -286.8536586827      1.05E-03
   10    -286.8560116847      1.66E-04
   11    -286.8561008435      8.83E-05
   12    -286.8561314709      2.22E-05
   13    -286.8561402273      1.08E-05
   14    -286.8561431093      5.31E-06
   15    -286.8561437349      1.64E-06
   16    -286.8561437672      8.28E-07
   17    -286.8561437695      2.30E-07
   18    -286.8561437697      4.97E-08
   19    -286.8561437697      9.06E-09 Convergence criterion met
 ---------------------------------------
 <S^2> = 0.7736
 SCF time:  CPU 49.54 s  wall 33.75 s
 SCF   energy in the final basis set = -286.85614377
 Total energy in the final basis set = -286.85614377
 
 --------------------------------------------------------------
 
                    Orbital Energies (a.u.)
 --------------------------------------------------------------
 
 Alpha MOs
 -- Occupied --
-14.316 -10.217 -10.216 -10.216 -10.215 -10.215 -10.213  -0.965
 -0.901  -0.749  -0.645  -0.633  -0.585  -0.544  -0.483  -0.472
 -0.461  -0.406  -0.394  -0.369  -0.338  -0.302  -0.299  -0.225
 -0.174
 -- Virtual --
  0.018   0.084   0.118   0.138   0.143   0.153   0.158   0.165
  0.203   0.213   0.235   0.276   0.289   0.302   0.318   0.385
  0.524   0.532   0.544   0.545   0.569   0.587   0.593   0.605
  0.613   0.617   0.633   0.658   0.675   0.737   0.783   0.795
  0.808   0.834   0.851   0.854   0.883   0.887   0.922   0.935
  0.949   0.985   1.147   1.159   1.175   1.195   1.256   1.372
  1.411   1.452   1.493   1.503   1.575   1.617   1.654   1.673
  1.726   1.742   1.866   1.870   1.889   1.922   1.991   2.028
  2.049   2.137   2.164   2.208   2.258   2.294   2.359   2.469
  2.473   2.481   2.530   2.581   2.603   2.613   2.624   2.691
  2.732   2.787   2.811   2.987   3.152   4.018   4.112   4.178
  4.377   4.455   4.467   4.551
 
 Beta MOs
 -- Occupied --
-14.320 -10.218 -10.216 -10.214 -10.211 -10.207 -10.207  -0.961
 -0.898  -0.737  -0.633  -0.628  -0.581  -0.542  -0.477  -0.467
 -0.459  -0.402  -0.376  -0.366  -0.323  -0.300  -0.295  -0.226
 -- Virtual --
 -0.064   0.038   0.086   0.124   0.140   0.144   0.160   0.165
  0.169   0.214   0.216   0.237   0.279   0.298   0.306   0.326
  0.390   0.529   0.535   0.552   0.570   0.572   0.591   0.599
  0.612   0.618   0.640   0.652   0.661   0.681   0.742   0.786
  0.797   0.810   0.839   0.847   0.853   0.884   0.896   0.926
  0.941   0.953   0.995   1.149   1.160   1.178   1.197   1.255
  1.388   1.418   1.452   1.502   1.518   1.576   1.633   1.666
  1.680   1.733   1.754   1.872   1.879   1.897   1.927   1.996
  2.033   2.061   2.147   2.169   2.229   2.267   2.304   2.375
  2.475   2.480   2.493   2.546   2.586   2.606   2.620   2.626
  2.695   2.735   2.792   2.817   2.990   3.156   4.015   4.128
  4.189   4.380   4.460   4.477   4.553
 --------------------------------------------------------------
 
          Ground-State Mulliken Net Atomic Charges

     Atom                 Charge (a.u.)    Spin (a.u.)
  --------------------------------------------------------
      1 C                     0.075651       0.607020
[...]

     Atom                 Charge (a.u.)    Spin (a.u.)
  --------------------------------------------------------
      1 C                     0.081949       0.418962
      2 C                    -0.208196      -0.034797
      3 C                    -0.080964       0.049764
      4 C                    -0.180145      -0.193460
      5 C                     0.060835       0.505857
      6 N                    -0.393664      -0.162709
      7 H                     0.139321      -0.021500
      8 H                     0.147558       0.009286
      9 H                     0.151711      -0.002971
     10 H                     0.148846       0.010885
     11 H                     0.140329      -0.027784
     12 C                    -0.165038       0.461459
     13 H                     0.157459      -0.012993
  --------------------------------------------------------
  Sum of atomic charges =    -0.000000
  Sum of spin   charges =     1.000000

 -----------------------------------------------------------------
                    Cartesian Multipole Moments
 -----------------------------------------------------------------
    Charge (ESU x 10^10)
                 0.0000
    Dipole Moment (Debye)
         X      -1.2420      Y      -2.5246      Z       0.6325
       Tot       2.8838
    Quadrupole Moments (Debye-Ang)
        XX     -37.0473     XY      -3.4285     YY     -41.3436
        XZ       0.9666     YZ       0.1657     ZZ     -42.4307
    Octopole Moments (Debye-Ang^2)
       XXX      -9.0645    XXY      -9.4627    XYY     -11.5565
       YYY     -29.0466    XXZ       1.1151    XYZ       2.8256
       YYZ       5.7189    XZZ      -4.7011    YZZ     -12.0966
       ZZZ      12.8173
    Hexadecapole Moments (Debye-Ang^3)
      XXXX    -261.7995   XXXY     -13.9106   XXYY    -101.7612
      XYYY     -26.8292   YYYY    -315.1835   XXXZ      14.8259
      XXYZ      20.4586   XYYZ      14.9805   YYYZ      58.6916
      XXZZ     -76.7232   XYZZ      -4.4330   YYZZ     -79.7056
      XZZZ      18.2054   YZZZ      50.8090   ZZZZ    -143.4429
 -----------------------------------------------------------------
 Calculating analytic gradient of the SCF energy
 Gradient of SCF Energy
            1           2           3           4           5           6
    1   0.0109809  -0.0020799  -0.0013555   0.0000547  -0.0001239  -0.0108646
    2  -0.0050543  -0.0068628  -0.0022239   0.0028140   0.0100711   0.0074641
    3   0.0015353   0.0033891   0.0026369  -0.0049229  -0.0032590   0.0005332
            7           8           9          10          11          12
    1  -0.0022087  -0.0007943  -0.0012505  -0.0062287   0.0027050   0.0054770
    2   0.0000466   0.0026419   0.0040739   0.0016959  -0.0042183  -0.0060559
    3   0.0016270  -0.0039594   0.0048641  -0.0069288  -0.0027089   0.0104440
           13
    1   0.0056885
    2  -0.0043923
    3  -0.0032505
 Max gradient component =       1.098E-02
 RMS gradient           =       5.003E-03
 Gradient time:  CPU 7.76 s  wall 3.95 s
 ----------------------------------------------------------------
             Standard Nuclear Orientation (Angstroms)
    I     Atom           X                Y                Z
 ----------------------------------------------------------------
    1      C       1.5054584190     0.4163441805    -0.4462283007
    2      C       0.8534433818    -0.7738402890     0.1701219378
    3      C      -0.6343340643    -1.0008973482    -0.1157882855
    4      C      -1.1983670174     0.3629592839    -0.0909444242
    5      C      -0.4865374265     1.5116302929    -0.5383224665
    6      N       0.8481882413     1.5154083754    -0.7550626321
    7      H       2.5679747401     0.3819874128    -0.6664239517
    8      H       1.4656275647    -1.6690968372     0.2103826534
    9      H      -1.1398067505    -1.8960780559    -0.4464436724
   10      H      -2.2858400112     0.4527862416     0.0097272124
   11      H      -1.0100741213     2.4385771239    -0.7201542338
   12      C      -0.1994008649    -0.6182712481     1.2181271245
   13      H      -0.2941692491    -1.1231493967     2.1662630383
 ----------------------------------------------------------------
 Nuclear Repulsion Energy =   273.7966306754 hartrees
 There are       25 alpha and       24 beta electrons

                       Distance Matrix (Angstroms)
             C (  1)   C (  2)   C (  3)   C (  4)   C (  5)   N (  6)
   C (  2)  1.490487
   C (  3)  2.587755  1.531921
   C (  4)  2.727590  2.360168  1.476095
   C (  5)  2.275122  2.742411  2.552092  1.423479
   N (  6)  1.317317  2.469140  2.989705  2.440816  1.352214
   H (  7)  1.085637  2.230553  3.531338  3.810101  3.259225  2.061593
   H (  8)  2.186730  1.085299  2.227716  3.364063  3.806381  3.384433
   H (  9)  3.513506  2.369096  1.079900  2.287588  3.470977  3.960506
   H ( 10)  3.818791  3.374232  2.203729  1.095811  2.158471  3.396499
   H ( 11)  3.239192  3.819020  3.512325  2.177050  1.079993  2.075234
   C ( 12)  2.597509  1.493652  1.454270  1.916876  2.775616  3.089257
   H ( 13)  3.526161  2.328865  2.310501  2.849751  3.780721  4.098916
             H (  7)   H (  8)   H (  9)   H ( 10)   H ( 11)   C ( 12)
   H (  8)  2.488153
   H (  9)  4.357249  2.696522
   H ( 10)  4.901195  4.314645  2.653045
   H ( 11)  4.127334  4.885487  4.345225  2.470561
   C ( 12)  3.494341  2.211810  2.299554  2.638299  3.709238
   H ( 13)  4.299002  2.687082  2.852851  3.331812  4.640024  1.078353

 
 Applying Cartesian multipole field
    Component          Value
    ---------          -----
     (2,0,0)        1.00000E-11
     (0,2,0)        2.00000E-11
     (0,0,2)       -3.00000E-11
 Nucleus-field energy     =     0.0000000036 hartrees
 Requested basis set is 6-31G(d)
 There are 40 shells and 117 basis functions
 A cutoff of  1.0D-14 yielded    807 shell pairs
 There are      7079 function pairs
 Smallest overlap matrix eigenvalue = 1.52E-03
 Guess MOs from core Hamiltonian diagonalization
 Mixing HOMO and LUMO in initial guess
 Adding  50% of the LUMO to the HOMO
 An unrestricted hybrid HF-DFT SCF calculation will be
 performed using Pulay DIIS extrapolation
 Exchange:     0.2000 Hartree-Fock + 0.0800 Slater + 0.7200 B88
 Correlation:  0.1900 VWN1RPA + 0.8100 LYP
 Using SG-1 standard quadrature grid
 SCF converges when DIIS error is below 1.0E-08
 using 4 threads for integral computing
 -------------------------------------------------------
 OpenMP Integral computing Module                
 Release: version 1.0, May 2013, Q-Chem Inc. Pittsburgh 
 -------------------------------------------------------
 -------------------------------------------------------
 OpenMP BLAS3 based DFT computing Module                
 Release: version 1.0, May 2013, Q-Chem Inc. Pittsburgh 
 -------------------------------------------------------
 ---------------------------------------
  Cycle       Energy         DIIS Error
 ---------------------------------------
    1    -239.8861519643      1.30E-01
    2    -236.1847659328      1.01E-01
    3    -263.1756348336      9.73E-02
    4    -265.9832468391      9.88E-02
    5    -279.8881345132      5.22E-02
    6    -286.2413000748      1.71E-02
    7    -286.2225737712      1.64E-02
    8    -286.8018936447      4.08E-03
    9    -286.8152969363      3.07E-03
   10    -286.8297478222      6.06E-04
   11    -286.8304671454      3.39E-04
   12    -286.8307887687      1.10E-04
   13    -286.8308926661      4.00E-05
   14    -286.8309170643      1.25E-05
   15    -286.8309357818      5.00E-06
   16    -286.8309423300      3.09E-06
   17    -286.8309443454      2.14E-06
   18    -286.8309447594      4.35E-07
   19    -286.8309447889      1.72E-07
   20    -286.8309447905      4.18E-08
   21    -286.8309447906      1.04E-08
   22    -286.8309447906      3.10E-09 Convergence criterion met
 ---------------------------------------
 <S^2> = 0.7944
 SCF time:  CPU 57.39 s  wall 43.26 s
 SCF   energy in the final basis set = -286.83094479
 Total energy in the final basis set = -286.83094479
 
 --------------------------------------------------------------
 
                    Orbital Energies (a.u.)
 --------------------------------------------------------------
 
 Alpha MOs
 -- Occupied --
-14.320 -10.226 -10.222 -10.216 -10.216 -10.215 -10.214  -0.945
 -0.885  -0.757  -0.652  -0.640  -0.579  -0.542  -0.485  -0.478
 -0.463  -0.420  -0.387  -0.371  -0.340  -0.307  -0.269  -0.237
 -0.169
 -- Virtual --
 -0.021   0.071   0.092   0.132   0.143   0.151   0.157   0.165
  0.175   0.214   0.231   0.274   0.292   0.317   0.349   0.403
  0.516   0.524   0.530   0.546   0.563   0.581   0.588   0.596
  0.615   0.621   0.648   0.657   0.682   0.725   0.793   0.810
  0.827   0.840   0.855   0.858   0.883   0.889   0.908   0.934
  0.962   0.985   1.117   1.146   1.169   1.177   1.225   1.333
  1.414   1.429   1.476   1.508   1.547   1.594   1.633   1.650
  1.734   1.772   1.813   1.848   1.873   1.925   1.980   2.060
  2.074   2.108   2.145   2.191   2.256   2.273   2.342   2.389
  2.431   2.480   2.516   2.549   2.575   2.582   2.642   2.679
  2.699   2.761   2.806   3.000   3.193   4.021   4.117   4.157
  4.346   4.406   4.433   4.559
 
 Beta MOs
 -- Occupied --
-14.323 -10.229 -10.216 -10.216 -10.215 -10.208 -10.207  -0.941
 -0.881  -0.749  -0.646  -0.632  -0.568  -0.538  -0.480  -0.471
 -0.461  -0.417  -0.376  -0.364  -0.332  -0.300  -0.257  -0.229
 -- Virtual --
 -0.071  -0.006   0.088   0.095   0.135   0.146   0.156   0.163
  0.170   0.180   0.218   0.234   0.281   0.298   0.322   0.355
  0.406   0.526   0.531   0.538   0.560   0.569   0.587   0.593
  0.602   0.624   0.644   0.654   0.661   0.687   0.729   0.796
  0.813   0.832   0.841   0.853   0.861   0.886   0.892   0.914
  0.938   0.968   0.991   1.120   1.150   1.170   1.182   1.227
  1.341   1.422   1.438   1.481   1.515   1.558   1.599   1.644
  1.658   1.742   1.779   1.830   1.854   1.880   1.936   1.988
  2.065   2.080   2.113   2.161   2.201   2.267   2.285   2.354
  2.397   2.439   2.486   2.524   2.560   2.581   2.590   2.646
  2.683   2.704   2.764   2.815   3.002   3.197   4.018   4.127
  4.166   4.359   4.410   4.440   4.560
 --------------------------------------------------------------
 
          Ground-State Mulliken Net Atomic Charges

     Atom                 Charge (a.u.)    Spin (a.u.)
  --------------------------------------------------------
      1 C                     0.082766       0.403582
      2 C                    -0.207546      -0.034099
      3 C                    -0.083212       0.047320
      4 C                    -0.177101      -0.200138
      5 C                     0.059402       0.495935
      6 N                    -0.393885      -0.158491
      7 H                     0.139540      -0.020559
      8 H                     0.147759       0.010156
      9 H                     0.151705      -0.002795
     10 H                     0.148936       0.011435
     11 H                     0.140333      -0.027245
     12 C                    -0.165828       0.488482
     13 H                     0.157131      -0.013584
  --------------------------------------------------------
  Sum of atomic charges =    -0.000000
  Sum of spin   charges =     1.000000

 -----------------------------------------------------------------
                    Cartesian Multipole Moments
 -----------------------------------------------------------------
    Charge (ESU x 10^10)
                 0.0000
    Dipole Moment (Debye)
         X      -1.2281      Y      -2.5231      Z       0.6271
       Tot       2.8754
    Quadrupole Moments (Debye-Ang)
        XX     -37.0351     XY      -3.4154     YY     -41.3408
        XZ       0.9473     YZ       0.1793     ZZ     -42.4392
    Octopole Moments (Debye-Ang^2)
       XXX      -9.0184    XXY      -9.4648    XYY     -11.5286
       YYY     -28.9908    XXZ       1.1439    XYZ       2.8216
       YYZ       5.7014    XZZ      -4.6971    YZZ     -12.0846
       ZZZ      12.8214
    Hexadecapole Moments (Debye-Ang^3)
      XXXX    -261.9308   XXXY     -13.7794   XXYY    -101.8183
      XYYY     -26.7067   YYYY    -315.0595   XXXZ      14.5450
      XXYZ      20.5524   XYYZ      14.8990   YYYZ      58.8576
      XXZZ     -76.8027   XYZZ      -4.3836   YYZZ     -79.7418
      XZZZ      17.9338   YZZZ      51.0271   ZZZZ    -143.7152
 -----------------------------------------------------------------
 Calculating analytic gradient of the SCF energy
 Gradient of SCF Energy
            1           2           3           4           5           6
    1   0.0111048  -0.0022353  -0.0011566   0.0007021   0.0003381  -0.0111563
    2  -0.0052061  -0.0068664  -0.0027721   0.0022075   0.0103281   0.0076718
    3   0.0014841   0.0030667   0.0019044  -0.0029764  -0.0031976   0.0005478
            7           8           9          10          11          12
    1  -0.0021790  -0.0009167  -0.0012832  -0.0057435   0.0027201   0.0045451
    2   0.0000778   0.0027338   0.0037324   0.0013912  -0.0044901  -0.0050686
    3   0.0016962  -0.0037248   0.0046567  -0.0063232  -0.0028971   0.0096184
           13
    1   0.0052604
    2  -0.0037392
    3  -0.0038551
 Max gradient component =       1.116E-02
 RMS gradient           =       4.844E-03
 Gradient time:  CPU 7.56 s  wall 2.49 s
 E1 = -286.8311600, E2 = -286.8309448, Emax = -286.8310437
 Iteration 5, Curvature = -0.5259637
 Curvature, final (in Hartree/Bohr^2) = -0.1472848
 ----------------------------------------------------------------
             Standard Nuclear Orientation (Angstroms)
    I     Atom           X                Y                Z
 ----------------------------------------------------------------
    1      C       1.5055865114     0.4161185301    -0.4462786308
    2      C       0.8532197271    -0.7739171208     0.1696058058
    3      C      -0.6337305668    -1.0019480623    -0.1170784351
    4      C      -1.1972526579     0.3619861770    -0.0871579534
    5      C      -0.4858411554     1.5118178606    -0.5384449477
    6      N       0.8479502342     1.5158386198    -0.7550180913
    7      H       2.5680736269     0.3820273922    -0.6663614845
    8      H       1.4655683727    -1.6690888255     0.2106666146
    9      H      -1.1399126866    -1.8967058162    -0.4467725468
   10      H      -2.2853138583     0.4523756460     0.0104801590
   11      H      -1.0101737993     2.4384751920    -0.7204950907
   12      C      -0.2012179428    -0.6164974645     1.2168123131
   13      H      -0.2947928047    -1.1221220439     2.1652968341
 ----------------------------------------------------------------
 Nuclear Repulsion Energy =   273.8265138865 hartrees
 There are       25 alpha and       24 beta electrons
 Requested basis set is 6-31G(d)
 There are 40 shells and 117 basis functions
 Geometry Optimization Parameters
   NAtoms,    NIC,     NZ,  NCons,   NDum,   NFix, NCnnct, MaxDiis
       13     127       0       0       0       0       0       0


** GEOMETRY OPTIMIZATION IN DELOCALIZED INTERNAL COORDINATES **
   Searching for a Minimum

   Optimization Cycle:   1

                       Coordinates (Angstroms)
     ATOM                X               Y               Z
      1  C         1.5055865114    0.4161185301   -0.4462786308
      2  C         0.8532197271   -0.7739171208    0.1696058058
      3  C        -0.6337305668   -1.0019480623   -0.1170784351
      4  C        -1.1972526579    0.3619861770   -0.0871579534
      5  C        -0.4858411554    1.5118178606   -0.5384449477
      6  N         0.8479502342    1.5158386198   -0.7550180913
      7  H         2.5680736269    0.3820273922   -0.6663614845
      8  H         1.4655683727   -1.6690888255    0.2106666146
      9  H        -1.1399126866   -1.8967058162   -0.4467725468
     10  H        -2.2853138583    0.4523756460    0.0104801590
     11  H        -1.0101737993    2.4384751920   -0.7204950907
     12  C        -0.2012179428   -0.6164974645    1.2168123131
     13  H        -0.2947928047   -1.1221220439    2.1652968341
   Point Group: c1    Number of degrees of freedom:    33


   Energy is   -286.830944791


 Attempting to Generate Delocalized Internal Coordinates

 33 Hessian modes will be used to form the next step
  Hessian Eigenvalues:
     0.013929    0.014675    0.017130    0.019213    0.019627    0.019975
     0.021410    0.021870    0.030298    0.047625    0.068785    0.080067
     0.086941    0.097664    0.114068    0.131815    0.159989    0.159999
     0.178835    0.183082    0.234160    0.252892    0.303934    0.319644
     0.341097    0.353288    0.353553    0.359742    0.360442    0.361270
     0.398411    0.509324    0.589898

 Minimum Search - Taking Simple RFO Step
 Searching for Lamda that Minimizes Along All modes
 Value Taken    Lamda =  -0.00580021
 Calculated Step too Large.  Step scaled by  0.798024
 Step Taken.  Stepsize is  0.300000

                             Maximum     Tolerance    Cnvgd?
         Gradient           0.008817      0.000300      NO
         Displacement       0.166478      0.001200      NO
         Energy change     *********      0.000001      NO


 New Cartesian Coordinates Obtained by Inverse Iteration

 Displacement from previous Coordinates is:  0.303642
 ----------------------------------------------------------------
             Standard Nuclear Orientation (Angstroms)
    I     Atom           X                Y                Z
 ----------------------------------------------------------------
    1      C       1.5025464625     0.4066960250    -0.4703932251
    2      C       0.8552048069    -0.7656011973     0.1734840148
    3      C      -0.6211435937    -1.0085380319    -0.1422082840
    4      C      -1.1952090743     0.3472176280    -0.0952648472
    5      C      -0.4821714271     1.4983807424    -0.5272735240
    6      N       0.8501161118     1.5017502693    -0.7753999251
    7      H       2.5648694175     0.3675767646    -0.7043601616
    8      H       1.4735037254    -1.6572428287     0.2635207344
    9      H      -1.1046027839    -1.9140722812    -0.4908441885
   10      H      -2.2705596354     0.4440456018     0.0525869299
   11      H      -1.0060783957     2.4415197818    -0.6476970928
   12      C      -0.2254942295    -0.5973973727     1.1962133100
   13      H      -0.3488183838    -1.0659750165     2.1628908056
 ----------------------------------------------------------------
 Nuclear Repulsion Energy =   274.6280313441 hartrees
 There are       25 alpha and       24 beta electrons

































 Eigenvalues after right structure
 -0.1856948 -0.0000000 -0.0000000 0.0000000 0.0000000 0.0000000 0.0000017 0.0155627 0.0228165 0.0338246 0.0487653 0.0542773 0.0651942 0.0705962 0.0735910 0.0830486 0.0952711 0.1116223 0.1141430 0.1382380 0.1631233 0.1998273 0.2412697 0.2789614 0.2984284 0.3412681 0.4071837 0.4817253 0.5494971 0.7003221 0.8517292 0.9833084 1.0944473 1.1106135 1.1744138 1.3144980 1.3973725 1.5633296 1.7071906
Archival summary:
1\1\c8-90\JobtypUnspecified\ProcedureUnspecified\6-31G*\166(2)\hpark21\WedMar200:38:292022WedMar200:38:292022\0\\#,JobtypUnspecified,ProcedureUnspecified,6-31G*,\\0,2\N\C,1,1.31066\H,2,1.08849,1,117.764\C,1,1.3552,2,116.403,3,177.137,0\H,4,1.08558,1,116.87,2,171.859,0\C,4,1.42135,1,123.425,2,-6.56977,0\H,6,1.08978,4,117.665,1,-178.501,0\C,6,1.47303,4,122.7,1,-13.0272,0\H,8,1.0841,6,127.246,4,-135.222,0\C,8,1.45497,6,79.431,4,90.9286,0\H,10,1.08131,8,131.983,6,127.871,0\C,2,1.4859,1,122.897,3,179.992,0\H,12,1.08877,2,115.756,1,172.725,0\\\@

 Total job time:  4053.73s(wall), 5049.01s(cpu) 
 Wed Mar  2 00:38:29 2022

        *************************************************************
        *                                                           *
        *  Thank you very much for using Q-Chem.  Have a nice day.  *
        *                                                           *
        *************************************************************


