
Running Job 1 of 1 qcts2.in
qchem qcts2.in_26845.0 ./qcts2.d/ 1
/home/leeping/opt/qchem/5.0.2-openmp/exe/qcprog.exe_s qcts2.in_26845.0 ./qcts2.d/
Check license passed

                  Welcome to Q-Chem
     A Quantum Leap Into The Future Of Chemistry


 Q-Chem 5.0, Q-Chem, Inc., Pleasanton, CA (2017)

 Yihan Shao,  Zhengting Gan,  E. Epifanovsky,  A. T. B. Gilbert,  M. Wormit,  
 J. Kussmann,  A. W. Lange,  A. Behn,  Jia Deng,  Xintian Feng,  D. Ghosh,  
 M. Goldey,  P. R. Horn,  L. D. Jacobson,  I. Kaliman,  T. Kus,  A. Landau,  
 Jie Liu,  E. I. Proynov,  R. M. Richard,  R. P. Steele,  E. J. Sundstrom,  
 H. L. Woodcock III,  P. M. Zimmerman,  D. Zuev,  B. Albrecht,  E. Alguire,  
 S. A. Baeppler,  D. Barton,  Z. Benda,  Y. A. Bernard,  E. J. Berquist,  
 K. B. Bravaya,  H. Burton,  D. Casanova,  Chun-Min Chang,  Yunqing Chen,  
 A. Chien,  K. D. Closser,  M. P. Coons,  S. Dasgupta,  A. L. Dempwolff,  
 M. Diedenhofen,  Hainam Do,  R. G. Edgar,  Po-Tung Fang,  S. Fatehi,  
 Qingguo Feng,  J. Fosso-Tande,  Qinghui Ge,  A. Ghysels,  G. Gidofalvi,  
 J. Gomes,  J. Gonthier,  A. Gunina,  M. W. D. Hanson-Heine,  
 P. H. P. Harbach,  A. W. Hauser,  J. E. Herr,  E. G. Hohenstein,  
 Z. C. Holden,  Kerwin Hui,  T.-C. Jagau,  Hyunjun Ji,  B. Kaduk,  
 K. Khistyaev,  Jaehoon Kim,  P. Klunzinger,  K. Koh,  D. Kosenkov,  
 L. Koulias,  T. Kowalczyk,  C. M. Krauter,  A. Kunitsa,  Ka Un Lao,  
 A. Laurent,  K. V. Lawler,  Joonho Lee,  D. Lefrancois,  S. Lehtola,  
 D. S. Levine,  Yi-Pei Li,  You-Sheng Lin,  Fenglai Liu,  E. Livshits,  
 A. Luenser,  P. Manohar,  E. Mansoor,  S. F. Manzer,  Shan-Ping Mao,  
 Yuezhi Mao,  N. Mardirossian,  A. V. Marenich,  T. Markovich,  
 L. A. Martinez-Martinez,  S. A. Maurer,  N. J. Mayhall,  S. C. McKenzie,  
 J.-M. Mewes,  A. F. Morrison,  J. W. Mullinax,  K. Nanda,  
 T. S. Nguyen-Beck,  R. Olivares-Amaya,  J. A. Parkhill,  T. M. Perrine,  
 F. Plasser,  S. Prager,  A. Prociuk,  E. Ramos,  D. R. Rehn,  F. Rob,  
 M. Schneider,  N. Sergueev,  S. M. Sharada,  S. Sharma,  D. W. Small,  
 T. Stauch,  T. Stein,  Yu-Chuan Su,  A. J. W. Thom,  A. Tkatchenko,  
 T. Tsuchimochi,  L. Vogt,  O. Vydrov,  M. A. Watson,  J. Wenzel,  
 M. de Wergifosse,  T. A. Wesolowski,  A. White,  J. Witte,  A. Yamada,  
 Jun Yang,  K. Yao,  S. Yeganeh,  S. R. Yost,  Zhi-Qiang You,  A. Zech,  
 Igor Ying Zhang,  Xing Zhang,  Yan Zhao,  Ying Zhu,  B. R. Brooks,  
 G. K. L. Chan,  C. J. Cramer,  M. S. Gordon,  W. J. Hehre,  A. Klamt,  
 M. W. Schmidt,  C. D. Sherrill,  D. G. Truhlar,  A. Aspuru-Guzik,  R. Baer,  
 A. T. Bell,  N. A. Besley,  Jeng-Da Chai,  R. A. DiStasio Jr.,  A. Dreuw,  
 B. D. Dunietz,  T. R. Furlani,  Chao-Ping Hsu,  Yousung Jung,  Jing Kong,  
 D. S. Lambrecht,  WanZhen Liang,  C. Ochsenfeld,  V. A. Rassolov,  
 L. V. Slipchenko,  J. E. Subotnik,  T. Van Voorhis,  J. M. Herbert,  
 A. I. Krylov,  P. M. W. Gill,  M. Head-Gordon

 Contributors to earlier versions of Q-Chem not listed above: 
 R. D. Adamson,  B. Austin,  J. Baker,  G. J. O. Beran,  K. Brandhorst,  
 S. T. Brown,  E. F. C. Byrd,  A. K. Chakraborty,  C.-L. Cheng,  
 Siu Hung Chien,  D. M. Chipman,  D. L. Crittenden,  H. Dachsel,  
 R. J. Doerksen,  A. D. Dutoi,  L. Fusti-Molnar,  W. A. Goddard III,  
 A. Golubeva-Zadorozhnaya,  S. R. Gwaltney,  G. Hawkins,  A. Heyden,  
 S. Hirata,  G. Kedziora,  F. J. Keil,  C. Kelley,  Jihan Kim,  R. A. King,  
 R. Z. Khaliullin,  P. P. Korambath,  W. Kurlancheek,  A. M. Lee,  M. S. Lee,  
 S. V. Levchenko,  Ching Yeh Lin,  D. Liotard,  R. C. Lochan,  I. Lotan,  
 P. E. Maslen,  N. Nair,  D. P. O'Neill,  D. Neuhauser,  E. Neuscamman,  
 C. M. Oana,  R. Olson,  B. Peters,  R. Peverati,  P. A. Pieniazek,  
 Y. M. Rhee,  J. Ritchie,  M. A. Rohrdanz,  E. Rosta,  N. J. Russ,  
 H. F. Schaefer III,  N. E. Schultz,  N. Shenvi,  A. C. Simmonett,  A. Sodt,  
 D. Stuck,  K. S. Thanthiriwatte,  V. Vanovschi,  Tao Wang,  A. Warshel,  
 C. F. Williams,  Q. Wu,  X. Xu,  W. Zhang

 Please cite Q-Chem as follows:
 Y. Shao et al., Mol. Phys. 113, 184-215 (2015)
 DOI: 10.1080/00268976.2014.952696

 Q-Chem 5.0.2 for Intel X86 EM64T Linux

 Parts of Q-Chem use Armadillo 5.200.1 (Boston Tea Smuggler).
 http://arma.sourceforge.net/

 Q-Chem begins on Wed Mar  2 01:20:19 2022  

Host: 
0

     Scratch files written to ./qcts2.d//
 Dec517 15110_ 26548  26544 5633   
Processing $rem in /home/leeping/opt/qchem/5.0.2-openmp/config/preferences.
 MEM_STATIC 2000
 MEM_TOTAL  8000
 SYMMETRY   OFF
 SYM_IGNORE TRUE 

Checking the input file for inconsistencies... 	...done.

--------------------------------------------------------------
User input:
--------------------------------------------------------------
$molecule
0 2
C        1.4988727852    0.4027011379   -0.4822043105
C        0.8727889660   -0.7570299386    0.2099487682
C       -0.6190436939   -1.0007376105   -0.1343919820
C       -1.2172956904    0.3456322638   -0.1822277373
C       -0.4952244681    1.4964444137   -0.5061769677
N        0.8482546969    1.4844884485   -0.7863441162
H        2.5382650668    0.3234266003   -0.8000560796
H        1.4938218481   -1.6492957101    0.2935762061
H       -1.0448826706   -1.9188835231   -0.5277182865
H       -2.2866398483    0.4245266081   -0.0012611791
H       -0.9850855745    2.4647249097   -0.5130200792
C       -0.2075910391   -0.6348300110    1.2115509524
H       -0.4040773772   -0.9828075043    2.2135793577
$end

$rem
method                b3lyp
basis                 6-31+g(d,p)
unrestricted          true
symmetry              off
sym_ignore            true
incdft                false
incfock               0
scf_convergence       8
thresh                14
jobtype               sp
scf_guess             read
scf_algorithm         diis
max_scf_cycles        100
$end

--------------------------------------------------------------
 ----------------------------------------------------------------
             Standard Nuclear Orientation (Angstroms)
    I     Atom           X                Y                Z
 ----------------------------------------------------------------
    1      C       1.4988727852     0.4027011379    -0.4822043105
    2      C       0.8727889660    -0.7570299386     0.2099487682
    3      C      -0.6190436939    -1.0007376105    -0.1343919820
    4      C      -1.2172956904     0.3456322638    -0.1822277373
    5      C      -0.4952244681     1.4964444137    -0.5061769677
    6      N       0.8482546969     1.4844884485    -0.7863441162
    7      H       2.5382650668     0.3234266003    -0.8000560796
    8      H       1.4938218481    -1.6492957101     0.2935762061
    9      H      -1.0448826706    -1.9188835231    -0.5277182865
   10      H      -2.2866398483     0.4245266081    -0.0012611791
   11      H      -0.9850855745     2.4647249097    -0.5130200792
   12      C      -0.2075910391    -0.6348300110     1.2115509524
   13      H      -0.4040773772    -0.9828075043     2.2135793577
 ----------------------------------------------------------------
 Nuclear Repulsion Energy =   273.8999194676 hartrees
 There are       25 alpha and       24 beta electrons
 Requested basis set is 6-31+G(d,p)
 There are 53 shells and 163 basis functions

 Total QAlloc Memory Limit   8000 MB
 Mega-Array Size      1956 MB
 MEM_STATIC part      2000 MB

                       Distance Matrix (Angstroms)
             C (  1)   C (  2)   C (  3)   C (  4)   C (  5)   N (  6)
   C (  2)  1.488635
   C (  3)  2.564407  1.550332
   C (  4)  2.733279  2.395437  1.474078
   C (  5)  2.274483  2.731747  2.527741  1.396674
   N (  6)  1.298487  2.453081  2.958776  2.434841  1.372433
   H (  7)  1.089794  2.227399  3.487853  3.806106  3.265638  2.050460
   H (  8)  2.193753  1.090327  2.251219  3.399454  3.806782  3.376920
   H (  9)  3.444201  2.360407  1.085834  2.297199  3.459343  3.903050
   H ( 10)  3.816004  3.379745  2.197721  1.087414  2.147817  3.401094
   H ( 11)  3.228458  3.788679  3.505250  2.157290  1.085163  2.096832
   C ( 12)  2.618644  1.478297  1.454216  1.980765  2.752390  3.098049
   H ( 13)  3.578841  2.386608  2.357859  2.857616  3.681314  4.081106
             H (  7)   H (  8)   H (  9)   H ( 10)   H ( 11)   C ( 12)
   H (  8)  2.485664
   H (  9)  4.235690  2.681832
   H ( 10)  4.891626  4.321986  2.703829
   H ( 11)  4.132983  4.870395  4.384041  2.473530
   C ( 12)  3.536177  2.183260  2.318385  2.629752  3.631237
   H ( 13)  4.409719  2.780763  2.966746  3.229574  4.433666  1.078775

 
 A cutoff of  1.0D-14 yielded   1389 shell pairs
 There are     13465 function pairs
 
 -------------------------------------------------------
 OpenMP Integral Computing Module                       
 Release: version 1.0, May 2013, Q-Chem Inc. Pittsburgh 
 -------------------------------------------------------
 Integral Job Info:
 Integral job number is                      11
 Integral operator is                         1
 short-range coefficients                     0
 long-range coefficients              100000000
 Omega coefficients                           0
 if combine SR and LR in K                    0
 Integral screening is                        0
 Integral computing path is                   2
 max size of driver memory is            800000
 size of driver memory is                593474
 size of scratch memory is              2361544
 max col of scratch BK array               1296
 max len of scratch array in speh3          155
 max len of scratch index in speh4           18
 max int batch size is                      520
 min int batch size is                       52
 fixed nKL is                                52
 max L of basis functions is                  2
 order of int derivative is                   0
 number of shells is                         53
 number of basis is                         163
 number of cartesian basis is               163
 number of contracted shell pairs          1389
 number of primitive shell pairs           4745
 maxK2 (contraction) of shell pair           36
 max number of K2 of shell pair               1
 max number of CS2 of shell pair            126
 max number of PS2 of shell pair            678
 mem total for path MDJ                  535308
 -------------------------------------------------------
 Smallest overlap matrix eigenvalue = 4.29E-05

 Scale SEOQF with 1.000000e-01/1.000000e-01/1.000000e-01

 Standard Electronic Orientation quadrupole field applied
 Nucleus-field energy     =     0.0000000034 hartrees
 Guess MOs from SCF MO coefficient file
 Reading MOs from coefficient file
 Reading MOs from coefficient file
 An unrestricted hybrid HF-DFT SCF calculation will be
 performed using Pulay DIIS extrapolation
 Exchange:     0.2000 Hartree-Fock + 0.0800 Slater + 0.7200 B88
 Correlation:  0.1900 VWN1RPA + 0.8100 LYP
 Using SG-1 standard quadrature grid
 SCF converges when DIIS error is below 1.0E-08
Using Q-Chem read-in guess as SCF_GUESS READ specified.

 using 4 threads for integral computing
 -------------------------------------------------------
 OpenMP Integral computing Module                
 Release: version 1.0, May 2013, Q-Chem Inc. Pittsburgh 
 -------------------------------------------------------
 -------------------------------------------------------
 OpenMP BLAS3 based DFT computing Module                
 Release: version 1.0, May 2013, Q-Chem Inc. Pittsburgh 
 -------------------------------------------------------
 ---------------------------------------
  Cycle       Energy         DIIS Error
 ---------------------------------------
    1    -286.8561487012      3.71E-09
    2    -286.8561487012      5.56E-09 Convergence criterion met
 ---------------------------------------
 <S^2> = 0.7878
 SCF time:  CPU 10.19 s  wall 3.70 s
 SCF   energy in the final basis set = -286.85614870
 Total energy in the final basis set = -286.85614870
 
 --------------------------------------------------------------
 
                    Orbital Energies (a.u.)
 --------------------------------------------------------------
 
 Alpha MOs
 -- Occupied --
-14.335 -10.233 -10.229 -10.229 -10.227 -10.226 -10.221  -0.957
 -0.894  -0.769  -0.661  -0.650  -0.590  -0.546  -0.494  -0.491
 -0.473  -0.434  -0.390  -0.380  -0.355  -0.311  -0.277  -0.259
 -0.175
 -- Virtual --
 -0.041  -0.000   0.016   0.021   0.026   0.043   0.048   0.056
  0.065   0.076   0.082   0.087   0.097   0.104   0.116   0.118
  0.122   0.127   0.143   0.148   0.160   0.174   0.177   0.184
  0.191   0.196   0.205   0.213   0.224   0.238   0.252   0.258
  0.265   0.270   0.292   0.296   0.308   0.319   0.325   0.341
  0.352   0.375   0.470   0.496   0.616   0.638   0.650   0.672
  0.674   0.709   0.720   0.739   0.747   0.760   0.779   0.802
  0.839   0.856   0.872   0.905   0.936   0.945   0.961   0.983
  1.005   1.012   1.040   1.074   1.087   1.125   1.135   1.149
  1.169   1.204   1.289   1.325   1.363   1.383   1.450   1.493
  1.521   1.563   1.603   1.648   1.675   1.746   1.804   1.809
  1.854   1.878   1.943   2.000   2.016   2.054   2.062   2.112
  2.130   2.172   2.198   2.262   2.280   2.319   2.351   2.400
  2.424   2.449   2.453   2.467   2.484   2.495   2.526   2.545
  2.589   2.597   2.629   2.642   2.658   2.708   2.787   2.815
  2.879   2.935   2.993   3.169   3.180   3.282   3.293   3.377
  3.510   3.587   3.697   4.180   4.321   4.388   4.529   4.604
  4.661   4.730
 
 Beta MOs
 -- Occupied --
-14.337 -10.231 -10.229 -10.228 -10.228 -10.216 -10.215  -0.953
 -0.889  -0.763  -0.655  -0.644  -0.577  -0.542  -0.488  -0.486
 -0.470  -0.431  -0.379  -0.376  -0.349  -0.306  -0.264  -0.247
 -- Virtual --
 -0.079  -0.028   0.000   0.016   0.022   0.029   0.044   0.050
  0.059   0.066   0.076   0.087   0.091   0.099   0.109   0.116
  0.119   0.123   0.130   0.143   0.149   0.162   0.175   0.179
  0.186   0.194   0.200   0.207   0.214   0.226   0.241   0.252
  0.261   0.268   0.272   0.295   0.298   0.310   0.321   0.328
  0.346   0.357   0.379   0.473   0.499   0.619   0.644   0.666
  0.675   0.689   0.712   0.736   0.742   0.753   0.764   0.784
  0.807   0.844   0.861   0.875   0.908   0.939   0.947   0.964
  0.984   1.007   1.011   1.043   1.076   1.090   1.130   1.140
  1.153   1.176   1.206   1.297   1.331   1.371   1.385   1.455
  1.504   1.530   1.568   1.612   1.651   1.682   1.755   1.811
  1.816   1.858   1.892   1.948   2.004   2.018   2.057   2.070
  2.127   2.136   2.181   2.206   2.265   2.286   2.321   2.357
  2.404   2.431   2.452   2.457   2.470   2.486   2.501   2.533
  2.548   2.594   2.602   2.633   2.648   2.662   2.714   2.790
  2.825   2.882   2.940   2.997   3.172   3.181   3.285   3.294
  3.379   3.512   3.594   3.699   4.178   4.328   4.394   4.534
  4.618   4.670   4.732
 --------------------------------------------------------------
 
          Ground-State Mulliken Net Atomic Charges

     Atom                 Charge (a.u.)    Spin (a.u.)
  --------------------------------------------------------
      1 C                    -0.037788       0.277003
      2 C                    -0.136056      -0.048159
      3 C                     0.053100      -0.002221
      4 C                    -0.084192      -0.193453
      5 C                    -0.193868       0.427458
      6 N                    -0.192988      -0.095667
      7 H                     0.124891      -0.013485
      8 H                     0.137620       0.019348
      9 H                     0.139487       0.000568
     10 H                     0.140413       0.010905
     11 H                     0.126823      -0.023044
     12 C                    -0.220840       0.662922
     13 H                     0.143396      -0.022175
  --------------------------------------------------------
  Sum of atomic charges =    -0.000000
  Sum of spin   charges =     1.000000

 -----------------------------------------------------------------
                    Cartesian Multipole Moments
 -----------------------------------------------------------------
    Charge (ESU x 10^10)
                -0.0000
    Dipole Moment (Debye)
         X      -1.1696      Y      -2.6693      Z       0.9639
       Tot       3.0696
    Quadrupole Moments (Debye-Ang)
        XX     -38.2541     XY      -3.5742     YY     -42.9301
        XZ       0.5144     YZ       1.1480     ZZ     -43.7996
    Octopole Moments (Debye-Ang^2)
       XXX      -9.0997    XXY     -10.3365    XYY     -12.0096
       YYY     -28.5830    XXZ       2.2448    XYZ       2.4783
       YYZ       6.9662    XZZ      -4.8746    YZZ     -13.3421
       ZZZ      17.1178
    Hexadecapole Moments (Debye-Ang^3)
      XXXX    -276.1282   XXXY     -14.5980   XXYY    -107.8098
      XYYY     -28.6378   YYYY    -325.7728   XXXZ      12.7865
      XXYZ      21.6382   XYYZ      15.6763   YYYZ      64.5960
      XXZZ     -82.3807   XYZZ      -3.0916   YYZZ     -88.8498
      XZZZ      17.1609   YZZZ      54.8101   ZZZZ    -159.7287
 -----------------------------------------------------------------
Archival summary:
1\1\c8-90\SP\ProcedureUnspecified\6-31+G**\166(2)\hpark21\WedMar201:20:322022WedMar201:20:322022\0\\#,ProcedureUnspecified,6-31+G**,\\0,2\N\C,1,1.29849\H,2,1.08979,1,118.046\C,1,1.37243,2,116.739,3,172.963,0\H,4,1.08516,1,116.64,2,164.521,0\C,4,1.39667,1,123.111,2,-13.4535,0\H,6,1.08741,4,119.158,1,-178.151,0\C,6,1.47408,4,123.387,1,-1.27631,0\H,8,1.08583,6,126.97,4,-136.577,0\C,8,1.45422,6,85.1266,4,83.6387,0\H,10,1.07878,8,136.636,6,117.189,0\C,10,1.4783,8,63.8251,6,-110.465,0\H,12,1.09033,10,115.591,8,-105.534,0\\\@

 Total job time:  12.94s(wall), 12.03s(cpu) 
 Wed Mar  2 01:20:32 2022

        *************************************************************
        *                                                           *
        *  Thank you very much for using Q-Chem.  Have a nice day.  *
        *                                                           *
        *************************************************************


