
Running Job 1 of 1 qcts2.in
qchem qcts2.in_26674.0 ./qcts2.d/ 1
/home/leeping/opt/qchem/5.0.2-openmp/exe/qcprog.exe_s qcts2.in_26674.0 ./qcts2.d/
Check license passed

                  Welcome to Q-Chem
     A Quantum Leap Into The Future Of Chemistry


 Q-Chem 5.0, Q-Chem, Inc., Pleasanton, CA (2017)

 Yihan Shao,  Zhengting Gan,  E. Epifanovsky,  A. T. B. Gilbert,  M. Wormit,  
 J. Kussmann,  A. W. Lange,  A. Behn,  Jia Deng,  Xintian Feng,  D. Ghosh,  
 M. Goldey,  P. R. Horn,  L. D. Jacobson,  I. Kaliman,  T. Kus,  A. Landau,  
 Jie Liu,  E. I. Proynov,  R. M. Richard,  R. P. Steele,  E. J. Sundstrom,  
 H. L. Woodcock III,  P. M. Zimmerman,  D. Zuev,  B. Albrecht,  E. Alguire,  
 S. A. Baeppler,  D. Barton,  Z. Benda,  Y. A. Bernard,  E. J. Berquist,  
 K. B. Bravaya,  H. Burton,  D. Casanova,  Chun-Min Chang,  Yunqing Chen,  
 A. Chien,  K. D. Closser,  M. P. Coons,  S. Dasgupta,  A. L. Dempwolff,  
 M. Diedenhofen,  Hainam Do,  R. G. Edgar,  Po-Tung Fang,  S. Fatehi,  
 Qingguo Feng,  J. Fosso-Tande,  Qinghui Ge,  A. Ghysels,  G. Gidofalvi,  
 J. Gomes,  J. Gonthier,  A. Gunina,  M. W. D. Hanson-Heine,  
 P. H. P. Harbach,  A. W. Hauser,  J. E. Herr,  E. G. Hohenstein,  
 Z. C. Holden,  Kerwin Hui,  T.-C. Jagau,  Hyunjun Ji,  B. Kaduk,  
 K. Khistyaev,  Jaehoon Kim,  P. Klunzinger,  K. Koh,  D. Kosenkov,  
 L. Koulias,  T. Kowalczyk,  C. M. Krauter,  A. Kunitsa,  Ka Un Lao,  
 A. Laurent,  K. V. Lawler,  Joonho Lee,  D. Lefrancois,  S. Lehtola,  
 D. S. Levine,  Yi-Pei Li,  You-Sheng Lin,  Fenglai Liu,  E. Livshits,  
 A. Luenser,  P. Manohar,  E. Mansoor,  S. F. Manzer,  Shan-Ping Mao,  
 Yuezhi Mao,  N. Mardirossian,  A. V. Marenich,  T. Markovich,  
 L. A. Martinez-Martinez,  S. A. Maurer,  N. J. Mayhall,  S. C. McKenzie,  
 J.-M. Mewes,  A. F. Morrison,  J. W. Mullinax,  K. Nanda,  
 T. S. Nguyen-Beck,  R. Olivares-Amaya,  J. A. Parkhill,  T. M. Perrine,  
 F. Plasser,  S. Prager,  A. Prociuk,  E. Ramos,  D. R. Rehn,  F. Rob,  
 M. Schneider,  N. Sergueev,  S. M. Sharada,  S. Sharma,  D. W. Small,  
 T. Stauch,  T. Stein,  Yu-Chuan Su,  A. J. W. Thom,  A. Tkatchenko,  
 T. Tsuchimochi,  L. Vogt,  O. Vydrov,  M. A. Watson,  J. Wenzel,  
 M. de Wergifosse,  T. A. Wesolowski,  A. White,  J. Witte,  A. Yamada,  
 Jun Yang,  K. Yao,  S. Yeganeh,  S. R. Yost,  Zhi-Qiang You,  A. Zech,  
 Igor Ying Zhang,  Xing Zhang,  Yan Zhao,  Ying Zhu,  B. R. Brooks,  
 G. K. L. Chan,  C. J. Cramer,  M. S. Gordon,  W. J. Hehre,  A. Klamt,  
 M. W. Schmidt,  C. D. Sherrill,  D. G. Truhlar,  A. Aspuru-Guzik,  R. Baer,  
 A. T. Bell,  N. A. Besley,  Jeng-Da Chai,  R. A. DiStasio Jr.,  A. Dreuw,  
 B. D. Dunietz,  T. R. Furlani,  Chao-Ping Hsu,  Yousung Jung,  Jing Kong,  
 D. S. Lambrecht,  WanZhen Liang,  C. Ochsenfeld,  V. A. Rassolov,  
 L. V. Slipchenko,  J. E. Subotnik,  T. Van Voorhis,  J. M. Herbert,  
 A. I. Krylov,  P. M. W. Gill,  M. Head-Gordon

 Contributors to earlier versions of Q-Chem not listed above: 
 R. D. Adamson,  B. Austin,  J. Baker,  G. J. O. Beran,  K. Brandhorst,  
 S. T. Brown,  E. F. C. Byrd,  A. K. Chakraborty,  C.-L. Cheng,  
 Siu Hung Chien,  D. M. Chipman,  D. L. Crittenden,  H. Dachsel,  
 R. J. Doerksen,  A. D. Dutoi,  L. Fusti-Molnar,  W. A. Goddard III,  
 A. Golubeva-Zadorozhnaya,  S. R. Gwaltney,  G. Hawkins,  A. Heyden,  
 S. Hirata,  G. Kedziora,  F. J. Keil,  C. Kelley,  Jihan Kim,  R. A. King,  
 R. Z. Khaliullin,  P. P. Korambath,  W. Kurlancheek,  A. M. Lee,  M. S. Lee,  
 S. V. Levchenko,  Ching Yeh Lin,  D. Liotard,  R. C. Lochan,  I. Lotan,  
 P. E. Maslen,  N. Nair,  D. P. O'Neill,  D. Neuhauser,  E. Neuscamman,  
 C. M. Oana,  R. Olson,  B. Peters,  R. Peverati,  P. A. Pieniazek,  
 Y. M. Rhee,  J. Ritchie,  M. A. Rohrdanz,  E. Rosta,  N. J. Russ,  
 H. F. Schaefer III,  N. E. Schultz,  N. Shenvi,  A. C. Simmonett,  A. Sodt,  
 D. Stuck,  K. S. Thanthiriwatte,  V. Vanovschi,  Tao Wang,  A. Warshel,  
 C. F. Williams,  Q. Wu,  X. Xu,  W. Zhang

 Please cite Q-Chem as follows:
 Y. Shao et al., Mol. Phys. 113, 184-215 (2015)
 DOI: 10.1080/00268976.2014.952696

 Q-Chem 5.0.2 for Intel X86 EM64T Linux

 Parts of Q-Chem use Armadillo 5.200.1 (Boston Tea Smuggler).
 http://arma.sourceforge.net/

 Q-Chem begins on Wed Mar  2 01:17:36 2022  

Host: 
0

     Scratch files written to ./qcts2.d//
 Dec517 15110_ 26548  26544 5633   
Processing $rem in /home/leeping/opt/qchem/5.0.2-openmp/config/preferences.
 MEM_STATIC 2000
 MEM_TOTAL  8000
 SYMMETRY   OFF
 SYM_IGNORE TRUE 

Checking the input file for inconsistencies... 	...done.

--------------------------------------------------------------
User input:
--------------------------------------------------------------
$molecule
0 2
C        1.4971285170    0.4043364854   -0.4809742454
C        0.8712316258   -0.7559560188    0.2112505077
C       -0.6187106980   -0.9995608313   -0.1311495577
C       -1.2170595501    0.3474188140   -0.1832428558
C       -0.4949594280    1.4949631779   -0.5095156171
N        0.8484660758    1.4841828076   -0.7886685001
H        2.5380022331    0.3247795464   -0.7968982262
H        1.4909982005   -1.6497956151    0.2922985494
H       -1.0436744475   -1.9176221496   -0.5280554443
H       -2.2861128296    0.4260637806    0.0018067004
H       -0.9842069362    2.4645417133   -0.5179223144
C       -0.2091350227   -0.6328351261    1.2132031979
H       -0.3998047394   -0.9921564998    2.2131223519
$end

$rem
method                b3lyp
basis                 6-31+g(d,p)
unrestricted          true
symmetry              off
sym_ignore            true
incdft                false
incfock               0
scf_convergence       8
thresh                14
jobtype               ts
scf_guess             read
scf_algorithm         diis
max_scf_cycles        100
geom_opt_max_cycles   500
geom_opt_dmax         100
geom_opt_tol_gradient 10
geom_opt_hessian      read
$end

--------------------------------------------------------------
 ----------------------------------------------------------------
             Standard Nuclear Orientation (Angstroms)
    I     Atom           X                Y                Z
 ----------------------------------------------------------------
    1      C       1.4971285170     0.4043364854    -0.4809742454
    2      C       0.8712316258    -0.7559560188     0.2112505077
    3      C      -0.6187106980    -0.9995608313    -0.1311495577
    4      C      -1.2170595501     0.3474188140    -0.1832428558
    5      C      -0.4949594280     1.4949631779    -0.5095156171
    6      N       0.8484660758     1.4841828076    -0.7886685001
    7      H       2.5380022331     0.3247795464    -0.7968982262
    8      H       1.4909982005    -1.6497956151     0.2922985494
    9      H      -1.0436744475    -1.9176221496    -0.5280554443
   10      H      -2.2861128296     0.4260637806     0.0018067004
   11      H      -0.9842069362     2.4645417133    -0.5179223144
   12      C      -0.2091350227    -0.6328351261     1.2132031979
   13      H      -0.3998047394    -0.9921564998     2.2131223519
 ----------------------------------------------------------------
 Nuclear Repulsion Energy =   273.9933323713 hartrees
 There are       25 alpha and       24 beta electrons
 Requested basis set is 6-31+G(d,p)
 There are 53 shells and 163 basis functions

 Total QAlloc Memory Limit   8000 MB
 Mega-Array Size      1956 MB
 MEM_STATIC part      2000 MB
 A cutoff of  1.0D-14 yielded   1389 shell pairs
 There are     13465 function pairs
 
 -------------------------------------------------------
 OpenMP Integral Computing Module                       
 Release: version 1.0, May 2013, Q-Chem Inc. Pittsburgh 
 -------------------------------------------------------
 Integral Job Info:
 Integral job number is                      11
 Integral operator is                         1
 short-range coefficients                     0
 long-range coefficients              100000000
 Omega coefficients                           0
 if combine SR and LR in K                    0
 Integral screening is                        0
 Integral computing path is                   2
 max size of driver memory is            800000
 size of driver memory is                593474
 size of scratch memory is              2361544
 max col of scratch BK array               1296
 max len of scratch array in speh3          155
 max len of scratch index in speh4           18
 max int batch size is                      520
 min int batch size is                       52
 fixed nKL is                                52
 max L of basis functions is                  2
 order of int derivative is                   0
 number of shells is                         53
 number of basis is                         163
 number of cartesian basis is               163
 number of contracted shell pairs          1389
 number of primitive shell pairs           4742
 maxK2 (contraction) of shell pair           36
 max number of K2 of shell pair               1
 max number of CS2 of shell pair            126
 max number of PS2 of shell pair            678
 mem total for path MDJ                  535308
 -------------------------------------------------------
 Smallest overlap matrix eigenvalue = 4.26E-05

 Scale SEOQF with 1.000000e-01/1.000000e-01/1.000000e-01

 Standard Electronic Orientation quadrupole field applied
 Nucleus-field energy     =     0.0000000034 hartrees
 Guess MOs from SCF MO coefficient file
 Reading MOs from coefficient file
 Reading MOs from coefficient file
 An unrestricted hybrid HF-DFT SCF calculation will be
 performed using Pulay DIIS extrapolation
 Exchange:     0.2000 Hartree-Fock + 0.0800 Slater + 0.7200 B88
 Correlation:  0.1900 VWN1RPA + 0.8100 LYP
 Using SG-1 standard quadrature grid
 SCF converges when DIIS error is below 1.0E-08
Using Q-Chem read-in guess as SCF_GUESS READ specified.

 using 4 threads for integral computing
 -------------------------------------------------------
 OpenMP Integral computing Module                
 Release: version 1.0, May 2013, Q-Chem Inc. Pittsburgh 
 -------------------------------------------------------
 -------------------------------------------------------
 OpenMP BLAS3 based DFT computing Module                
 Release: version 1.0, May 2013, Q-Chem Inc. Pittsburgh 
 -------------------------------------------------------
 ---------------------------------------
  Cycle       Energy         DIIS Error
 ---------------------------------------
    1    -286.8561299852      9.02E-10
    2    -286.8561299852      1.13E-09 Convergence criterion met
 ---------------------------------------
 <S^2> = 0.7874
 SCF time:  CPU 10.37 s  wall 3.90 s
 SCF   energy in the final basis set = -286.85612999
 Total energy in the final basis set = -286.85612999
 
 --------------------------------------------------------------
 
                    Orbital Energies (a.u.)
 --------------------------------------------------------------
 
 Alpha MOs
 -- Occupied --
-14.336 -10.234 -10.229 -10.228 -10.227 -10.226 -10.221  -0.958
 -0.895  -0.770  -0.661  -0.650  -0.590  -0.546  -0.494  -0.491
 -0.474  -0.434  -0.390  -0.380  -0.355  -0.311  -0.278  -0.259
 -0.175
 -- Virtual --
 -0.041  -0.000   0.016   0.021   0.026   0.043   0.048   0.056
  0.065   0.076   0.082   0.087   0.097   0.104   0.116   0.118
  0.122   0.127   0.143   0.148   0.160   0.174   0.177   0.184
  0.192   0.197   0.205   0.213   0.224   0.238   0.252   0.258
  0.266   0.270   0.293   0.296   0.308   0.319   0.325   0.341
  0.352   0.375   0.470   0.497   0.615   0.638   0.651   0.672
  0.674   0.708   0.720   0.739   0.747   0.761   0.779   0.803
  0.839   0.856   0.872   0.904   0.936   0.945   0.960   0.983
  1.005   1.012   1.040   1.074   1.087   1.126   1.134   1.149
  1.170   1.205   1.288   1.325   1.363   1.383   1.449   1.493
  1.522   1.563   1.603   1.648   1.676   1.747   1.804   1.808
  1.853   1.879   1.943   2.000   2.017   2.056   2.064   2.112
  2.131   2.173   2.199   2.262   2.280   2.319   2.352   2.400
  2.424   2.449   2.454   2.468   2.484   2.494   2.526   2.544
  2.589   2.598   2.629   2.642   2.658   2.710   2.788   2.814
  2.879   2.935   2.993   3.170   3.180   3.280   3.292   3.375
  3.510   3.587   3.696   4.180   4.321   4.390   4.528   4.602
  4.662   4.730
 
 Beta MOs
 -- Occupied --
-14.337 -10.231 -10.230 -10.228 -10.228 -10.216 -10.215  -0.954
 -0.890  -0.764  -0.655  -0.644  -0.577  -0.542  -0.488  -0.486
 -0.471  -0.431  -0.380  -0.376  -0.349  -0.306  -0.264  -0.248
 -- Virtual --
 -0.079  -0.028   0.000   0.016   0.022   0.029   0.044   0.050
  0.059   0.066   0.077   0.087   0.091   0.099   0.109   0.116
  0.119   0.123   0.130   0.143   0.149   0.162   0.175   0.179
  0.186   0.194   0.200   0.207   0.214   0.226   0.241   0.252
  0.262   0.268   0.272   0.295   0.298   0.310   0.322   0.328
  0.346   0.358   0.380   0.473   0.500   0.618   0.644   0.666
  0.675   0.689   0.712   0.736   0.743   0.754   0.765   0.784
  0.807   0.844   0.861   0.875   0.908   0.939   0.947   0.963
  0.985   1.007   1.010   1.043   1.075   1.090   1.131   1.139
  1.153   1.177   1.207   1.296   1.331   1.372   1.385   1.454
  1.504   1.531   1.568   1.612   1.652   1.683   1.756   1.811
  1.815   1.857   1.893   1.948   2.004   2.019   2.058   2.072
  2.126   2.137   2.182   2.207   2.265   2.286   2.320   2.358
  2.405   2.431   2.453   2.458   2.471   2.486   2.500   2.532
  2.548   2.595   2.603   2.633   2.648   2.662   2.716   2.792
  2.825   2.882   2.939   2.997   3.173   3.182   3.283   3.293
  3.377   3.512   3.594   3.698   4.179   4.327   4.395   4.534
  4.616   4.670   4.733
 --------------------------------------------------------------
 
          Ground-State Mulliken Net Atomic Charges

     Atom                 Charge (a.u.)    Spin (a.u.)
  --------------------------------------------------------
      1 C                    -0.035344       0.271625
      2 C                    -0.138456      -0.046624
      3 C                     0.054168      -0.003274
      4 C                    -0.083514      -0.192374
      5 C                    -0.194061       0.425368
      6 N                    -0.192399      -0.094153
      7 H                     0.124712      -0.013265
      8 H                     0.137622       0.019196
      9 H                     0.139477       0.000524
     10 H                     0.140604       0.010792
     11 H                     0.126741      -0.022967
     12 C                    -0.222858       0.666853
     13 H                     0.143307      -0.021701
  --------------------------------------------------------
  Sum of atomic charges =     0.000000
  Sum of spin   charges =     1.000000

 -----------------------------------------------------------------
                    Cartesian Multipole Moments
 -----------------------------------------------------------------
    Charge (ESU x 10^10)
                 0.0000
    Dipole Moment (Debye)
         X      -1.1585      Y      -2.6677      Z       0.9513
       Tot       3.0600
    Quadrupole Moments (Debye-Ang)
        XX     -38.2688     XY      -3.5583     YY     -42.8981
        XZ       0.5221     YZ       1.1380     ZZ     -43.8268
    Octopole Moments (Debye-Ang^2)
       XXX      -9.0464    XXY     -10.3293    XYY     -11.9484
       YYY     -28.6628    XXZ       2.2656    XYZ       2.4923
       YYZ       6.9797    XZZ      -4.8348    YZZ     -13.4002
       ZZZ      17.0082
    Hexadecapole Moments (Debye-Ang^3)
      XXXX    -275.8729   XXXY     -14.5709   XXYY    -107.7382
      XYYY     -28.6036   YYYY    -325.4191   XXXZ      12.7663
      XXYZ      21.7604   XYYZ      15.6628   YYYZ      64.7373
      XXZZ     -82.4500   XYZZ      -3.1193   YYZZ     -88.7482
      XZZZ      17.2197   YZZZ      54.9999   ZZZZ    -160.2936
 -----------------------------------------------------------------
 Calculating analytic gradient of the SCF energy
 Gradient of SCF Energy
            1           2           3           4           5           6
    1  -0.0019406  -0.0007334   0.0011978   0.0009382   0.0009556   0.0002500
    2   0.0015939   0.0000033   0.0002131   0.0009972  -0.0021663  -0.0006814
    3  -0.0000450   0.0002459   0.0015651  -0.0000064  -0.0000260   0.0003137
            7           8           9          10          11          12
    1   0.0004230  -0.0000171  -0.0001205  -0.0002686  -0.0001697  -0.0005755
    2   0.0000551  -0.0003757  -0.0004370  -0.0001622   0.0005178   0.0007088
    3  -0.0002203  -0.0001980  -0.0004103   0.0003127  -0.0000285  -0.0017853
           13
    1   0.0000607
    2  -0.0002665
    3   0.0002824
 Max gradient component =       2.166E-03
 RMS gradient           =       7.909E-04
 Gradient time:  CPU 17.12 s  wall 4.71 s
 Geometry Optimization Parameters
   NAtoms,    NIC,     NZ,  NCons,   NDum,   NFix, NCnnct, MaxDiis
       13     127       0       0       0       0       0       0

 Cartesian Hessian read from HESS file


** GEOMETRY OPTIMIZATION IN DELOCALIZED INTERNAL COORDINATES **
   Searching for a Transition State

   Optimization Cycle:   1

                       Coordinates (Angstroms)
     ATOM                X               Y               Z
      1  C         1.4971285170    0.4043364854   -0.4809742454
      2  C         0.8712316258   -0.7559560188    0.2112505077
      3  C        -0.6187106980   -0.9995608313   -0.1311495577
      4  C        -1.2170595501    0.3474188140   -0.1832428558
      5  C        -0.4949594280    1.4949631779   -0.5095156171
      6  N         0.8484660758    1.4841828076   -0.7886685001
      7  H         2.5380022331    0.3247795464   -0.7968982262
      8  H         1.4909982005   -1.6497956151    0.2922985494
      9  H        -1.0436744475   -1.9176221496   -0.5280554443
     10  H        -2.2861128296    0.4260637806    0.0018067004
     11  H        -0.9842069362    2.4645417133   -0.5179223144
     12  C        -0.2091350227   -0.6328351261    1.2132031979
     13  H        -0.3998047394   -0.9921564998    2.2131223519
   Point Group: c1    Number of degrees of freedom:    33


   Energy is   -286.856129985


 Attempting to Generate Delocalized Internal Coordinates

 Transforming Cartesian Hessian to Internal Coordinates
 Hessian Transformation does not Include Derivative of B-matrix

 33 Hessian modes will be used to form the next step
  Hessian Eigenvalues:
    -0.043103    0.002080    0.008464    0.009860    0.011430    0.013652
     0.015015    0.016262    0.021566    0.025047    0.027386    0.033135
     0.044764    0.053833    0.065916    0.080508    0.104425    0.121124
     0.130108    0.133638    0.189992    0.216787    0.242510    0.271304
     0.333141    0.346151    0.348348    0.354290    0.357112    0.363564
     0.374382    0.414310    0.546880

 Transition State Search - Taking P-RFO Step
 Searching for Lamda that Maximizes Along the Lowest mode
 Value Taken    Lamda =   0.00000340
 Searching for Lamda that Minimizes Along All other modes
 Value Taken    Lamda =  -0.00004062
 Step Taken.  Stepsize is  0.050410

                             Maximum     Tolerance    Cnvgd?
         Gradient           0.001948      0.000010      NO
         Displacement       0.025802      0.001200      NO
         Energy change     *********      0.000001      NO


 New Cartesian Coordinates Obtained by Inverse Iteration

 Displacement from previous Coordinates is:  0.027547
 ----------------------------------------------------------------
             Standard Nuclear Orientation (Angstroms)
    I     Atom           X                Y                Z
 ----------------------------------------------------------------
    1      C       1.4988367542     0.4026981243    -0.4822274996
    2      C       0.8727518691    -0.7569959064     0.2099996406
    3      C      -0.6190109375    -1.0006935386    -0.1343478376
    4      C      -1.2172848859     0.3456856576    -0.1822384890
    5      C      -0.4952352586     1.4964805997    -0.5062079495
    6      N       0.8482446855     1.4844727813    -0.7863955179
    7      H       2.5382260951     0.3233933863    -0.8000761019
    8      H       1.4937798623    -1.6492503368     0.2937208013
    9      H      -1.0448492947    -1.9188449414    -0.5276447212
   10      H      -2.2866299363     0.4245560836    -0.0012851423
   11      H      -0.9850760416     2.4647653692    -0.5131157320
   12      C      -0.2076429084    -0.6346669358     1.2116071524
   13      H      -0.4039470026    -0.9832402586     2.2134659432
 ----------------------------------------------------------------
 Nuclear Repulsion Energy =   273.9016049598 hartrees
 There are       25 alpha and       24 beta electrons
 Applying Cartesian multipole field
    Component          Value
    ---------          -----
     (2,0,0)        1.00000E-11
     (0,2,0)        2.00000E-11
     (0,0,2)       -3.00000E-11
 Nucleus-field energy     =     0.0000000034 hartrees
 Requested basis set is 6-31+G(d,p)
 There are 53 shells and 163 basis functions
 A cutoff of  1.0D-14 yielded   1389 shell pairs
 There are     13465 function pairs
 Smallest overlap matrix eigenvalue = 4.28E-05
 Guess MOs from SCF MO coefficient file
 Reading MOs from coefficient file
 Reading MOs from coefficient file
 An unrestricted hybrid HF-DFT SCF calculation will be
 performed using Pulay DIIS extrapolation
 Exchange:     0.2000 Hartree-Fock + 0.0800 Slater + 0.7200 B88
 Correlation:  0.1900 VWN1RPA + 0.8100 LYP
 Using SG-1 standard quadrature grid
 SCF converges when DIIS error is below 1.0E-08
 Geometry optimization detected.  Setting ReadMinima to 0
 Setting SaveMinima to 0
Using Q-Chem read-in guess as SCF_GUESS READ specified.

 using 4 threads for integral computing
 -------------------------------------------------------
 OpenMP Integral computing Module                
 Release: version 1.0, May 2013, Q-Chem Inc. Pittsburgh 
 -------------------------------------------------------
 -------------------------------------------------------
 OpenMP BLAS3 based DFT computing Module                
 Release: version 1.0, May 2013, Q-Chem Inc. Pittsburgh 
 -------------------------------------------------------
 ---------------------------------------
  Cycle       Energy         DIIS Error
 ---------------------------------------
    1    -286.8550374826      1.50E-04
    2    -286.8561426150      3.52E-05
    3    -286.8561385513      5.13E-05
    4    -286.8561479862      1.18E-05
    5    -286.8561485195      3.74E-06
    6    -286.8561486198      1.01E-06
    7    -286.8561486637      9.17E-07
    8    -286.8561486825      2.88E-07
    9    -286.8561486886      1.96E-07
   10    -286.8561486910      7.37E-08
   11    -286.8561486915      2.62E-08
   12    -286.8561486916      1.57E-08
   13    -286.8561486916      5.51E-09 Convergence criterion met
 ---------------------------------------
 <S^2> = 0.7878
 SCF time:  CPU 66.74 s  wall 38.70 s
 SCF   energy in the final basis set = -286.85614869
 Total energy in the final basis set = -286.85614869
 
 --------------------------------------------------------------
 
                    Orbital Energies (a.u.)
 --------------------------------------------------------------
 
 Alpha MOs
 -- Occupied --
-14.335 -10.233 -10.229 -10.229 -10.227 -10.226 -10.221  -0.957
 -0.894  -0.769  -0.661  -0.650  -0.590  -0.546  -0.494  -0.491
 -0.473  -0.434  -0.390  -0.380  -0.355  -0.311  -0.277  -0.259
 -0.175
 -- Virtual --
 -0.041  -0.000   0.016   0.021   0.026   0.043   0.048   0.056
  0.065   0.076   0.082   0.087   0.097   0.104   0.116   0.118
  0.122   0.127   0.143   0.148   0.160   0.174   0.177   0.184
  0.191   0.196   0.205   0.213   0.224   0.238   0.252   0.258
  0.265   0.270   0.292   0.296   0.308   0.319   0.325   0.341
  0.352   0.375   0.470   0.496   0.616   0.638   0.650   0.672
  0.674   0.709   0.720   0.739   0.747   0.760   0.779   0.802
  0.839   0.856   0.872   0.905   0.936   0.945   0.961   0.983
  1.005   1.012   1.040   1.074   1.087   1.125   1.135   1.149
  1.170   1.204   1.289   1.325   1.363   1.383   1.450   1.493
  1.521   1.563   1.603   1.648   1.676   1.746   1.804   1.809
  1.854   1.878   1.943   2.000   2.016   2.054   2.062   2.112
  2.130   2.172   2.198   2.262   2.280   2.319   2.351   2.400
  2.424   2.449   2.453   2.467   2.484   2.495   2.526   2.545
  2.589   2.597   2.629   2.642   2.658   2.708   2.787   2.815
  2.879   2.935   2.993   3.169   3.180   3.282   3.293   3.377
  3.510   3.587   3.697   4.180   4.321   4.388   4.529   4.604
  4.661   4.730
 
 Beta MOs
 -- Occupied --
-14.337 -10.231 -10.229 -10.228 -10.228 -10.216 -10.215  -0.953
 -0.889  -0.763  -0.655  -0.644  -0.577  -0.542  -0.488  -0.486
 -0.470  -0.431  -0.379  -0.376  -0.349  -0.306  -0.264  -0.247
 -- Virtual --
 -0.079  -0.028   0.000   0.016   0.022   0.029   0.044   0.050
  0.059   0.066   0.076   0.087   0.091   0.099   0.109   0.116
  0.119   0.123   0.130   0.143   0.149   0.162   0.175   0.179
  0.186   0.194   0.200   0.207   0.214   0.226   0.241   0.252
  0.261   0.268   0.272   0.295   0.298   0.310   0.321   0.328
  0.346   0.357   0.379   0.473   0.499   0.619   0.644   0.666
  0.675   0.689   0.712   0.736   0.742   0.753   0.764   0.784
  0.807   0.844   0.861   0.875   0.908   0.939   0.947   0.964
  0.984   1.007   1.011   1.043   1.076   1.090   1.130   1.140
  1.153   1.176   1.206   1.297   1.331   1.371   1.385   1.455
  1.504   1.530   1.568   1.612   1.651   1.682   1.755   1.811
  1.816   1.858   1.892   1.948   2.004   2.018   2.057   2.070
  2.127   2.137   2.181   2.206   2.265   2.286   2.321   2.357
  2.404   2.431   2.452   2.457   2.470   2.486   2.501   2.533
  2.548   2.594   2.602   2.633   2.648   2.662   2.714   2.790
  2.825   2.882   2.940   2.997   3.172   3.181   3.285   3.294
  3.379   3.512   3.594   3.699   4.178   4.328   4.394   4.534
  4.618   4.670   4.732
 --------------------------------------------------------------
 
          Ground-State Mulliken Net Atomic Charges

     Atom                 Charge (a.u.)    Spin (a.u.)
  --------------------------------------------------------
      1 C                    -0.037702       0.276897
      2 C                    -0.136225      -0.048101
      3 C                     0.053177      -0.002196
      4 C                    -0.084216      -0.193443
      5 C                    -0.193834       0.427455
      6 N                    -0.192995      -0.095638
      7 H                     0.124892      -0.013481
      8 H                     0.137619       0.019331
      9 H                     0.139489       0.000558
     10 H                     0.140417       0.010901
     11 H                     0.126827      -0.023044
     12 C                    -0.220842       0.662906
     13 H                     0.143393      -0.022147
  --------------------------------------------------------
  Sum of atomic charges =    -0.000000
  Sum of spin   charges =     1.000000

 -----------------------------------------------------------------
                    Cartesian Multipole Moments
 -----------------------------------------------------------------
    Charge (ESU x 10^10)
                -0.0000
    Dipole Moment (Debye)
         X      -1.1694      Y      -2.6695      Z       0.9633
       Tot       3.0695
    Quadrupole Moments (Debye-Ang)
        XX     -38.2538     XY      -3.5742     YY     -42.9284
        XZ       0.5151     YZ       1.1469     ZZ     -43.8013
    Octopole Moments (Debye-Ang^2)
       XXX      -9.0983    XXY     -10.3373    XYY     -12.0093
       YYY     -28.5872    XXZ       2.2443    XYZ       2.4787
       YYZ       6.9680    XZZ      -4.8728    YZZ     -13.3455
       ZZZ      17.1123
    Hexadecapole Moments (Debye-Ang^3)
      XXXX    -276.1159   XXXY     -14.5962   XXYY    -107.8063
      XYYY     -28.6345   YYYY    -325.7572   XXXZ      12.7885
      XXYZ      21.6393   XYYZ      15.6770   YYYZ      64.5941
      XXZZ     -82.3815   XYZZ      -3.0917   YYZZ     -88.8455
      XZZZ      17.1651   YZZZ      54.8110   ZZZZ    -159.7515
 -----------------------------------------------------------------
 Calculating analytic gradient of the SCF energy
 Gradient of SCF Energy
            1           2           3           4           5           6
    1  -0.0000179  -0.0000013   0.0000247   0.0000035  -0.0000292  -0.0000236
    2   0.0000247  -0.0000030  -0.0000201   0.0000022  -0.0000107  -0.0000069
    3  -0.0000277  -0.0000006   0.0000241   0.0000079   0.0000011  -0.0000133
            7           8           9          10          11          12
    1  -0.0000135   0.0000200   0.0000192  -0.0000031  -0.0000310   0.0000126
    2   0.0000226   0.0000183  -0.0000130  -0.0000253  -0.0000161   0.0000240
    3  -0.0000273  -0.0000062   0.0000216   0.0000223  -0.0000077   0.0000027
           13
    1   0.0000397
    2   0.0000034
    3   0.0000029
 Max gradient component =       3.969E-05
 RMS gradient           =       1.833E-05
 Gradient time:  CPU 17.22 s  wall 5.86 s
 Geometry Optimization Parameters
   NAtoms,    NIC,     NZ,  NCons,   NDum,   NFix, NCnnct, MaxDiis
       13     127       0       0       0       0       0       0

 Cartesian Hessian Update
 Hessian Updated using Powell/Murtagh-Sargent Update
  Mixing factors:     0.980773 Powell
                      0.019227 Murtagh-Sargent


** GEOMETRY OPTIMIZATION IN DELOCALIZED INTERNAL COORDINATES **
   Searching for a Transition State

   Optimization Cycle:   2

                       Coordinates (Angstroms)
     ATOM                X               Y               Z
      1  C         1.4988367542    0.4026981243   -0.4822274996
      2  C         0.8727518691   -0.7569959064    0.2099996406
      3  C        -0.6190109375   -1.0006935386   -0.1343478376
      4  C        -1.2172848859    0.3456856576   -0.1822384890
      5  C        -0.4952352586    1.4964805997   -0.5062079495
      6  N         0.8482446855    1.4844727813   -0.7863955179
      7  H         2.5382260951    0.3233933863   -0.8000761019
      8  H         1.4937798623   -1.6492503368    0.2937208013
      9  H        -1.0448492947   -1.9188449414   -0.5276447212
     10  H        -2.2866299363    0.4245560836   -0.0012851423
     11  H        -0.9850760416    2.4647653692   -0.5131157320
     12  C        -0.2076429084   -0.6346669358    1.2116071524
     13  H        -0.4039470026   -0.9832402586    2.2134659432
   Point Group: c1    Number of degrees of freedom:    33


   Energy is   -286.856148692

 Hessian Updated using Powell/Murtagh-Sargent Update
  Mixing factors:     0.950129 Powell
                      0.049871 Murtagh-Sargent

 33 Hessian modes will be used to form the next step
  Hessian Eigenvalues:
    -0.043089    0.002042    0.008475    0.009859    0.011420    0.013656
     0.015024    0.016260    0.021549    0.025047    0.027384    0.033142
     0.044746    0.053828    0.065918    0.080507    0.104404    0.121127
     0.130106    0.133642    0.189982    0.216743    0.242472    0.271306
     0.333139    0.346151    0.348351    0.354292    0.357113    0.363564
     0.374380    0.414271    0.546832

 Transition State Search - Taking P-RFO Step
 Searching for Lamda that Maximizes Along the Lowest mode
 Value Taken    Lamda =   0.00000000
 Searching for Lamda that Minimizes Along All other modes
 Value Taken    Lamda =   0.00000000
 Step Taken.  Stepsize is  0.002510

                             Maximum     Tolerance    Cnvgd?
         Gradient           0.000011      0.000010      NO
         Displacement       0.001836      0.001200      NO
         Energy change     -0.000019      0.000001      NO


 New Cartesian Coordinates Obtained by Inverse Iteration

 Displacement from previous Coordinates is:  0.001066
 ----------------------------------------------------------------
             Standard Nuclear Orientation (Angstroms)
    I     Atom           X                Y                Z
 ----------------------------------------------------------------
    1      C       1.4988727852     0.4027011379    -0.4822043105
    2      C       0.8727889660    -0.7570299386     0.2099487682
    3      C      -0.6190436939    -1.0007376105    -0.1343919820
    4      C      -1.2172956904     0.3456322638    -0.1822277373
    5      C      -0.4952244681     1.4964444137    -0.5061769677
    6      N       0.8482546969     1.4844884485    -0.7863441162
    7      H       2.5382650668     0.3234266003    -0.8000560796
    8      H       1.4938218481    -1.6492957101     0.2935762061
    9      H      -1.0448826706    -1.9188835231    -0.5277182865
   10      H      -2.2866398483     0.4245266081    -0.0012611791
   11      H      -0.9850855745     2.4647249097    -0.5130200792
   12      C      -0.2075910391    -0.6348300110     1.2115509524
   13      H      -0.4040773772    -0.9828075043     2.2135793577
 ----------------------------------------------------------------
 Nuclear Repulsion Energy =   273.8999194675 hartrees
 There are       25 alpha and       24 beta electrons
 Applying Cartesian multipole field
    Component          Value
    ---------          -----
     (2,0,0)        1.00000E-11
     (0,2,0)        2.00000E-11
     (0,0,2)       -3.00000E-11
 Nucleus-field energy     =     0.0000000034 hartrees
 Requested basis set is 6-31+G(d,p)
 There are 53 shells and 163 basis functions
 A cutoff of  1.0D-14 yielded   1389 shell pairs
 There are     13465 function pairs
 Smallest overlap matrix eigenvalue = 4.29E-05
 Guess MOs from SCF MO coefficient file
 Reading MOs from coefficient file
 Reading MOs from coefficient file
 An unrestricted hybrid HF-DFT SCF calculation will be
 performed using Pulay DIIS extrapolation
 Exchange:     0.2000 Hartree-Fock + 0.0800 Slater + 0.7200 B88
 Correlation:  0.1900 VWN1RPA + 0.8100 LYP
 Using SG-1 standard quadrature grid
 SCF converges when DIIS error is below 1.0E-08
 Geometry optimization detected.  Setting ReadMinima to 0
 Setting SaveMinima to 0
Using Q-Chem read-in guess as SCF_GUESS READ specified.

 using 4 threads for integral computing
 -------------------------------------------------------
 OpenMP Integral computing Module                
 Release: version 1.0, May 2013, Q-Chem Inc. Pittsburgh 
 -------------------------------------------------------
 -------------------------------------------------------
 OpenMP BLAS3 based DFT computing Module                
 Release: version 1.0, May 2013, Q-Chem Inc. Pittsburgh 
 -------------------------------------------------------
 ---------------------------------------
  Cycle       Energy         DIIS Error
 ---------------------------------------
    1    -286.8561438699      3.71E-06
    2    -286.8561486963      9.35E-07
    3    -286.8561486910      1.54E-06
    4    -286.8561487009      2.04E-07
    5    -286.8561487011      1.29E-07
    6    -286.8561487012      2.86E-08
    7    -286.8561487012      1.61E-08
    8    -286.8561487012      5.71E-09 Convergence criterion met
 ---------------------------------------
 <S^2> = 0.7878
 SCF time:  CPU 40.79 s  wall 20.13 s
 SCF   energy in the final basis set = -286.85614870
 Total energy in the final basis set = -286.85614870
 
 --------------------------------------------------------------
 
                    Orbital Energies (a.u.)
 --------------------------------------------------------------
 
 Alpha MOs
 -- Occupied --
-14.335 -10.233 -10.229 -10.229 -10.227 -10.226 -10.221  -0.957
 -0.894  -0.769  -0.661  -0.650  -0.590  -0.546  -0.494  -0.491
 -0.473  -0.434  -0.390  -0.380  -0.355  -0.311  -0.277  -0.259
 -0.175
 -- Virtual --
 -0.041  -0.000   0.016   0.021   0.026   0.043   0.048   0.056
  0.065   0.076   0.082   0.087   0.097   0.104   0.116   0.118
  0.122   0.127   0.143   0.148   0.160   0.174   0.177   0.184
  0.191   0.196   0.205   0.213   0.224   0.238   0.252   0.258
  0.265   0.270   0.292   0.296   0.308   0.319   0.325   0.341
  0.352   0.375   0.470   0.496   0.616   0.638   0.650   0.672
  0.674   0.709   0.720   0.739   0.747   0.760   0.779   0.802
  0.839   0.856   0.872   0.905   0.936   0.945   0.961   0.983
  1.005   1.012   1.040   1.074   1.087   1.125   1.135   1.149
  1.169   1.204   1.289   1.325   1.363   1.383   1.450   1.493
  1.521   1.563   1.603   1.648   1.675   1.746   1.804   1.809
  1.854   1.878   1.943   2.000   2.016   2.054   2.062   2.112
  2.130   2.172   2.198   2.262   2.280   2.319   2.351   2.400
  2.424   2.449   2.453   2.467   2.484   2.495   2.526   2.545
  2.589   2.597   2.629   2.642   2.658   2.708   2.787   2.815
  2.879   2.935   2.993   3.169   3.180   3.282   3.293   3.377
  3.510   3.587   3.697   4.180   4.321   4.388   4.529   4.604
  4.661   4.730
 
 Beta MOs
 -- Occupied --
-14.337 -10.231 -10.229 -10.228 -10.228 -10.216 -10.215  -0.953
 -0.889  -0.763  -0.655  -0.644  -0.577  -0.542  -0.488  -0.486
 -0.470  -0.431  -0.379  -0.376  -0.349  -0.306  -0.264  -0.247
 -- Virtual --
 -0.079  -0.028   0.000   0.016   0.022   0.029   0.044   0.050
  0.059   0.066   0.076   0.087   0.091   0.099   0.109   0.116
  0.119   0.123   0.130   0.143   0.149   0.162   0.175   0.179
  0.186   0.194   0.200   0.207   0.214   0.226   0.241   0.252
  0.261   0.268   0.272   0.295   0.298   0.310   0.321   0.328
  0.346   0.357   0.379   0.473   0.499   0.619   0.644   0.666
  0.675   0.689   0.712   0.736   0.742   0.753   0.764   0.784
  0.807   0.844   0.861   0.875   0.908   0.939   0.947   0.964
  0.984   1.007   1.011   1.043   1.076   1.090   1.130   1.140
  1.153   1.176   1.206   1.297   1.331   1.371   1.385   1.455
  1.504   1.530   1.568   1.612   1.651   1.682   1.755   1.811
  1.816   1.858   1.892   1.948   2.004   2.018   2.057   2.070
  2.127   2.136   2.181   2.206   2.265   2.286   2.321   2.357
  2.404   2.431   2.452   2.457   2.470   2.486   2.501   2.533
  2.548   2.594   2.602   2.633   2.648   2.662   2.714   2.790
  2.825   2.882   2.940   2.997   3.172   3.181   3.285   3.294
  3.379   3.512   3.594   3.699   4.178   4.328   4.394   4.534
  4.618   4.670   4.732
 --------------------------------------------------------------
 
          Ground-State Mulliken Net Atomic Charges

     Atom                 Charge (a.u.)    Spin (a.u.)
  --------------------------------------------------------
      1 C                    -0.037788       0.277001
      2 C                    -0.136056      -0.048159
      3 C                     0.053100      -0.002221
      4 C                    -0.084192      -0.193453
      5 C                    -0.193868       0.427457
      6 N                    -0.192988      -0.095666
      7 H                     0.124892      -0.013485
      8 H                     0.137620       0.019348
      9 H                     0.139487       0.000568
     10 H                     0.140413       0.010905
     11 H                     0.126823      -0.023044
     12 C                    -0.220840       0.662923
     13 H                     0.143396      -0.022175
  --------------------------------------------------------
  Sum of atomic charges =    -0.000000
  Sum of spin   charges =     1.000000

 -----------------------------------------------------------------
                    Cartesian Multipole Moments
 -----------------------------------------------------------------
    Charge (ESU x 10^10)
                -0.0000
    Dipole Moment (Debye)
         X      -1.1696      Y      -2.6693      Z       0.9639
       Tot       3.0696
    Quadrupole Moments (Debye-Ang)
        XX     -38.2541     XY      -3.5742     YY     -42.9301
        XZ       0.5144     YZ       1.1480     ZZ     -43.7996
    Octopole Moments (Debye-Ang^2)
       XXX      -9.0997    XXY     -10.3365    XYY     -12.0096
       YYY     -28.5829    XXZ       2.2448    XYZ       2.4783
       YYZ       6.9662    XZZ      -4.8746    YZZ     -13.3421
       ZZZ      17.1178
    Hexadecapole Moments (Debye-Ang^3)
      XXXX    -276.1281   XXXY     -14.5980   XXYY    -107.8098
      XYYY     -28.6378   YYYY    -325.7728   XXXZ      12.7865
      XXYZ      21.6382   XYYZ      15.6763   YYYZ      64.5960
      XXZZ     -82.3807   XYZZ      -3.0916   YYZZ     -88.8498
      XZZZ      17.1609   YZZZ      54.8101   ZZZZ    -159.7287
 -----------------------------------------------------------------
 Calculating analytic gradient of the SCF energy
 Gradient of SCF Energy
            1           2           3           4           5           6
    1  -0.0000097   0.0000099   0.0000103  -0.0000054  -0.0000217  -0.0000252
    2   0.0000133   0.0000101  -0.0000084  -0.0000138  -0.0000084   0.0000044
    3  -0.0000185  -0.0000044   0.0000128   0.0000115  -0.0000046  -0.0000189
            7           8           9          10          11          12
    1  -0.0000121   0.0000214   0.0000154  -0.0000048  -0.0000326   0.0000197
    2   0.0000226   0.0000182  -0.0000151  -0.0000251  -0.0000140   0.0000069
    3  -0.0000294  -0.0000054   0.0000237   0.0000218  -0.0000053   0.0000065
           13
    1   0.0000349
    2   0.0000094
    3   0.0000104
 Max gradient component =       3.485E-05
 RMS gradient           =       1.662E-05
 Gradient time:  CPU 17.40 s  wall 6.21 s
 Geometry Optimization Parameters
   NAtoms,    NIC,     NZ,  NCons,   NDum,   NFix, NCnnct, MaxDiis
       13     127       0       0       0       0       0       0

 Cartesian Hessian Update
 Hessian Updated using Powell/Murtagh-Sargent Update
**WARNING** Small Scalar Product
 Hessian Update Skipped this cycle


** GEOMETRY OPTIMIZATION IN DELOCALIZED INTERNAL COORDINATES **
   Searching for a Transition State

   Optimization Cycle:   3

                       Coordinates (Angstroms)
     ATOM                X               Y               Z
      1  C         1.4988727852    0.4027011379   -0.4822043105
      2  C         0.8727889660   -0.7570299386    0.2099487682
      3  C        -0.6190436939   -1.0007376105   -0.1343919820
      4  C        -1.2172956904    0.3456322638   -0.1822277373
      5  C        -0.4952244681    1.4964444137   -0.5061769677
      6  N         0.8482546969    1.4844884485   -0.7863441162
      7  H         2.5382650668    0.3234266003   -0.8000560796
      8  H         1.4938218481   -1.6492957101    0.2935762061
      9  H        -1.0448826706   -1.9188835231   -0.5277182865
     10  H        -2.2866398483    0.4245266081   -0.0012611791
     11  H        -0.9850855745    2.4647249097   -0.5130200792
     12  C        -0.2075910391   -0.6348300110    1.2115509524
     13  H        -0.4040773772   -0.9828075043    2.2135793577
   Point Group: c1    Number of degrees of freedom:    33


   Energy is   -286.856148701

 Hessian Updated using Powell/Murtagh-Sargent Update
**WARNING** Small Scalar Product
 Hessian Update Skipped this cycle

 33 Hessian modes will be used to form the next step
  Hessian Eigenvalues:
    -0.043089    0.002042    0.008475    0.009859    0.011420    0.013656
     0.015024    0.016260    0.021549    0.025047    0.027384    0.033142
     0.044746    0.053828    0.065918    0.080507    0.104404    0.121127
     0.130106    0.133642    0.189982    0.216743    0.242472    0.271306
     0.333139    0.346151    0.348351    0.354292    0.357113    0.363564
     0.374380    0.414271    0.546832

 Transition State Search - Taking P-RFO Step
 Searching for Lamda that Maximizes Along the Lowest mode
 Value Taken    Lamda =   0.00000000
 Searching for Lamda that Minimizes Along All other modes
 Value Taken    Lamda =   0.00000000
 Step Taken.  Stepsize is  0.000185

                             Maximum     Tolerance    Cnvgd?
         Gradient           0.000001      0.000010     YES
         Displacement       0.000140      0.001200     YES
         Energy change     -0.000000      0.000001     YES


                       Distance Matrix (Angstroms)
             C (  1)   C (  2)   C (  3)   C (  4)   C (  5)   N (  6)
   C (  2)  1.488635
   C (  3)  2.564407  1.550332
   C (  4)  2.733279  2.395437  1.474078
   C (  5)  2.274483  2.731747  2.527741  1.396674
   N (  6)  1.298487  2.453081  2.958776  2.434841  1.372433
   H (  7)  1.089794  2.227399  3.487853  3.806106  3.265638  2.050460
   H (  8)  2.193753  1.090327  2.251219  3.399454  3.806782  3.376920
   H (  9)  3.444201  2.360407  1.085834  2.297199  3.459343  3.903050
   H ( 10)  3.816004  3.379745  2.197721  1.087414  2.147817  3.401094
   H ( 11)  3.228458  3.788679  3.505250  2.157290  1.085163  2.096832
   C ( 12)  2.618644  1.478297  1.454216  1.980765  2.752390  3.098049
   H ( 13)  3.578841  2.386608  2.357859  2.857616  3.681314  4.081106
             H (  7)   H (  8)   H (  9)   H ( 10)   H ( 11)   C ( 12)
   H (  8)  2.485664
   H (  9)  4.235690  2.681832
   H ( 10)  4.891626  4.321986  2.703829
   H ( 11)  4.132983  4.870395  4.384041  2.473530
   C ( 12)  3.536177  2.183260  2.318385  2.629752  3.631237
   H ( 13)  4.409719  2.780763  2.966746  3.229574  4.433666  1.078775

 
 Final energy is   -286.856148701177     


 ******************************
 **  OPTIMIZATION CONVERGED  **
 ******************************

                       Coordinates (Angstroms)
     ATOM                X               Y               Z
      1  C         1.4988727852    0.4027011379   -0.4822043105
      2  C         0.8727889660   -0.7570299386    0.2099487682
      3  C        -0.6190436939   -1.0007376105   -0.1343919820
      4  C        -1.2172956904    0.3456322638   -0.1822277373
      5  C        -0.4952244681    1.4964444137   -0.5061769677
      6  N         0.8482546969    1.4844884485   -0.7863441162
      7  H         2.5382650668    0.3234266003   -0.8000560796
      8  H         1.4938218481   -1.6492957101    0.2935762061
      9  H        -1.0448826706   -1.9188835231   -0.5277182865
     10  H        -2.2866398483    0.4245266081   -0.0012611791
     11  H        -0.9850855745    2.4647249097   -0.5130200792
     12  C        -0.2075910391   -0.6348300110    1.2115509524
     13  H        -0.4040773772   -0.9828075043    2.2135793577

Z-matrix Print:
$molecule
0 2
N 
C  1 1.298487
H  2 1.089794 1 118.045542
C  1 1.372433 2 116.739243 3 172.963416 0
H  4 1.085163 1 116.639771 2 164.520670 0
C  4 1.396674 1 123.110612 2 -13.453487 0
H  6 1.087414 4 119.158112 1 -178.151172 0
C  6 1.474078 4 123.386712 1 -1.276315 0
H  8 1.085834 6 126.969622 4 -136.576545 0
C  8 1.454216 6 85.126602 4 83.638713 0
H  10 1.078775 8 136.635649 6 117.188741 0
C  10 1.478297 8 63.825087 6 -110.464903 0
H  12 1.090327 10 115.591226 8 -105.534279 0
$end

 
 --------------------------------------------------------------
 
                    Orbital Energies (a.u.)
 --------------------------------------------------------------
 
 Alpha MOs
 -- Occupied --
-14.335 -10.233 -10.229 -10.229 -10.227 -10.226 -10.221  -0.957
 -0.894  -0.769  -0.661  -0.650  -0.590  -0.546  -0.494  -0.491
 -0.473  -0.434  -0.390  -0.380  -0.355  -0.311  -0.277  -0.259
 -0.175
 -- Virtual --
 -0.041  -0.000   0.016   0.021   0.026   0.043   0.048   0.056
  0.065   0.076   0.082   0.087   0.097   0.104   0.116   0.118
  0.122   0.127   0.143   0.148   0.160   0.174   0.177   0.184
  0.191   0.196   0.205   0.213   0.224   0.238   0.252   0.258
  0.265   0.270   0.292   0.296   0.308   0.319   0.325   0.341
  0.352   0.375   0.470   0.496   0.616   0.638   0.650   0.672
  0.674   0.709   0.720   0.739   0.747   0.760   0.779   0.802
  0.839   0.856   0.872   0.905   0.936   0.945   0.961   0.983
  1.005   1.012   1.040   1.074   1.087   1.125   1.135   1.149
  1.169   1.204   1.289   1.325   1.363   1.383   1.450   1.493
  1.521   1.563   1.603   1.648   1.675   1.746   1.804   1.809
  1.854   1.878   1.943   2.000   2.016   2.054   2.062   2.112
  2.130   2.172   2.198   2.262   2.280   2.319   2.351   2.400
  2.424   2.449   2.453   2.467   2.484   2.495   2.526   2.545
  2.589   2.597   2.629   2.642   2.658   2.708   2.787   2.815
  2.879   2.935   2.993   3.169   3.180   3.282   3.293   3.377
  3.510   3.587   3.697   4.180   4.321   4.388   4.529   4.604
  4.661   4.730
 
 Beta MOs
 -- Occupied --
-14.337 -10.231 -10.229 -10.228 -10.228 -10.216 -10.215  -0.953
 -0.889  -0.763  -0.655  -0.644  -0.577  -0.542  -0.488  -0.486
 -0.470  -0.431  -0.379  -0.376  -0.349  -0.306  -0.264  -0.247
 -- Virtual --
 -0.079  -0.028   0.000   0.016   0.022   0.029   0.044   0.050
  0.059   0.066   0.076   0.087   0.091   0.099   0.109   0.116
  0.119   0.123   0.130   0.143   0.149   0.162   0.175   0.179
  0.186   0.194   0.200   0.207   0.214   0.226   0.241   0.252
  0.261   0.268   0.272   0.295   0.298   0.310   0.321   0.328
  0.346   0.357   0.379   0.473   0.499   0.619   0.644   0.666
  0.675   0.689   0.712   0.736   0.742   0.753   0.764   0.784
  0.807   0.844   0.861   0.875   0.908   0.939   0.947   0.964
  0.984   1.007   1.011   1.043   1.076   1.090   1.130   1.140
  1.153   1.176   1.206   1.297   1.331   1.371   1.385   1.455
  1.504   1.530   1.568   1.612   1.651   1.682   1.755   1.811
  1.816   1.858   1.892   1.948   2.004   2.018   2.057   2.070
  2.127   2.136   2.181   2.206   2.265   2.286   2.321   2.357
  2.404   2.431   2.452   2.457   2.470   2.486   2.501   2.533
  2.548   2.594   2.602   2.633   2.648   2.662   2.714   2.790
  2.825   2.882   2.940   2.997   3.172   3.181   3.285   3.294
  3.379   3.512   3.594   3.699   4.178   4.328   4.394   4.534
  4.618   4.670   4.732
 --------------------------------------------------------------
 
          Ground-State Mulliken Net Atomic Charges

     Atom                 Charge (a.u.)    Spin (a.u.)
  --------------------------------------------------------
      1 C                    -0.037788       0.277001
      2 C                    -0.136056      -0.048159
      3 C                     0.053100      -0.002221
      4 C                    -0.084192      -0.193453
      5 C                    -0.193868       0.427457
      6 N                    -0.192988      -0.095666
      7 H                     0.124892      -0.013485
      8 H                     0.137620       0.019348
      9 H                     0.139487       0.000568
     10 H                     0.140413       0.010905
     11 H                     0.126823      -0.023044
     12 C                    -0.220840       0.662923
     13 H                     0.143396      -0.022175
  --------------------------------------------------------
  Sum of atomic charges =    -0.000000
  Sum of spin   charges =     1.000000

 -----------------------------------------------------------------
                    Cartesian Multipole Moments
 -----------------------------------------------------------------
    Charge (ESU x 10^10)
                -0.0000
    Dipole Moment (Debye)
         X      -1.1696      Y      -2.6693      Z       0.9639
       Tot       3.0696
    Quadrupole Moments (Debye-Ang)
        XX     -38.2541     XY      -3.5742     YY     -42.9301
        XZ       0.5144     YZ       1.1480     ZZ     -43.7996
    Octopole Moments (Debye-Ang^2)
       XXX      -9.0997    XXY     -10.3365    XYY     -12.0096
       YYY     -28.5829    XXZ       2.2448    XYZ       2.4783
       YYZ       6.9662    XZZ      -4.8746    YZZ     -13.3421
       ZZZ      17.1178
    Hexadecapole Moments (Debye-Ang^3)
      XXXX    -276.1281   XXXY     -14.5980   XXYY    -107.8098
      XYYY     -28.6378   YYYY    -325.7728   XXXZ      12.7865
      XXYZ      21.6382   XYYZ      15.6763   YYYZ      64.5960
      XXZZ     -82.3807   XYZZ      -3.0916   YYZZ     -88.8498
      XZZZ      17.1609   YZZZ      54.8101   ZZZZ    -159.7287
 -----------------------------------------------------------------
Archival summary:
1\1\c8-90\TS\ProcedureUnspecified\6-31+G**\166(2)\hpark21\WedMar201:19:142022WedMar201:19:142022\0\\#,TS,ProcedureUnspecified,6-31+G**,\\0,2\N\C,1,1.29849\H,2,1.08979,1,118.046\C,1,1.37243,2,116.739,3,172.963,0\H,4,1.08516,1,116.64,2,164.521,0\C,4,1.39667,1,123.111,2,-13.4535,0\H,6,1.08741,4,119.158,1,-178.151,0\C,6,1.47408,4,123.387,1,-1.27631,0\H,8,1.08583,6,126.97,4,-136.577,0\C,8,1.45422,6,85.1266,4,83.6387,0\H,10,1.07878,8,136.636,6,117.189,0\C,10,1.4783,8,63.8251,6,-110.465,0\H,12,1.09033,10,115.591,8,-105.534,0\\\@

 Total job time:  97.81s(wall), 174.51s(cpu) 
 Wed Mar  2 01:19:14 2022

        *************************************************************
        *                                                           *
        *  Thank you very much for using Q-Chem.  Have a nice day.  *
        *                                                           *
        *************************************************************


