
Running Job 1 of 1 qcts2.in
qchem qcts2.in_27354.0 ./qcts2.d/ 1
/home/leeping/opt/qchem/5.0.2-openmp/exe/qcprog.exe_s qcts2.in_27354.0 ./qcts2.d/
Check license passed

                  Welcome to Q-Chem
     A Quantum Leap Into The Future Of Chemistry


 Q-Chem 5.0, Q-Chem, Inc., Pleasanton, CA (2017)

 Yihan Shao,  Zhengting Gan,  E. Epifanovsky,  A. T. B. Gilbert,  M. Wormit,  
 J. Kussmann,  A. W. Lange,  A. Behn,  Jia Deng,  Xintian Feng,  D. Ghosh,  
 M. Goldey,  P. R. Horn,  L. D. Jacobson,  I. Kaliman,  T. Kus,  A. Landau,  
 Jie Liu,  E. I. Proynov,  R. M. Richard,  R. P. Steele,  E. J. Sundstrom,  
 H. L. Woodcock III,  P. M. Zimmerman,  D. Zuev,  B. Albrecht,  E. Alguire,  
 S. A. Baeppler,  D. Barton,  Z. Benda,  Y. A. Bernard,  E. J. Berquist,  
 K. B. Bravaya,  H. Burton,  D. Casanova,  Chun-Min Chang,  Yunqing Chen,  
 A. Chien,  K. D. Closser,  M. P. Coons,  S. Dasgupta,  A. L. Dempwolff,  
 M. Diedenhofen,  Hainam Do,  R. G. Edgar,  Po-Tung Fang,  S. Fatehi,  
 Qingguo Feng,  J. Fosso-Tande,  Qinghui Ge,  A. Ghysels,  G. Gidofalvi,  
 J. Gomes,  J. Gonthier,  A. Gunina,  M. W. D. Hanson-Heine,  
 P. H. P. Harbach,  A. W. Hauser,  J. E. Herr,  E. G. Hohenstein,  
 Z. C. Holden,  Kerwin Hui,  T.-C. Jagau,  Hyunjun Ji,  B. Kaduk,  
 K. Khistyaev,  Jaehoon Kim,  P. Klunzinger,  K. Koh,  D. Kosenkov,  
 L. Koulias,  T. Kowalczyk,  C. M. Krauter,  A. Kunitsa,  Ka Un Lao,  
 A. Laurent,  K. V. Lawler,  Joonho Lee,  D. Lefrancois,  S. Lehtola,  
 D. S. Levine,  Yi-Pei Li,  You-Sheng Lin,  Fenglai Liu,  E. Livshits,  
 A. Luenser,  P. Manohar,  E. Mansoor,  S. F. Manzer,  Shan-Ping Mao,  
 Yuezhi Mao,  N. Mardirossian,  A. V. Marenich,  T. Markovich,  
 L. A. Martinez-Martinez,  S. A. Maurer,  N. J. Mayhall,  S. C. McKenzie,  
 J.-M. Mewes,  A. F. Morrison,  J. W. Mullinax,  K. Nanda,  
 T. S. Nguyen-Beck,  R. Olivares-Amaya,  J. A. Parkhill,  T. M. Perrine,  
 F. Plasser,  S. Prager,  A. Prociuk,  E. Ramos,  D. R. Rehn,  F. Rob,  
 M. Schneider,  N. Sergueev,  S. M. Sharada,  S. Sharma,  D. W. Small,  
 T. Stauch,  T. Stein,  Yu-Chuan Su,  A. J. W. Thom,  A. Tkatchenko,  
 T. Tsuchimochi,  L. Vogt,  O. Vydrov,  M. A. Watson,  J. Wenzel,  
 M. de Wergifosse,  T. A. Wesolowski,  A. White,  J. Witte,  A. Yamada,  
 Jun Yang,  K. Yao,  S. Yeganeh,  S. R. Yost,  Zhi-Qiang You,  A. Zech,  
 Igor Ying Zhang,  Xing Zhang,  Yan Zhao,  Ying Zhu,  B. R. Brooks,  
 G. K. L. Chan,  C. J. Cramer,  M. S. Gordon,  W. J. Hehre,  A. Klamt,  
 M. W. Schmidt,  C. D. Sherrill,  D. G. Truhlar,  A. Aspuru-Guzik,  R. Baer,  
 A. T. Bell,  N. A. Besley,  Jeng-Da Chai,  R. A. DiStasio Jr.,  A. Dreuw,  
 B. D. Dunietz,  T. R. Furlani,  Chao-Ping Hsu,  Yousung Jung,  Jing Kong,  
 D. S. Lambrecht,  WanZhen Liang,  C. Ochsenfeld,  V. A. Rassolov,  
 L. V. Slipchenko,  J. E. Subotnik,  T. Van Voorhis,  J. M. Herbert,  
 A. I. Krylov,  P. M. W. Gill,  M. Head-Gordon

 Contributors to earlier versions of Q-Chem not listed above: 
 R. D. Adamson,  B. Austin,  J. Baker,  G. J. O. Beran,  K. Brandhorst,  
 S. T. Brown,  E. F. C. Byrd,  A. K. Chakraborty,  C.-L. Cheng,  
 Siu Hung Chien,  D. M. Chipman,  D. L. Crittenden,  H. Dachsel,  
 R. J. Doerksen,  A. D. Dutoi,  L. Fusti-Molnar,  W. A. Goddard III,  
 A. Golubeva-Zadorozhnaya,  S. R. Gwaltney,  G. Hawkins,  A. Heyden,  
 S. Hirata,  G. Kedziora,  F. J. Keil,  C. Kelley,  Jihan Kim,  R. A. King,  
 R. Z. Khaliullin,  P. P. Korambath,  W. Kurlancheek,  A. M. Lee,  M. S. Lee,  
 S. V. Levchenko,  Ching Yeh Lin,  D. Liotard,  R. C. Lochan,  I. Lotan,  
 P. E. Maslen,  N. Nair,  D. P. O'Neill,  D. Neuhauser,  E. Neuscamman,  
 C. M. Oana,  R. Olson,  B. Peters,  R. Peverati,  P. A. Pieniazek,  
 Y. M. Rhee,  J. Ritchie,  M. A. Rohrdanz,  E. Rosta,  N. J. Russ,  
 H. F. Schaefer III,  N. E. Schultz,  N. Shenvi,  A. C. Simmonett,  A. Sodt,  
 D. Stuck,  K. S. Thanthiriwatte,  V. Vanovschi,  Tao Wang,  A. Warshel,  
 C. F. Williams,  Q. Wu,  X. Xu,  W. Zhang

 Please cite Q-Chem as follows:
 Y. Shao et al., Mol. Phys. 113, 184-215 (2015)
 DOI: 10.1080/00268976.2014.952696

 Q-Chem 5.0.2 for Intel X86 EM64T Linux

 Parts of Q-Chem use Armadillo 5.200.1 (Boston Tea Smuggler).
 http://arma.sourceforge.net/

 Q-Chem begins on Wed Mar  2 01:27:21 2022  

Host: 
0

     Scratch files written to ./qcts2.d//
 Dec517 15110_ 26548  26544 5633   
Processing $rem in /home/leeping/opt/qchem/5.0.2-openmp/config/preferences.
 MEM_STATIC 2000
 MEM_TOTAL  8000
 SYMMETRY   OFF
 SYM_IGNORE TRUE 

Checking the input file for inconsistencies... 	...done.

--------------------------------------------------------------
User input:
--------------------------------------------------------------
$molecule
0 2
C        1.4988727852    0.4027011379   -0.4822043105
C        0.8727889660   -0.7570299386    0.2099487682
C       -0.6190436939   -1.0007376105   -0.1343919820
C       -1.2172956904    0.3456322638   -0.1822277373
C       -0.4952244681    1.4964444137   -0.5061769677
N        0.8482546969    1.4844884485   -0.7863441162
H        2.5382650668    0.3234266003   -0.8000560796
H        1.4938218481   -1.6492957101    0.2935762061
H       -1.0448826706   -1.9188835231   -0.5277182865
H       -2.2866398483    0.4245266081   -0.0012611791
H       -0.9850855745    2.4647249097   -0.5130200792
C       -0.2075910391   -0.6348300110    1.2115509524
H       -0.4040773772   -0.9828075043    2.2135793577
$end

$rem
method                b3lyp
basis                 6-31+g(d,p)
unrestricted          true
symmetry              off
sym_ignore            true
incdft                false
incfock               0
scf_convergence       8
thresh                14
jobtype               freq
scf_guess             read
scf_algorithm         diis
max_scf_cycles        100
$end

--------------------------------------------------------------
 ----------------------------------------------------------------
             Standard Nuclear Orientation (Angstroms)
    I     Atom           X                Y                Z
 ----------------------------------------------------------------
    1      C       1.4988727852     0.4027011379    -0.4822043105
    2      C       0.8727889660    -0.7570299386     0.2099487682
    3      C      -0.6190436939    -1.0007376105    -0.1343919820
    4      C      -1.2172956904     0.3456322638    -0.1822277373
    5      C      -0.4952244681     1.4964444137    -0.5061769677
    6      N       0.8482546969     1.4844884485    -0.7863441162
    7      H       2.5382650668     0.3234266003    -0.8000560796
    8      H       1.4938218481    -1.6492957101     0.2935762061
    9      H      -1.0448826706    -1.9188835231    -0.5277182865
   10      H      -2.2866398483     0.4245266081    -0.0012611791
   11      H      -0.9850855745     2.4647249097    -0.5130200792
   12      C      -0.2075910391    -0.6348300110     1.2115509524
   13      H      -0.4040773772    -0.9828075043     2.2135793577
 ----------------------------------------------------------------
 Nuclear Repulsion Energy =   273.8999194676 hartrees
 There are       25 alpha and       24 beta electrons
 Requested basis set is 6-31+G(d,p)
 There are 53 shells and 163 basis functions

 Total QAlloc Memory Limit   8000 MB
 Mega-Array Size      1956 MB
 MEM_STATIC part      2000 MB

                       Distance Matrix (Angstroms)
             C (  1)   C (  2)   C (  3)   C (  4)   C (  5)   N (  6)
   C (  2)  1.488635
   C (  3)  2.564407  1.550332
   C (  4)  2.733279  2.395437  1.474078
   C (  5)  2.274483  2.731747  2.527741  1.396674
   N (  6)  1.298487  2.453081  2.958776  2.434841  1.372433
   H (  7)  1.089794  2.227399  3.487853  3.806106  3.265638  2.050460
   H (  8)  2.193753  1.090327  2.251219  3.399454  3.806782  3.376920
   H (  9)  3.444201  2.360407  1.085834  2.297199  3.459343  3.903050
   H ( 10)  3.816004  3.379745  2.197721  1.087414  2.147817  3.401094
   H ( 11)  3.228458  3.788679  3.505250  2.157290  1.085163  2.096832
   C ( 12)  2.618644  1.478297  1.454216  1.980765  2.752390  3.098049
   H ( 13)  3.578841  2.386608  2.357859  2.857616  3.681314  4.081106
             H (  7)   H (  8)   H (  9)   H ( 10)   H ( 11)   C ( 12)
   H (  8)  2.485664
   H (  9)  4.235690  2.681832
   H ( 10)  4.891626  4.321986  2.703829
   H ( 11)  4.132983  4.870395  4.384041  2.473530
   C ( 12)  3.536177  2.183260  2.318385  2.629752  3.631237
   H ( 13)  4.409719  2.780763  2.966746  3.229574  4.433666  1.078775

 
 A cutoff of  1.0D-14 yielded   1389 shell pairs
 There are     13465 function pairs
 Smallest overlap matrix eigenvalue = 4.29E-05
 Guess MOs from SCF MO coefficient file
 Reading MOs from coefficient file
 Reading MOs from coefficient file
 An unrestricted hybrid HF-DFT SCF calculation will be
 performed using Pulay DIIS extrapolation
 Exchange:     0.2000 Hartree-Fock + 0.0800 Slater + 0.7200 B88
 Correlation:  0.1900 VWN1RPA + 0.8100 LYP
 Using SG-1 standard quadrature grid
 SCF converges when DIIS error is below 1.0E-08
Using Q-Chem read-in guess as SCF_GUESS READ specified.

 -------------------------------------------------------
 OpenMP BLAS3 based DFT computing Module                
 -------------------------------------------------------
 ---------------------------------------
  Cycle       Energy         DIIS Error
 ---------------------------------------
    1    -286.8561487012      7.62E-10
    2    -286.8561487012      1.14E-09 Convergence criterion met
 ---------------------------------------
 <S^2> = 0.7878
 SCF time:  CPU 7.42 s  wall 13.85 s
 SCF   energy in the final basis set = -286.85614870
 Total energy in the final basis set = -286.85614870
 
 --------------------------------------------------------------
 
                    Orbital Energies (a.u.)
 --------------------------------------------------------------
 
 Alpha MOs
 -- Occupied --
-14.335 -10.233 -10.229 -10.229 -10.227 -10.226 -10.221  -0.957
 -0.894  -0.769  -0.661  -0.650  -0.590  -0.546  -0.494  -0.491
 -0.473  -0.434  -0.390  -0.380  -0.355  -0.311  -0.277  -0.259
 -0.175
 -- Virtual --
 -0.041  -0.000   0.016   0.021   0.026   0.043   0.048   0.056
  0.065   0.076   0.082   0.087   0.097   0.104   0.116   0.118
  0.122   0.127   0.143   0.148   0.160   0.174   0.177   0.184
  0.191   0.196   0.205   0.213   0.224   0.238   0.252   0.258
  0.265   0.270   0.292   0.296   0.308   0.319   0.325   0.341
  0.352   0.375   0.470   0.496   0.616   0.638   0.650   0.672
  0.674   0.709   0.720   0.739   0.747   0.760   0.779   0.802
  0.839   0.856   0.872   0.905   0.936   0.945   0.961   0.983
  1.005   1.012   1.040   1.074   1.087   1.125   1.135   1.149
  1.169   1.204   1.289   1.325   1.363   1.383   1.450   1.493
  1.521   1.563   1.603   1.648   1.675   1.746   1.804   1.809
  1.854   1.878   1.943   2.000   2.016   2.054   2.062   2.112
  2.130   2.172   2.198   2.262   2.280   2.319   2.351   2.400
  2.424   2.449   2.453   2.467   2.484   2.495   2.526   2.545
  2.589   2.597   2.629   2.642   2.658   2.708   2.787   2.815
  2.879   2.935   2.993   3.169   3.180   3.282   3.293   3.377
  3.510   3.587   3.697   4.180   4.321   4.388   4.529   4.604
  4.661   4.730
 
 Beta MOs
 -- Occupied --
-14.337 -10.231 -10.229 -10.228 -10.228 -10.216 -10.215  -0.953
 -0.889  -0.763  -0.655  -0.644  -0.577  -0.542  -0.488  -0.486
 -0.470  -0.431  -0.379  -0.376  -0.349  -0.306  -0.264  -0.247
 -- Virtual --
 -0.079  -0.028   0.000   0.016   0.022   0.029   0.044   0.050
  0.059   0.066   0.076   0.087   0.091   0.099   0.109   0.116
  0.119   0.123   0.130   0.143   0.149   0.162   0.175   0.179
  0.186   0.194   0.200   0.207   0.214   0.226   0.241   0.252
  0.261   0.268   0.272   0.295   0.298   0.310   0.321   0.328
  0.346   0.357   0.379   0.473   0.499   0.619   0.644   0.666
  0.675   0.689   0.712   0.736   0.742   0.753   0.764   0.784
  0.807   0.844   0.861   0.875   0.908   0.939   0.947   0.964
  0.984   1.007   1.011   1.043   1.076   1.090   1.130   1.140
  1.153   1.176   1.206   1.297   1.331   1.371   1.385   1.455
  1.504   1.530   1.568   1.612   1.651   1.682   1.755   1.811
  1.816   1.858   1.892   1.948   2.004   2.018   2.057   2.070
  2.127   2.136   2.181   2.206   2.265   2.286   2.321   2.357
  2.404   2.431   2.452   2.457   2.470   2.486   2.501   2.533
  2.548   2.594   2.602   2.633   2.648   2.662   2.714   2.790
  2.825   2.882   2.940   2.997   3.172   3.181   3.285   3.294
  3.379   3.512   3.594   3.699   4.178   4.328   4.394   4.534
  4.618   4.670   4.732
 --------------------------------------------------------------
 
          Ground-State Mulliken Net Atomic Charges

     Atom                 Charge (a.u.)    Spin (a.u.)
  --------------------------------------------------------
      1 C                    -0.037788       0.277005
      2 C                    -0.136056      -0.048160
      3 C                     0.053100      -0.002221
      4 C                    -0.084192      -0.193454
      5 C                    -0.193868       0.427458
      6 N                    -0.192988      -0.095669
      7 H                     0.124891      -0.013485
      8 H                     0.137620       0.019348
      9 H                     0.139487       0.000568
     10 H                     0.140413       0.010906
     11 H                     0.126823      -0.023044
     12 C                    -0.220840       0.662921
     13 H                     0.143396      -0.022174
  --------------------------------------------------------
  Sum of atomic charges =    -0.000000
  Sum of spin   charges =     1.000000

 -----------------------------------------------------------------
                    Cartesian Multipole Moments
 -----------------------------------------------------------------
    Charge (ESU x 10^10)
                -0.0000
    Dipole Moment (Debye)
         X      -1.1696      Y      -2.6693      Z       0.9639
       Tot       3.0696
    Quadrupole Moments (Debye-Ang)
        XX     -38.2541     XY      -3.5742     YY     -42.9301
        XZ       0.5144     YZ       1.1480     ZZ     -43.7996
    Octopole Moments (Debye-Ang^2)
       XXX      -9.0998    XXY     -10.3365    XYY     -12.0096
       YYY     -28.5830    XXZ       2.2448    XYZ       2.4783
       YYZ       6.9662    XZZ      -4.8746    YZZ     -13.3421
       ZZZ      17.1178
    Hexadecapole Moments (Debye-Ang^3)
      XXXX    -276.1282   XXXY     -14.5980   XXYY    -107.8098
      XYYY     -28.6378   YYYY    -325.7728   XXXZ      12.7866
      XXYZ      21.6382   XYYZ      15.6763   YYYZ      64.5960
      XXZZ     -82.3807   XYZZ      -3.0916   YYZZ     -88.8498
      XZZZ      17.1609   YZZZ      54.8101   ZZZZ    -159.7287
 -----------------------------------------------------------------
 Calculating MO derivatives via CPSCF
   1         3          39      0.288929    0.057678
   2         3          39      0.038152    0.007054
   3         3          39      0.004942    0.000833
   4         3          39      0.000672    0.000120
   5        24          18      0.000053    0.000010
   6        42           0      0.000000    0.000000    Roots Converged
 Time for AOints: 20.9 s (CPU) 24.7 s (wall)
 ------------------------------------------------------------------------------
                     AOints        : Timing summary (seconds)
 ------------------------------------------------------------------------------
     job step          cpu (% of tot)      sys (% of tot)     wall (% of tot)
 ------------------------------------------------------------------------------
  cpscf_lag         0.1244E+03 (29.0)   0.8600E-04 (26.6)   0.1350E+03 (28.3)
  iterzp            0.2838E+03 (66.1)   0.2150E-03 (66.6)   0.3171E+03 (66.4)
  make_fx           0.0000E+00 ( 0.0)   0.0000E+00 ( 0.0)   0.0000E+00 ( 0.0)
  AOints            0.2088E+02 ( 4.9)   0.1800E-04 ( 5.6)   0.2465E+02 ( 5.2)
 ------------------------------------------------------------------------------
   Grand Totals     0.4295E+03          0.3230E-03          0.4772E+03
 ------------------------------------------------------------------------------
 Calculating analytic Hessian of the SCF energy
 Polarizability Matrix (a.u.)
            1           2           3
    1 -80.6142503   1.8848029   3.7989694
    2   1.8848029 -77.9543652  13.1300991
    3   3.7989694  13.1300991 -63.4656614
 
 Direct stationary perturbation theory relativistic correction:
 
 rels  =       0.069362446621
 relv  =      -0.338928699309
 rel2e =       0.156685571627
 E_rel =      -0.112880681061
 
 Hessian of the SCF Energy
            1           2           3           4           5           6
    1   0.6869483  -0.1563912  -0.0966616  -0.1021610  -0.0403461   0.0357339
    2  -0.1563912   0.5767780  -0.1571035  -0.0132876  -0.1513553   0.0440889
    3  -0.0966616  -0.1571035   0.2472745   0.0277125   0.0551256  -0.0908701
    4  -0.1021610  -0.0132876   0.0277125   0.5282184  -0.1151769  -0.1003711
    5  -0.0403461  -0.1513553   0.0551256  -0.1151769   0.5401868  -0.1005386
    6   0.0357339   0.0440889  -0.0908701  -0.1003711  -0.1005386   0.2611634
    7  -0.0242844  -0.0239717   0.0038397  -0.1327862  -0.0090475   0.0001016
    8  -0.0131737  -0.0104229  -0.0117717  -0.0199352  -0.0729065  -0.0153969
    9   0.0188393   0.0058135  -0.0019663  -0.0679083  -0.0152045  -0.0125667
   10   0.0020701  -0.0083819   0.0033277  -0.0299044   0.0390184  -0.0121071
   11   0.0243495  -0.0264041   0.0046505  -0.0008876   0.0134884   0.0047267
   12  -0.0197165   0.0302884  -0.0081353   0.0068875  -0.0107138   0.0159119
   13  -0.0868212   0.0793248  -0.0046940  -0.0047985  -0.0180840   0.0021795
   14   0.0340230   0.0028553  -0.0052686   0.0005172  -0.0066333  -0.0050293
   15   0.0045215  -0.0116105   0.0089190  -0.0051650  -0.0009634  -0.0067488
   16  -0.1762213   0.1435171  -0.0404141   0.0197818   0.0147513   0.0046098
   17   0.1456127  -0.3404150   0.0924641   0.0008862  -0.0443555   0.0296885
   18  -0.0338949   0.0969642  -0.0910082  -0.0034057   0.0259037   0.0053565
   19  -0.2980610   0.0100856   0.0855086  -0.0055592   0.0034389   0.0041341
   20   0.0070527  -0.0518092   0.0032605  -0.0178265   0.0052477   0.0109046
   21   0.0877332   0.0047492  -0.0653650   0.0122082  -0.0014614   0.0051347
   22   0.0112852  -0.0123639   0.0005538  -0.1352013   0.1258406  -0.0132980
   23   0.0172901  -0.0156265   0.0001794   0.1277409  -0.2373147   0.0254646
   24  -0.0111632   0.0109447  -0.0010900  -0.0068905   0.0185770  -0.0380738
   25   0.0005965   0.0025181  -0.0032912  -0.0045770  -0.0195431  -0.0088933
   26   0.0000191  -0.0009519   0.0002839   0.0018861   0.0024717   0.0013410
   27   0.0010626  -0.0019068   0.0032405   0.0025438   0.0070367  -0.0049444
   28   0.0014525  -0.0013051   0.0000969   0.0008640   0.0037026   0.0007237
   29   0.0000705  -0.0024582   0.0005630   0.0033885  -0.0052759  -0.0004564
   30  -0.0002035  -0.0009116   0.0010186   0.0020715   0.0064789   0.0010999
   31  -0.0046605  -0.0013283   0.0034539   0.0005474   0.0004165  -0.0003846
   32  -0.0018794   0.0017885   0.0000812   0.0003160   0.0007528  -0.0001520
   33   0.0027146  -0.0039963   0.0055237   0.0017116   0.0014165  -0.0014727
   34  -0.0135359  -0.0200342   0.0188271  -0.1325884   0.0262148   0.0734355
   35  -0.0135861   0.0160666   0.0155054   0.0278971  -0.0410925   0.0103819
   36   0.0125452  -0.0157292  -0.0088188   0.1331723   0.0143957  -0.1317357
   37   0.0033926   0.0016182   0.0017407  -0.0018356  -0.0111855   0.0141360
   38  -0.0030409   0.0019548   0.0020302   0.0044817  -0.0032135  -0.0050230
   39  -0.0015108  -0.0015910   0.0012775  -0.0025668  -0.0000525  -0.0022544
            7           8           9          10          11          12
    1  -0.0242844  -0.0131737   0.0188393   0.0020701   0.0243495  -0.0197165
    2  -0.0239717  -0.0104229   0.0058135  -0.0083819  -0.0264041   0.0302884
    3   0.0038397  -0.0117717  -0.0019663   0.0033277   0.0046505  -0.0081353
    4  -0.1327862  -0.0199352  -0.0679083  -0.0299044  -0.0008876   0.0068875
    5  -0.0090475  -0.0729065  -0.0152045   0.0390184   0.0134884  -0.0107138
    6   0.0001016  -0.0153969  -0.0125667  -0.0121071   0.0047267   0.0159119
    7   0.3836195   0.0862006   0.1495369  -0.1117747   0.0586908  -0.0074911
    8   0.0862006   0.6258745   0.1390865   0.0650253  -0.2617906   0.0471370
    9   0.1495369   0.1390865   0.3680911   0.0039249  -0.0414749   0.0016898
   10  -0.1117747   0.0650253   0.0039249   0.6756948   0.0413671  -0.1176448
   11   0.0586908  -0.2617906  -0.0414749   0.0413671   0.5368994   0.0183673
   12  -0.0074911   0.0471370   0.0016898  -0.1176448   0.0183673   0.0319341
   13   0.0178716   0.0265550   0.0179228  -0.1727302  -0.0418208  -0.0322203
   14  -0.0066031  -0.0156188   0.0270822  -0.1196087  -0.2428625  -0.0053955
   15  -0.0050014  -0.0128836  -0.0024143   0.0461567   0.0233118  -0.0255084
   16  -0.0086856  -0.0059465  -0.0155071  -0.0429324  -0.0674034   0.0647675
   17   0.0070896   0.0107270  -0.0005515  -0.0223092   0.0289782  -0.0227738
   18   0.0027351   0.0039548   0.0006813   0.0100134   0.0156489  -0.0017248
   19  -0.0013055  -0.0002467   0.0002447   0.0005295  -0.0010753  -0.0000707
   20  -0.0037126  -0.0000381   0.0002312   0.0011348  -0.0021785  -0.0003334
   21  -0.0016412   0.0032615  -0.0021021   0.0001783  -0.0026879  -0.0006487
   22  -0.0074586   0.0183517   0.0038940  -0.0054016  -0.0038806   0.0045357
   23  -0.0052414   0.0092859  -0.0000732  -0.0030643  -0.0014431   0.0012417
   24  -0.0075919   0.0156608  -0.0015019  -0.0024619  -0.0017556  -0.0008208
   25  -0.0898257  -0.0951350  -0.0464794   0.0093857   0.0127124   0.0004673
   26  -0.0962933  -0.2590158  -0.0876065  -0.0106646  -0.0145923  -0.0040800
   27  -0.0446920  -0.0879237  -0.0714894   0.0066627   0.0042658   0.0040719
   28  -0.0093384   0.0021393  -0.0002328  -0.3292147   0.0155225   0.0486407
   29   0.0292156  -0.0005147  -0.0014790   0.0208059  -0.0553315   0.0030388
   30  -0.0034895   0.0060503  -0.0040040   0.0529636  -0.0033071  -0.0497885
   31  -0.0016641  -0.0024675   0.0013776   0.0097681  -0.0165592   0.0000340
   32  -0.0033749  -0.0007944   0.0011412   0.0123111  -0.0186968  -0.0008944
   33   0.0021630  -0.0006696   0.0052820  -0.0022519   0.0055627   0.0061254
   34  -0.0156132  -0.0699569  -0.0502274  -0.0076481  -0.0092367   0.0464055
   35  -0.0361776  -0.0298856  -0.0140812  -0.0141606   0.0404980  -0.0499613
   36  -0.0931262  -0.0946409  -0.2681896   0.0105765  -0.0219687   0.0261581
   37   0.0012454   0.0085897  -0.0153852   0.0021578  -0.0117786   0.0054053
   38   0.0032255   0.0051001  -0.0128836  -0.0014733   0.0034354  -0.0059211
   39   0.0046569   0.0081353  -0.0115098   0.0006619  -0.0053395   0.0007354
           13          14          15          16          17          18
    1  -0.0868212   0.0340230   0.0045215  -0.1762213   0.1456127  -0.0338949
    2   0.0793248   0.0028553  -0.0116105   0.1435171  -0.3404150   0.0969642
    3  -0.0046940  -0.0052686   0.0089190  -0.0404141   0.0924641  -0.0910082
    4  -0.0047985   0.0005172  -0.0051650   0.0197818   0.0008862  -0.0034057
    5  -0.0180840  -0.0066333  -0.0009634   0.0147513  -0.0443555   0.0259037
    6   0.0021795  -0.0050293  -0.0067488   0.0046098   0.0296885   0.0053565
    7   0.0178716  -0.0066031  -0.0050014  -0.0086856   0.0070896   0.0027351
    8   0.0265550  -0.0156188  -0.0128836  -0.0059465   0.0107270   0.0039548
    9   0.0179228   0.0270822  -0.0024143  -0.0155071  -0.0005515   0.0006813
   10  -0.1727302  -0.1196087   0.0461567  -0.0429324  -0.0223092   0.0100134
   11  -0.0418208  -0.2428625   0.0233118  -0.0674034   0.0289782   0.0156489
   12  -0.0322203  -0.0053955  -0.0255084   0.0647675  -0.0227738  -0.0017248
   13   0.5508126  -0.0756407  -0.0680478  -0.2227289  -0.0277677   0.0328629
   14  -0.0756407   0.6932811  -0.0592284   0.0190846  -0.1088837  -0.0017992
   15  -0.0680478  -0.0592284   0.1414475   0.0328813   0.0165434  -0.0663589
   16  -0.2227289   0.0190846   0.0328813   0.4920742  -0.1546548  -0.0112961
   17  -0.0277677  -0.1088837   0.0165434  -0.1546548   0.4757707  -0.1302885
   18   0.0328629  -0.0017992  -0.0663589  -0.0112961  -0.1302885   0.1387858
   19   0.0040119   0.0040994   0.0021404  -0.0200205   0.0106845  -0.0008372
   20   0.0049318   0.0003998   0.0040331   0.0325434  -0.0081162  -0.0086979
   21   0.0027794   0.0073993   0.0085593  -0.0135284  -0.0034627   0.0000972
   22   0.0000848   0.0003324   0.0003658  -0.0003540  -0.0016581   0.0024448
   23  -0.0008386   0.0010059   0.0005074  -0.0026420  -0.0038729   0.0027252
   24  -0.0000047  -0.0001236   0.0006674   0.0037478   0.0022278  -0.0006981
   25  -0.0045057  -0.0006377   0.0020061   0.0012911  -0.0020442   0.0014143
   26   0.0028109  -0.0000610  -0.0029923  -0.0005577   0.0002053   0.0003370
   27   0.0009671   0.0031904  -0.0001292  -0.0019110   0.0014116  -0.0005009
   28  -0.0112940   0.0053423   0.0023330  -0.0006076  -0.0026078   0.0023663
   29  -0.0263642   0.0074128   0.0025042  -0.0029805  -0.0036058   0.0019677
   30   0.0057760  -0.0027925   0.0020835   0.0013463   0.0002926   0.0066658
   31  -0.1016213   0.1096122   0.0061921  -0.0234510   0.0308446  -0.0003343
   32   0.1115793  -0.2885737   0.0084160   0.0027178   0.0055078  -0.0011239
   33   0.0076813   0.0072953  -0.0318517   0.0003818  -0.0030599  -0.0017212
   34   0.0261077   0.0237010  -0.0173740  -0.0131971   0.0149369  -0.0025438
   35  -0.0286987  -0.0392478   0.0286454   0.0171718  -0.0079497  -0.0045580
   36   0.0324562   0.0328679  -0.0290321  -0.0234480   0.0168707   0.0102988
   37   0.0056113   0.0057782  -0.0010086  -0.0049488   0.0009872   0.0004750
   38  -0.0059871  -0.0030742   0.0037170   0.0043990  -0.0039903  -0.0010340
   39   0.0023415   0.0018020   0.0003667  -0.0016297   0.0006376   0.0001268
           19          20          21          22          23          24
    1  -0.2980610   0.0070527   0.0877332   0.0112852   0.0172901  -0.0111632
    2   0.0100856  -0.0518092   0.0047492  -0.0123639  -0.0156265   0.0109447
    3   0.0855086   0.0032605  -0.0653650   0.0005538   0.0001794  -0.0010900
    4  -0.0055592  -0.0178265   0.0122082  -0.1352013   0.1277409  -0.0068905
    5   0.0034389   0.0052477  -0.0014614   0.1258406  -0.2373147   0.0185770
    6   0.0041341   0.0109046   0.0051347  -0.0132980   0.0254646  -0.0380738
    7  -0.0013055  -0.0037126  -0.0016412  -0.0074586  -0.0052414  -0.0075919
    8  -0.0002467  -0.0000381   0.0032615   0.0183517   0.0092859   0.0156608
    9   0.0002447   0.0002312  -0.0021021   0.0038940  -0.0000732  -0.0015019
   10   0.0005295   0.0011348   0.0001783  -0.0054016  -0.0030643  -0.0024619
   11  -0.0010753  -0.0021785  -0.0026879  -0.0038806  -0.0014431  -0.0017556
   12  -0.0000707  -0.0003334  -0.0006487   0.0045357   0.0012417  -0.0008208
   13   0.0040119   0.0049318   0.0027794   0.0000848  -0.0008386  -0.0000047
   14   0.0040994   0.0003998   0.0073993   0.0003324   0.0010059  -0.0001236
   15   0.0021404   0.0040331   0.0085593   0.0003658   0.0005074   0.0006674
   16  -0.0200205   0.0325434  -0.0135284  -0.0003540  -0.0026420   0.0037478
   17   0.0106845  -0.0081162  -0.0034627  -0.0016581  -0.0038729   0.0022278
   18  -0.0008372  -0.0086979   0.0000972   0.0024448   0.0027252  -0.0006981
   19   0.3208095  -0.0249366  -0.0907254   0.0002878  -0.0004326   0.0000407
   20  -0.0249366   0.0580470  -0.0087588   0.0003605   0.0006284  -0.0003436
   21  -0.0907254  -0.0087588   0.0555097  -0.0004807   0.0000154  -0.0004119
   22   0.0002878   0.0003605  -0.0004807   0.1490888  -0.1375961   0.0060909
   23  -0.0004326   0.0006284   0.0000154  -0.1375961   0.2477226  -0.0257428
   24   0.0000407  -0.0003436  -0.0004119   0.0060909  -0.0257428   0.0401500
   25  -0.0001936  -0.0003230   0.0001406   0.0009822   0.0007627   0.0010914
   26  -0.0000469   0.0000542  -0.0001445  -0.0001363   0.0001812  -0.0004388
   27   0.0001222   0.0001768  -0.0003684  -0.0004931  -0.0006314  -0.0002505
   28  -0.0001127   0.0000351  -0.0000900  -0.0004216  -0.0006895  -0.0002360
   29  -0.0001398   0.0002846  -0.0000959   0.0013757   0.0007373   0.0010418
   30  -0.0003807  -0.0008184  -0.0013627  -0.0014648  -0.0003810   0.0004507
   31  -0.0006994   0.0009080  -0.0007000   0.0001027   0.0000780  -0.0000553
   32  -0.0001664  -0.0000232  -0.0000693   0.0000182  -0.0000256   0.0000240
   33   0.0001053   0.0001412   0.0005590  -0.0002816  -0.0003473   0.0000721
   34   0.0006030   0.0003777   0.0038374  -0.0132074   0.0050345   0.0188708
   35  -0.0009825  -0.0022451   0.0018330   0.0096202  -0.0021658  -0.0199714
   36  -0.0001534   0.0003611   0.0005066  -0.0020696  -0.0032151   0.0012919
   37  -0.0002899  -0.0005454   0.0002886   0.0002130  -0.0004018  -0.0014381
   38  -0.0002818  -0.0002514  -0.0005780  -0.0002642   0.0008873  -0.0001002
   39  -0.0001288  -0.0001562  -0.0001078   0.0002030   0.0002573   0.0002149
           25          26          27          28          29          30
    1   0.0005965   0.0000191   0.0010626   0.0014525   0.0000705  -0.0002035
    2   0.0025181  -0.0009519  -0.0019068  -0.0013051  -0.0024582  -0.0009116
    3  -0.0032912   0.0002839   0.0032405   0.0000969   0.0005630   0.0010186
    4  -0.0045770   0.0018861   0.0025438   0.0008640   0.0033885   0.0020715
    5  -0.0195431   0.0024717   0.0070367   0.0037026  -0.0052759   0.0064789
    6  -0.0088933   0.0013410  -0.0049444   0.0007237  -0.0004564   0.0010999
    7  -0.0898257  -0.0962933  -0.0446920  -0.0093384   0.0292156  -0.0034895
    8  -0.0951350  -0.2590158  -0.0879237   0.0021393  -0.0005147   0.0060503
    9  -0.0464794  -0.0876065  -0.0714894  -0.0002328  -0.0014790  -0.0040040
   10   0.0093857  -0.0106646   0.0066627  -0.3292147   0.0208059   0.0529636
   11   0.0127124  -0.0145923   0.0042658   0.0155225  -0.0553315  -0.0033071
   12   0.0004673  -0.0040800   0.0040719   0.0486407   0.0030388  -0.0497885
   13  -0.0045057   0.0028109   0.0009671  -0.0112940  -0.0263642   0.0057760
   14  -0.0006377  -0.0000610   0.0031904   0.0053423   0.0074128  -0.0027925
   15   0.0020061  -0.0029923  -0.0001292   0.0023330   0.0025042   0.0020835
   16   0.0012911  -0.0005577  -0.0019110  -0.0006076  -0.0029805   0.0013463
   17  -0.0020442   0.0002053   0.0014116  -0.0026078  -0.0036058   0.0002926
   18   0.0014143   0.0003370  -0.0005009   0.0023663   0.0019677   0.0066658
   19  -0.0001936  -0.0000469   0.0001222  -0.0001127  -0.0001398  -0.0003807
   20  -0.0003230   0.0000542   0.0001768   0.0000351   0.0002846  -0.0008184
   21   0.0001406  -0.0001445  -0.0003684  -0.0000900  -0.0000959  -0.0013627
   22   0.0009822  -0.0001363  -0.0004931  -0.0004216   0.0013757  -0.0014648
   23   0.0007627   0.0001812  -0.0006314  -0.0006895   0.0007373  -0.0003810
   24   0.0010914  -0.0004388  -0.0002505  -0.0002360   0.0010418   0.0004507
   25   0.0874265   0.1021993   0.0510568   0.0001362  -0.0006906  -0.0000165
   26   0.1021993   0.2680252   0.0955387   0.0003480   0.0005754   0.0002401
   27   0.0510568   0.0955387   0.0747082  -0.0002477  -0.0005811  -0.0000270
   28   0.0001362   0.0003480  -0.0002477   0.3467207  -0.0220012  -0.0544993
   29  -0.0006906   0.0005754  -0.0005811  -0.0220012   0.0568279  -0.0021022
   30  -0.0000165   0.0002401  -0.0000270  -0.0544993  -0.0021022   0.0360452
   31   0.0002791  -0.0004077   0.0003121   0.0004345   0.0002662  -0.0007151
   32   0.0002943  -0.0004502   0.0005782  -0.0004355   0.0004440  -0.0004677
   33  -0.0008147   0.0006687  -0.0003012  -0.0009495  -0.0004357  -0.0028147
   34  -0.0021682   0.0012940  -0.0167018   0.0016440  -0.0030298  -0.0013242
   35  -0.0000109   0.0023469  -0.0222639  -0.0002092   0.0008591  -0.0015943
   36   0.0037084  -0.0030293  -0.0060259   0.0023802  -0.0040770   0.0111930
   37   0.0011728  -0.0004509   0.0013183  -0.0002628   0.0000836  -0.0000638
   38  -0.0001024   0.0012113   0.0011087   0.0001584   0.0000450  -0.0006870
   39  -0.0003898  -0.0001179   0.0020163  -0.0002855   0.0001120  -0.0005598
           31          32          33          34          35          36
    1  -0.0046605  -0.0018794   0.0027146  -0.0135359  -0.0135861   0.0125452
    2  -0.0013283   0.0017885  -0.0039963  -0.0200342   0.0160666  -0.0157292
    3   0.0034539   0.0000812   0.0055237   0.0188271   0.0155054  -0.0088188
    4   0.0005474   0.0003160   0.0017116  -0.1325884   0.0278971   0.1331723
    5   0.0004165   0.0007528   0.0014165   0.0262148  -0.0410925   0.0143957
    6  -0.0003846  -0.0001520  -0.0014727   0.0734355   0.0103819  -0.1317357
    7  -0.0016641  -0.0033749   0.0021630  -0.0156132  -0.0361776  -0.0931262
    8  -0.0024675  -0.0007944  -0.0006696  -0.0699569  -0.0298856  -0.0946409
    9   0.0013776   0.0011412   0.0052820  -0.0502274  -0.0140812  -0.2681896
   10   0.0097681   0.0123111  -0.0022519  -0.0076481  -0.0141606   0.0105765
   11  -0.0165592  -0.0186968   0.0055627  -0.0092367   0.0404980  -0.0219687
   12   0.0000340  -0.0008944   0.0061254   0.0464055  -0.0499613   0.0261581
   13  -0.1016213   0.1115793   0.0076813   0.0261077  -0.0286987   0.0324562
   14   0.1096122  -0.2885737   0.0072953   0.0237010  -0.0392478   0.0328679
   15   0.0061921   0.0084160  -0.0318517  -0.0173740   0.0286454  -0.0290321
   16  -0.0234510   0.0027178   0.0003818  -0.0131971   0.0171718  -0.0234480
   17   0.0308446   0.0055078  -0.0030599   0.0149369  -0.0079497   0.0168707
   18  -0.0003343  -0.0011239  -0.0017212  -0.0025438  -0.0045580   0.0102988
   19  -0.0006994  -0.0001664   0.0001053   0.0006030  -0.0009825  -0.0001534
   20   0.0009080  -0.0000232   0.0001412   0.0003777  -0.0022451   0.0003611
   21  -0.0007000  -0.0000693   0.0005590   0.0038374   0.0018330   0.0005066
   22   0.0001027   0.0000182  -0.0002816  -0.0132074   0.0096202  -0.0020696
   23   0.0000780  -0.0000256  -0.0003473   0.0050345  -0.0021658  -0.0032151
   24  -0.0000553   0.0000240   0.0000721   0.0188708  -0.0199714   0.0012919
   25   0.0002791   0.0002943  -0.0008147  -0.0021682  -0.0000109   0.0037084
   26  -0.0004077  -0.0004502   0.0006687   0.0012940   0.0023469  -0.0030293
   27   0.0003121   0.0005782  -0.0003012  -0.0167018  -0.0222639  -0.0060259
   28   0.0004345  -0.0004355  -0.0009495   0.0016440  -0.0002092   0.0023802
   29   0.0002662   0.0004440  -0.0004357  -0.0030298   0.0008591  -0.0040770
   30  -0.0007151  -0.0004677  -0.0028147  -0.0013242  -0.0015943   0.0111930
   31   0.1211068  -0.1213934  -0.0088568  -0.0002361  -0.0001331  -0.0003642
   32  -0.1213934   0.3005403  -0.0074454  -0.0000447  -0.0004039  -0.0001437
   33  -0.0088568  -0.0074454   0.0220056  -0.0012001   0.0003921  -0.0014309
   34  -0.0002361  -0.0000447  -0.0012001   0.2154009   0.0576998  -0.1299311
   35  -0.0001331  -0.0004039   0.0003921   0.0576998   0.1089299  -0.0456284
   36  -0.0003642  -0.0001437  -0.0014309  -0.1299311  -0.0456284   0.7149021
   37   0.0000937   0.0000577  -0.0004031  -0.0455612  -0.0184302   0.0542536
   38   0.0001637  -0.0000656   0.0004777  -0.0269563  -0.0457100   0.1239369
   39   0.0000406   0.0000557   0.0000245   0.0579262   0.1013008  -0.3191176
           37          38          39
    1   0.0033926  -0.0030409  -0.0015108
    2   0.0016182   0.0019548  -0.0015910
    3   0.0017407   0.0020302   0.0012775
    4  -0.0018356   0.0044817  -0.0025668
    5  -0.0111855  -0.0032135  -0.0000525
    6   0.0141360  -0.0050230  -0.0022544
    7   0.0012454   0.0032255   0.0046569
    8   0.0085897   0.0051001   0.0081353
    9  -0.0153852  -0.0128836  -0.0115098
   10   0.0021578  -0.0014733   0.0006619
   11  -0.0117786   0.0034354  -0.0053395
   12   0.0054053  -0.0059211   0.0007354
   13   0.0056113  -0.0059871   0.0023415
   14   0.0057782  -0.0030742   0.0018020
   15  -0.0010086   0.0037170   0.0003667
   16  -0.0049488   0.0043990  -0.0016297
   17   0.0009872  -0.0039903   0.0006376
   18   0.0004750  -0.0010340   0.0001268
   19  -0.0002899  -0.0002818  -0.0001288
   20  -0.0005454  -0.0002514  -0.0001562
   21   0.0002886  -0.0005780  -0.0001078
   22   0.0002130  -0.0002642   0.0002030
   23  -0.0004018   0.0008873   0.0002573
   24  -0.0014381  -0.0001002   0.0002149
   25   0.0011728  -0.0001024  -0.0003898
   26  -0.0004509   0.0012113  -0.0001179
   27   0.0013183   0.0011087   0.0020163
   28  -0.0002628   0.0001584  -0.0002855
   29   0.0000836   0.0000450   0.0001120
   30  -0.0000638  -0.0006870  -0.0005598
   31   0.0000937   0.0001637   0.0000406
   32   0.0000577  -0.0000656   0.0000557
   33  -0.0004031   0.0004777   0.0000245
   34  -0.0455612  -0.0269563   0.0579262
   35  -0.0184302  -0.0457100   0.1013008
   36   0.0542536   0.1239369  -0.3191176
   37   0.0390117   0.0256778  -0.0593187
   38   0.0256778   0.0436713  -0.1050435
   39  -0.0593187  -0.1050435   0.3287873
 Gradient time:  CPU 567.76 s  wall 630.18 s
 **********************************************************************
 **                                                                  **
 **                       VIBRATIONAL ANALYSIS                       **
 **                       --------------------                       **
 **                                                                  **
 **        VIBRATIONAL FREQUENCIES (CM**-1) AND NORMAL MODES         **
 **     FORCE CONSTANTS (mDYN/ANGSTROM) AND REDUCED MASSES (AMU)     **
 **                  INFRARED INTENSITIES (KM/MOL)                   **
 **                                                                  **
 **********************************************************************
 

 Mode:                 1                      2                      3
 Frequency:      -615.41                 312.22                 325.27
 Force Cnst:      1.0898                 0.1503                 0.1867
 Red. Mass:       4.8839                 2.6160                 2.9953
 IR Active:          YES                    YES                    YES
 IR Intens:       21.228                  2.103                  2.603
 Raman Active:       YES                    YES                    YES
               X      Y      Z        X      Y      Z        X      Y      Z
 C          0.017 -0.022 -0.015   -0.036 -0.076 -0.144    0.010 -0.037 -0.051
 C         -0.027  0.006 -0.028    0.033  0.059  0.133   -0.015 -0.064 -0.130
 C          0.061 -0.150 -0.139    0.091  0.005 -0.061   -0.071 -0.069  0.071
 C          0.129 -0.124  0.372    0.004 -0.045 -0.120   -0.042 -0.076 -0.135
 C          0.072  0.018 -0.033    0.024  0.030  0.212   -0.005 -0.044  0.032
 N         -0.027  0.030  0.007   -0.029 -0.042 -0.009    0.027  0.054  0.219
 H          0.026  0.020  0.028   -0.170 -0.251 -0.537    0.025  0.029 -0.015
 H         -0.022  0.035  0.202    0.047  0.083  0.272   -0.054 -0.087 -0.079
 H          0.066 -0.141 -0.134    0.155 -0.041 -0.016   -0.145 -0.142  0.319
 H          0.134 -0.122  0.412   -0.026 -0.126 -0.268   -0.056 -0.049 -0.212
 H         -0.024 -0.028 -0.070    0.071  0.053  0.470   -0.051 -0.067  0.049
 C         -0.205  0.218 -0.191   -0.077  0.110  0.004    0.109  0.189 -0.058
 H         -0.359  0.453 -0.135   -0.145 -0.136 -0.091    0.059  0.767  0.125
 TransDip  -0.127 -0.030  0.068    0.003 -0.016 -0.044   -0.040 -0.011  0.030

 Mode:                 4                      5                      6
 Frequency:       462.04                 529.48                 569.82
 Force Cnst:      0.1836                 0.9334                 0.6186
 Red. Mass:       1.4598                 5.6508                 3.2335
 IR Active:          YES                    YES                    YES
 IR Intens:       41.914                  5.173                  9.002
 Raman Active:       YES                    YES                    YES
               X      Y      Z        X      Y      Z        X      Y      Z
 C         -0.005  0.019 -0.013   -0.126  0.052 -0.185   -0.141 -0.125 -0.056
 C          0.036  0.021  0.068   -0.123  0.076 -0.005    0.090 -0.122  0.093
 C         -0.028 -0.012  0.005   -0.086 -0.225  0.171    0.105  0.068 -0.031
 C          0.005  0.019 -0.014    0.179 -0.077 -0.034    0.090  0.077  0.034
 C          0.017  0.023  0.037    0.132  0.013 -0.069   -0.083  0.140 -0.156
 N         -0.009  0.010 -0.055    0.151  0.308  0.029   -0.071  0.012  0.181
 H         -0.029 -0.025 -0.080   -0.185 -0.200 -0.308   -0.250 -0.179 -0.394
 H          0.057  0.018 -0.048    0.079  0.233  0.097    0.078 -0.136  0.026
 H          0.077  0.012 -0.178   -0.097 -0.195  0.106    0.048  0.126 -0.103
 H          0.013  0.051  0.033    0.169  0.089 -0.176    0.050 -0.104 -0.114
 H          0.021  0.026  0.077   -0.122 -0.116 -0.185   -0.185  0.087 -0.645
 C         -0.002 -0.162 -0.024   -0.152 -0.152  0.118    0.055 -0.038  0.009
 H         -0.283  0.865  0.261    0.151 -0.369  0.109   -0.123  0.027 -0.006
 TransDip  -0.019  0.097  0.182   -0.001 -0.048 -0.054   -0.045 -0.023 -0.082

 Mode:                 7                      8                      9
 Frequency:       673.39                 747.03                 768.53
 Force Cnst:      0.8731                 0.6992                 0.6326
 Red. Mass:       3.2682                 2.1265                 1.8179
 IR Active:          YES                    YES                    YES
 IR Intens:       10.078                 25.033                 23.707
 Raman Active:       YES                    YES                    YES
               X      Y      Z        X      Y      Z        X      Y      Z
 C          0.173 -0.019 -0.118   -0.003  0.005 -0.007   -0.019 -0.055 -0.096
 C          0.036  0.212  0.034   -0.132 -0.022 -0.125   -0.056  0.030 -0.013
 C         -0.076  0.082 -0.016    0.148  0.083  0.010    0.097  0.044  0.001
 C         -0.183 -0.016  0.115    0.040 -0.042  0.024   -0.043  0.004 -0.001
 C          0.022 -0.156 -0.023    0.014 -0.025  0.096   -0.045 -0.041 -0.154
 N          0.055 -0.028  0.131    0.007  0.000 -0.043    0.040  0.010  0.081
 H          0.064 -0.145 -0.443    0.029  0.010  0.099    0.082  0.040  0.208
 H         -0.102  0.107 -0.009   -0.285 -0.150 -0.382   -0.091  0.002 -0.050
 H          0.148  0.071 -0.236    0.263  0.114 -0.180    0.354  0.023 -0.230
 H         -0.229  0.044 -0.168   -0.044 -0.206 -0.420    0.020 -0.001  0.359
 H         -0.042 -0.193 -0.586   -0.127 -0.102 -0.374    0.206  0.093  0.696
 C         -0.028 -0.055 -0.023   -0.034  0.017  0.147   -0.031 -0.014  0.075
 H          0.066 -0.053 -0.004   -0.308  0.148  0.139    0.029  0.081  0.122
 TransDip  -0.018 -0.023 -0.097   -0.059 -0.012 -0.148    0.123  0.046  0.085

 Mode:                10                     11                     12
 Frequency:       811.96                 841.42                 900.20
 Force Cnst:      0.5692                 0.7042                 0.8452
 Red. Mass:       1.4654                 1.6882                 1.7703
 IR Active:          YES                    YES                    YES
 IR Intens:        5.599                  6.703                  7.186
 Raman Active:       YES                    YES                    YES
               X      Y      Z        X      Y      Z        X      Y      Z
 C         -0.096 -0.055  0.080    0.024 -0.057 -0.151   -0.130 -0.055 -0.016
 C         -0.073  0.083 -0.013    0.053 -0.001 -0.025   -0.005  0.014  0.063
 C         -0.002 -0.039 -0.039    0.028 -0.040  0.050    0.025  0.031 -0.051
 C          0.021  0.005  0.001   -0.017  0.057 -0.022   -0.076 -0.016 -0.055
 C          0.024  0.020  0.027   -0.018  0.070  0.078    0.042 -0.068  0.080
 N          0.001 -0.038 -0.005   -0.024 -0.039  0.018    0.070  0.070 -0.024
 H         -0.108 -0.185  0.083    0.304  0.403  0.643   -0.033 -0.093  0.320
 H          0.003  0.150  0.118    0.128  0.085  0.334    0.042  0.027 -0.127
 H          0.241  0.003 -0.405   -0.006  0.010 -0.037    0.192 -0.105  0.101
 H          0.004  0.004 -0.103   -0.025 -0.018 -0.032    0.058  0.195  0.653
 H          0.006  0.010 -0.113   -0.025  0.066 -0.310   -0.127 -0.160 -0.384
 C          0.049  0.018 -0.028   -0.088 -0.030 -0.006    0.072  0.028 -0.029
 H          0.757  0.159  0.159    0.165  0.008  0.060   -0.259 -0.056 -0.129
 TransDip   0.068  0.034  0.000    0.031  0.055  0.053   -0.042 -0.049  0.056

 Mode:                13                     14                     15
 Frequency:       914.99                 959.24                 974.67
 Force Cnst:      0.9105                 0.9241                 1.8120
 Red. Mass:       1.8459                 1.7045                 3.2374
 IR Active:          YES                    YES                    YES
 IR Intens:        8.660                  8.076                  7.263
 Raman Active:       YES                    YES                    YES
               X      Y      Z        X      Y      Z        X      Y      Z
 C          0.105  0.046  0.058   -0.049 -0.045  0.034   -0.044 -0.028  0.016
 C         -0.004 -0.051 -0.080    0.067  0.025 -0.013   -0.002  0.228 -0.086
 C          0.061 -0.081  0.080   -0.005 -0.085  0.075   -0.048 -0.007  0.101
 C         -0.064  0.032 -0.089   -0.123  0.022  0.066    0.187  0.002 -0.073
 C         -0.033  0.089  0.028    0.009  0.107 -0.023    0.083  0.000 -0.017
 N          0.000 -0.031  0.003    0.051  0.013 -0.030   -0.157 -0.179  0.100
 H         -0.071 -0.100 -0.495   -0.024 -0.109  0.135   -0.029  0.068  0.071
 H         -0.050 -0.077 -0.011    0.018 -0.038 -0.322    0.060  0.244 -0.485
 H          0.338 -0.143 -0.091    0.503 -0.344  0.126    0.131 -0.088  0.103
 H          0.059  0.091  0.630   -0.224 -0.080 -0.439    0.260  0.313  0.180
 H         -0.011  0.103 -0.267    0.186  0.204  0.079    0.093  0.003 -0.021
 C         -0.099  0.011  0.013    0.021  0.002 -0.056    0.003 -0.019 -0.031
 H          0.133  0.002  0.063   -0.214 -0.122 -0.148   -0.455 -0.146 -0.170
 TransDip   0.024  0.060 -0.069   -0.056 -0.062 -0.037   -0.008  0.068 -0.053

 Mode:                16                     17                     18
 Frequency:       984.76                1042.10                1056.61
 Force Cnst:      0.9652                 0.8821                 2.0768
 Red. Mass:       1.6892                 1.3786                 3.1573
 IR Active:          YES                    YES                    YES
 IR Intens:       18.993                  0.636                  2.870
 Raman Active:       YES                    YES                    YES
               X      Y      Z        X      Y      Z        X      Y      Z
 C          0.003 -0.015  0.027   -0.044  0.005  0.037    0.136  0.026 -0.072
 C         -0.104  0.084 -0.081    0.029 -0.049 -0.119   -0.184  0.003  0.094
 C          0.108 -0.009 -0.074   -0.022  0.012  0.062   -0.124 -0.121 -0.094
 C         -0.045  0.017  0.021   -0.028  0.029  0.010    0.030 -0.046 -0.008
 C         -0.032  0.051 -0.010    0.028 -0.060 -0.002   -0.039  0.141 -0.009
 N          0.043 -0.042  0.014   -0.000  0.009 -0.004   -0.030 -0.012  0.009
 H         -0.034 -0.238 -0.036   -0.086 -0.046 -0.081    0.187  0.134  0.054
 H          0.196  0.341  0.357    0.389  0.269  0.560   -0.308 -0.070  0.364
 H         -0.288 -0.126  0.635    0.127  0.153 -0.429    0.283 -0.205 -0.356
 H         -0.055 -0.177  0.046   -0.038  0.091 -0.076    0.039  0.070  0.048
 H          0.097  0.117 -0.063    0.039 -0.056  0.046   -0.020  0.158 -0.106
 C          0.037 -0.081  0.019    0.035  0.023  0.022    0.237  0.017  0.086
 H         -0.136  0.108  0.042   -0.394 -0.055 -0.088   -0.432 -0.159 -0.103
 TransDip  -0.020 -0.010  0.138    0.008 -0.024 -0.003    0.039  0.035 -0.014

 Mode:                19                     20                     21
 Frequency:      1097.88                1177.62                1224.51
 Force Cnst:      1.2361                 1.3403                 1.3535
 Red. Mass:       1.7406                 1.6404                 1.5321
 IR Active:          YES                    YES                    YES
 IR Intens:        8.423                 20.422                  0.359
 Raman Active:       YES                    YES                    YES
               X      Y      Z        X      Y      Z        X      Y      Z
 C         -0.027  0.060 -0.015   -0.033  0.035 -0.012    0.044 -0.026 -0.002
 C         -0.039 -0.072  0.015    0.028 -0.008  0.025    0.028  0.003 -0.007
 C          0.059 -0.020 -0.072    0.015 -0.109 -0.083    0.011 -0.078 -0.068
 C         -0.034  0.089  0.025   -0.087 -0.016 -0.006    0.026  0.068  0.022
 C          0.125 -0.083 -0.016    0.078  0.017 -0.013   -0.133 -0.007  0.013
 N         -0.101  0.004  0.021   -0.016 -0.022  0.019    0.053 -0.019 -0.003
 H         -0.051  0.302 -0.135   -0.032  0.158 -0.038    0.060 -0.241  0.073
 H         -0.091 -0.095  0.187    0.343  0.164 -0.441    0.276  0.150 -0.257
 H          0.294 -0.304  0.340   -0.432  0.161 -0.267   -0.047 -0.073 -0.042
 H         -0.033  0.605 -0.223   -0.085 -0.046  0.063    0.032  0.620 -0.175
 H          0.170 -0.062 -0.024    0.445  0.204 -0.154   -0.487 -0.183  0.135
 C         -0.003 -0.019  0.021    0.001  0.054  0.127   -0.021  0.038  0.064
 H          0.139  0.044  0.071   -0.026  0.001  0.122   -0.040  0.026  0.069
 TransDip   0.081  0.046 -0.001    0.011  0.089 -0.113    0.003  0.011 -0.015

 Mode:                22                     23                     24
 Frequency:      1297.40                1370.37                1386.32
 Force Cnst:      1.5094                 2.4822                 2.1461
 Red. Mass:       1.5220                 2.2434                 1.8953
 IR Active:          YES                    YES                    YES
 IR Intens:        2.225                  2.596                 10.312
 Raman Active:       YES                    YES                    YES
               X      Y      Z        X      Y      Z        X      Y      Z
 C          0.017  0.002 -0.009   -0.070  0.044 -0.009   -0.056 -0.110  0.067
 C         -0.007 -0.063 -0.001   -0.112 -0.000  0.068    0.104  0.086 -0.077
 C         -0.134  0.096 -0.077    0.050 -0.062  0.059   -0.026 -0.002 -0.061
 C          0.043 -0.015  0.005    0.030  0.123  0.015   -0.047 -0.075 -0.001
 C          0.014  0.013 -0.002   -0.089 -0.071  0.025    0.058  0.088 -0.026
 N          0.017 -0.021  0.005    0.152 -0.088  0.009    0.052 -0.010 -0.019
 H          0.017  0.203 -0.078   -0.116  0.799 -0.353   -0.108  0.651 -0.247
 H          0.515  0.282 -0.151    0.059  0.109 -0.141   -0.311 -0.170  0.197
 H          0.456 -0.299  0.213   -0.037  0.043 -0.090   -0.113 -0.013  0.035
 H          0.031 -0.383  0.069    0.003 -0.188 -0.047   -0.035  0.099  0.057
 H         -0.115 -0.055 -0.008   -0.041 -0.060 -0.003   -0.421 -0.140  0.138
 C         -0.039  0.011  0.065    0.030  0.010 -0.104   -0.006 -0.011  0.095
 H          0.117  0.027  0.114   -0.074  0.004 -0.146   -0.052  0.007  0.110
 TransDip   0.035  0.016 -0.028    0.019  0.043 -0.022   -0.092 -0.031  0.035

 Mode:                25                     26                     27
 Frequency:      1421.15                1462.38                1586.16
 Force Cnst:      2.2781                 3.0545                 7.5212
 Red. Mass:       1.9145                 2.4242                 5.0739
 IR Active:          YES                    YES                    YES
 IR Intens:        1.652                  5.207                 22.682
 Raman Active:       YES                    YES                    YES
               X      Y      Z        X      Y      Z        X      Y      Z
 C         -0.061  0.034  0.000   -0.050  0.061 -0.009   -0.166  0.384 -0.131
 C          0.077  0.016 -0.042    0.118  0.058 -0.053    0.040 -0.061  0.007
 C         -0.060  0.047 -0.043   -0.063 -0.113 -0.090   -0.006  0.044  0.009
 C          0.080 -0.100  0.012    0.052  0.228 -0.012   -0.065 -0.132  0.029
 C         -0.173 -0.038  0.043   -0.014 -0.109  0.014    0.107  0.132 -0.041
 N          0.091 -0.016 -0.004    0.002 -0.018  0.015    0.141 -0.270  0.078
 H         -0.067  0.079 -0.038   -0.044 -0.281  0.107   -0.107 -0.423  0.263
 H         -0.146 -0.117  0.163   -0.410 -0.293  0.148   -0.123 -0.167  0.161
 H          0.119 -0.086  0.080    0.040 -0.234  0.005    0.021  0.055 -0.028
 H          0.112  0.375 -0.049    0.023 -0.629  0.116   -0.069  0.132 -0.004
 H          0.676  0.379 -0.237    0.015 -0.113 -0.004   -0.503 -0.173  0.090
 C         -0.028  0.003  0.036   -0.005  0.027  0.094   -0.012 -0.004 -0.006
 H          0.004  0.033  0.063   -0.122 -0.001  0.090    0.047  0.014  0.014
 TransDip   0.018  0.003  0.037    0.025 -0.064 -0.025    0.034  0.145 -0.035

 Mode:                28                     29                     30
 Frequency:      3130.06                3152.75                3177.73
 Force Cnst:      6.2693                 6.3832                 6.4848
 Red. Mass:       1.0861                 1.0899                 1.0900
 IR Active:          YES                    YES                    YES
 IR Intens:        9.135                 32.296                 12.434
 Raman Active:       YES                    YES                    YES
               X      Y      Z        X      Y      Z        X      Y      Z
 C         -0.025  0.003  0.007   -0.078  0.005  0.024    0.002 -0.000 -0.000
 C          0.045 -0.065  0.007   -0.015  0.024 -0.003    0.004 -0.003 -0.000
 C          0.001  0.004  0.001   -0.000 -0.003 -0.001   -0.029 -0.063 -0.027
 C         -0.003 -0.000  0.000    0.000 -0.000  0.000    0.041  0.001 -0.008
 C          0.001  0.000 -0.000    0.001  0.003 -0.000   -0.006  0.010 -0.000
 N         -0.001  0.000 -0.000   -0.001  0.000  0.000   -0.000  0.000 -0.000
 H          0.309 -0.025 -0.093    0.898 -0.064 -0.277   -0.015  0.001  0.004
 H         -0.538  0.769 -0.073    0.178 -0.264  0.028   -0.037  0.048 -0.006
 H         -0.017 -0.042 -0.019    0.012  0.030  0.014    0.334  0.721  0.306
 H          0.023 -0.001 -0.004    0.000 -0.001  0.000   -0.482  0.033  0.082
 H         -0.001  0.001 -0.001    0.018 -0.037  0.000    0.066 -0.128  0.001
 C          0.001  0.000 -0.001   -0.000 -0.000  0.001    0.001  0.001 -0.002
 H         -0.002 -0.002  0.016    0.001  0.004 -0.013   -0.010 -0.016  0.057
 TransDip   0.037 -0.089  0.013   -0.170  0.056  0.031    0.002 -0.103 -0.045

 Mode:                31                     32                     33
 Frequency:      3183.67                3206.14                3275.13
 Force Cnst:      6.5066                 6.6191                 6.9377
 Red. Mass:       1.0896                 1.0929                 1.0978
 IR Active:          YES                    YES                    YES
 IR Intens:       12.403                 18.234                  0.622
 Raman Active:       YES                    YES                    YES
               X      Y      Z        X      Y      Z        X      Y      Z
 C         -0.000  0.001 -0.000   -0.004  0.001  0.001   -0.001 -0.000  0.001
 C          0.002  0.000  0.000   -0.001  0.001 -0.000   -0.005  0.002  0.002
 C         -0.017 -0.038 -0.016    0.002  0.005  0.001    0.005  0.007  0.006
 C         -0.067  0.005  0.011    0.034  0.000 -0.006    0.001 -0.001 -0.000
 C          0.014 -0.025  0.000    0.034 -0.073  0.002    0.001 -0.001  0.000
 N          0.001 -0.000  0.000    0.000 -0.000  0.000    0.000  0.000 -0.000
 H         -0.002 -0.000  0.000    0.035 -0.003 -0.011    0.008 -0.000 -0.002
 H         -0.004  0.003 -0.002    0.003 -0.006  0.001    0.014 -0.016  0.002
 H          0.195  0.428  0.179   -0.021 -0.049 -0.019   -0.028 -0.056 -0.021
 H          0.770 -0.058 -0.131   -0.366  0.022  0.063   -0.013  0.002 -0.001
 H         -0.160  0.313 -0.003   -0.411  0.825 -0.008   -0.005  0.011  0.000
 C          0.001  0.001 -0.002   -0.001 -0.000  0.001    0.018  0.024 -0.084
 H         -0.009 -0.011  0.041    0.004  0.006 -0.020   -0.186 -0.312  0.924
 TransDip  -0.077 -0.076 -0.032    0.112 -0.079  0.004   -0.005 -0.017  0.018

 STANDARD THERMODYNAMIC QUANTITIES AT   298.15 K  AND     1.00 ATM

   This Molecule has  1 Imaginary Frequencies
   Zero point vibrational energy:       62.934 kcal/mol

   Atom    1 Element C  Has Mass   12.00000
   Atom    2 Element C  Has Mass   12.00000
   Atom    3 Element C  Has Mass   12.00000
   Atom    4 Element C  Has Mass   12.00000
   Atom    5 Element C  Has Mass   12.00000
   Atom    6 Element N  Has Mass   14.00307
   Atom    7 Element H  Has Mass    1.00783
   Atom    8 Element H  Has Mass    1.00783
   Atom    9 Element H  Has Mass    1.00783
   Atom   10 Element H  Has Mass    1.00783
   Atom   11 Element H  Has Mass    1.00783
   Atom   12 Element C  Has Mass   12.00000
   Atom   13 Element H  Has Mass    1.00783
   Molecular Mass:    92.050050 amu
   Principal axes and moments of inertia in amu*Bohr^2:
                             1           2           3
    Eigenvalues --      360.05382   492.37592   727.93095
          X               0.36065     0.92572     0.11393
          Y               0.81667    -0.37242     0.44086
          Z              -0.45054     0.06595     0.89032
   Rotational Symmetry Number is   1
   The Molecule is an Asymmetric Top
   Translational Enthalpy:        0.889 kcal/mol
   Rotational Enthalpy:           0.889 kcal/mol
   Vibrational Enthalpy:         64.358 kcal/mol
   gas constant (RT):             0.592 kcal/mol
   Translational Entropy:        39.471  cal/mol.K
   Rotational Entropy:           26.359  cal/mol.K
   Vibrational Entropy:           6.678  cal/mol.K

   Total Enthalpy:               66.728 kcal/mol
   Total Entropy:                72.508  cal/mol.K
Archival summary:
1\1\c8-90\FREQ\ProcedureUnspecified\6-31+G**\166(2)\hpark21\WedMar201:38:142022WedMar201:38:142022\0\\#,FREQ,ProcedureUnspecified,6-31+G**,\\0,2\N\C,1,1.29849\H,2,1.08979,1,118.046\C,1,1.37243,2,116.739,3,172.963,0\H,4,1.08516,1,116.64,2,164.521,0\C,4,1.39667,1,123.111,2,-13.4535,0\H,6,1.08741,4,119.158,1,-178.151,0\C,6,1.47408,4,123.387,1,-1.27631,0\H,8,1.08583,6,126.97,4,-136.577,0\C,8,1.45422,6,85.1266,4,83.6387,0\H,10,1.07878,8,136.636,6,117.189,0\C,10,1.4783,8,63.8251,6,-110.465,0\H,12,1.09033,10,115.591,8,-105.534,0\\\@

 Total job time:  653.22s(wall), 575.44s(cpu) 
 Wed Mar  2 01:38:14 2022

        *************************************************************
        *                                                           *
        *  Thank you very much for using Q-Chem.  Have a nice day.  *
        *                                                           *
        *************************************************************


