
Running Job 1 of 1 qcts2.in
qchem qcts2.in_24768.0 ./qcts2.d/ 1
/home/leeping/opt/qchem/5.0.2-openmp/exe/qcprog.exe_s qcts2.in_24768.0 ./qcts2.d/
Check license passed

                  Welcome to Q-Chem
     A Quantum Leap Into The Future Of Chemistry


 Q-Chem 5.0, Q-Chem, Inc., Pleasanton, CA (2017)

 Yihan Shao,  Zhengting Gan,  E. Epifanovsky,  A. T. B. Gilbert,  M. Wormit,  
 J. Kussmann,  A. W. Lange,  A. Behn,  Jia Deng,  Xintian Feng,  D. Ghosh,  
 M. Goldey,  P. R. Horn,  L. D. Jacobson,  I. Kaliman,  T. Kus,  A. Landau,  
 Jie Liu,  E. I. Proynov,  R. M. Richard,  R. P. Steele,  E. J. Sundstrom,  
 H. L. Woodcock III,  P. M. Zimmerman,  D. Zuev,  B. Albrecht,  E. Alguire,  
 S. A. Baeppler,  D. Barton,  Z. Benda,  Y. A. Bernard,  E. J. Berquist,  
 K. B. Bravaya,  H. Burton,  D. Casanova,  Chun-Min Chang,  Yunqing Chen,  
 A. Chien,  K. D. Closser,  M. P. Coons,  S. Dasgupta,  A. L. Dempwolff,  
 M. Diedenhofen,  Hainam Do,  R. G. Edgar,  Po-Tung Fang,  S. Fatehi,  
 Qingguo Feng,  J. Fosso-Tande,  Qinghui Ge,  A. Ghysels,  G. Gidofalvi,  
 J. Gomes,  J. Gonthier,  A. Gunina,  M. W. D. Hanson-Heine,  
 P. H. P. Harbach,  A. W. Hauser,  J. E. Herr,  E. G. Hohenstein,  
 Z. C. Holden,  Kerwin Hui,  T.-C. Jagau,  Hyunjun Ji,  B. Kaduk,  
 K. Khistyaev,  Jaehoon Kim,  P. Klunzinger,  K. Koh,  D. Kosenkov,  
 L. Koulias,  T. Kowalczyk,  C. M. Krauter,  A. Kunitsa,  Ka Un Lao,  
 A. Laurent,  K. V. Lawler,  Joonho Lee,  D. Lefrancois,  S. Lehtola,  
 D. S. Levine,  Yi-Pei Li,  You-Sheng Lin,  Fenglai Liu,  E. Livshits,  
 A. Luenser,  P. Manohar,  E. Mansoor,  S. F. Manzer,  Shan-Ping Mao,  
 Yuezhi Mao,  N. Mardirossian,  A. V. Marenich,  T. Markovich,  
 L. A. Martinez-Martinez,  S. A. Maurer,  N. J. Mayhall,  S. C. McKenzie,  
 J.-M. Mewes,  A. F. Morrison,  J. W. Mullinax,  K. Nanda,  
 T. S. Nguyen-Beck,  R. Olivares-Amaya,  J. A. Parkhill,  T. M. Perrine,  
 F. Plasser,  S. Prager,  A. Prociuk,  E. Ramos,  D. R. Rehn,  F. Rob,  
 M. Schneider,  N. Sergueev,  S. M. Sharada,  S. Sharma,  D. W. Small,  
 T. Stauch,  T. Stein,  Yu-Chuan Su,  A. J. W. Thom,  A. Tkatchenko,  
 T. Tsuchimochi,  L. Vogt,  O. Vydrov,  M. A. Watson,  J. Wenzel,  
 M. de Wergifosse,  T. A. Wesolowski,  A. White,  J. Witte,  A. Yamada,  
 Jun Yang,  K. Yao,  S. Yeganeh,  S. R. Yost,  Zhi-Qiang You,  A. Zech,  
 Igor Ying Zhang,  Xing Zhang,  Yan Zhao,  Ying Zhu,  B. R. Brooks,  
 G. K. L. Chan,  C. J. Cramer,  M. S. Gordon,  W. J. Hehre,  A. Klamt,  
 M. W. Schmidt,  C. D. Sherrill,  D. G. Truhlar,  A. Aspuru-Guzik,  R. Baer,  
 A. T. Bell,  N. A. Besley,  Jeng-Da Chai,  R. A. DiStasio Jr.,  A. Dreuw,  
 B. D. Dunietz,  T. R. Furlani,  Chao-Ping Hsu,  Yousung Jung,  Jing Kong,  
 D. S. Lambrecht,  WanZhen Liang,  C. Ochsenfeld,  V. A. Rassolov,  
 L. V. Slipchenko,  J. E. Subotnik,  T. Van Voorhis,  J. M. Herbert,  
 A. I. Krylov,  P. M. W. Gill,  M. Head-Gordon

 Contributors to earlier versions of Q-Chem not listed above: 
 R. D. Adamson,  B. Austin,  J. Baker,  G. J. O. Beran,  K. Brandhorst,  
 S. T. Brown,  E. F. C. Byrd,  A. K. Chakraborty,  C.-L. Cheng,  
 Siu Hung Chien,  D. M. Chipman,  D. L. Crittenden,  H. Dachsel,  
 R. J. Doerksen,  A. D. Dutoi,  L. Fusti-Molnar,  W. A. Goddard III,  
 A. Golubeva-Zadorozhnaya,  S. R. Gwaltney,  G. Hawkins,  A. Heyden,  
 S. Hirata,  G. Kedziora,  F. J. Keil,  C. Kelley,  Jihan Kim,  R. A. King,  
 R. Z. Khaliullin,  P. P. Korambath,  W. Kurlancheek,  A. M. Lee,  M. S. Lee,  
 S. V. Levchenko,  Ching Yeh Lin,  D. Liotard,  R. C. Lochan,  I. Lotan,  
 P. E. Maslen,  N. Nair,  D. P. O'Neill,  D. Neuhauser,  E. Neuscamman,  
 C. M. Oana,  R. Olson,  B. Peters,  R. Peverati,  P. A. Pieniazek,  
 Y. M. Rhee,  J. Ritchie,  M. A. Rohrdanz,  E. Rosta,  N. J. Russ,  
 H. F. Schaefer III,  N. E. Schultz,  N. Shenvi,  A. C. Simmonett,  A. Sodt,  
 D. Stuck,  K. S. Thanthiriwatte,  V. Vanovschi,  Tao Wang,  A. Warshel,  
 C. F. Williams,  Q. Wu,  X. Xu,  W. Zhang

 Please cite Q-Chem as follows:
 Y. Shao et al., Mol. Phys. 113, 184-215 (2015)
 DOI: 10.1080/00268976.2014.952696

 Q-Chem 5.0.2 for Intel X86 EM64T Linux

 Parts of Q-Chem use Armadillo 5.200.1 (Boston Tea Smuggler).
 http://arma.sourceforge.net/

 Q-Chem begins on Wed Mar  2 01:06:07 2022  

Host: 
0

     Scratch files written to ./qcts2.d//
 Dec517 15110_ 26548  26544 5633   
Processing $rem in /home/leeping/opt/qchem/5.0.2-openmp/config/preferences.
 MEM_STATIC 2000
 MEM_TOTAL  8000
 SYMMETRY   OFF
 SYM_IGNORE TRUE 

Checking the input file for inconsistencies... 	...done.

--------------------------------------------------------------
User input:
--------------------------------------------------------------
$molecule
0 2
C        1.4971285170    0.4043364854   -0.4809742454
C        0.8712316258   -0.7559560188    0.2112505077
C       -0.6187106980   -0.9995608313   -0.1311495577
C       -1.2170595501    0.3474188140   -0.1832428558
C       -0.4949594280    1.4949631779   -0.5095156171
N        0.8484660758    1.4841828076   -0.7886685001
H        2.5380022331    0.3247795464   -0.7968982262
H        1.4909982005   -1.6497956151    0.2922985494
H       -1.0436744475   -1.9176221496   -0.5280554443
H       -2.2861128296    0.4260637806    0.0018067004
H       -0.9842069362    2.4645417133   -0.5179223144
C       -0.2091350227   -0.6328351261    1.2132031979
H       -0.3998047394   -0.9921564998    2.2131223519
$end

$rem
method                b3lyp
basis                 6-31+g(d,p)
unrestricted          true
symmetry              off
sym_ignore            true
incdft                false
incfock               0
scf_convergence       8
thresh                14
jobtype               freq
scf_guess             read
scf_algorithm         diis
max_scf_cycles        100
$end

--------------------------------------------------------------
 ----------------------------------------------------------------
             Standard Nuclear Orientation (Angstroms)
    I     Atom           X                Y                Z
 ----------------------------------------------------------------
    1      C       1.4971285170     0.4043364854    -0.4809742454
    2      C       0.8712316258    -0.7559560188     0.2112505077
    3      C      -0.6187106980    -0.9995608313    -0.1311495577
    4      C      -1.2170595501     0.3474188140    -0.1832428558
    5      C      -0.4949594280     1.4949631779    -0.5095156171
    6      N       0.8484660758     1.4841828076    -0.7886685001
    7      H       2.5380022331     0.3247795464    -0.7968982262
    8      H       1.4909982005    -1.6497956151     0.2922985494
    9      H      -1.0436744475    -1.9176221496    -0.5280554443
   10      H      -2.2861128296     0.4260637806     0.0018067004
   11      H      -0.9842069362     2.4645417133    -0.5179223144
   12      C      -0.2091350227    -0.6328351261     1.2132031979
   13      H      -0.3998047394    -0.9921564998     2.2131223519
 ----------------------------------------------------------------
 Nuclear Repulsion Energy =   273.9933323713 hartrees
 There are       25 alpha and       24 beta electrons
 Requested basis set is 6-31+G(d,p)
 There are 53 shells and 163 basis functions

 Total QAlloc Memory Limit   8000 MB
 Mega-Array Size      1956 MB
 MEM_STATIC part      2000 MB

                       Distance Matrix (Angstroms)
             C (  1)   C (  2)   C (  3)   C (  4)   C (  5)   N (  6)
   C (  2)  1.489027
   C (  3)  2.563217  1.548066
   C (  4)  2.731062  2.394582  1.474818
   C (  5)  2.271276  2.729949  2.526089  1.394540
   N (  6)  1.296729  2.453279  2.958703  2.434167  1.372164
   H (  7)  1.090667  2.227662  3.487397  3.804941  3.263553  2.049101
   H (  8)  2.194868  1.090701  2.247885  3.398320  3.804792  3.376856
   H (  9)  3.442294  2.358582  1.086722  2.297688  3.456468  3.901332
   H ( 10)  3.813983  3.377849  2.197797  1.087797  2.147610  3.401478
   H ( 11)  3.225343  3.787605  3.504738  2.156024  1.086055  2.095972
   C ( 12)  2.618644  1.478601  1.452420  1.981633  2.752632  3.099641
   H ( 13)  3.578646  2.383026  2.354482  2.864426  3.688845  4.086708
             H (  7)   H (  8)   H (  9)   H ( 10)   H ( 11)   C ( 12)
   H (  8)  2.486265
   H (  9)  4.234271  2.677551
   H ( 10)  4.890836  4.319739  2.705045
   H ( 11)  4.130662  4.869381  4.382579  2.473958
   C ( 12)  3.536141  2.184657  2.319292  2.627277  3.631980
   H ( 13)  4.407409  2.774381  2.963969  3.234103  4.443973  1.079493

 
 A cutoff of  1.0D-14 yielded   1389 shell pairs
 There are     13465 function pairs
 Smallest overlap matrix eigenvalue = 4.26E-05
 Guess MOs from SCF MO coefficient file
 Reading MOs from coefficient file
 Reading MOs from coefficient file
 An unrestricted hybrid HF-DFT SCF calculation will be
 performed using Pulay DIIS extrapolation
 Exchange:     0.2000 Hartree-Fock + 0.0800 Slater + 0.7200 B88
 Correlation:  0.1900 VWN1RPA + 0.8100 LYP
 Using SG-1 standard quadrature grid
 SCF converges when DIIS error is below 1.0E-08
Using Q-Chem read-in guess as SCF_GUESS READ specified.

 -------------------------------------------------------
 OpenMP BLAS3 based DFT computing Module                
 -------------------------------------------------------
 ---------------------------------------
  Cycle       Energy         DIIS Error
 ---------------------------------------
    1    -286.8561299853      1.71E-09
    2    -286.8561299853      2.28E-09 Convergence criterion met
 ---------------------------------------
 <S^2> = 0.7874
 SCF time:  CPU 7.07 s  wall 10.42 s
 SCF   energy in the final basis set = -286.85612999
 Total energy in the final basis set = -286.85612999
 
 --------------------------------------------------------------
 
                    Orbital Energies (a.u.)
 --------------------------------------------------------------
 
 Alpha MOs
 -- Occupied --
-14.336 -10.234 -10.229 -10.228 -10.227 -10.226 -10.221  -0.958
 -0.895  -0.770  -0.661  -0.650  -0.590  -0.546  -0.494  -0.491
 -0.474  -0.434  -0.390  -0.380  -0.355  -0.311  -0.278  -0.259
 -0.175
 -- Virtual --
 -0.041  -0.000   0.016   0.021   0.026   0.043   0.048   0.056
  0.065   0.076   0.082   0.087   0.097   0.104   0.116   0.118
  0.122   0.127   0.143   0.148   0.160   0.174   0.177   0.184
  0.192   0.197   0.205   0.213   0.224   0.238   0.252   0.258
  0.266   0.270   0.293   0.296   0.308   0.319   0.325   0.341
  0.352   0.375   0.470   0.497   0.615   0.638   0.651   0.672
  0.674   0.708   0.720   0.739   0.747   0.761   0.779   0.803
  0.839   0.856   0.872   0.904   0.936   0.945   0.960   0.983
  1.005   1.012   1.040   1.074   1.087   1.126   1.134   1.149
  1.170   1.205   1.288   1.325   1.363   1.383   1.449   1.493
  1.522   1.563   1.603   1.648   1.676   1.747   1.804   1.808
  1.853   1.879   1.943   2.000   2.017   2.056   2.064   2.112
  2.131   2.173   2.199   2.262   2.280   2.319   2.352   2.400
  2.424   2.449   2.454   2.468   2.484   2.494   2.526   2.544
  2.589   2.598   2.629   2.642   2.658   2.710   2.788   2.814
  2.879   2.935   2.993   3.170   3.180   3.280   3.292   3.375
  3.510   3.587   3.696   4.180   4.321   4.390   4.528   4.602
  4.662   4.730
 
 Beta MOs
 -- Occupied --
-14.337 -10.231 -10.230 -10.228 -10.228 -10.216 -10.215  -0.954
 -0.890  -0.764  -0.655  -0.644  -0.577  -0.542  -0.488  -0.486
 -0.471  -0.431  -0.380  -0.376  -0.349  -0.306  -0.264  -0.248
 -- Virtual --
 -0.079  -0.028   0.000   0.016   0.022   0.029   0.044   0.050
  0.059   0.066   0.077   0.087   0.091   0.099   0.109   0.116
  0.119   0.123   0.130   0.143   0.149   0.162   0.175   0.179
  0.186   0.194   0.200   0.207   0.214   0.226   0.241   0.252
  0.262   0.268   0.272   0.295   0.298   0.310   0.322   0.328
  0.346   0.358   0.380   0.473   0.500   0.618   0.644   0.666
  0.675   0.689   0.712   0.736   0.743   0.754   0.765   0.784
  0.807   0.844   0.861   0.875   0.908   0.939   0.947   0.963
  0.985   1.007   1.010   1.043   1.075   1.090   1.131   1.139
  1.153   1.177   1.207   1.296   1.331   1.372   1.385   1.454
  1.504   1.531   1.568   1.612   1.652   1.683   1.756   1.811
  1.815   1.857   1.893   1.948   2.004   2.019   2.058   2.072
  2.126   2.137   2.182   2.207   2.265   2.286   2.320   2.358
  2.405   2.431   2.453   2.458   2.471   2.486   2.500   2.532
  2.548   2.595   2.603   2.633   2.648   2.662   2.716   2.792
  2.825   2.882   2.939   2.997   3.173   3.182   3.283   3.293
  3.377   3.512   3.594   3.698   4.179   4.327   4.395   4.534
  4.616   4.670   4.733
 --------------------------------------------------------------
 
          Ground-State Mulliken Net Atomic Charges

     Atom                 Charge (a.u.)    Spin (a.u.)
  --------------------------------------------------------
      1 C                    -0.035344       0.271623
      2 C                    -0.138456      -0.046624
      3 C                     0.054169      -0.003274
      4 C                    -0.083514      -0.192373
      5 C                    -0.194061       0.425367
      6 N                    -0.192399      -0.094152
      7 H                     0.124712      -0.013265
      8 H                     0.137622       0.019196
      9 H                     0.139477       0.000524
     10 H                     0.140604       0.010792
     11 H                     0.126741      -0.022966
     12 C                    -0.222858       0.666853
     13 H                     0.143307      -0.021701
  --------------------------------------------------------
  Sum of atomic charges =     0.000000
  Sum of spin   charges =     1.000000

 -----------------------------------------------------------------
                    Cartesian Multipole Moments
 -----------------------------------------------------------------
    Charge (ESU x 10^10)
                 0.0000
    Dipole Moment (Debye)
         X      -1.1585      Y      -2.6677      Z       0.9513
       Tot       3.0600
    Quadrupole Moments (Debye-Ang)
        XX     -38.2688     XY      -3.5583     YY     -42.8980
        XZ       0.5221     YZ       1.1380     ZZ     -43.8268
    Octopole Moments (Debye-Ang^2)
       XXX      -9.0464    XXY     -10.3293    XYY     -11.9484
       YYY     -28.6628    XXZ       2.2656    XYZ       2.4923
       YYZ       6.9797    XZZ      -4.8348    YZZ     -13.4002
       ZZZ      17.0082
    Hexadecapole Moments (Debye-Ang^3)
      XXXX    -275.8729   XXXY     -14.5709   XXYY    -107.7382
      XYYY     -28.6036   YYYY    -325.4191   XXXZ      12.7663
      XXYZ      21.7604   XYYZ      15.6628   YYYZ      64.7373
      XXZZ     -82.4500   XYZZ      -3.1193   YYZZ     -88.7482
      XZZZ      17.2197   YZZZ      54.9999   ZZZZ    -160.2936
 -----------------------------------------------------------------
 Calculating MO derivatives via CPSCF
   1         3          39      0.288779    0.057565
   2         3          39      0.038091    0.007034
   3         3          39      0.004948    0.000843
   4         3          39      0.000671    0.000122
   5        24          18      0.000053    0.000010
   6        42           0      0.000000    0.000000    Roots Converged
 Time for AOints: 21.2 s (CPU) 27.4 s (wall)
 ------------------------------------------------------------------------------
                     AOints        : Timing summary (seconds)
 ------------------------------------------------------------------------------
     job step          cpu (% of tot)      sys (% of tot)     wall (% of tot)
 ------------------------------------------------------------------------------
  cpscf_lag         0.1231E+03 (28.8)   0.9900E-04 (39.1)   0.1317E+03 (28.1)
  iterzp            0.2828E+03 (66.1)   0.1200E-03 (47.4)   0.3089E+03 (65.9)
  make_fx           0.0000E+00 ( 0.0)   0.0000E+00 ( 0.0)   0.0000E+00 ( 0.0)
  AOints            0.2124E+02 ( 5.0)   0.3200E-04 (12.6)   0.2736E+02 ( 5.8)
 ------------------------------------------------------------------------------
   Grand Totals     0.4275E+03          0.2530E-03          0.4687E+03
 ------------------------------------------------------------------------------
 Calculating analytic Hessian of the SCF energy
 Polarizability Matrix (a.u.)
            1           2           3
    1 -80.4972326   1.8435024   3.7970027
    2   1.8435024 -77.8699649  13.1679745
    3   3.7970027  13.1679745 -63.4956329
 
 Direct stationary perturbation theory relativistic correction:
 
 rels  =       0.069362104098
 relv  =      -0.338970120301
 rel2e =       0.156724443434
 E_rel =      -0.112883572769
 
 Hessian of the SCF Energy
            1           2           3           4           5           6
    1   0.6873342  -0.1594903  -0.0936906  -0.1020973  -0.0399761   0.0353862
    2  -0.1594903   0.5812618  -0.1591030  -0.0130679  -0.1513354   0.0437900
    3  -0.0936906  -0.1591030   0.2478373   0.0276277   0.0549099  -0.0908479
    4  -0.1020973  -0.0130679   0.0276277   0.5296605  -0.1142707  -0.1001347
    5  -0.0399761  -0.1513354   0.0549099  -0.1142707   0.5402025  -0.0999777
    6   0.0353862   0.0437900  -0.0908479  -0.1001347  -0.0999777   0.2612256
    7  -0.0243166  -0.0239429   0.0037636  -0.1351311  -0.0094813  -0.0003637
    8  -0.0132798  -0.0103504  -0.0117947  -0.0204540  -0.0729149  -0.0153404
    9   0.0189994   0.0059003  -0.0019239  -0.0684651  -0.0151578  -0.0126392
   10   0.0020161  -0.0084358   0.0034158  -0.0298858   0.0389478  -0.0121298
   11   0.0242056  -0.0261859   0.0047046  -0.0010013   0.0132625   0.0048495
   12  -0.0196779   0.0301587  -0.0082071   0.0071127  -0.0106245   0.0157868
   13  -0.0867357   0.0788630  -0.0050020  -0.0047509  -0.0178713   0.0020248
   14   0.0341668   0.0029153  -0.0051373   0.0005909  -0.0066023  -0.0051530
   15   0.0042099  -0.0113927   0.0090735  -0.0051583  -0.0009833  -0.0067887
   16  -0.1779584   0.1469057  -0.0417629   0.0198288   0.0144570   0.0047546
   17   0.1484888  -0.3450702   0.0946775   0.0007582  -0.0440870   0.0297818
   18  -0.0351492   0.0991746  -0.0916968  -0.0034467   0.0260390   0.0053987
   19  -0.2965841   0.0099058   0.0843086  -0.0056276   0.0034272   0.0041551
   20   0.0068444  -0.0520442   0.0032149  -0.0178183   0.0052477   0.0108886
   21   0.0865957   0.0047025  -0.0653390   0.0122317  -0.0014301   0.0052303
   22   0.0112696  -0.0123806   0.0005099  -0.1346833   0.1252540  -0.0127877
   23   0.0172806  -0.0156026   0.0001212   0.1272905  -0.2373086   0.0249531
   24  -0.0111514   0.0108889  -0.0011114  -0.0063903   0.0180349  -0.0380963
   25   0.0005880   0.0025480  -0.0033181  -0.0046521  -0.0196641  -0.0089663
   26   0.0000236  -0.0009760   0.0002799   0.0018937   0.0024214   0.0013045
   27   0.0010631  -0.0019022   0.0032308   0.0024941   0.0070321  -0.0048986
   28   0.0014625  -0.0013101   0.0001057   0.0008612   0.0037325   0.0007132
   29   0.0000660  -0.0024703   0.0005686   0.0034090  -0.0052655  -0.0004234
   30  -0.0001693  -0.0009303   0.0009902   0.0020519   0.0064568   0.0010930
   31  -0.0047018  -0.0013099   0.0034364   0.0005489   0.0004159  -0.0003903
   32  -0.0018411   0.0017622   0.0000659   0.0003104   0.0007602  -0.0001613
   33   0.0027229  -0.0039872   0.0054985   0.0016775   0.0014003  -0.0014720
   34  -0.0137051  -0.0200513   0.0188325  -0.1320777   0.0265272   0.0733075
   35  -0.0134313   0.0162369   0.0155196   0.0277200  -0.0414038   0.0106286
   36   0.0123997  -0.0156230  -0.0087793   0.1328717   0.0142133  -0.1315546
   37   0.0034286   0.0017664   0.0017734  -0.0019936  -0.0114982   0.0144311
   38  -0.0030573   0.0018586   0.0019729   0.0046396  -0.0029770  -0.0051405
   39  -0.0015385  -0.0016765   0.0012751  -0.0024722   0.0000869  -0.0024370
            7           8           9          10          11          12
    1  -0.0243166  -0.0132798   0.0189994   0.0020161   0.0242056  -0.0196779
    2  -0.0239429  -0.0103504   0.0059003  -0.0084358  -0.0261859   0.0301587
    3   0.0037636  -0.0117947  -0.0019239   0.0034158   0.0047046  -0.0082071
    4  -0.1351311  -0.0204540  -0.0684651  -0.0298858  -0.0010013   0.0071127
    5  -0.0094813  -0.0729149  -0.0151578   0.0389478   0.0132625  -0.0106245
    6  -0.0003637  -0.0153404  -0.0126392  -0.0121298   0.0048495   0.0157868
    7   0.3854013   0.0859870   0.1508652  -0.1114866   0.0585380  -0.0077796
    8   0.0859870   0.6232780   0.1390568   0.0642742  -0.2607683   0.0478284
    9   0.1508652   0.1390568   0.3722352   0.0035774  -0.0409417   0.0014625
   10  -0.1114866   0.0642742   0.0035774   0.6759492   0.0438044  -0.1188129
   11   0.0585380  -0.2607683  -0.0409417   0.0438044   0.5389447   0.0164303
   12  -0.0077796   0.0478284   0.0014625  -0.1188129   0.0164303   0.0321072
   13   0.0179080   0.0266377   0.0179651  -0.1741312  -0.0443091  -0.0312923
   14  -0.0066734  -0.0156108   0.0272766  -0.1215743  -0.2456268  -0.0042818
   15  -0.0049830  -0.0127581  -0.0023997   0.0470388   0.0245935  -0.0256073
   16  -0.0087161  -0.0058893  -0.0155491  -0.0430112  -0.0671120   0.0646606
   17   0.0072263   0.0106632  -0.0006550  -0.0222861   0.0288705  -0.0225913
   18   0.0027102   0.0039074   0.0006058   0.0099915   0.0156058  -0.0017124
   19  -0.0012914  -0.0002481   0.0002629   0.0005296  -0.0010621  -0.0000811
   20  -0.0037189  -0.0000309   0.0002547   0.0011432  -0.0021902  -0.0003469
   21  -0.0016203   0.0032810  -0.0021258   0.0001666  -0.0027000  -0.0006607
   22  -0.0076352   0.0185021   0.0038475  -0.0054139  -0.0038746   0.0045503
   23  -0.0052326   0.0091938  -0.0001112  -0.0030334  -0.0014408   0.0012796
   24  -0.0076250   0.0156523  -0.0014979  -0.0024949  -0.0017460  -0.0007608
   25  -0.0894172  -0.0939758  -0.0462811   0.0093663   0.0126820   0.0004634
   26  -0.0952794  -0.2572306  -0.0875307  -0.0106528  -0.0146973  -0.0041155
   27  -0.0446208  -0.0879817  -0.0723145   0.0066619   0.0043185   0.0041327
   28  -0.0093599   0.0021714  -0.0002497  -0.3280868   0.0153664   0.0494832
   29   0.0291801  -0.0005019  -0.0015072   0.0207299  -0.0554084   0.0030200
   30  -0.0035609   0.0059743  -0.0040141   0.0539301  -0.0033687  -0.0501293
   31  -0.0016414  -0.0024757   0.0013986   0.0097739  -0.0165473   0.0000894
   32  -0.0033699  -0.0008003   0.0011514   0.0123153  -0.0188100  -0.0008041
   33   0.0022005  -0.0006461   0.0053457  -0.0022488   0.0056436   0.0061730
   34  -0.0155731  -0.0698174  -0.0509048  -0.0077545  -0.0087990   0.0455607
   35  -0.0363013  -0.0302932  -0.0148309  -0.0137605   0.0404492  -0.0495633
   36  -0.0936272  -0.0954938  -0.2710646   0.0102739  -0.0220718   0.0267215
   37   0.0012594   0.0085677  -0.0154663   0.0021350  -0.0118910   0.0057236
   38   0.0030684   0.0053662  -0.0129053  -0.0014718   0.0036008  -0.0063897
   39   0.0046410   0.0083145  -0.0116695   0.0006303  -0.0053176   0.0006939
           13          14          15          16          17          18
    1  -0.0867357   0.0341668   0.0042099  -0.1779584   0.1484888  -0.0351492
    2   0.0788630   0.0029153  -0.0113927   0.1469057  -0.3450702   0.0991746
    3  -0.0050020  -0.0051373   0.0090735  -0.0417629   0.0946775  -0.0916968
    4  -0.0047509   0.0005909  -0.0051583   0.0198288   0.0007582  -0.0034467
    5  -0.0178713  -0.0066023  -0.0009833   0.0144570  -0.0440870   0.0260390
    6   0.0020248  -0.0051530  -0.0067887   0.0047546   0.0297818   0.0053987
    7   0.0179080  -0.0066734  -0.0049830  -0.0087161   0.0072263   0.0027102
    8   0.0266377  -0.0156108  -0.0127581  -0.0058893   0.0106632   0.0039074
    9   0.0179651   0.0272766  -0.0023997  -0.0155491  -0.0006550   0.0006058
   10  -0.1741312  -0.1215743   0.0470388  -0.0430112  -0.0222861   0.0099915
   11  -0.0443091  -0.2456268   0.0245935  -0.0671120   0.0288705   0.0156058
   12  -0.0312923  -0.0042818  -0.0256073   0.0646606  -0.0225913  -0.0017124
   13   0.5539011  -0.0724747  -0.0689230  -0.2247279  -0.0272382   0.0331541
   14  -0.0724747   0.6943684  -0.0611662   0.0190062  -0.1087678  -0.0018317
   15  -0.0689230  -0.0611662   0.1422040   0.0333142   0.0164083  -0.0663891
   16  -0.2247279   0.0190062   0.0333142   0.4957278  -0.1581062  -0.0102099
   17  -0.0272382  -0.1087678   0.0164083  -0.1581062   0.4802043  -0.1326522
   18   0.0331541  -0.0018317  -0.0663891  -0.0102099  -0.1326522   0.1392900
   19   0.0039871   0.0041186   0.0021382  -0.0201271   0.0108008  -0.0008793
   20   0.0049558   0.0004572   0.0040857   0.0326628  -0.0081722  -0.0085947
   21   0.0028210   0.0074419   0.0086150  -0.0136553  -0.0033954   0.0001658
   22   0.0000692   0.0003266   0.0003636  -0.0003528  -0.0016619   0.0024601
   23  -0.0008134   0.0010193   0.0004780  -0.0026797  -0.0038339   0.0027470
   24   0.0000414  -0.0001230   0.0006570   0.0037026   0.0022645  -0.0006923
   25  -0.0045292  -0.0006537   0.0019972   0.0013194  -0.0020657   0.0014330
   26   0.0028471  -0.0000665  -0.0029935  -0.0005913   0.0002256   0.0003376
   27   0.0009583   0.0031845  -0.0001361  -0.0019018   0.0014080  -0.0005069
   28  -0.0112693   0.0053762   0.0023446  -0.0005815  -0.0025879   0.0024019
   29  -0.0263564   0.0073895   0.0025452  -0.0029558  -0.0035839   0.0019876
   30   0.0058814  -0.0027644   0.0020299   0.0012824   0.0003534   0.0067423
   31  -0.1011667   0.1084838   0.0059691  -0.0235370   0.0309379  -0.0003255
   32   0.1105074  -0.2871217   0.0087789   0.0027359   0.0054781  -0.0011034
   33   0.0074777   0.0076524  -0.0324029   0.0004004  -0.0030642  -0.0015883
   34   0.0258248   0.0233673  -0.0172256  -0.0129604   0.0148381  -0.0025978
   35  -0.0287114  -0.0390943   0.0285490   0.0171473  -0.0079985  -0.0045851
   36   0.0325398   0.0330846  -0.0292216  -0.0233824   0.0168036   0.0102531
   37   0.0056207   0.0059397  -0.0010858  -0.0049035   0.0008960   0.0004575
   38  -0.0060365  -0.0032594   0.0038553   0.0044192  -0.0039281  -0.0010318
   39   0.0023537   0.0018175   0.0003659  -0.0016536   0.0006609   0.0001301
           19          20          21          22          23          24
    1  -0.2965841   0.0068444   0.0865957   0.0112696   0.0172806  -0.0111514
    2   0.0099058  -0.0520442   0.0047025  -0.0123806  -0.0156026   0.0108889
    3   0.0843086   0.0032149  -0.0653390   0.0005099   0.0001212  -0.0011114
    4  -0.0056276  -0.0178183   0.0122317  -0.1346833   0.1272905  -0.0063903
    5   0.0034272   0.0052477  -0.0014301   0.1252540  -0.2373086   0.0180349
    6   0.0041551   0.0108886   0.0052303  -0.0127877   0.0249531  -0.0380963
    7  -0.0012914  -0.0037189  -0.0016203  -0.0076352  -0.0052326  -0.0076250
    8  -0.0002481  -0.0000309   0.0032810   0.0185021   0.0091938   0.0156523
    9   0.0002629   0.0002547  -0.0021258   0.0038475  -0.0001112  -0.0014979
   10   0.0005296   0.0011432   0.0001666  -0.0054139  -0.0030334  -0.0024949
   11  -0.0010621  -0.0021902  -0.0027000  -0.0038746  -0.0014408  -0.0017460
   12  -0.0000811  -0.0003469  -0.0006607   0.0045503   0.0012796  -0.0007608
   13   0.0039871   0.0049558   0.0028210   0.0000692  -0.0008134   0.0000414
   14   0.0041186   0.0004572   0.0074419   0.0003266   0.0010193  -0.0001230
   15   0.0021382   0.0040857   0.0086150   0.0003636   0.0004780   0.0006570
   16  -0.0201271   0.0326628  -0.0136553  -0.0003528  -0.0026797   0.0037026
   17   0.0108008  -0.0081722  -0.0033954  -0.0016619  -0.0038339   0.0022645
   18  -0.0008793  -0.0085947   0.0001658   0.0024601   0.0027470  -0.0006923
   19   0.3195382  -0.0248710  -0.0895124   0.0002925  -0.0004354   0.0000383
   20  -0.0248710   0.0583028  -0.0088502   0.0003604   0.0006278  -0.0003460
   21  -0.0895124  -0.0088502   0.0552962  -0.0004792   0.0000236  -0.0004086
   22   0.0002925   0.0003604  -0.0004792   0.1486520  -0.1370791   0.0057282
   23  -0.0004354   0.0006278   0.0000236  -0.1370791   0.2476833  -0.0252026
   24   0.0000383  -0.0003460  -0.0004086   0.0057282  -0.0252026   0.0401323
   25  -0.0001944  -0.0003228   0.0001398   0.0009988   0.0007569   0.0011062
   26  -0.0000487   0.0000520  -0.0001440  -0.0001285   0.0001970  -0.0004304
   27   0.0001228   0.0001763  -0.0003651  -0.0004984  -0.0006321  -0.0002470
   28  -0.0001145   0.0000326  -0.0000953  -0.0004334  -0.0006883  -0.0002363
   29  -0.0001431   0.0002812  -0.0001032   0.0013847   0.0007308   0.0010425
   30  -0.0003787  -0.0008263  -0.0013654  -0.0014588  -0.0003702   0.0004563
   31  -0.0007048   0.0009011  -0.0007086   0.0001018   0.0000760  -0.0000557
   32  -0.0001636  -0.0000279  -0.0000671   0.0000179  -0.0000270   0.0000257
   33   0.0001002   0.0001394   0.0005526  -0.0002799  -0.0003476   0.0000686
   34   0.0005928   0.0003760   0.0038373  -0.0130774   0.0049845   0.0188171
   35  -0.0009980  -0.0022524   0.0018253   0.0095498  -0.0021669  -0.0199962
   36  -0.0001473   0.0003565   0.0005143  -0.0021593  -0.0032000   0.0012648
   37  -0.0002962  -0.0005453   0.0002789   0.0002120  -0.0004267  -0.0014802
   38  -0.0002825  -0.0002508  -0.0005842  -0.0002708   0.0009279  -0.0000647
   39  -0.0001273  -0.0001521  -0.0001098   0.0002038   0.0002612   0.0002352
           25          26          27          28          29          30
    1   0.0005880   0.0000236   0.0010631   0.0014625   0.0000660  -0.0001693
    2   0.0025480  -0.0009760  -0.0019022  -0.0013101  -0.0024703  -0.0009303
    3  -0.0033181   0.0002799   0.0032308   0.0001057   0.0005686   0.0009902
    4  -0.0046521   0.0018937   0.0024941   0.0008612   0.0034090   0.0020519
    5  -0.0196641   0.0024214   0.0070321   0.0037325  -0.0052655   0.0064568
    6  -0.0089663   0.0013045  -0.0048986   0.0007132  -0.0004234   0.0010930
    7  -0.0894172  -0.0952794  -0.0446208  -0.0093599   0.0291801  -0.0035609
    8  -0.0939758  -0.2572306  -0.0879817   0.0021714  -0.0005019   0.0059743
    9  -0.0462811  -0.0875307  -0.0723145  -0.0002497  -0.0015072  -0.0040141
   10   0.0093663  -0.0106528   0.0066619  -0.3280868   0.0207299   0.0539301
   11   0.0126820  -0.0146973   0.0043185   0.0153664  -0.0554084  -0.0033687
   12   0.0004634  -0.0041155   0.0041327   0.0494832   0.0030200  -0.0501293
   13  -0.0045292   0.0028471   0.0009583  -0.0112693  -0.0263564   0.0058814
   14  -0.0006537  -0.0000665   0.0031845   0.0053762   0.0073895  -0.0027644
   15   0.0019972  -0.0029935  -0.0001361   0.0023446   0.0025452   0.0020299
   16   0.0013194  -0.0005913  -0.0019018  -0.0005815  -0.0029558   0.0012824
   17  -0.0020657   0.0002256   0.0014080  -0.0025879  -0.0035839   0.0003534
   18   0.0014330   0.0003376  -0.0005069   0.0024019   0.0019876   0.0067423
   19  -0.0001944  -0.0000487   0.0001228  -0.0001145  -0.0001431  -0.0003787
   20  -0.0003228   0.0000520   0.0001763   0.0000326   0.0002812  -0.0008263
   21   0.0001398  -0.0001440  -0.0003651  -0.0000953  -0.0001032  -0.0013654
   22   0.0009988  -0.0001285  -0.0004984  -0.0004334   0.0013847  -0.0014588
   23   0.0007569   0.0001970  -0.0006321  -0.0006883   0.0007308  -0.0003702
   24   0.0011062  -0.0004304  -0.0002470  -0.0002363   0.0010425   0.0004563
   25   0.0871148   0.1011534   0.0509361   0.0001337  -0.0006867  -0.0000132
   26   0.1011534   0.2663843   0.0955210   0.0003508   0.0005732   0.0002354
   27   0.0509361   0.0955210   0.0753104  -0.0002430  -0.0005838  -0.0000220
   28   0.0001337   0.0003508  -0.0002430   0.3456090  -0.0219678  -0.0553580
   29  -0.0006867   0.0005732  -0.0005838  -0.0219678   0.0569186  -0.0021298
   30  -0.0000132   0.0002354  -0.0000220  -0.0553580  -0.0021298   0.0365855
   31   0.0002733  -0.0004035   0.0003092   0.0004332   0.0002550  -0.0007239
   32   0.0002901  -0.0004496   0.0005756  -0.0004396   0.0004497  -0.0004755
   33  -0.0008213   0.0006791  -0.0003138  -0.0009770  -0.0004492  -0.0028569
   34  -0.0021738   0.0012866  -0.0166058   0.0016120  -0.0029970  -0.0014118
   35   0.0000672   0.0023448  -0.0222452  -0.0001991   0.0008456  -0.0014744
   36   0.0037207  -0.0030229  -0.0059030   0.0023961  -0.0040794   0.0110456
   37   0.0011723  -0.0004510   0.0013244  -0.0002661   0.0000821  -0.0000710
   38  -0.0001289   0.0012216   0.0011290   0.0001629   0.0000415  -0.0006803
   39  -0.0003963  -0.0001206   0.0020331  -0.0002855   0.0001123  -0.0005552
           31          32          33          34          35          36
    1  -0.0047018  -0.0018411   0.0027229  -0.0137051  -0.0134313   0.0123997
    2  -0.0013099   0.0017622  -0.0039872  -0.0200513   0.0162369  -0.0156230
    3   0.0034364   0.0000659   0.0054985   0.0188325   0.0155196  -0.0087793
    4   0.0005489   0.0003104   0.0016775  -0.1320777   0.0277200   0.1328717
    5   0.0004159   0.0007602   0.0014003   0.0265272  -0.0414038   0.0142133
    6  -0.0003903  -0.0001613  -0.0014720   0.0733075   0.0106286  -0.1315546
    7  -0.0016414  -0.0033699   0.0022005  -0.0155731  -0.0363013  -0.0936272
    8  -0.0024757  -0.0008003  -0.0006461  -0.0698174  -0.0302932  -0.0954938
    9   0.0013986   0.0011514   0.0053457  -0.0509048  -0.0148309  -0.2710646
   10   0.0097739   0.0123153  -0.0022488  -0.0077545  -0.0137605   0.0102739
   11  -0.0165473  -0.0188100   0.0056436  -0.0087990   0.0404492  -0.0220718
   12   0.0000894  -0.0008041   0.0061730   0.0455607  -0.0495633   0.0267215
   13  -0.1011667   0.1105074   0.0074777   0.0258248  -0.0287114   0.0325398
   14   0.1084838  -0.2871217   0.0076524   0.0233673  -0.0390943   0.0330846
   15   0.0059691   0.0087789  -0.0324029  -0.0172256   0.0285490  -0.0292216
   16  -0.0235370   0.0027359   0.0004004  -0.0129604   0.0171473  -0.0233824
   17   0.0309379   0.0054781  -0.0030642   0.0148381  -0.0079985   0.0168036
   18  -0.0003255  -0.0011034  -0.0015883  -0.0025978  -0.0045851   0.0102531
   19  -0.0007048  -0.0001636   0.0001002   0.0005928  -0.0009980  -0.0001473
   20   0.0009011  -0.0000279   0.0001394   0.0003760  -0.0022524   0.0003565
   21  -0.0007086  -0.0000671   0.0005526   0.0038373   0.0018253   0.0005143
   22   0.0001018   0.0000179  -0.0002799  -0.0130774   0.0095498  -0.0021593
   23   0.0000760  -0.0000270  -0.0003476   0.0049845  -0.0021669  -0.0032000
   24  -0.0000557   0.0000257   0.0000686   0.0188171  -0.0199962   0.0012648
   25   0.0002733   0.0002901  -0.0008213  -0.0021738   0.0000672   0.0037207
   26  -0.0004035  -0.0004496   0.0006791   0.0012866   0.0023448  -0.0030229
   27   0.0003092   0.0005756  -0.0003138  -0.0166058  -0.0222452  -0.0059030
   28   0.0004332  -0.0004396  -0.0009770   0.0016120  -0.0001991   0.0023961
   29   0.0002550   0.0004497  -0.0004492  -0.0029970   0.0008456  -0.0040794
   30  -0.0007239  -0.0004755  -0.0028569  -0.0014118  -0.0014744   0.0110456
   31   0.1207703  -0.1203631  -0.0086727  -0.0002434  -0.0001358  -0.0003672
   32  -0.1203631   0.2992387  -0.0078770  -0.0000517  -0.0003944  -0.0001653
   33  -0.0086727  -0.0078770   0.0223821  -0.0011782   0.0003686  -0.0014156
   34  -0.0002434  -0.0000517  -0.0011782   0.2144449   0.0571367  -0.1261869
   35  -0.0001358  -0.0003944   0.0003686   0.0571367   0.1124794  -0.0475478
   36  -0.0003672  -0.0001653  -0.0014156  -0.1261869  -0.0475478   0.7138816
   37   0.0000937   0.0000519  -0.0004013  -0.0449092  -0.0180835   0.0516684
   38   0.0001656  -0.0000581   0.0004879  -0.0268000  -0.0487526   0.1267460
   39   0.0000413   0.0000563   0.0000290   0.0557557   0.1033518  -0.3157422
           37          38          39
    1   0.0034286  -0.0030573  -0.0015385
    2   0.0017664   0.0018586  -0.0016765
    3   0.0017734   0.0019729   0.0012751
    4  -0.0019936   0.0046396  -0.0024722
    5  -0.0114982  -0.0029770   0.0000869
    6   0.0144311  -0.0051405  -0.0024370
    7   0.0012594   0.0030684   0.0046410
    8   0.0085677   0.0053662   0.0083145
    9  -0.0154663  -0.0129053  -0.0116695
   10   0.0021350  -0.0014718   0.0006303
   11  -0.0118910   0.0036008  -0.0053176
   12   0.0057236  -0.0063897   0.0006939
   13   0.0056207  -0.0060365   0.0023537
   14   0.0059397  -0.0032594   0.0018175
   15  -0.0010858   0.0038553   0.0003659
   16  -0.0049035   0.0044192  -0.0016536
   17   0.0008960  -0.0039281   0.0006609
   18   0.0004575  -0.0010318   0.0001301
   19  -0.0002962  -0.0002825  -0.0001273
   20  -0.0005453  -0.0002508  -0.0001521
   21   0.0002789  -0.0005842  -0.0001098
   22   0.0002120  -0.0002708   0.0002038
   23  -0.0004267   0.0009279   0.0002612
   24  -0.0014802  -0.0000647   0.0002352
   25   0.0011723  -0.0001289  -0.0003963
   26  -0.0004510   0.0012216  -0.0001206
   27   0.0013244   0.0011290   0.0020331
   28  -0.0002661   0.0001629  -0.0002855
   29   0.0000821   0.0000415   0.0001123
   30  -0.0000710  -0.0006803  -0.0005552
   31   0.0000937   0.0001656   0.0000413
   32   0.0000519  -0.0000581   0.0000563
   33  -0.0004013   0.0004879   0.0000290
   34  -0.0449092  -0.0268000   0.0557557
   35  -0.0180835  -0.0487526   0.1033518
   36   0.0516684   0.1267460  -0.3157422
   37   0.0384469   0.0255921  -0.0571526
   38   0.0255921   0.0462093  -0.1073946
   39  -0.0571526  -0.1073946   0.3257514
 Gradient time:  CPU 563.67 s  wall 615.80 s
 **********************************************************************
 **                                                                  **
 **                       VIBRATIONAL ANALYSIS                       **
 **                       --------------------                       **
 **                                                                  **
 **        VIBRATIONAL FREQUENCIES (CM**-1) AND NORMAL MODES         **
 **     FORCE CONSTANTS (mDYN/ANGSTROM) AND REDUCED MASSES (AMU)     **
 **                  INFRARED INTENSITIES (KM/MOL)                   **
 **                                                                  **
 **********************************************************************
 

 Mode:                 1                      2                      3
 Frequency:      -614.33                 311.31                 325.18
 Force Cnst:      1.0722                 0.1525                 0.1964
 Red. Mass:       4.8221                 2.6702                 3.1533
 IR Active:          YES                    YES                    YES
 IR Intens:       21.637                  1.711                  2.429
 Raman Active:       YES                    YES                    YES
               X      Y      Z        X      Y      Z        X      Y      Z
 C          0.017 -0.021 -0.015   -0.035 -0.079 -0.150    0.013 -0.033 -0.040
 C         -0.026  0.005 -0.027    0.033  0.056  0.127   -0.019 -0.072 -0.147
 C          0.060 -0.149 -0.138    0.086  0.000 -0.057   -0.078 -0.070  0.078
 C          0.128 -0.122  0.370    0.002 -0.051 -0.131   -0.043 -0.075 -0.129
 C          0.070  0.017 -0.033    0.024  0.028  0.217   -0.008 -0.048  0.014
 N         -0.027  0.030  0.007   -0.027 -0.038  0.005    0.030  0.059  0.228
 H          0.026  0.021  0.028   -0.167 -0.251 -0.540    0.039  0.049  0.028
 H         -0.021  0.033  0.198    0.044  0.078  0.268   -0.061 -0.097 -0.101
 H          0.066 -0.140 -0.134    0.148 -0.050  0.003   -0.164 -0.142  0.334
 H          0.132 -0.121  0.406   -0.030 -0.130 -0.282   -0.056 -0.043 -0.200
 H         -0.024 -0.028 -0.069    0.068  0.050  0.475   -0.059 -0.074  0.006
 C         -0.202  0.215 -0.191   -0.071  0.121 -0.000    0.119  0.193 -0.058
 H         -0.363  0.467 -0.127   -0.146 -0.068 -0.079    0.087  0.742  0.125
 TransDip  -0.128 -0.030  0.070    0.001 -0.015 -0.039   -0.040 -0.015  0.027

 Mode:                 4                      5                      6
 Frequency:       479.03                 529.30                 569.62
 Force Cnst:      0.1936                 0.9278                 0.6272
 Red. Mass:       1.4316                 5.6211                 3.2809
 IR Active:          YES                    YES                    YES
 IR Intens:       43.518                  5.376                  8.600
 Raman Active:       YES                    YES                    YES
               X      Y      Z        X      Y      Z        X      Y      Z
 C         -0.005  0.021 -0.012   -0.126  0.051 -0.185   -0.142 -0.126 -0.058
 C          0.035  0.017  0.063   -0.123  0.076 -0.005    0.092 -0.122  0.096
 C         -0.033 -0.016  0.009   -0.085 -0.224  0.169    0.106  0.069 -0.031
 C          0.004  0.017 -0.018    0.180 -0.076 -0.032    0.090  0.078  0.035
 C          0.017  0.022  0.035    0.131  0.012 -0.070   -0.085  0.142 -0.159
 N         -0.007  0.013 -0.050    0.151  0.307  0.029   -0.072  0.012  0.181
 H         -0.027 -0.020 -0.073   -0.183 -0.199 -0.304   -0.249 -0.180 -0.394
 H          0.054  0.013 -0.056    0.078  0.232  0.100    0.078 -0.137  0.027
 H          0.069  0.006 -0.166   -0.097 -0.194  0.107    0.051  0.128 -0.107
 H          0.013  0.053  0.029    0.169  0.088 -0.172    0.050 -0.105 -0.113
 H          0.019  0.024  0.076   -0.122 -0.116 -0.186   -0.183  0.089 -0.640
 C          0.002 -0.157 -0.026   -0.153 -0.149  0.118    0.055 -0.040  0.009
 H         -0.276  0.869  0.273    0.156 -0.379  0.103   -0.128  0.030 -0.003
 TransDip  -0.020  0.094  0.188   -0.000 -0.049 -0.056   -0.045 -0.023 -0.079

 Mode:                 7                      8                      9
 Frequency:       674.47                 751.47                 773.38
 Force Cnst:      0.8997                 0.6976                 0.6303
 Red. Mass:       3.3567                 2.0968                 1.7885
 IR Active:          YES                    YES                    YES
 IR Intens:        9.193                 25.541                 24.218
 Raman Active:       YES                    YES                    YES
               X      Y      Z        X      Y      Z        X      Y      Z
 C          0.175 -0.021 -0.123   -0.002  0.007 -0.006   -0.021 -0.054 -0.093
 C          0.035  0.215  0.035   -0.128 -0.024 -0.123   -0.057  0.027 -0.014
 C         -0.075  0.084 -0.017    0.145  0.083  0.011    0.099  0.042  0.001
 C         -0.186 -0.015  0.117    0.041 -0.043  0.024   -0.041  0.004 -0.004
 C          0.021 -0.160 -0.026    0.014 -0.025  0.095   -0.044 -0.040 -0.149
 N          0.056 -0.028  0.134    0.006  0.001 -0.044    0.039  0.010  0.077
 H          0.069 -0.144 -0.443    0.027  0.010  0.091    0.081  0.042  0.216
 H         -0.105  0.109 -0.011   -0.282 -0.152 -0.387   -0.091  0.000 -0.054
 H          0.154  0.075 -0.243    0.254  0.115 -0.175    0.355  0.022 -0.227
 H         -0.233  0.044 -0.163   -0.045 -0.207 -0.424    0.025  0.001  0.364
 H         -0.037 -0.194 -0.574   -0.128 -0.103 -0.374    0.203  0.093  0.692
 C         -0.029 -0.059 -0.022   -0.034  0.016  0.145   -0.031 -0.012  0.075
 H          0.061 -0.040  0.002   -0.316  0.147  0.139    0.028  0.087  0.125
 TransDip  -0.016 -0.021 -0.093   -0.062 -0.013 -0.149    0.123  0.047  0.087

 Mode:                10                     11                     12
 Frequency:       812.92                 845.66                 902.79
 Force Cnst:      0.5772                 0.7227                 0.8530
 Red. Mass:       1.4825                 1.7152                 1.7764
 IR Active:          YES                    YES                    YES
 IR Intens:        5.295                  6.693                  7.306
 Raman Active:       YES                    YES                    YES
               X      Y      Z        X      Y      Z        X      Y      Z
 C         -0.098 -0.056  0.081    0.031 -0.055 -0.149   -0.131 -0.057 -0.021
 C         -0.075  0.086 -0.014    0.053 -0.003 -0.030   -0.001  0.012  0.062
 C         -0.001 -0.038 -0.040    0.029 -0.043  0.053    0.026  0.031 -0.049
 C          0.021  0.005  0.002   -0.017  0.059 -0.021   -0.078 -0.015 -0.053
 C          0.025  0.020  0.028   -0.020  0.074  0.077    0.042 -0.066  0.083
 N          0.001 -0.039 -0.005   -0.026 -0.041  0.018    0.070  0.070 -0.024
 H         -0.110 -0.188  0.086    0.304  0.407  0.630   -0.025 -0.079  0.344
 H          0.002  0.152  0.114    0.127  0.083  0.339    0.046  0.027 -0.121
 H          0.243  0.004 -0.404   -0.006  0.010 -0.039    0.189 -0.104  0.103
 H          0.003  0.002 -0.109   -0.027 -0.022 -0.039    0.055  0.192  0.635
 H          0.004  0.008 -0.122   -0.023  0.072 -0.310   -0.129 -0.160 -0.398
 C          0.051  0.018 -0.027   -0.092 -0.031 -0.004    0.070  0.027 -0.030
 H          0.752  0.162  0.157    0.177  0.015  0.067   -0.262 -0.058 -0.130
 TransDip   0.066  0.033 -0.000    0.032  0.058  0.050   -0.043 -0.050  0.056

 Mode:                13                     14                     15
 Frequency:       918.17                 961.34                 976.07
 Force Cnst:      0.8951                 0.9343                 1.7950
 Red. Mass:       1.8020                 1.7159                 3.1978
 IR Active:          YES                    YES                    YES
 IR Intens:        8.807                  8.095                  6.533
 Raman Active:       YES                    YES                    YES
               X      Y      Z        X      Y      Z        X      Y      Z
 C          0.101  0.046  0.061   -0.047 -0.045  0.035   -0.043 -0.030  0.016
 C         -0.006 -0.049 -0.078    0.064  0.027 -0.017   -0.005  0.231 -0.087
 C          0.061 -0.080  0.075    0.001 -0.086  0.073   -0.043 -0.007  0.097
 C         -0.064  0.031 -0.087   -0.126  0.025  0.068    0.182  0.001 -0.072
 C         -0.031  0.086  0.028    0.006  0.108 -0.025    0.080  0.005 -0.017
 N          0.001 -0.029  0.003    0.054  0.012 -0.030   -0.153 -0.179  0.100
 H         -0.077 -0.113 -0.501   -0.025 -0.118  0.127   -0.027  0.057  0.075
 H         -0.050 -0.075 -0.019    0.027 -0.025 -0.308    0.067  0.256 -0.478
 H          0.332 -0.144 -0.084    0.488 -0.349  0.153    0.118 -0.099  0.143
 H          0.062  0.096  0.627   -0.231 -0.090 -0.443    0.256  0.302  0.183
 H         -0.014  0.096 -0.271    0.191  0.209  0.082    0.095  0.010 -0.026
 C         -0.095  0.012  0.013    0.020 -0.001 -0.054    0.004 -0.024 -0.030
 H          0.132  0.002  0.061   -0.215 -0.120 -0.144   -0.462 -0.138 -0.166
 TransDip   0.023  0.060 -0.070   -0.058 -0.062 -0.032   -0.010  0.066 -0.048

 Mode:                16                     17                     18
 Frequency:       988.48                1044.95                1057.29
 Force Cnst:      0.9618                 0.8955                 2.0092
 Red. Mass:       1.6707                 1.3919                 3.0506
 IR Active:          YES                    YES                    YES
 IR Intens:       20.325                  0.630                  2.862
 Raman Active:       YES                    YES                    YES
               X      Y      Z        X      Y      Z        X      Y      Z
 C          0.005 -0.013  0.026   -0.046  0.005  0.038    0.132  0.025 -0.070
 C         -0.106  0.076 -0.079    0.033 -0.049 -0.120   -0.182  0.002  0.090
 C          0.108 -0.003 -0.078   -0.022  0.013  0.064   -0.120 -0.118 -0.087
 C         -0.044  0.015  0.020   -0.028  0.030  0.010    0.028 -0.043 -0.007
 C         -0.034  0.045 -0.009    0.030 -0.062 -0.003   -0.038  0.136 -0.008
 N          0.045 -0.037  0.012   -0.002  0.008 -0.003   -0.028 -0.012  0.008
 H         -0.032 -0.236 -0.042   -0.089 -0.043 -0.086    0.182  0.130  0.055
 H          0.196  0.335  0.382    0.394  0.268  0.552   -0.299 -0.065  0.373
 H         -0.312 -0.107  0.618    0.131  0.157 -0.432    0.294 -0.200 -0.359
 H         -0.052 -0.183  0.056   -0.037  0.097 -0.077    0.037  0.071  0.043
 H          0.084  0.105 -0.062    0.041 -0.058  0.048   -0.020  0.153 -0.104
 C          0.038 -0.080  0.022    0.031  0.023  0.021    0.234  0.018  0.082
 H         -0.132  0.118  0.052   -0.392 -0.054 -0.086   -0.438 -0.164 -0.108
 TransDip  -0.019 -0.013  0.143    0.009 -0.023 -0.005    0.039  0.034 -0.014

 Mode:                19                     20                     21
 Frequency:      1099.84                1180.41                1227.16
 Force Cnst:      1.2444                 1.3494                 1.3460
 Red. Mass:       1.7460                 1.6438                 1.5170
 IR Active:          YES                    YES                    YES
 IR Intens:        8.487                 20.508                  0.247
 Raman Active:       YES                    YES                    YES
               X      Y      Z        X      Y      Z        X      Y      Z
 C         -0.028  0.060 -0.016    0.031 -0.034  0.013    0.045 -0.027 -0.002
 C         -0.040 -0.070  0.016   -0.026  0.008 -0.027    0.027  0.003 -0.007
 C          0.061 -0.020 -0.073   -0.015  0.112  0.085    0.012 -0.076 -0.066
 C         -0.033  0.089  0.025    0.086  0.013  0.006    0.026  0.066  0.021
 C          0.125 -0.084 -0.015   -0.075 -0.016  0.013   -0.133 -0.007  0.013
 N         -0.102  0.003  0.021    0.016  0.022 -0.019    0.053 -0.017 -0.004
 H         -0.051  0.299 -0.134    0.029 -0.153  0.036    0.061 -0.244  0.075
 H         -0.094 -0.095  0.183   -0.344 -0.167  0.445    0.265  0.144 -0.246
 H          0.287 -0.304  0.346    0.438 -0.161  0.270   -0.049 -0.069 -0.040
 H         -0.033  0.605 -0.227    0.084  0.037 -0.059    0.033  0.622 -0.177
 H          0.170 -0.062 -0.023   -0.437 -0.201  0.152   -0.495 -0.187  0.139
 C         -0.002 -0.019  0.021   -0.003 -0.055 -0.128   -0.019  0.036  0.062
 H          0.140  0.045  0.071    0.029  0.002 -0.120   -0.040  0.025  0.066
 TransDip   0.081  0.046 -0.001   -0.011 -0.089  0.114    0.001  0.010 -0.013

 Mode:                22                     23                     24
 Frequency:      1299.82                1375.22                1389.74
 Force Cnst:      1.5128                 2.2833                 2.3356
 Red. Mass:       1.5197                 2.0491                 2.0525
 IR Active:          YES                    YES                    YES
 IR Intens:        2.324                  2.075                 10.759
 Raman Active:       YES                    YES                    YES
               X      Y      Z        X      Y      Z        X      Y      Z
 C          0.018  0.002 -0.010   -0.067  0.029 -0.002   -0.056 -0.115  0.070
 C         -0.008 -0.064  0.001   -0.103  0.005  0.060    0.118  0.090 -0.085
 C         -0.133  0.095 -0.078    0.049 -0.059  0.055   -0.034  0.002 -0.071
 C          0.042 -0.015  0.005    0.023  0.115  0.013   -0.048 -0.088 -0.001
 C          0.014  0.013 -0.002   -0.075 -0.061  0.021    0.061  0.095 -0.028
 N          0.016 -0.021  0.005    0.145 -0.082  0.007    0.046 -0.006 -0.020
 H          0.018  0.198 -0.077   -0.114  0.810 -0.357   -0.106  0.625 -0.235
 H          0.522  0.285 -0.155    0.045  0.100 -0.128   -0.332 -0.189  0.218
 H          0.455 -0.300  0.212   -0.047  0.046 -0.084   -0.109 -0.025  0.046
 H          0.031 -0.373  0.068   -0.003 -0.180 -0.039   -0.033  0.117  0.061
 H         -0.114 -0.054 -0.008   -0.097 -0.083  0.018   -0.410 -0.128  0.134
 C         -0.038  0.011  0.065    0.028  0.008 -0.094   -0.009 -0.012  0.108
 H          0.118  0.027  0.113   -0.073  0.003 -0.133   -0.051  0.009  0.128
 TransDip   0.037  0.017 -0.028    0.009  0.040 -0.020   -0.092 -0.035  0.037

 Mode:                25                     26                     27
 Frequency:      1424.33                1465.67                1594.14
 Force Cnst:      2.2572                 3.1399                 7.7849
 Red. Mass:       1.8884                 2.4808                 5.1994
 IR Active:          YES                    YES                    YES
 IR Intens:        1.702                  5.131                 23.013
 Raman Active:       YES                    YES                    YES
               X      Y      Z        X      Y      Z        X      Y      Z
 C         -0.059  0.035 -0.001   -0.052  0.064 -0.009   -0.170  0.390 -0.134
 C          0.065  0.012 -0.035    0.120  0.058 -0.054    0.040 -0.061  0.007
 C         -0.054  0.048 -0.036   -0.066 -0.112 -0.093   -0.007  0.043  0.008
 C          0.080 -0.100  0.013    0.059  0.229 -0.012   -0.065 -0.132  0.030
 C         -0.176 -0.038  0.044   -0.026 -0.115  0.017    0.105  0.132 -0.041
 N          0.094 -0.017 -0.003    0.007 -0.019  0.015    0.146 -0.275  0.080
 H         -0.065  0.100 -0.048   -0.047 -0.278  0.104   -0.113 -0.416  0.261
 H         -0.115 -0.095  0.143   -0.413 -0.296  0.151   -0.123 -0.167  0.160
 H          0.117 -0.076  0.075    0.047 -0.241  0.009    0.022  0.054 -0.028
 H          0.110  0.388 -0.058    0.031 -0.620  0.114   -0.070  0.130 -0.003
 H          0.681  0.381 -0.240    0.048 -0.098 -0.016   -0.500 -0.170  0.089
 C         -0.026  0.003  0.026   -0.005  0.028  0.095   -0.012 -0.004 -0.006
 H          0.007  0.033  0.052   -0.124  0.001  0.092    0.048  0.013  0.014
 TransDip   0.019  0.008  0.036    0.026 -0.063 -0.025    0.032  0.146 -0.035

 Mode:                28                     29                     30
 Frequency:      3125.94                3144.93                3170.03
 Force Cnst:      6.2519                 6.3525                 6.4607
 Red. Mass:       1.0859                 1.0901                 1.0912
 IR Active:          YES                    YES                    YES
 IR Intens:        7.384                 34.674                 16.524
 Raman Active:       YES                    YES                    YES
               X      Y      Z        X      Y      Z        X      Y      Z
 C         -0.032  0.003  0.009   -0.075  0.004  0.023    0.002 -0.000 -0.000
 C          0.044 -0.063  0.007   -0.018  0.029 -0.004    0.005 -0.004 -0.000
 C          0.001  0.004  0.001   -0.001 -0.003 -0.001   -0.032 -0.070 -0.030
 C         -0.003 -0.000  0.001    0.000 -0.000  0.000    0.024  0.002 -0.005
 C          0.001  0.000 -0.000    0.001  0.003 -0.000   -0.004  0.006 -0.000
 N         -0.001  0.000 -0.000   -0.001 -0.000  0.000   -0.000 -0.000  0.000
 H          0.382 -0.030 -0.114    0.870 -0.062 -0.266   -0.018  0.001  0.005
 H         -0.520  0.745 -0.069    0.221 -0.327  0.033   -0.042  0.054 -0.007
 H         -0.018 -0.045 -0.021    0.015  0.038  0.017    0.369  0.799  0.341
 H          0.023 -0.001 -0.004   -0.003 -0.000  0.001   -0.288  0.018  0.050
 H          0.000 -0.002 -0.001    0.018 -0.037  0.000    0.037 -0.072  0.001
 C          0.001  0.000 -0.001   -0.000 -0.000  0.001    0.001  0.001 -0.002
 H         -0.003 -0.002  0.016    0.001  0.004 -0.014   -0.012 -0.019  0.066
 TransDip   0.022 -0.083  0.016   -0.175  0.063  0.030   -0.018 -0.118 -0.052

 Mode:                31                     32                     33
 Frequency:      3178.50                3198.45                3267.30
 Force Cnst:      6.4752                 6.5911                 6.9047
 Red. Mass:       1.0878                 1.0935                 1.0978
 IR Active:          YES                    YES                    YES
 IR Intens:        7.829                 19.612                  0.419
 Raman Active:       YES                    YES                    YES
               X      Y      Z        X      Y      Z        X      Y      Z
 C         -0.001  0.001 -0.000   -0.004  0.001  0.001   -0.001 -0.000  0.001
 C          0.001  0.001  0.000   -0.001  0.001 -0.000   -0.005  0.002  0.002
 C         -0.010 -0.023 -0.009    0.002  0.006  0.002    0.005  0.007  0.006
 C         -0.071  0.005  0.012    0.041 -0.000 -0.007    0.001 -0.001 -0.000
 C          0.017 -0.033  0.000    0.032 -0.071  0.002    0.001 -0.001  0.000
 N          0.001 -0.000  0.000    0.000 -0.000  0.000   -0.000  0.000 -0.000
 H          0.005 -0.001 -0.002    0.035 -0.003 -0.011    0.008 -0.000 -0.002
 H          0.004 -0.008 -0.000    0.003 -0.005  0.001    0.015 -0.017  0.002
 H          0.113  0.251  0.104   -0.023 -0.054 -0.021   -0.029 -0.057 -0.022
 H          0.822 -0.062 -0.142   -0.446  0.028  0.078   -0.014  0.002 -0.001
 H         -0.205  0.405 -0.005   -0.393  0.791 -0.009   -0.005  0.011  0.000
 C          0.001  0.001 -0.001   -0.001 -0.000  0.001    0.017  0.025 -0.084
 H         -0.006 -0.008  0.026    0.004  0.007 -0.021   -0.181 -0.322  0.922
 TransDip  -0.065 -0.058 -0.021    0.119 -0.078  0.005   -0.004 -0.015  0.014

 STANDARD THERMODYNAMIC QUANTITIES AT   298.15 K  AND     1.00 ATM

   This Molecule has  1 Imaginary Frequencies
   Zero point vibrational energy:       62.991 kcal/mol

   Atom    1 Element C  Has Mass   12.00000
   Atom    2 Element C  Has Mass   12.00000
   Atom    3 Element C  Has Mass   12.00000
   Atom    4 Element C  Has Mass   12.00000
   Atom    5 Element C  Has Mass   12.00000
   Atom    6 Element N  Has Mass   14.00307
   Atom    7 Element H  Has Mass    1.00783
   Atom    8 Element H  Has Mass    1.00783
   Atom    9 Element H  Has Mass    1.00783
   Atom   10 Element H  Has Mass    1.00783
   Atom   11 Element H  Has Mass    1.00783
   Atom   12 Element C  Has Mass   12.00000
   Atom   13 Element H  Has Mass    1.00783
   Molecular Mass:    92.050050 amu
   Principal axes and moments of inertia in amu*Bohr^2:
                             1           2           3
    Eigenvalues --      359.42254   492.44341   727.73935
          X               0.35996     0.92605     0.11344
          Y               0.81611    -0.37146     0.44270
          Z              -0.45210     0.06678     0.88947
   Rotational Symmetry Number is   1
   The Molecule is an Asymmetric Top
   Translational Enthalpy:        0.889 kcal/mol
   Rotational Enthalpy:           0.889 kcal/mol
   Vibrational Enthalpy:         64.402 kcal/mol
   gas constant (RT):             0.592 kcal/mol
   Translational Entropy:        39.471  cal/mol.K
   Rotational Entropy:           26.357  cal/mol.K
   Vibrational Entropy:           6.613  cal/mol.K

   Total Enthalpy:               66.772 kcal/mol
   Total Entropy:                72.441  cal/mol.K
Archival summary:
1\1\c8-90\FREQ\ProcedureUnspecified\6-31+G**\166(2)\hpark21\WedMar201:16:412022WedMar201:16:412022\0\\#,FREQ,ProcedureUnspecified,6-31+G**,\\0,2\N\C,1,1.29673\H,2,1.09067,1,117.996\C,1,1.37216,2,116.617,3,173.02,0\H,4,1.08606,1,116.518,2,164.423,0\C,4,1.39454,1,123.236,2,-13.4371,0\H,6,1.0878,4,119.287,1,-178.457,0\C,6,1.47482,4,123.349,1,-1.29024,0\H,8,1.08672,6,126.871,4,-136.204,0\C,8,1.45242,6,85.21,4,83.7011,0\H,10,1.07949,8,136.345,6,118.239,0\C,10,1.4786,8,63.7559,6,-110.406,0\H,12,1.0907,10,115.663,8,-105.32,0\\\@

 Total job time:  633.85s(wall), 571.00s(cpu) 
 Wed Mar  2 01:16:41 2022

        *************************************************************
        *                                                           *
        *  Thank you very much for using Q-Chem.  Have a nice day.  *
        *                                                           *
        *************************************************************


