13
image # 1 Energy = -286.85495
C 1.46829   0.44308   -0.35339  
C 0.88440   -0.78568  0.21519   
C -0.74495  -0.80692  0.17339   
C -1.31234  0.45433   -0.33130  
C -0.54855  1.54224   -0.57507  
N 0.84583   1.53553   -0.63423  
H 2.52979   0.39802   -0.60898  
H 1.44228   -1.69950  0.00143   
H -1.25800  -1.72814  -0.10870  
H -2.38311  0.48734   -0.51715  
H -1.00368  2.48094   -0.88026  
C 0.03540   -0.79604  1.40881   
H 0.04465   -1.52522  2.21027   
13
image # 2 Energy = -286.85429
C 1.47595   0.43845   -0.36259  
C 0.88171   -0.78419  0.21262   
C -0.73630  -0.81796  0.15190   
C -1.31474  0.44382   -0.32937  
C -0.54402  1.54678   -0.56874  
N 0.84797   1.53501   -0.64677  
H 2.53359   0.39644   -0.61537  
H 1.44846   -1.69789  0.02068   
H -1.24614  -1.74376  -0.14276  
H -2.38087  0.49050   -0.46800  
H -1.00339  2.47509   -0.86574  
C 0.02233   -0.79124  1.39604   
H 0.01516   -1.49213  2.21647   
13
image # 3 Energy = -286.85353
C 1.47853   0.44605   -0.37533  
C 0.87994   -0.78093  0.21439   
C -0.72063  -0.81706  0.13643   
C -1.31235  0.44336   -0.33739  
C -0.55227  1.53473   -0.56402  
N 0.86219   1.52093   -0.65855  
H 2.53603   0.39341   -0.62394  
H 1.45635   -1.69796  0.03979   
H -1.23441  -1.76480  -0.18212  
H -2.38278  0.49615   -0.42000  
H -1.00482  2.47461   -0.84462  
C 0.00645   -0.79114  1.38636   
H -0.01269  -1.45949  2.22604   
13
image # 4 Energy = -286.85340
C 1.47649   0.43847   -0.37615  
C 0.88723   -0.78250  0.20885   
C -0.72497  -0.85053  0.10180   
C -1.30327  0.44013   -0.31798  
C -0.54069  1.53609   -0.56614  
N 0.85361   1.52292   -0.67191  
H 2.54362   0.39045   -0.63150  
H 1.45820   -1.69387  0.05539   
H -1.21666  -1.76715  -0.20739  
H -2.38246  0.49628   -0.38159  
H -1.00538  2.47471   -0.82988  
C -0.00824  -0.77504  1.38190   
H -0.03846  -1.43227  2.23074   
13
image # 5 Energy = -286.85252
C 1.48003   0.43532   -0.38504  
C 0.87974   -0.77840  0.20847   
C -0.71215  -0.86061  0.08272   
C -1.29328  0.43646   -0.31387  
C -0.53772  1.52691   -0.55767  
N 0.85539   1.52085   -0.68525  
H 2.54870   0.38891   -0.63731  
H 1.46359   -1.69281  0.07491   
H -1.20582  -1.78380  -0.24118  
H -2.38084  0.49662   -0.33089  
H -1.00656  2.47268   -0.81447  
C -0.02317  -0.76423  1.35762   
H -0.06922  -1.40062  2.23703   
13
image # 6 Energy = -286.85072
C 1.48305   0.43226   -0.38948  
C 0.87674   -0.78164  0.21056   
C -0.70205  -0.88467  0.05918   
C -1.28887  0.42823   -0.28822  
C -0.52530  1.52474   -0.56498  
N 0.84839   1.52025   -0.69651  
H 2.55092   0.38630   -0.64354  
H 1.46812   -1.69162  0.08927   
H -1.19143  -1.79092  -0.26835  
H -2.37447  0.49570   -0.29243  
H -1.00797  2.47530   -0.79737  
C -0.04239  -0.73842  1.32646   
H -0.09659  -1.37859  2.24975   
13
image # 7 Energy = -286.85005
C 1.47950   0.42261   -0.39472  
C 0.87983   -0.77295  0.20787   
C -0.69693  -0.87745  0.03516   
C -1.26865  0.40980   -0.29460  
C -0.53403  1.52298   -0.56458  
N 0.85152   1.51378   -0.72122  
H 2.55770   0.38212   -0.65479  
H 1.47357   -1.68894  0.11137   
H -1.17136  -1.81016  -0.31005  
H -2.38065  0.50007   -0.24187  
H -1.00457  2.47388   -0.76265  
C -0.06128  -0.74401  1.33261   
H -0.12737  -1.33525  2.25115   
13
image # 8 Energy = -286.84839
C 1.49604   0.43307   -0.41395  
C 0.87798   -0.77918  0.21269   
C -0.68847  -0.89868  0.01568   
C -1.27930  0.41706   -0.29957  
C -0.53649  1.51494   -0.55846  
N 0.85794   1.50065   -0.73604  
H 2.54930   0.37830   -0.65956  
H 1.47349   -1.68027  0.13167   
H -1.15337  -1.81936  -0.34280  
H -2.36459  0.49812   -0.19690  
H -1.00431  2.47103   -0.73684  
C -0.07596  -0.74047  1.32798   
H -0.15582  -1.29888  2.24936   
13
image # 9 Energy = -286.84670
C 1.49165   0.42932   -0.41985  
C 0.87370   -0.77339  0.20963   
C -0.67946  -0.91171  -0.00486  
C -1.27569  0.41127   -0.28697  
C -0.52885  1.50759   -0.55420  
N 0.85715   1.49892   -0.74769  
H 2.55568   0.37678   -0.66546  
H 1.47505   -1.67860  0.14934   
H -1.14290  -1.83138  -0.36957  
H -2.35143  0.49390   -0.15569  
H -1.00513  2.46921   -0.72037  
C -0.09162  -0.72959  1.31504   
H -0.18277  -1.26598  2.24379   
13
image # 10 Energy = -286.84514
C 1.49400   0.42506   -0.43015  
C 0.87723   -0.76392  0.20787   
C -0.67193  -0.91844  -0.02133  
C -1.27462  0.40401   -0.30059  
C -0.52856  1.49951   -0.55229  
N 0.85769   1.48793   -0.76777  
H 2.55355   0.37174   -0.67732  
H 1.47754   -1.67522  0.17540   
H -1.11890  -1.84149  -0.41124  
H -2.34010  0.49259   -0.10185  
H -1.00456  2.46727   -0.68304  
C -0.10654  -0.72686  1.30270   
H -0.22022  -1.22568  2.25284   
13
image # 11 Energy = -286.84306
C 1.49248   0.42386   -0.43853  
C 0.87303   -0.77103  0.21183   
C -0.66400  -0.92821  -0.04119  
C -1.26994  0.39806   -0.29081  
C -0.52484  1.49523   -0.55002  
N 0.85570   1.48947   -0.77778  
H 2.55900   0.36924   -0.68704  
H 1.47830   -1.67069  0.19427   
H -1.10624  -1.85270  -0.43974  
H -2.32761  0.48713   -0.06065  
H -1.00403  2.46434   -0.66541  
C -0.11687  -0.71972  1.29237   
H -0.25114  -1.18815  2.24618   
13
image # 12 Energy = -286.84126
C 1.49529   0.42163   -0.44684  
C 0.87305   -0.76365  0.21119   
C -0.66069  -0.93835  -0.05511  
C -1.26822  0.39319   -0.29910  
C -0.52745  1.49324   -0.54761  
N 0.85770   1.48165   -0.78667  
H 2.55804   0.36605   -0.69927  
H 1.48375   -1.67286  0.21568   
H -1.08797  -1.85795  -0.47148  
H -2.31638  0.48358   -0.01525  
H -1.00351  2.46145   -0.64377  
C -0.12297  -0.72114  1.28102   
H -0.28731  -1.14970  2.25102   
13
image # 13 Energy = -286.83804
C 1.49787   0.42133   -0.45192  
C 0.86817   -0.76358  0.19745   
C -0.65711  -0.95693  -0.06908  
C -1.24508  0.39010   -0.25772  
C -0.51659  1.49427   -0.53972  
N 0.85946   1.48770   -0.77279  
H 2.56182   0.37106   -0.69151  
H 1.47654   -1.67215  0.22302   
H -1.10247  -1.87439  -0.47731  
H -2.30658  0.47375   0.01263   
H -1.00804  2.45368   -0.66840  
C -0.13508  -0.69530  1.26582   
H -0.30010  -1.13209  2.22367   
13
image # 14 Energy = -286.83315
C 1.50097   0.41915   -0.44996  
C 0.85863   -0.76544  0.18423   
C -0.64705  -0.98475  -0.09170  
C -1.21842  0.38158   -0.17296  
C -0.50269  1.50308   -0.53848  
N 0.85461   1.50110   -0.76062  
H 2.56561   0.37712   -0.67798  
H 1.47088   -1.67236  0.21644   
H -1.12322  -1.88637  -0.46148  
H -2.29685  0.46279   0.01193   
H -1.00939  2.44506   -0.69784  
C -0.16383  -0.65462  1.24041   
H -0.29693  -1.12846  2.19266   
13
image # 15 Energy = -286.83104
C 1.50559   0.41612   -0.44628  
C 0.85322   -0.77392  0.16961   
C -0.63373  -1.00195  -0.11708  
C -1.19725  0.36199   -0.08716  
C -0.48584  1.51182   -0.53844  
N 0.84795   1.51584   -0.75502  
H 2.56807   0.38203   -0.66636  
H 1.46557   -1.66909  0.21067   
H -1.13991  -1.89671  -0.44677  
H -2.28531  0.45238   0.01048   
H -1.01017  2.43848   -0.72050  
C -0.20122  -0.61650  1.21681   
H -0.29479  -1.12212  2.16530   
13
image # 16 Energy = -286.83465
C 1.50920   0.41600   -0.44463  
C 0.85687   -0.77862  0.15330   
C -0.62715  -1.01427  -0.14231  
C -1.18276  0.34844   -0.01350  
C -0.47524  1.51206   -0.53360  
N 0.85036   1.52354   -0.75004  
H 2.56720   0.38616   -0.65621  
H 1.46233   -1.66685  0.20975   
H -1.15310  -1.90630  -0.43785  
H -2.26912  0.44108   0.01741   
H -1.01360  2.43392   -0.74171  
C -0.23264  -0.58145  1.18760   
H -0.29992  -1.11499  2.14766   
13
image # 17 Energy = -286.84033
C 1.50561   0.40694   -0.44206  
C 0.85885   -0.78088  0.13904   
C -0.62240  -1.02140  -0.16579  
C -1.15589  0.34741   0.03077   
C -0.46717  1.49431   -0.51757  
N 0.85054   1.53714   -0.74981  
H 2.57487   0.38928   -0.65234  
H 1.46151   -1.66449  0.21849   
H -1.15981  -1.91600  -0.44313  
H -2.26029  0.42935   0.04711   
H -1.02147  2.43187   -0.76040  
C -0.25240  -0.56100  1.16302   
H -0.31906  -1.09347  2.12928   
13
image # 18 Energy = -286.84554
C 1.52313   0.40496   -0.44804  
C 0.83407   -0.76631  0.13280   
C -0.61032  -1.03864  -0.18495  
C -1.14504  0.33701   0.06852   
C -0.47142  1.51378   -0.51639  
N 0.84931   1.53301   -0.74822  
H 2.56939   0.38935   -0.65359  
H 1.46980   -1.67115  0.23083   
H -1.15565  -1.91958  -0.45866  
H -2.24287  0.42138   0.07899   
H -1.01621  2.41159   -0.76368  
C -0.27068  -0.55140  1.15107   
H -0.34007  -1.06469  2.10871   
13
image # 19 Energy = -286.84986
C 1.51571   0.41830   -0.45945  
C 0.84362   -0.78268  0.13138   
C -0.60899  -1.04268  -0.20244  
C -1.14034  0.33774   0.07778   
C -0.46219  1.50249   -0.50661  
N 0.85449   1.52155   -0.75097  
H 2.57495   0.38572   -0.66184  
H 1.47018   -1.66315  0.25355   
H -1.14233  -1.92603  -0.49134  
H -2.23216  0.41373   0.13201   
H -1.02487  2.41131   -0.76205  
C -0.27644  -0.54980  1.13505   
H -0.37760  -1.02719  2.10300   
13
image # 20 Energy = -286.85148
C 1.50886   0.40820   -0.45925  
C 0.84911   -0.77875  0.12701   
C -0.60125  -1.04487  -0.21687  
C -1.13390  0.32065   0.10526   
C -0.46951  1.50157   -0.50249  
N 0.86406   1.52262   -0.76089  
H 2.57877   0.38385   -0.67258  
H 1.47111   -1.65956  0.27061   
H -1.13167  -1.93592  -0.52108  
H -2.21327  0.40850   0.16788   
H -1.02419  2.40548   -0.75458  
C -0.29896  -0.53878  1.12390   
H -0.40429  -0.99387  2.09186   
13
image # 21 Energy = -286.85617
C 1.51351   0.40693   -0.46766  
C 0.84996   -0.78275  0.12967   
C -0.59693  -1.05337  -0.22749  
C -1.11631  0.32479   0.10585   
C -0.46571  1.50458   -0.50124  
N 0.85241   1.51484   -0.76381  
H 2.57963   0.37994   -0.68276  
H 1.47327   -1.65445  0.29244   
H -1.11541  -1.94236  -0.55756  
H -2.21181  0.40356   0.21964   
H -1.02418  2.39557   -0.74368  
C -0.30061  -0.53840  1.10254   
H -0.44164  -0.95948  2.09332   
13
image # 22 Energy = -286.85759
C 1.51358   0.39884   -0.47216  
C 0.85557   -0.77928  0.12681   
C -0.59628  -1.07015  -0.25012  
C -1.12831  0.32778   0.10819   
C -0.45705  1.49432   -0.49811  
N 0.84904   1.51500   -0.77104  
H 2.58118   0.37686   -0.69260  
H 1.47716   -1.65414  0.31325   
H -1.09724  -1.94301  -0.58959  
H -2.19176  0.39829   0.26529   
H -1.02998  2.39730   -0.73436  
C -0.30430  -0.54087  1.11180   
H -0.47374  -0.92134  2.08217   
13
image # 23 Energy = -286.85846
C 1.51646   0.39693   -0.48016  
C 0.85299   -0.78149  0.12664   
C -0.59205  -1.06316  -0.25339  
C -1.11478  0.31553   0.11408   
C -0.45457  1.49591   -0.49378  
N 0.84649   1.50898   -0.77653  
H 2.58236   0.37434   -0.69849  
H 1.47703   -1.64921  0.33429   
H -1.08463  -1.95285  -0.62025  
H -2.18251  0.39223   0.31257   
H -1.03197  2.38926   -0.72398  
C -0.30683  -0.53839  1.07798   
H -0.50798  -0.88808  2.08101   
