13   
From qcopt_rct.out: Frame 3 / 3, Energy=    -286.8549501785
C        1.4682868321    0.4430805743   -0.3533865526
C        0.8844022873   -0.7856752825    0.2151865042
C       -0.7449520357   -0.8069154899    0.1733851284
C       -1.3123418507    0.4543349172   -0.3313042279
C       -0.5485538449    1.5422439192   -0.5750737492
N        0.8458281931    1.5355327297   -0.6342302106
H        2.5297900783    0.3980229984   -0.6089834875
H        1.4422790578   -1.6995033966    0.0014279069
H       -1.2580007387   -1.7281406933   -0.1086990447
H       -2.3831085016    0.4873436658   -0.5171458804
H       -1.0036800811    2.4809373004   -0.8802618728
C        0.0353959252   -0.7960443043    1.4088119362
H        0.0446546791   -1.5252169379    2.2102735501
13   
From qcopt_prd.out: Frame 2 / 2, Energy=    -286.8584562412
C        1.5164453084    0.3970222276   -0.4801239439
C        0.8530395677   -0.7814352775    0.1266787600
C       -0.5919705350   -1.0631990086   -0.2533895305
C       -1.1148078620    0.3154644788    0.1140434293
C       -0.4546574914    1.4958704863   -0.4938079486
N        0.8464149501    1.5090209217   -0.7765295707
H        2.5823589227    0.3744990098   -0.6984255131
H        1.4771284433   -1.6491137615    0.3343578233
H       -1.0844877022   -1.9529302133   -0.6202567259
H       -2.1825490230    0.3920951705    0.3125006709
H       -1.0321072959    2.3891884563   -0.7240367870
C       -0.3068280923   -0.5383995524    1.0779775531
H       -0.5079791906   -0.8880829378    2.0810117830
