13   
From optimize.out: Frame 1 / 34, Energy=    -286.6523577294
C        0.0521800000   -0.0048590000   -0.0000000000
C       -0.1963680000    0.0065300000   -0.0000000000
C       -0.2137860000    0.8383960000   -0.0000000000
C       -0.1540940000   -0.2559100000   -0.0000000000
C        0.0074270000   -0.0126270000   -0.0000000000
N       -0.3720980000    0.0193660000   -0.0000000000
H        0.1697930000    0.0053860000   -0.0000000000
H        0.1645360000    0.0006960000   -0.0000000000
H        0.1786120000   -0.0398940000   -0.0000000000
H        0.1573630000    0.0498010000   -0.0000000000
H        0.1824750000    0.0052450000   -0.0000000000
C       -0.1422730000    0.4007510000   -0.0000000000
H        0.1662330000   -0.0128810000   -0.0000000000
13   
From optimize.out: Frame 2 / 34, Energy=    -286.7084285802
C        0.0421880000    0.0051540000   -0.0000000000
C       -0.1820320000   -0.0112120000   -0.0000000000
C       -0.2142210000    0.8923210000   -0.0000000000
C       -0.1496190000   -0.1992600000   -0.0000000000
C        0.0105920000   -0.0064710000   -0.0000000000
N       -0.3581150000    0.0176420000   -0.0000000000
H        0.1618600000    0.0053580000   -0.0000000000
H        0.1604900000    0.0039890000   -0.0000000000
H        0.1746120000   -0.0403420000   -0.0000000000
H        0.1572810000    0.0444760000   -0.0000000000
H        0.1758790000    0.0041010000   -0.0000000000
C       -0.1418860000    0.2956640000   -0.0000000000
H        0.1629710000   -0.0114210000   -0.0000000000
13   
From optimize.out: Frame 3 / 34, Energy=    -286.7534209116
C        0.0320260000    0.0127250000   -0.0000000000
C       -0.1672420000   -0.0258400000   -0.0000000000
C       -0.2109540000    0.9489630000   -0.0000000000
C       -0.1493020000   -0.1297030000   -0.0000000000
C        0.0129920000   -0.0069400000   -0.0000000000
N       -0.3488530000    0.0179890000   -0.0000000000
H        0.1556490000    0.0052320000   -0.0000000000
H        0.1564390000    0.0079630000   -0.0000000000
H        0.1691780000   -0.0416950000   -0.0000000000
H        0.1576270000    0.0370000000   -0.0000000000
H        0.1702490000    0.0030370000   -0.0000000000
C       -0.1362090000    0.1795980000   -0.0000000000
H        0.1584010000   -0.0083290000   -0.0000000000
13   
From optimize.out: Frame 4 / 34, Energy=    -286.7880553400
C        0.0247960000    0.0183250000   -0.0000000000
C       -0.1561060000   -0.0372080000   -0.0000000000
C       -0.2056010000    0.9896490000   -0.0000000000
C       -0.1513540000   -0.0656910000   -0.0000000000
C        0.0142190000   -0.0088260000   -0.0000000000
N       -0.3445620000    0.0179940000   -0.0000000000
H        0.1509080000    0.0048820000   -0.0000000000
H        0.1526310000    0.0120630000   -0.0000000000
H        0.1645520000   -0.0431610000   -0.0000000000
H        0.1584360000    0.0294790000   -0.0000000000
H        0.1654180000    0.0022010000   -0.0000000000
C       -0.1268720000    0.0837620000   -0.0000000000
H        0.1535340000   -0.0034700000   -0.0000000000
13   
From optimize.out: Frame 5 / 34, Energy=    -286.8130524150
C        0.0217640000    0.0234560000   -0.0000000000
C       -0.1503320000   -0.0471710000   -0.0000000000
C       -0.1993100000    1.0133160000   -0.0000000000
C       -0.1530890000   -0.0206660000   -0.0000000000
C        0.0148040000   -0.0078760000   -0.0000000000
N       -0.3436230000    0.0152970000   -0.0000000000
H        0.1473590000    0.0044760000   -0.0000000000
H        0.1495880000    0.0158420000   -0.0000000000
H        0.1613920000   -0.0442790000   -0.0000000000
H        0.1588810000    0.0234020000   -0.0000000000
H        0.1608820000    0.0014060000   -0.0000000000
C       -0.1179410000    0.0194840000   -0.0000000000
H        0.1496240000    0.0033110000   -0.0000000000
13   
From optimize.out: Frame 6 / 34, Energy=    -286.8296286782
C        0.0219050000    0.0289820000   -0.0000000000
C       -0.1481240000   -0.0563680000   -0.0000000000
C       -0.1942760000    1.0258010000   -0.0000000000
C       -0.1522170000    0.0058970000   -0.0000000000
C        0.0156430000   -0.0042130000   -0.0000000000
N       -0.3447020000    0.0106170000   -0.0000000000
H        0.1450800000    0.0041570000   -0.0000000000
H        0.1476500000    0.0190450000   -0.0000000000
H        0.1598470000   -0.0447820000   -0.0000000000
H        0.1583120000    0.0188130000   -0.0000000000
H        0.1565990000    0.0006900000   -0.0000000000
C       -0.1132850000   -0.0193280000   -0.0000000000
H        0.1475690000    0.0106880000   -0.0000000000
13   
From optimize.out: Frame 7 / 34, Energy=    -286.8411117822
C        0.0229400000    0.0353520000   -0.0000000000
C       -0.1470410000   -0.0647040000   -0.0000000000
C       -0.1908600000    1.0316300000   -0.0000000000
C       -0.1491460000    0.0194800000   -0.0000000000
C        0.0168080000    0.0004300000   -0.0000000000
N       -0.3464640000    0.0055710000   -0.0000000000
H        0.1438630000    0.0038640000   -0.0000000000
H        0.1464790000    0.0215790000   -0.0000000000
H        0.1593910000   -0.0446970000   -0.0000000000
H        0.1567970000    0.0156350000   -0.0000000000
H        0.1529170000    0.0001480000   -0.0000000000
C       -0.1126250000   -0.0410010000   -0.0000000000
H        0.1469390000    0.0167120000   -0.0000000000
13   
From optimize.out: Frame 8 / 34, Energy=    -286.8501124817
C        0.0242110000    0.0429360000   -0.0000000000
C       -0.1465550000   -0.0727620000   -0.0000000000
C       -0.1883030000    1.0328120000   -0.0000000000
C       -0.1451440000    0.0273430000   -0.0000000000
C        0.0180350000    0.0050530000   -0.0000000000
N       -0.3487810000    0.0009440000   -0.0000000000
H        0.1432340000    0.0034950000   -0.0000000000
H        0.1455880000    0.0235340000   -0.0000000000
H        0.1593260000   -0.0443750000   -0.0000000000
H        0.1545790000    0.0134600000   -0.0000000000
H        0.1500400000   -0.0002530000   -0.0000000000
C       -0.1132960000   -0.0540090000   -0.0000000000
H        0.1470650000    0.0218220000   -0.0000000000
13   
From optimize.out: Frame 9 / 34, Energy=    -286.8575738859
C        0.0252580000    0.0529760000   -0.0000000000
C       -0.1459350000   -0.0816470000   -0.0000000000
C       -0.1861810000    1.0302910000   -0.0000000000
C       -0.1400870000    0.0329570000   -0.0000000000
C        0.0193900000    0.0098850000   -0.0000000000
N       -0.3516660000   -0.0030780000   -0.0000000000
H        0.1428080000    0.0029440000   -0.0000000000
H        0.1448920000    0.0252870000   -0.0000000000
H        0.1594640000   -0.0439440000   -0.0000000000
H        0.1522040000    0.0117070000   -0.0000000000
H        0.1477120000   -0.0005930000   -0.0000000000
C       -0.1153490000   -0.0624940000   -0.0000000000
H        0.1474900000    0.0257080000   -0.0000000000
13   
From optimize.out: Frame 10 / 34, Energy=    -286.8639529071
C        0.0259900000    0.0662200000   -0.0000000000
C       -0.1453610000   -0.0917670000   -0.0000000000
C       -0.1845060000    1.0228680000   -0.0000000000
C       -0.1352180000    0.0397310000   -0.0000000000
C        0.0207460000    0.0150100000   -0.0000000000
N       -0.3545980000   -0.0064450000   -0.0000000000
H        0.1425090000    0.0020990000   -0.0000000000
H        0.1441640000    0.0266150000   -0.0000000000
H        0.1594920000   -0.0435990000   -0.0000000000
H        0.1497170000    0.0101890000   -0.0000000000
H        0.1459280000   -0.0009090000   -0.0000000000
C       -0.1169480000   -0.0692920000   -0.0000000000
H        0.1480850000    0.0292810000   -0.0000000000
13   
From optimize.out: Frame 11 / 34, Energy=    -286.8694827069
C        0.0256010000    0.0851320000   -0.0000000000
C       -0.1432670000   -0.1044080000   -0.0000000000
C       -0.1834920000    1.0098010000   -0.0000000000
C       -0.1303490000    0.0487080000   -0.0000000000
C        0.0225350000    0.0209500000   -0.0000000000
N       -0.3574290000   -0.0088100000   -0.0000000000
H        0.1420980000    0.0008430000   -0.0000000000
H        0.1434870000    0.0279130000   -0.0000000000
H        0.1594380000   -0.0432710000   -0.0000000000
H        0.1476150000    0.0084550000   -0.0000000000
H        0.1444850000   -0.0012670000   -0.0000000000
C       -0.1190800000   -0.0754190000   -0.0000000000
H        0.1483580000    0.0313730000   -0.0000000000
13   
From optimize.out: Frame 12 / 34, Energy=    -286.8744346222
C        0.0245560000    0.1076380000   -0.0000000000
C       -0.1405690000   -0.1172220000   -0.0000000000
C       -0.1835870000    0.9890730000   -0.0000000000
C       -0.1273490000    0.0638900000   -0.0000000000
C        0.0242560000    0.0261460000   -0.0000000000
N       -0.3596200000   -0.0091820000   -0.0000000000
H        0.1417630000   -0.0007450000   -0.0000000000
H        0.1426300000    0.0284660000   -0.0000000000
H        0.1589190000   -0.0431100000   -0.0000000000
H        0.1455740000    0.0066260000   -0.0000000000
H        0.1435170000   -0.0015790000   -0.0000000000
C       -0.1187240000   -0.0835690000   -0.0000000000
H        0.1486340000    0.0335660000   -0.0000000000
13   
From optimize.out: Frame 13 / 34, Energy=    -286.8790599045
C        0.0219690000    0.1363420000   -0.0000000000
C       -0.1356180000   -0.1315180000   -0.0000000000
C       -0.1841980000    0.9610910000   -0.0000000000
C       -0.1249560000    0.0822440000   -0.0000000000
C        0.0265070000    0.0317700000   -0.0000000000
N       -0.3616920000   -0.0077230000   -0.0000000000
H        0.1412720000   -0.0027310000   -0.0000000000
H        0.1419300000    0.0289510000   -0.0000000000
H        0.1582080000   -0.0427720000   -0.0000000000
H        0.1440140000    0.0044290000   -0.0000000000
H        0.1427740000   -0.0019410000   -0.0000000000
C       -0.1184980000   -0.0919220000   -0.0000000000
H        0.1482860000    0.0337810000   -0.0000000000
13   
From optimize.out: Frame 14 / 34, Energy=    -286.8835562134
C        0.0186430000    0.1669450000   -0.0000000000
C       -0.1301270000   -0.1436770000   -0.0000000000
C       -0.1851830000    0.9252970000   -0.0000000000
C       -0.1244190000    0.1077630000   -0.0000000000
C        0.0285350000    0.0352780000   -0.0000000000
N       -0.3631570000   -0.0032630000   -0.0000000000
H        0.1408310000   -0.0048950000   -0.0000000000
H        0.1411650000    0.0286480000   -0.0000000000
H        0.1570850000   -0.0423400000   -0.0000000000
H        0.1425840000    0.0019770000   -0.0000000000
H        0.1422620000   -0.0021940000   -0.0000000000
C       -0.1162090000   -0.1031780000   -0.0000000000
H        0.1479900000    0.0336400000   -0.0000000000
13   
From optimize.out: Frame 15 / 34, Energy=    -286.8880239615
C        0.0143000000    0.1994520000   -0.0000000000
C       -0.1237030000   -0.1535890000   -0.0000000000
C       -0.1858300000    0.8827200000   -0.0000000000
C       -0.1250490000    0.1379000000   -0.0000000000
C        0.0308520000    0.0367170000   -0.0000000000
N       -0.3647220000    0.0041610000   -0.0000000000
H        0.1403830000   -0.0071790000   -0.0000000000
H        0.1405960000    0.0278520000   -0.0000000000
H        0.1556400000   -0.0415690000   -0.0000000000
H        0.1412660000   -0.0007570000   -0.0000000000
H        0.1419830000   -0.0023650000   -0.0000000000
C       -0.1131850000   -0.1157970000   -0.0000000000
H        0.1474670000    0.0324540000   -0.0000000000
13   
From optimize.out: Frame 16 / 34, Energy=    -286.8925026921
C        0.0093190000    0.2310170000   -0.0000000000
C       -0.1170910000   -0.1595900000   -0.0000000000
C       -0.1857030000    0.8348350000   -0.0000000000
C       -0.1269060000    0.1730260000   -0.0000000000
C        0.0332860000    0.0347500000   -0.0000000000
N       -0.3663650000    0.0150110000   -0.0000000000
H        0.1400210000   -0.0094170000   -0.0000000000
H        0.1401730000    0.0264560000   -0.0000000000
H        0.1538110000   -0.0404010000   -0.0000000000
H        0.1400680000   -0.0037260000   -0.0000000000
H        0.1418260000   -0.0023710000   -0.0000000000
C       -0.1095150000   -0.1299910000   -0.0000000000
H        0.1470760000    0.0303990000   -0.0000000000
13   
From optimize.out: Frame 17 / 34, Energy=    -286.8969539417
C        0.0040750000    0.2588270000   -0.0000000000
C       -0.1108250000   -0.1602920000   -0.0000000000
C       -0.1844750000    0.7832160000   -0.0000000000
C       -0.1299170000    0.2127030000   -0.0000000000
C        0.0361670000    0.0276720000   -0.0000000000
N       -0.3685260000    0.0305220000   -0.0000000000
H        0.1397860000   -0.0114270000   -0.0000000000
H        0.1399510000    0.0243880000   -0.0000000000
H        0.1516760000   -0.0388290000   -0.0000000000
H        0.1388610000   -0.0069410000   -0.0000000000
H        0.1418300000   -0.0021320000   -0.0000000000
C       -0.1052120000   -0.1455300000   -0.0000000000
H        0.1466070000    0.0278230000   -0.0000000000
13   
From optimize.out: Frame 18 / 34, Energy=    -286.9013482942
C       -0.0008360000    0.2790870000   -0.0000000000
C       -0.1054280000   -0.1544500000   -0.0000000000
C       -0.1820160000    0.7298780000   -0.0000000000
C       -0.1342020000    0.2574150000   -0.0000000000
C        0.0395230000    0.0139110000   -0.0000000000
N       -0.3712680000    0.0517950000   -0.0000000000
H        0.1397740000   -0.0129890000   -0.0000000000
H        0.1398240000    0.0216990000   -0.0000000000
H        0.1492580000   -0.0369140000   -0.0000000000
H        0.1378090000   -0.0103730000   -0.0000000000
H        0.1418520000   -0.0015530000   -0.0000000000
C       -0.1006180000   -0.1623090000   -0.0000000000
H        0.1463270000    0.0248010000   -0.0000000000
13   
From optimize.out: Frame 19 / 34, Energy=    -286.9056068922
C       -0.0046110000    0.2865540000   -0.0000000000
C       -0.1015670000   -0.1394990000   -0.0000000000
C       -0.1780010000    0.6754350000   -0.0000000000
C       -0.1392790000    0.3057920000   -0.0000000000
C        0.0436140000   -0.0088570000   -0.0000000000
N       -0.3753610000    0.0817890000   -0.0000000000
H        0.1399780000   -0.0137840000   -0.0000000000
H        0.1398150000    0.0183260000   -0.0000000000
H        0.1468820000   -0.0347110000   -0.0000000000
H        0.1365710000   -0.0139180000   -0.0000000000
H        0.1420350000   -0.0005100000   -0.0000000000
C       -0.0957530000   -0.1785260000   -0.0000000000
H        0.1456780000    0.0219080000   -0.0000000000
13   
From optimize.out: Frame 20 / 34, Energy=    -286.9097021796
C       -0.0063510000    0.2751890000   -0.0000000000
C       -0.0995870000   -0.1129450000   -0.0000000000
C       -0.1726640000    0.6185300000   -0.0000000000
C       -0.1453400000    0.3601970000   -0.0000000000
C        0.0480700000   -0.0411530000   -0.0000000000
N       -0.3808910000    0.1218290000   -0.0000000000
H        0.1407670000   -0.0135060000   -0.0000000000
H        0.1398220000    0.0143670000   -0.0000000000
H        0.1441780000   -0.0321640000   -0.0000000000
H        0.1355520000   -0.0175090000   -0.0000000000
H        0.1421360000    0.0010610000   -0.0000000000
C       -0.0913730000   -0.1926410000   -0.0000000000
H        0.1456810000    0.0187450000   -0.0000000000
13   
From optimize.out: Frame 21 / 34, Energy=    -286.9134660315
C       -0.0059400000    0.2438210000   -0.0000000000
C       -0.0999920000   -0.0731970000   -0.0000000000
C       -0.1648590000    0.5593290000   -0.0000000000
C       -0.1495020000    0.4054300000   -0.0000000000
C        0.0520360000   -0.0771650000   -0.0000000000
N       -0.3874140000    0.1703220000   -0.0000000000
H        0.1415450000   -0.0121460000   -0.0000000000
H        0.1394640000    0.0098450000   -0.0000000000
H        0.1427500000   -0.0292970000   -0.0000000000
H        0.1344950000   -0.0204140000   -0.0000000000
H        0.1419980000    0.0028550000   -0.0000000000
C       -0.0887870000   -0.1951940000   -0.0000000000
H        0.1442070000    0.0158100000   -0.0000000000
13   
From optimize.out: Frame 22 / 34, Energy=    -286.9168384373
C       -0.0020470000    0.1856310000   -0.0000000000
C       -0.1021320000   -0.0140060000   -0.0000000000
C       -0.1561570000    0.4825970000   -0.0000000000
C       -0.1537180000    0.4523620000   -0.0000000000
C        0.0552310000   -0.1175750000   -0.0000000000
N       -0.3970820000    0.2304940000   -0.0000000000
H        0.1431490000   -0.0093540000   -0.0000000000
H        0.1398090000    0.0046180000   -0.0000000000
H        0.1399630000   -0.0254980000   -0.0000000000
H        0.1329890000   -0.0229940000   -0.0000000000
H        0.1424260000    0.0048470000   -0.0000000000
C       -0.0870620000   -0.1834260000   -0.0000000000
H        0.1446300000    0.0123060000   -0.0000000000
13   
From optimize.out: Frame 23 / 34, Energy=    -286.9195383903
C        0.0017320000    0.1258680000   -0.0000000000
C       -0.1054070000    0.0466380000   -0.0000000000
C       -0.1465030000    0.4164120000   -0.0000000000
C       -0.1525270000    0.4697650000   -0.0000000000
C        0.0550330000   -0.1412400000   -0.0000000000
N       -0.4026610000    0.2778800000   -0.0000000000
H        0.1437920000   -0.0066560000   -0.0000000000
H        0.1380490000   -0.0002170000   -0.0000000000
H        0.1403600000   -0.0221190000   -0.0000000000
H        0.1340570000   -0.0238880000   -0.0000000000
H        0.1409470000    0.0061360000   -0.0000000000
C       -0.0897620000   -0.1574020000   -0.0000000000
H        0.1428910000    0.0088220000   -0.0000000000
13   
From optimize.out: Frame 24 / 34, Energy=    -286.9215336137
C        0.0079980000    0.0543160000   -0.0000000000
C       -0.1092960000    0.1219360000   -0.0000000000
C       -0.1360740000    0.3282310000   -0.0000000000
C       -0.1499010000    0.4707890000   -0.0000000000
C        0.0535030000   -0.1582460000   -0.0000000000
N       -0.4120880000    0.3317640000   -0.0000000000
H        0.1442830000   -0.0034520000   -0.0000000000
H        0.1382240000   -0.0055010000   -0.0000000000
H        0.1393110000   -0.0177760000   -0.0000000000
H        0.1326870000   -0.0239900000   -0.0000000000
H        0.1415070000    0.0067480000   -0.0000000000
C       -0.0929590000   -0.1098320000   -0.0000000000
H        0.1428050000    0.0050130000   -0.0000000000
13   
From optimize.out: Frame 25 / 34, Energy=    -286.9228531730
C        0.0145780000   -0.0040170000   -0.0000000000
C       -0.1135620000    0.1895910000   -0.0000000000
C       -0.1282380000    0.2578960000   -0.0000000000
C       -0.1460020000    0.4526120000   -0.0000000000
C        0.0500320000   -0.1599000000   -0.0000000000
N       -0.4177670000    0.3631740000   -0.0000000000
H        0.1441510000   -0.0011390000   -0.0000000000
H        0.1369770000   -0.0099600000   -0.0000000000
H        0.1396480000   -0.0144020000   -0.0000000000
H        0.1336880000   -0.0231390000   -0.0000000000
H        0.1412780000    0.0065810000   -0.0000000000
C       -0.0977930000   -0.0587660000   -0.0000000000
H        0.1430090000    0.0014680000   -0.0000000000
13   
From optimize.out: Frame 26 / 34, Energy=    -286.9237508868
C        0.0227560000   -0.0595900000   -0.0000000000
C       -0.1202530000    0.2625770000   -0.0000000000
C       -0.1196200000    0.1815390000   -0.0000000000
C       -0.1395740000    0.4126080000   -0.0000000000
C        0.0444170000   -0.1466330000   -0.0000000000
N       -0.4221060000    0.3846660000   -0.0000000000
H        0.1433060000    0.0010760000   -0.0000000000
H        0.1358010000   -0.0141560000   -0.0000000000
H        0.1407860000   -0.0107830000   -0.0000000000
H        0.1343570000   -0.0213420000   -0.0000000000
H        0.1414200000    0.0053930000   -0.0000000000
C       -0.1036500000    0.0069690000   -0.0000000000
H        0.1423600000   -0.0023220000   -0.0000000000
13   
From optimize.out: Frame 27 / 34, Energy=    -286.9240822109
C        0.0305270000   -0.0956900000   -0.0000000000
C       -0.1265330000    0.3168940000   -0.0000000000
C       -0.1153400000    0.1279850000   -0.0000000000
C       -0.1342100000    0.3716280000   -0.0000000000
C        0.0386510000   -0.1274710000   -0.0000000000
N       -0.4237150000    0.3899610000   -0.0000000000
H        0.1425900000    0.0025760000   -0.0000000000
H        0.1353260000   -0.0169280000   -0.0000000000
H        0.1418240000   -0.0082530000   -0.0000000000
H        0.1342470000   -0.0194780000   -0.0000000000
H        0.1421440000    0.0042060000   -0.0000000000
C       -0.1081470000    0.0595210000   -0.0000000000
H        0.1426350000   -0.0049510000   -0.0000000000
13   
From optimize.out: Frame 28 / 34, Energy=    -286.9242370961
C        0.0342100000   -0.1051460000   -0.0000000000
C       -0.1305860000    0.3355000000   -0.0000000000
C       -0.1128770000    0.1094640000   -0.0000000000
C       -0.1340730000    0.3587390000   -0.0000000000
C        0.0369680000   -0.1196120000   -0.0000000000
N       -0.4226290000    0.3849960000   -0.0000000000
H        0.1426960000    0.0030440000   -0.0000000000
H        0.1344050000   -0.0177930000   -0.0000000000
H        0.1416660000   -0.0073910000   -0.0000000000
H        0.1344820000   -0.0188610000   -0.0000000000
H        0.1427240000    0.0037600000   -0.0000000000
C       -0.1093240000    0.0792600000   -0.0000000000
H        0.1423390000   -0.0059600000   -0.0000000000
13   
From optimize.out: Frame 29 / 34, Energy=    -286.9243065943
C        0.0324780000   -0.1007200000   -0.0000000000
C       -0.1287590000    0.3273890000   -0.0000000000
C       -0.1134500000    0.1166450000   -0.0000000000
C       -0.1334670000    0.3636560000   -0.0000000000
C        0.0383140000   -0.1221790000   -0.0000000000
N       -0.4235600000    0.3867900000   -0.0000000000
H        0.1429190000    0.0028150000   -0.0000000000
H        0.1345080000   -0.0174270000   -0.0000000000
H        0.1418320000   -0.0077210000   -0.0000000000
H        0.1340980000   -0.0191100000   -0.0000000000
H        0.1424250000    0.0038700000   -0.0000000000
C       -0.1092250000    0.0715740000   -0.0000000000
H        0.1418870000   -0.0055830000   -0.0000000000
13   
From optimize.out: Frame 30 / 34, Energy=    -286.9243211369
C        0.0329650000   -0.1024580000   -0.0000000000
C       -0.1291670000    0.3301050000   -0.0000000000
C       -0.1135810000    0.1150920000   -0.0000000000
C       -0.1336670000    0.3638420000   -0.0000000000
C        0.0377990000   -0.1223570000   -0.0000000000
N       -0.4232680000    0.3868190000   -0.0000000000
H        0.1427740000    0.0029000000   -0.0000000000
H        0.1346960000   -0.0175470000   -0.0000000000
H        0.1415910000   -0.0076610000   -0.0000000000
H        0.1341250000   -0.0191180000   -0.0000000000
H        0.1424580000    0.0038840000   -0.0000000000
C       -0.1088760000    0.0720910000   -0.0000000000
H        0.1421520000   -0.0055940000   -0.0000000000
13   
From optimize.out: Frame 31 / 34, Energy=    -286.9243255658
C        0.0335190000   -0.1039790000   -0.0000000000
C       -0.1296030000    0.3327370000   -0.0000000000
C       -0.1132300000    0.1113380000   -0.0000000000
C       -0.1333240000    0.3605000000   -0.0000000000
C        0.0374900000   -0.1203680000   -0.0000000000
N       -0.4232770000    0.3863240000   -0.0000000000
H        0.1427530000    0.0029760000   -0.0000000000
H        0.1345810000   -0.0176720000   -0.0000000000
H        0.1417260000   -0.0074750000   -0.0000000000
H        0.1342280000   -0.0189640000   -0.0000000000
H        0.1424690000    0.0037860000   -0.0000000000
C       -0.1095100000    0.0766100000   -0.0000000000
H        0.1421780000   -0.0058130000   -0.0000000000
13   
From optimize.out: Frame 32 / 34, Energy=    -286.9243280822
C        0.0339440000   -0.1062640000   -0.0000000000
C       -0.1300840000    0.3364370000   -0.0000000000
C       -0.1125620000    0.1064920000   -0.0000000000
C       -0.1328270000    0.3571380000   -0.0000000000
C        0.0370030000   -0.1183850000   -0.0000000000
N       -0.4232460000    0.3865580000   -0.0000000000
H        0.1427120000    0.0030880000   -0.0000000000
H        0.1344880000   -0.0178420000   -0.0000000000
H        0.1417600000   -0.0072430000   -0.0000000000
H        0.1342630000   -0.0188060000   -0.0000000000
H        0.1424650000    0.0036860000   -0.0000000000
C       -0.1099520000    0.0811800000   -0.0000000000
H        0.1420350000   -0.0060380000   -0.0000000000
13   
From optimize.out: Frame 33 / 34, Energy=    -286.9243302771
C        0.0343400000   -0.1080600000   -0.0000000000
C       -0.1304960000    0.3393720000   -0.0000000000
C       -0.1122190000    0.1030340000   -0.0000000000
C       -0.1324150000    0.3544170000   -0.0000000000
C        0.0366010000   -0.1168650000   -0.0000000000
N       -0.4232590000    0.3867640000   -0.0000000000
H        0.1426890000    0.0031750000   -0.0000000000
H        0.1344620000   -0.0179790000   -0.0000000000
H        0.1418020000   -0.0070800000   -0.0000000000
H        0.1342720000   -0.0186800000   -0.0000000000
H        0.1424760000    0.0036120000   -0.0000000000
C       -0.1102550000    0.0844840000   -0.0000000000
H        0.1420020000   -0.0061930000   -0.0000000000
