13   
Frame   0 IRC: Energy =  -286.8734530000 ; +0.0000 kcal/mol
C        1.2055780378    0.1841777103    0.2113397718
C        0.7011930802   -1.1125093138   -0.4428680324
C       -0.6428956001   -1.0610442749   -0.4217674658
C       -1.0242747328    0.2665953407    0.2658455417
C       -0.4501532803    1.3805360264   -0.6310356952
N        0.8258924642    1.3493328889   -0.6876338794
H        2.2565302692    0.2187168464    0.4905250332
H        1.3341129080   -1.8907843106   -0.8526404414
H       -1.3505158891   -1.7757713849   -0.8263355910
H       -2.0548076402    0.3720326229    0.6036214505
H       -1.0437269409    2.1080811837   -1.1805589626
C        0.1247833438    0.2787993010    1.2810820808
H        0.1182839802   -0.3181626357    2.1904261903
13   
Frame   1 IRC: Energy =  -286.8734450000 ; +0.0050 kcal/mol
C        1.2055832805    0.1842626837    0.2109164304
C        0.7012512683   -1.1125293710   -0.4422036849
C       -0.6430484171   -1.0607932028   -0.4223193551
C       -1.0243829431    0.2666106404    0.2658246372
C       -0.4505154402    1.3808357377   -0.6309341612
N        0.8255236885    1.3493909720   -0.6879993009
H        2.2566859670    0.2192424219    0.4895729489
H        1.3342558462   -1.8926496944   -0.8494429269
H       -1.3504760201   -1.7748079290   -0.8282302362
H       -2.0546124529    0.3716258475    0.6037745115
H       -1.0443603633    2.1086928435   -1.1796134910
C        0.1250883143    0.2788623423    1.2806586620
H        0.1190072716   -0.3187432916    2.1899959662
13   
Frame   2 IRC: Energy =  -286.8734410000 ; +0.0075 kcal/mol
C        1.2056228660    0.1844058697    0.2107604306
C        0.7011880690   -1.1129627767   -0.4421385957
C       -0.6428797156   -1.0606740326   -0.4225302659
C       -1.0242168022    0.2666385576    0.2656754260
C       -0.4506597593    1.3808966789   -0.6308410197
N        0.8253502032    1.3494595943   -0.6881965565
H        2.2567471414    0.2194563428    0.4891801147
H        1.3341453106   -1.8931871371   -0.8479833688
H       -1.3504502380   -1.7743973033   -0.8290364984
H       -2.0546953266    0.3714773714    0.6039127719
H       -1.0446428981    2.1089803436   -1.1792447161
C        0.1251709343    0.2787712509    1.2807893021
H        0.1193202154   -0.3188647597    2.1896529758
13   
Frame   3 IRC: Energy =  -286.8734290000 ; +0.0151 kcal/mol
C        1.2056255377    0.1844828778    0.2102897179
C        0.7012433138   -1.1129535498   -0.4413648141
C       -0.6430730737   -1.0603998549   -0.4231798931
C       -1.0243532391    0.2666477590    0.2656789043
C       -0.4510723614    1.3812174255   -0.6307161012
N        0.8249285172    1.3495141599   -0.6886042171
H        2.2569271064    0.2200319205    0.4880996052
H        1.3343101999   -1.8953112110   -0.8443646421
H       -1.3504000389   -1.7732429595   -0.8312793871
H       -2.0544575917    0.3709940906    0.6041099922
H       -1.0453772177    2.1096272019   -1.1781993814
C        0.1255296081    0.2788505202    1.2803000427
H        0.1201692394   -0.3194583801    2.1892301737
13   
Frame   4 IRC: Energy =  -286.8734220000 ; +0.0195 kcal/mol
C        1.2056765427    0.1846612960    0.2100852755
C        0.7011760528   -1.1135079642   -0.4412635053
C       -0.6428671451   -1.0602219828   -0.4234590095
C       -1.0241463817    0.2666720638    0.2654998241
C       -0.4512718637    1.3813032436   -0.6305984529
N        0.8246963690    1.3495945110   -0.6888576318
H        2.2570082681    0.2203044436    0.4875764132
H        1.3341671023   -1.8960321791   -0.8424321742
H       -1.3503756348   -1.7726809623   -0.8324039534
H       -2.0545530160    0.3707858171    0.6043021106
H       -1.0457548785    2.1099775309   -1.1777176711
C        0.1256456711    0.2787379801    1.2804539098
H        0.1205989137   -0.3195937977    2.1888148650
13   
Frame   5 IRC: Energy =  -286.8734050000 ; +0.0301 kcal/mol
C        1.2056749504    0.1847327960    0.2095532927
C        0.7012215884   -1.1134663736   -0.4403554863
C       -0.6431092795   -1.0599235317   -0.4242391990
C       -1.0243138135    0.2666770378    0.2655307194
C       -0.4517500493    1.3816532341   -0.6304421533
N        0.8242068896    1.3496498347   -0.6893184223
H        2.2572202618    0.2209418041    0.4863283640
H        1.3343555235   -1.8984821247   -0.8382597180
H       -1.3503069760   -1.7712810282   -0.8350835554
H       -2.0542656257    0.3702054710    0.6045550720
H       -1.0466181438    2.1106713126   -1.1765466899
C        0.1260728745    0.2788340610    1.2798851778
H        0.1216117995   -0.3202124931    2.1883925983
13   
Frame   6 IRC: Energy =  -286.8733940000 ; +0.0370 kcal/mol
C        1.2057400514    0.1849529965    0.2092895637
C        0.7011524090   -1.1141654733   -0.4402081411
C       -0.6428595537   -1.0596647237   -0.4246015341
C       -1.0240608500    0.2666941571    0.2653183540
C       -0.4520177293    1.3817690193   -0.6302932999
N        0.8239017406    1.3497444307   -0.6896371882
H        2.2573252916    0.2212801116    0.4856432648
H        1.3341711547   -1.8994261702   -0.8357432586
H       -1.3502875248   -1.7705305042   -0.8366129882
H       -2.0543732110    0.3699205291    0.6048155857
H       -1.0471142213    2.1110901422   -1.1759328252
C        0.1262314556    0.2786947103    1.2800656169
H        0.1221909873   -0.3203592254    2.1878968501
13   
Frame   7 IRC: Energy =  -286.8733680000 ; +0.0533 kcal/mol
C        1.2057322596    0.1850212097    0.2086800950
C        0.7011790923   -1.1140850427   -0.4391374276
C       -0.6431621607   -1.0593402442   -0.4255545721
C       -1.0242618727    0.2666962943    0.2653810181
C       -0.4525801714    1.3821581444   -0.6300949970
N        0.8233262881    1.3498066343   -0.6901615864
H        2.2575782100    0.2219889071    0.4841800281
H        1.3343839739   -1.9022803463   -0.8308562993
H       -1.3501897694   -1.7688173379   -0.8398396820
H       -2.0540279322    0.3692170273    0.6051396472
H       -1.0481403795    2.1118404976   -1.1746091406
C        0.1267453028    0.2788068911    1.2794019444
H        0.1234171592   -0.3210126347    2.1874709720
13   
Frame   8 IRC: Energy =  -286.8733500000 ; +0.0646 kcal/mol
C        1.2058136544    0.1852917571    0.2083439636
C        0.7011099355   -1.1149573587   -0.4389340441
C       -0.6428603066   -1.0589725710   -0.4260196793
C       -1.0239577229    0.2667019632    0.2651316888
C       -0.4529317285    1.3823102941   -0.6299058195
N        0.8229311673    1.3499202533   -0.6905544891
H        2.2577119669    0.2223980358    0.4832942350
H        1.3341461109   -1.9034916324   -0.8276192808
H       -1.3501791555   -1.7678338501   -0.8418790602
H       -2.0541467382    0.3688344195    0.6054861319
H       -1.0487829302    2.1123322664   -1.1738432872
C        0.1269578285    0.2786331237    1.2796125909
H        0.1241879184   -0.3211667008    2.1868870501
13   
Frame   9 IRC: Energy =  -286.8733130000 ; +0.0879 kcal/mol
C        1.2057975042    0.1853590802    0.2076376472
C        0.7011049955   -1.1148263479   -0.4376693047
C       -0.6432398012   -1.0586192920   -0.4272012699
C       -1.0241943359    0.2667021297    0.2652315020
C       -0.4536014994    1.3827513457   -0.6296510219
N        0.8222473044    1.3499992922   -0.6911509413
H        2.2580157381    0.2231835673    0.4815568176
H        1.3343827818   -1.9068413227   -0.8218189828
H       -1.3500380728   -1.7657251895   -0.8457890697
H       -2.0537343421    0.3679750323    0.6059013153
H       -1.0500129946    2.1131458880   -1.1723396738
C        0.1275804063    0.2787577793    1.2788363115
H        0.1256923156   -0.3218619626    2.1864566706
13   
Frame  10 IRC: Energy =  -286.8732850000 ; +0.1054 kcal/mol
C        1.2058960855    0.1856913047    0.2072129190
C        0.7010371667   -1.1159055864   -0.4374009759
C       -0.6428755745   -1.0581075610   -0.4277956056
C       -1.0238351145    0.2666912323    0.2649411993
C       -0.4540559701    1.3829483210   -0.6294088114
N        0.8217423642    1.3501407755   -0.6916246012
H        2.2581843104    0.2236639988    0.4804224011
H        1.3340743074   -1.9083680966   -0.8176922537
H       -1.3500402785   -1.7644567217   -0.8484654546
H       -2.0538624200    0.3674688004    0.6063550163
H       -1.0508356072    2.1137126302   -1.1714029675
C        0.1278613377    0.2785382415    1.2790807296
H        0.1267093931   -0.3220173387    2.1857784046
13   
Frame  11 IRC: Energy =  -286.8732290000 ; +0.1406 kcal/mol
C        1.2058692050    0.1857608912    0.2063860708
C        0.7009823384   -1.1157040328   -0.4359102505
C       -0.6433552029   -1.0577209680   -0.4292814001
C       -1.0241081821    0.2666894618    0.2650840262
C       -0.4548617749    1.3834588713   -0.6290770783
N        0.8209221788    1.3502537433   -0.6922963244
H        2.2585495053    0.2245235325    0.4783365954
H        1.3343317317   -1.9123192210   -0.8107275372
H       -1.3498367106   -1.7618543925   -0.8532263067
H       -2.0533727153    0.3664130081    0.6068876607
H       -1.0523190000    2.1145914451   -1.1696943951
C        0.1286196165    0.2786657738    1.2781713740
H        0.1285790101   -0.3227581128    2.1853475652
13   
Frame  12 IRC: Energy =  -286.8731840000 ; +0.1688 kcal/mol
C        1.2059831453    0.1861699653    0.2058522814
C        0.7009155637   -1.1170289014   -0.4355719457
C       -0.6429164650   -1.0570207991   -0.4300424511
C       -1.0236925753    0.2666557350    0.2647481697
C       -0.4554422088    1.3837123675   -0.6287636352
N        0.8202846334    1.3504390660   -0.6928517857
H        2.2587604211    0.2250674224    0.4768941972
H        1.3339287103   -1.9142120948   -0.8055000204
H       -1.3498556598   -1.7602424268   -0.8566923274
H       -2.0535063090    0.3657517628    0.6074745595
H       -1.0533613434    2.1152307578   -1.1685720922
C        0.1289872849    0.2783825051    1.2784523685
H        0.1299148027   -0.3229053599    2.1845726814
13   
Frame  13 IRC: Energy =  -286.8731000000 ; +0.2215 kcal/mol
C        1.2059428821    0.1862466169    0.2048751569
C        0.7007841742   -1.1167238275   -0.4338281231
C       -0.6435298759   -1.0565935623   -0.4319391008
C       -1.0240012265    0.2666503959    0.2649392388
C       -0.4564199432    1.3843176492   -0.6283250328
N        0.8192933499    1.3506157758   -0.6935905588
H        2.2591972348    0.2259846108    0.4743654429
H        1.3341994837   -1.9188860282   -0.7970470114
H       -1.3495643041   -1.7570329679   -0.8625096256
H       -2.0529277715    0.3644508803    0.6081604146
H       -1.0551569991    2.1161684548   -1.1666405936
C        0.1299142580    0.2784913070    1.2773855855
H        0.1322687376   -0.3236893047    2.1841542073
13   
Frame  14 IRC: Energy =  -286.8730310000 ; +0.2648 kcal/mol
C        1.2060652909    0.1867531283    0.2042056538
C        0.7007147532   -1.1183369229   -0.4334243159
C       -0.6430031064   -1.0556490837   -0.4329230354
C       -1.0235325063    0.2665857719    0.2645520307
C       -0.4571541681    1.3846444120   -0.6279134771
N        0.8184978443    1.3508731591   -0.6942169805
H        2.2594594647    0.2265706146    0.4725414726
H        1.3336685796   -1.9211943512   -0.7904524299
H       -1.3496043011   -1.7550164263   -0.8669471996
H       -2.0530597783    0.3635985833    0.6089134018
H       -1.0564647434    2.1168700156   -1.1653277615
C        0.1303919071    0.2781140758    1.2777038204
H        0.1340207637   -0.3238129765    2.1832888206
13   
Frame  15 IRC: Energy =  -286.8729050000 ; +0.3439 kcal/mol
C        1.2060083905    0.1868447031    0.2030395379
C        0.7004669631   -1.1178745527   -0.4314173500
C       -0.6438006174   -1.0551697383   -0.4353879114
C       -1.0238736211    0.2665715481    0.2647935905
C       -0.4583486952    1.3853816330   -0.6273223039
N        0.8172924526    1.3511654992   -0.6949914012
H        2.2599754548    0.2275084364    0.4694480136
H        1.3339385298   -1.9267264714   -0.7800830827
H       -1.3491938916   -1.7510765090   -0.8740729052
H       -2.0523778786    0.3619981814    0.6098037909
H       -1.0586410427    2.1178455644   -1.1631717247
C        0.1315280161    0.2781581813    1.2764491951
H        0.1370259396   -0.3246264755    2.1829125512
13   
Frame  16 IRC: Energy =  -286.8727980000 ; +0.4110 kcal/mol
C        1.2061235354    0.1874770051    0.2021981343
C        0.7003843847   -1.1198196249   -0.4309731603
C       -0.6431726261   -1.0539109036   -0.4366845077
C       -1.0233623759    0.2664645455    0.2643465428
C       -0.4592703079    1.3858061360   -0.6267715419
N        0.8163123637    1.3515436513   -0.6956547146
H        2.2602987523    0.2280962575    0.4671509375
H        1.3332337307   -1.9294916289   -0.7717787775
H       -1.3492623721   -1.7486013244   -0.8796977548
H       -2.0524946574    0.3609183085    0.6107675853
H       -1.0602642433    2.1185850680   -1.1616828981
C        0.1321452148    0.2776327086    1.2768003341
H        0.1393286011   -0.3247001989    2.1819798209
13   
Frame  17 IRC: Energy =  -286.8726050000 ; +0.5321 kcal/mol
C        1.2060452148    0.1875964944    0.2007898743
C        0.6999589731   -1.1191123783   -0.4287367082
C       -0.6442328257   -1.0533630643   -0.4399624034
C       -1.0237305041    0.2664275521    0.2646329608
C       -0.4607367323    1.3867302390   -0.6259548585
N        0.8148410323    1.3520406110   -0.6963883264
H        2.2608940657    0.2289917744    0.4633352060
H        1.3334791013   -1.9360237019   -0.7589113592
H       -1.3487011242   -1.7438143755   -0.8884394714
H       -2.0516866207    0.3589688155    0.6119422265
H       -1.0628949139    2.1195502586   -1.1593341600
C        0.1335399617    0.2775156125    1.2753166797
H        0.1432243720   -0.3255078376    2.1817103397
13   
Frame  18 IRC: Energy =  -286.8724400000 ; +0.6357 kcal/mol
C        1.2061224409    0.1883943852    0.1997245780
C        0.6998401710   -1.1214288595   -0.4283201567
C       -0.6434953362   -1.0517026584   -0.4417257171
C       -1.0231978887    0.2662592219    0.2641121263
C       -0.4618866870    1.3872880354   -0.6251996284
N        0.8136518184    1.3526212403   -0.6970112533
H        2.2612864600    0.2295210833    0.4604496362
H        1.3325377587   -1.9392669925   -0.7484389254
H       -1.3488185058   -1.7408537249   -0.8955094182
H       -2.0517611036    0.3576368610    0.6131849427
H       -1.0648827565    2.1202784081   -1.1577188210
C        0.1343350274    0.2767376352    1.2756852007
H        0.1462686014   -0.3254846351    2.1807674363
13   
Frame  19 IRC: Energy =  -286.8721450000 ; +0.8208 kcal/mol
C        1.2060145368    0.1885620931    0.1979955574
C        0.6991394709   -1.1203321422   -0.4259900174
C       -0.6449477252   -1.0510680196   -0.4462176272
C       -1.0235864696    0.2661650758    0.2644195149
C       -0.4636877850    1.3884762056   -0.6240363094
N        0.8118569255    1.3534698159   -0.6975430798
H        2.2619438834    0.2302944581    0.4557111197
H        1.3327241212   -1.9469201720   -0.7322642196
H       -1.3480954990   -1.7351533669   -0.9062338989
H       -2.0507818951    0.3553267591    0.6147785867
H       -1.0680292089    2.1211325163   -1.1552732659
C        0.1360474146    0.2762552945    1.2739103583
H        0.1514022305   -0.3262085174    2.1807432812
13   
Frame  20 IRC: Energy =  -286.8718870000 ; +0.9827 kcal/mol
C        1.2059980828    0.1895832147    0.1966266404
C        0.6989402848   -1.1230445193   -0.4257584696
C       -0.6441089662   -1.0488989983   -0.4487319178
C       -1.0230667210    0.2658987923    0.2638022495
C       -0.4651164400    1.3892152840   -0.6229688809
N        0.8104443565    1.3543836430   -0.6979704259
H        2.2624041135    0.2307024491    0.4520867404
H        1.3314615839   -1.9506167868   -0.7189678408
H       -1.3483249330   -1.7317490935   -0.9150682330
H       -2.0507587684    0.3537632822    0.6164188316
H       -1.0704153064    2.1217536748   -1.1536396512
C        0.1370728803    0.2750092955    1.2742554295
H        0.1554698334   -0.3260002377    2.1799155278
13   
Frame  21 IRC: Energy =  -286.8714290000 ; +1.2701 kcal/mol
C        1.2058489642    0.1898211776    0.1944562264
C        0.6978037796   -1.1213088171   -0.4236996420
C       -0.6461748778   -1.0481796200   -0.4550939367
C       -1.0234743962    0.2656644964    0.2640673385
C       -0.4672979846    1.3907516477   -0.6212605333
N        0.8082845928    1.3557976585   -0.6979941370
H        2.2630674050    0.2313184615    0.4462125051
H        1.3315550701   -1.9593822319   -0.6984373864
H       -1.3475133202   -1.7252411001   -0.9281244356
H       -2.0495109970    0.3512175746    0.6186645034
H       -1.0740544062    2.1222895961   -1.1513116540
C        0.1391582334    0.2737335665    1.2720874345
H        0.1623079369   -0.3264824098    2.1804337171
13   
Frame  22 IRC: Energy =  -286.8710190000 ; +1.5274 kcal/mol
C        1.2056390959    0.1911563071    0.1926486438
C        0.6974524562   -1.1244054453   -0.4239989106
C       -0.6452952238   -1.0453714409   -0.4589318973
C       -1.0230114725    0.2652198045    0.2633252512
C       -0.4690664380    1.3917196587   -0.6196908582
N        0.8066557831    1.3572324899   -0.6979326341
H        2.2635657146    0.2316185504    0.4416291458
H        1.3298479831   -1.9634022866   -0.6812357404
H       -1.3480385043   -1.7215723824   -0.9391767499
H       -2.0492723169    0.3495676082    0.6209385816
H       -1.0768229974    2.1226192272   -1.1498564999
C        0.1404981266    0.2715271873    1.2723000601
H        0.1678477934   -0.3259092778    2.1799816078
13   
Frame  23 IRC: Energy =  -286.8703260000 ; +1.9622 kcal/mol
C        1.2054461545    0.1914175461    0.1899326159
C        0.6956537926   -1.1215854447   -0.4230100664
C       -0.6482771762   -1.0447168604   -0.4678883437
C       -1.0234617386    0.2646768114    0.2634313417
C       -0.4715277674    1.3935631176   -0.6172286621
N        0.8042398876    1.3593532122   -0.6970122558
H        2.2640714629    0.2322696261    0.4347107427
H        1.3299079763   -1.9727120084   -0.6560340610
H       -1.3474143183   -1.7149032468   -0.9542016203
H       -2.0475943017    0.3473020547    0.6241077407
H       -1.0805520504    2.1224490949   -1.1480414883
C        0.1428957780    0.2687976623    1.2696446244
H        0.1766123006   -0.3259115649    2.1815894322
13   
Frame  24 IRC: Energy =  -286.8695570000 ; +2.4448 kcal/mol
C        1.2047083010    0.1933112859    0.1872876801
C        0.6950635847   -1.1249135461   -0.4250287029
C       -0.6479292713   -1.0409745139   -0.4752200781
C       -1.0230420470    0.2638385251    0.2625837086
C       -0.4738019476    1.3947886863   -0.6145731004
N        0.8021610826    1.3616663856   -0.6957244621
H        2.2644661732    0.2329054866    0.4281174190
H        1.3274947438   -1.9773265401   -0.6303777102
H       -1.3488284372   -1.7110588462   -0.9697087138
H       -2.0466490591    0.3459078355    0.6278752198
H       -1.0838336813    2.1220666881   -1.1469957276
C        0.1449091419    0.2643457094    1.2695012017
H        0.1852814163   -0.3245571560    2.1822632660
13   
Frame  25 IRC: Energy =  -286.8687780000 ; +2.9336 kcal/mol
C        1.2044978857    0.1925919171    0.1849633322
C        0.6937877659   -1.1209537527   -0.4263982601
C       -0.6525373371   -1.0414351813   -0.4849538828
C       -1.0235712465    0.2629613261    0.2623630929
C       -0.4752252047    1.3962762865   -0.6120874594
N        0.7999028690    1.3636672001   -0.6940762726
H        2.2644851503    0.2340093214    0.4223110516
H        1.3280158624   -1.9846739097   -0.6081657746
H       -1.3485501568   -1.7063554466   -0.9817558692
H       -2.0446777745    0.3449318479    0.6311425826
H       -1.0863493048    2.1212086404   -1.1462743561
C        0.1469075773    0.2624240749    1.2676649955
H        0.1933139139   -0.3246523243    2.1852668200
13   
Frame  26 IRC: Energy =  -286.8666790000 ; +4.2508 kcal/mol
C        1.2054099700    0.1968917379    0.1770703273
C        0.6875134617   -1.1210555854   -0.4283358693
C       -0.6558519888   -1.0367339162   -0.5027644011
C       -1.0235544719    0.2601764213    0.2602205186
C       -0.4785995293    1.3990870088   -0.6064316125
N        0.7978833224    1.3690689484   -0.6910751529
H        2.2669291575    0.2388923207    0.4120163336
H        1.3231834564   -1.9865655914   -0.5568725984
H       -1.3535038393   -1.7026980527   -1.0091125295
H       -2.0412465656    0.3457699032    0.6397215472
H       -1.0902596506    2.1183597137   -1.1468963924
C        0.1514608914    0.2383720699    1.2604094775
H        0.2106357861   -0.3195649781    2.1920503518
13   
Frame  27 IRC: Energy =  -286.8636480000 ; +6.1527 kcal/mol
C        1.2090286632    0.2016877655    0.1669116111
C        0.6804290694   -1.1171349251   -0.4238800584
C       -0.6655626589   -1.0341672260   -0.5208529138
C       -1.0246548999    0.2569780414    0.2570138868
C       -0.4801115646    1.4026466494   -0.6007089166
N        0.7961294601    1.3754474538   -0.6895460535
H        2.2717013768    0.2457098587    0.4042958747
H        1.3184253532   -1.9841552170   -0.5080996977
H       -1.3581095494   -1.6995275671   -1.0330321433
H       -2.0373527921    0.3479235920    0.6482959285
H       -1.0933282761    2.1150739682   -1.1488245809
C        0.1563635617    0.2029303859    1.2473143855
H        0.2270422567   -0.3134127795    2.2011126777
13   
Frame  28 IRC: Energy =  -286.8593160000 ; +8.8711 kcal/mol
C        1.2158347060    0.2137291085    0.1554562390
C        0.6734060649   -1.1116368871   -0.4008387590
C       -0.6768601910   -1.0293997884   -0.5324788438
C       -1.0264558588    0.2550290936    0.2538803121
C       -0.4810183495    1.4050976251   -0.5972276936
N        0.7962791800    1.3814066148   -0.6903427992
H        2.2773413149    0.2510830603    0.4012345405
H        1.3135043660   -1.9766286408   -0.4762103289
H       -1.3623091218   -1.6978655302   -1.0478672858
H       -2.0354966900    0.3502326477    0.6542617033
H       -1.0948341839    2.1124586358   -1.1508729300
C        0.1631351351    0.1514430727    1.2264294809
H        0.2374736282   -0.3049490118    2.2045763644
13   
Frame  29 IRC: Energy =  -286.8539070000 ; +12.2653 kcal/mol
C        1.2234653261    0.2285678639    0.1445413964
C        0.6672542071   -1.1047017524   -0.3696614861
C       -0.6889746719   -1.0233294906   -0.5417928603
C       -1.0286083061    0.2537284537    0.2509474698
C       -0.4816129388    1.4065110462   -0.5949845753
N        0.7967358689    1.3866668529   -0.6915353307
H        2.2821400898    0.2552480342    0.3995808554
H        1.3095969697   -1.9693576527   -0.4522923244
H       -1.3661985289   -1.6966100696   -1.0585946185
H       -2.0344713304    0.3522728033    0.6589960425
H       -1.0960495076    2.1105542174   -1.1527512509
C        0.1713960999    0.0977350637    1.2034721866
H        0.2453267222   -0.2972853701    2.2040744957
13   
Frame  30 IRC: Energy =  -286.8493050000 ; +15.1531 kcal/mol
C        1.2305392488    0.2446592113    0.1354594878
C        0.6635677949   -1.0970343034   -0.3330369948
C       -0.7027066122   -1.0155064836   -0.5501082528
C       -1.0312417789    0.2528398594    0.2481030516
C       -0.4823072325    1.4074446764   -0.5939378610
N        0.7970624102    1.3913074883   -0.6925802930
H        2.2858886985    0.2585340738    0.3983440921
H        1.3066702663   -1.9631764317   -0.4333415612
H       -1.3700256611   -1.6957718821   -1.0666007990
H       -2.0336776179    0.3540072769    0.6629422121
H       -1.0971421707    2.1090728363   -1.1542453828
C        0.1816183901    0.0452764721    1.1784638218
H        0.2517542645   -0.2916527937    2.2005384791
13   
Frame  31 IRC: Energy =  -286.8475750000 ; +16.2387 kcal/mol (Transition State)
C        1.2371263560    0.2608399046    0.1279902996
C        0.6600397625   -1.0906106008   -0.2933287735
C       -0.7163963801   -1.0070691555   -0.5597796665
C       -1.0334406629    0.2522646429    0.2454181363
C       -0.4836536927    1.4081829236   -0.5934022346
N        0.7971716988    1.3962266401   -0.6932389464
H        2.2893954092    0.2618330991    0.3968983309
H        1.3039029727   -1.9572485804   -0.4154202290
H       -1.3737099406   -1.6947955253   -1.0731183840
H       -2.0327735084    0.3557527786    0.6668411230
H       -1.0983445174    2.1078677608   -1.1556656324
C        0.1925696811   -0.0052667220    1.1527198251
H        0.2581128217   -0.2879771657    2.1940861514
13   
Frame  32 IRC: Energy =  -286.8489740000 ; +15.3608 kcal/mol
C        1.2434609253    0.2769449702    0.1213808133
C        0.6553984427   -1.0854639629   -0.2530575568
C       -0.7285181557   -0.9982654109   -0.5698905939
C       -1.0355304155    0.2516890120    0.2429801336
C       -0.4846047175    1.4089414859   -0.5931186552
N        0.7964544067    1.4015547699   -0.6938055835
H        2.2930118845    0.2652768877    0.3953424831
H        1.3009248069   -1.9509589909   -0.3972883281
H       -1.3776343721   -1.6939765062   -1.0795292315
H       -2.0318560984    0.3575993091    0.6708031992
H       -1.0995627764    2.1067005976   -1.1570834096
C        0.2039099267   -0.0552547588    1.1269290326
H        0.2645461429   -0.2847874028    2.1863376969
13   
Frame  33 IRC: Energy =  -286.8518780000 ; +13.5385 kcal/mol
C        1.2493440391    0.2923687112    0.1164293735
C        0.6474508191   -1.0843180695   -0.2119700643
C       -0.7374303975   -0.9897155153   -0.5835328718
C       -1.0365175763    0.2510754895    0.2410126039
C       -0.4863480865    1.4099786755   -0.5928483919
N        0.7950644486    1.4080491682   -0.6935550726
H        2.2974479790    0.2698339721    0.3930210857
H        1.2970765715   -1.9437965518   -0.3760476288
H       -1.3818142079   -1.6927989138   -1.0856451821
H       -2.0304760620    0.3598187536    0.6753283481
H       -1.1011261371    2.1056054041   -1.1586627855
C        0.2152776720   -0.1021915050    1.1020558178
H        0.2720509380   -0.2839096192    2.1744147679
13   
Frame  34 IRC: Energy =  -286.8544510000 ; +11.9239 kcal/mol
C        1.2560217798    0.3068432348    0.1109911144
C        0.6359906601   -1.0859976633   -0.1748817860
C       -0.7429861667   -0.9803618302   -0.6008228326
C       -1.0375049821    0.2497871063    0.2380761687
C       -0.4879008636    1.4117586114   -0.5915924632
N        0.7927851180    1.4150626539   -0.6915232569
H        2.3029939095    0.2763968425    0.3890146383
H        1.2926838029   -1.9375584698   -0.3466376735
H       -1.3877330201   -1.6920047426   -1.0933126620
H       -2.0273748917    0.3621823538    0.6808528471
H       -1.1037686962    2.1043652553   -1.1604714254
C        0.2248889522   -0.1436239391    1.0811689724
H        0.2819043978   -0.2868494131    2.1591383588
13   
Frame  35 IRC: Energy =  -286.8559730000 ; +10.9689 kcal/mol
C        1.2597565474    0.3151963432    0.1097145619
C        0.6231442590   -1.0930875192   -0.1534165265
C       -0.7452920579   -0.9737395049   -0.6250975162
C       -1.0360953801    0.2483459098    0.2351454046
C       -0.4907161015    1.4148647101   -0.5885710646
N        0.7897106532    1.4237164704   -0.6870971635
H        2.3100944367    0.2864802412    0.3810146139
H        1.2879251096   -1.9356186818   -0.3021007058
H       -1.3949571302   -1.6890917611   -1.1034974234
H       -2.0228106986    0.3640247121    0.6879434322
H       -1.1080415618    2.1028610033   -1.1615095883
C        0.2313149225   -0.1658405690    1.0651473858
H        0.2959670017   -0.2981113540    2.1423245899
13   
Frame  36 IRC: Energy =  -286.8567870000 ; +10.4581 kcal/mol
C        1.2612833221    0.3190408880    0.1037624603
C        0.6232838040   -1.0915312181   -0.1539301299
C       -0.7477441332   -0.9676756405   -0.6393983915
C       -1.0375693231    0.2485653671    0.2291071436
C       -0.4921022477    1.4186808027   -0.5853993321
N        0.7874758830    1.4276944920   -0.6810155200
H        2.3127640497    0.2951689043    0.3692911427
H        1.2861418775   -1.9484612482   -0.2537641556
H       -1.4030462211   -1.6840648368   -1.1162142095
H       -2.0155193943    0.3620303817    0.6933167375
H       -1.1140506822    2.1028811481   -1.1597010666
C        0.2292172036   -0.1649180649    1.0598794158
H        0.3098658615   -0.3174109755    2.1340659053
13   
Frame  37 IRC: Energy =  -286.8569150000 ; +10.3778 kcal/mol
C        1.2611911898    0.3180665415    0.1050433737
C        0.6220125308   -1.0926989879   -0.1530859174
C       -0.7454402555   -0.9689446046   -0.6401030993
C       -1.0360879886    0.2486781941    0.2298719401
C       -0.4935236819    1.4194654811   -0.5860115171
N        0.7870570440    1.4303345393   -0.6832926970
H        2.3131424890    0.2963543426    0.3681678515
H        1.2835340092   -1.9476572407   -0.2471859155
H       -1.4026217769   -1.6818568669   -1.1176359244
H       -2.0167960497    0.3618227854    0.6936333118
H       -1.1143155666    2.1034875405   -1.1592515777
C        0.2314812443   -0.1673808140    1.0584576075
H        0.3103668122   -0.3196709105    2.1313925638
13   
Frame  38 IRC: Energy =  -286.8573420000 ; +10.1098 kcal/mol
C        1.2654444990    0.3262336422    0.0972967111
C        0.6189455365   -1.0947234716   -0.1436213337
C       -0.7438169201   -0.9669914200   -0.6427818036
C       -1.0339057448    0.2474539678    0.2298566536
C       -0.4983002566    1.4229602946   -0.5860414793
N        0.7842067592    1.4341621874   -0.6874714895
H        2.3166931058    0.3049091377    0.3567469633
H        1.2733035370   -1.9567284635   -0.1968436003
H       -1.4019896003   -1.6679181948   -1.1343471397
H       -2.0152897054    0.3573458393    0.6943504618
H       -1.1207765425    2.1097181017   -1.1544715679
C        0.2370991203   -0.1744131498    1.0489945576
H        0.3183862118   -0.3420084709    2.1183330665
13   