
Running Job 1 of 1 irc_product.in
qchem irc_product.in_99847.0 ./irc_product.d/ 1
/home/leeping/opt/qchem/5.0.2-openmp/exe/qcprog.exe_s irc_product.in_99847.0 ./irc_product.d/
Check license passed

                  Welcome to Q-Chem
     A Quantum Leap Into The Future Of Chemistry


 Q-Chem 5.0, Q-Chem, Inc., Pleasanton, CA (2017)

 Yihan Shao,  Zhengting Gan,  E. Epifanovsky,  A. T. B. Gilbert,  M. Wormit,  
 J. Kussmann,  A. W. Lange,  A. Behn,  Jia Deng,  Xintian Feng,  D. Ghosh,  
 M. Goldey,  P. R. Horn,  L. D. Jacobson,  I. Kaliman,  T. Kus,  A. Landau,  
 Jie Liu,  E. I. Proynov,  R. M. Richard,  R. P. Steele,  E. J. Sundstrom,  
 H. L. Woodcock III,  P. M. Zimmerman,  D. Zuev,  B. Albrecht,  E. Alguire,  
 S. A. Baeppler,  D. Barton,  Z. Benda,  Y. A. Bernard,  E. J. Berquist,  
 K. B. Bravaya,  H. Burton,  D. Casanova,  Chun-Min Chang,  Yunqing Chen,  
 A. Chien,  K. D. Closser,  M. P. Coons,  S. Dasgupta,  A. L. Dempwolff,  
 M. Diedenhofen,  Hainam Do,  R. G. Edgar,  Po-Tung Fang,  S. Fatehi,  
 Qingguo Feng,  J. Fosso-Tande,  Qinghui Ge,  A. Ghysels,  G. Gidofalvi,  
 J. Gomes,  J. Gonthier,  A. Gunina,  M. W. D. Hanson-Heine,  
 P. H. P. Harbach,  A. W. Hauser,  J. E. Herr,  E. G. Hohenstein,  
 Z. C. Holden,  Kerwin Hui,  T.-C. Jagau,  Hyunjun Ji,  B. Kaduk,  
 K. Khistyaev,  Jaehoon Kim,  P. Klunzinger,  K. Koh,  D. Kosenkov,  
 L. Koulias,  T. Kowalczyk,  C. M. Krauter,  A. Kunitsa,  Ka Un Lao,  
 A. Laurent,  K. V. Lawler,  Joonho Lee,  D. Lefrancois,  S. Lehtola,  
 D. S. Levine,  Yi-Pei Li,  You-Sheng Lin,  Fenglai Liu,  E. Livshits,  
 A. Luenser,  P. Manohar,  E. Mansoor,  S. F. Manzer,  Shan-Ping Mao,  
 Yuezhi Mao,  N. Mardirossian,  A. V. Marenich,  T. Markovich,  
 L. A. Martinez-Martinez,  S. A. Maurer,  N. J. Mayhall,  S. C. McKenzie,  
 J.-M. Mewes,  A. F. Morrison,  J. W. Mullinax,  K. Nanda,  
 T. S. Nguyen-Beck,  R. Olivares-Amaya,  J. A. Parkhill,  T. M. Perrine,  
 F. Plasser,  S. Prager,  A. Prociuk,  E. Ramos,  D. R. Rehn,  F. Rob,  
 M. Schneider,  N. Sergueev,  S. M. Sharada,  S. Sharma,  D. W. Small,  
 T. Stauch,  T. Stein,  Yu-Chuan Su,  A. J. W. Thom,  A. Tkatchenko,  
 T. Tsuchimochi,  L. Vogt,  O. Vydrov,  M. A. Watson,  J. Wenzel,  
 M. de Wergifosse,  T. A. Wesolowski,  A. White,  J. Witte,  A. Yamada,  
 Jun Yang,  K. Yao,  S. Yeganeh,  S. R. Yost,  Zhi-Qiang You,  A. Zech,  
 Igor Ying Zhang,  Xing Zhang,  Yan Zhao,  Ying Zhu,  B. R. Brooks,  
 G. K. L. Chan,  C. J. Cramer,  M. S. Gordon,  W. J. Hehre,  A. Klamt,  
 M. W. Schmidt,  C. D. Sherrill,  D. G. Truhlar,  A. Aspuru-Guzik,  R. Baer,  
 A. T. Bell,  N. A. Besley,  Jeng-Da Chai,  R. A. DiStasio Jr.,  A. Dreuw,  
 B. D. Dunietz,  T. R. Furlani,  Chao-Ping Hsu,  Yousung Jung,  Jing Kong,  
 D. S. Lambrecht,  WanZhen Liang,  C. Ochsenfeld,  V. A. Rassolov,  
 L. V. Slipchenko,  J. E. Subotnik,  T. Van Voorhis,  J. M. Herbert,  
 A. I. Krylov,  P. M. W. Gill,  M. Head-Gordon

 Contributors to earlier versions of Q-Chem not listed above: 
 R. D. Adamson,  B. Austin,  J. Baker,  G. J. O. Beran,  K. Brandhorst,  
 S. T. Brown,  E. F. C. Byrd,  A. K. Chakraborty,  C.-L. Cheng,  
 Siu Hung Chien,  D. M. Chipman,  D. L. Crittenden,  H. Dachsel,  
 R. J. Doerksen,  A. D. Dutoi,  L. Fusti-Molnar,  W. A. Goddard III,  
 A. Golubeva-Zadorozhnaya,  S. R. Gwaltney,  G. Hawkins,  A. Heyden,  
 S. Hirata,  G. Kedziora,  F. J. Keil,  C. Kelley,  Jihan Kim,  R. A. King,  
 R. Z. Khaliullin,  P. P. Korambath,  W. Kurlancheek,  A. M. Lee,  M. S. Lee,  
 S. V. Levchenko,  Ching Yeh Lin,  D. Liotard,  R. C. Lochan,  I. Lotan,  
 P. E. Maslen,  N. Nair,  D. P. O'Neill,  D. Neuhauser,  E. Neuscamman,  
 C. M. Oana,  R. Olson,  B. Peters,  R. Peverati,  P. A. Pieniazek,  
 Y. M. Rhee,  J. Ritchie,  M. A. Rohrdanz,  E. Rosta,  N. J. Russ,  
 H. F. Schaefer III,  N. E. Schultz,  N. Shenvi,  A. C. Simmonett,  A. Sodt,  
 D. Stuck,  K. S. Thanthiriwatte,  V. Vanovschi,  Tao Wang,  A. Warshel,  
 C. F. Williams,  Q. Wu,  X. Xu,  W. Zhang

 Please cite Q-Chem as follows:
 Y. Shao et al., Mol. Phys. 113, 184-215 (2015)
 DOI: 10.1080/00268976.2014.952696

 Q-Chem 5.0.2 for Intel X86 EM64T Linux

 Parts of Q-Chem use Armadillo 5.200.1 (Boston Tea Smuggler).
 http://arma.sourceforge.net/

 Q-Chem begins on Wed Mar  2 15:39:40 2022  

Host: 
0

     Scratch files written to ./irc_product.d//
 Dec517 15110_ 26548  26544 5633   
Processing $rem in /home/leeping/opt/qchem/5.0.2-openmp/config/preferences.
 MEM_STATIC 2000
 MEM_TOTAL  8000
 SYMMETRY   OFF
 SYM_IGNORE TRUE 

Checking the input file for inconsistencies... 	...done.

--------------------------------------------------------------
User input:
--------------------------------------------------------------
$molecule
0 2
C        1.2584822354    0.3164438936    0.0865559111
C        0.5979072681   -1.1278880067   -0.0834035327
C       -0.7730719271   -1.0246632016   -0.5592494543
C       -1.0373097221    0.2330139246    0.2645803952
C       -0.5239470686    1.3852493684   -0.5918747669
N        0.7543391302    1.3950458714   -0.7252482598
H        2.3213406786    0.3044773379    0.3014341402
H        1.2601104007   -1.9865217759   -0.1063006015
H       -1.3029118093   -1.4628244767   -1.3997880263
H       -2.0067212743    0.3585624280    0.7500180765
H       -1.1622689805    2.0660484955   -1.1516420647
C        0.2544347252   -0.1568619970    1.0722710225
H        0.3596163438   -0.3000818616    2.1426471607
$end

$rem
method                b3lyp
basis                 6-31+g(d,p)
unrestricted          true
symmetry              off
sym_ignore            true
incdft                false
incfock               0
scf_convergence       6
thresh                14
jobtype               sp
scf_guess             read
scf_algorithm         diis
max_scf_cycles        100
stability_analysis    true
max_cis_cycles        100
cis_n_roots           4
$end

--------------------------------------------------------------
 ----------------------------------------------------------------
             Standard Nuclear Orientation (Angstroms)
    I     Atom           X                Y                Z
 ----------------------------------------------------------------
    1      C       1.2584822354     0.3164438936     0.0865559111
    2      C       0.5979072681    -1.1278880067    -0.0834035327
    3      C      -0.7730719271    -1.0246632016    -0.5592494543
    4      C      -1.0373097221     0.2330139246     0.2645803952
    5      C      -0.5239470686     1.3852493684    -0.5918747669
    6      N       0.7543391302     1.3950458714    -0.7252482598
    7      H       2.3213406786     0.3044773379     0.3014341402
    8      H       1.2601104007    -1.9865217759    -0.1063006015
    9      H      -1.3029118093    -1.4628244767    -1.3997880263
   10      H      -2.0067212743     0.3585624280     0.7500180765
   11      H      -1.1622689805     2.0660484955    -1.1516420647
   12      C       0.2544347252    -0.1568619970     1.0722710225
   13      H       0.3596163438    -0.3000818616     2.1426471607
 ----------------------------------------------------------------
 Nuclear Repulsion Energy =   281.9984160631 hartrees
 There are       25 alpha and       24 beta electrons
 Requested basis set is 6-31+G(d,p)
 There are 53 shells and 163 basis functions

 Total QAlloc Memory Limit   8000 MB
 Mega-Array Size      1956 MB
 MEM_STATIC part      2000 MB

                       Distance Matrix (Angstroms)
             C (  1)   C (  2)   C (  3)   C (  4)   C (  5)   N (  6)
   C (  2)  1.597292
   C (  3)  2.518501  1.454878
   C (  4)  2.304195  2.155709  1.526522
   C (  5)  2.186245  2.798743  2.422975  1.524698
   N (  6)  1.441030  2.607994  2.866275  2.353738  1.285263
   H (  7)  1.084428  2.273762  3.476029  3.359613  3.172023  2.167697
   H (  8)  2.311027  1.084569  2.294377  3.215903  3.845450  3.474752
   H (  9)  3.454816  2.336271  1.085919  2.390928  3.061215  3.585346
   H ( 10)  3.332193  3.112590  2.269226  1.091408  2.247973  3.297600
   H ( 11)  3.233309  3.800077  3.170947  2.319766  1.088247  2.074956
   C ( 12)  1.484508  1.548047  2.114405  1.572568  2.398618  2.426808
   H ( 13)  2.327139  2.386912  3.017987  2.400568  3.331462  3.354711
             H (  7)   H (  8)   H (  9)   H ( 10)   H ( 11)   C ( 12)
   H (  8)  2.557564
   H (  9)  4.376382  2.918296
   H ( 10)  4.351583  4.111556  2.904215
   H ( 11)  4.165345  4.835699  3.540382  2.691639
   C ( 12)  2.253691  2.397513  3.200303  2.341439  3.448793
   H ( 13)  2.757521  2.951734  4.082256  2.823611  4.332095  1.085025

 
 A cutoff of  1.0D-14 yielded   1403 shell pairs
 There are     13511 function pairs
 Smallest overlap matrix eigenvalue = 2.40E-05

 Scale SEOQF with 1.000000e-01/1.000000e-01/1.000000e-01

 Standard Electronic Orientation quadrupole field applied
 Nucleus-field energy     =     0.0000000026 hartrees
 Guess MOs from SCF MO coefficient file
 Reading MOs from coefficient file
 Reading MOs from coefficient file
 An unrestricted hybrid HF-DFT SCF calculation will be
 performed using Pulay DIIS extrapolation
 Exchange:     0.2000 Hartree-Fock + 0.0800 Slater + 0.7200 B88
 Correlation:  0.1900 VWN1RPA + 0.8100 LYP
 Using SG-1 standard quadrature grid
 SCF converges when DIIS error is below 1.0E-06
Using Q-Chem read-in guess as SCF_GUESS READ specified.

 -------------------------------------------------------
 OpenMP BLAS3 based DFT computing Module                
 -------------------------------------------------------
 ---------------------------------------
  Cycle       Energy         DIIS Error
 ---------------------------------------
    1    -286.8593334815      1.06E-09
    2    -286.8593334815      1.11E-09 Convergence criterion met
 ---------------------------------------
 <S^2> = 0.7568
 SCF time:  CPU 6.55 s  wall 11.69 s
 SCF   energy in the final basis set = -286.85933348
 Total energy in the final basis set = -286.85933348
 
 Direct TDDFT/TDA calculation will be performed
 Exchange:     0.2000 Hartree-Fock + 0.0800 Slater + 0.7200 B88
 Correlation:  0.1900 VWN1RPA + 0.8100 LYP
 Using SG-1 standard quadrature grid
 CIS energy converged when residual is below 10e- 6
 ---------------------------------------------------
 Iter    Rts Conv    Rts Left    Ttl Dev     Max Dev
 ---------------------------------------------------
   1         0           4      0.003352    0.001244
   2         0           4      0.001082    0.000388
   3         0           4      0.000576    0.000298
   4         0           4      0.000268    0.000137
   5         0           4      0.000103    0.000058
   6         0           4      0.000036    0.000016
   7         0           4      0.000012    0.000006
   8         2           2      0.000005    0.000003
   9         4           0      0.000001    0.000001    Roots Converged
 ---------------------------------------------------
 
 ---------------------------------------------------
         TDDFT/TDA Excitation Energies              
 ---------------------------------------------------

 Excited state   1: excitation energy (eV) =    3.4276
 Total energy for state  1:                  -286.73337176 au
    <S**2>     :  0.9289
    Trans. Mom.:  0.0034 X   0.4246 Y  -0.1004 Z
    Strength   :     0.0159888913
    S(  1) --> V(  1) amplitude =  0.9257 alpha
    D( 23) --> S(  1) amplitude = -0.3241 beta

 Excited state   2: excitation energy (eV) =    3.6357
 Total energy for state  2:                  -286.72572416 au
    <S**2>     :  1.2392
    Trans. Mom.: -0.0532 X   0.0407 Y   0.0578 Z
    Strength   :     0.0006966128
    D( 24) --> V(  1) amplitude = -0.2674 alpha
    D( 24) --> S(  1) amplitude =  0.9218 beta
    D( 24) --> V(  1) amplitude =  0.1540 beta

 Excited state   3: excitation energy (eV) =    4.1487
 Total energy for state  3:                  -286.70687261 au
    <S**2>     :  0.9420
    Trans. Mom.:  0.1675 X   0.4848 Y  -0.0073 Z
    Strength   :     0.0267471776
    S(  1) --> V(  1) amplitude =  0.3329 alpha
    D( 23) --> S(  1) amplitude =  0.8884 beta
    D( 23) --> V(  1) amplitude =  0.1779 beta

 Excited state   4: excitation energy (eV) =    4.2998
 Total energy for state  4:                  -286.70131753 au
    <S**2>     :  0.8080
    Trans. Mom.: -0.0080 X  -0.0616 Y   0.1455 Z
    Strength   :     0.0026369044
    S(  1) --> V(  2) amplitude =  0.9829 alpha
 
 ---------------------------------------------------

 Stability analysis will be performed
 ---------------------------------------------------
 Iter    Rts Conv    Rts Left    Ttl Dev     Max Dev
 ---------------------------------------------------
   1         0           8      0.003859    0.000658
   2         0           8      0.001873    0.000915
   3         0           8      0.001027    0.000520
   4         0           8      0.000611    0.000282
   5         4           4      0.000546    0.000260
   6         4           4      0.000214    0.000102
   7         4           4      0.000085    0.000043
   8         5           3      0.000028    0.000015
   9         6           2      0.000011    0.000005
  10         7           1      0.000005    0.000002
  11         8           0      0.000004    0.000001    Roots Converged
 UKS-> UKS   stable,    smallest eigenvalue:      0.0994557
 UKS->CUKS   stable,    smallest eigenvalue:      0.1260395
 ---------------------------------------------------
  SETman timing summary (seconds)
  CPU time               192.55s
  System time              0.00s
  Wall time              224.11s
 
 --------------------------------------------------------------
 
                    Orbital Energies (a.u.)
 --------------------------------------------------------------
 
 Alpha MOs
 -- Occupied --
-14.334 -10.234 -10.230 -10.220 -10.219 -10.219 -10.216  -0.979
 -0.867  -0.759  -0.674  -0.615  -0.580  -0.544  -0.524  -0.475
 -0.448  -0.415  -0.410  -0.366  -0.346  -0.309  -0.285  -0.268
 -0.188
 -- Virtual --
 -0.018   0.002   0.016   0.020   0.032   0.045   0.047   0.060
  0.072   0.074   0.080   0.092   0.103   0.108   0.111   0.115
  0.125   0.138   0.146   0.162   0.165   0.175   0.183   0.186
  0.188   0.194   0.211   0.215   0.227   0.240   0.246   0.254
  0.260   0.264   0.283   0.293   0.300   0.321   0.332   0.338
  0.358   0.386   0.421   0.456   0.617   0.663   0.674   0.689
  0.706   0.724   0.731   0.744   0.751   0.764   0.788   0.793
  0.803   0.811   0.832   0.872   0.903   0.919   0.932   0.982
  0.991   1.030   1.042   1.044   1.079   1.088   1.103   1.154
  1.229   1.260   1.325   1.388   1.415   1.470   1.483   1.495
  1.545   1.579   1.645   1.686   1.690   1.776   1.800   1.849
  1.908   1.914   1.959   1.978   2.022   2.080   2.119   2.144
  2.162   2.183   2.229   2.304   2.347   2.360   2.368   2.399
  2.416   2.449   2.465   2.482   2.499   2.512   2.543   2.561
  2.565   2.587   2.616   2.641   2.684   2.716   2.765   2.804
  2.821   2.874   2.997   3.045   3.094   3.271   3.333   3.360
  3.528   3.552   3.659   4.180   4.428   4.455   4.601   4.616
  4.659   4.877
 
 Beta MOs
 -- Occupied --
-14.333 -10.232 -10.229 -10.221 -10.220 -10.217 -10.204  -0.975
 -0.861  -0.751  -0.662  -0.611  -0.576  -0.537  -0.518  -0.469
 -0.444  -0.412  -0.404  -0.358  -0.342  -0.302  -0.274  -0.262
 -- Virtual --
 -0.075  -0.007   0.003   0.016   0.020   0.035   0.046   0.048
  0.060   0.073   0.078   0.082   0.094   0.104   0.109   0.112
  0.117   0.128   0.140   0.148   0.162   0.167   0.177   0.184
  0.187   0.191   0.195   0.212   0.220   0.233   0.242   0.250
  0.256   0.263   0.266   0.286   0.296   0.303   0.323   0.334
  0.342   0.362   0.389   0.426   0.461   0.620   0.669   0.687
  0.697   0.710   0.729   0.742   0.751   0.756   0.773   0.790
  0.801   0.808   0.814   0.838   0.874   0.906   0.921   0.935
  0.984   0.995   1.032   1.046   1.047   1.082   1.092   1.110
  1.162   1.231   1.265   1.330   1.391   1.417   1.478   1.494
  1.501   1.550   1.585   1.648   1.689   1.699   1.783   1.807
  1.863   1.912   1.924   1.967   1.984   2.025   2.086   2.133
  2.154   2.169   2.187   2.232   2.308   2.352   2.363   2.372
  2.403   2.420   2.457   2.467   2.487   2.506   2.518   2.546
  2.564   2.573   2.593   2.622   2.647   2.687   2.722   2.772
  2.808   2.824   2.878   3.000   3.049   3.096   3.273   3.335
  3.365   3.529   3.556   3.663   4.182   4.444   4.458   4.604
  4.620   4.663   4.882
 --------------------------------------------------------------
 
          Ground-State Mulliken Net Atomic Charges

     Atom                 Charge (a.u.)    Spin (a.u.)
  --------------------------------------------------------
      1 C                    -0.291012       0.103677
      2 C                    -0.053181      -0.154865
      3 C                    -0.154566       0.979274
      4 C                    -0.026696      -0.115245
      5 C                    -0.051370       0.053774
      6 N                    -0.171345       0.035510
      7 H                     0.144242       0.003566
      8 H                     0.138610       0.005197
      9 H                     0.130790      -0.022850
     10 H                     0.133652       0.023576
     11 H                     0.131172       0.001073
     12 C                    -0.063725       0.087044
     13 H                     0.133429       0.000267
  --------------------------------------------------------
  Sum of atomic charges =    -0.000000
  Sum of spin   charges =     1.000000

 -----------------------------------------------------------------
                    Cartesian Multipole Moments
 -----------------------------------------------------------------
    Charge (ESU x 10^10)
                -0.0000
    Dipole Moment (Debye)
         X      -1.1289      Y      -1.4584      Z       1.3680
       Tot       2.2963
    Quadrupole Moments (Debye-Ang)
        XX     -38.9019     XY      -4.8495     YY     -44.4236
        XZ       3.1258     YZ       1.9656     ZZ     -41.7445
    Octopole Moments (Debye-Ang^2)
       XXX      -5.9586    XXY      -6.3780    XYY      -7.7488
       YYY     -20.8747    XXZ       5.1648    XYZ       2.8206
       YYZ       2.4021    XZZ      -6.6323    YZZ      -8.2389
       ZZZ      14.8093
    Hexadecapole Moments (Debye-Ang^3)
      XXXX    -233.9763   XXXY     -11.2456   XXYY     -94.1410
      XYYY     -27.3450   YYYY    -314.5618   XXXZ      -5.4959
      XXYZ      11.1358   XYYZ       7.3939   YYYZ      28.0473
      XXZZ     -69.7668   XYZZ      -5.5911   YYZZ     -79.5429
      XZZZ      -3.3922   YZZZ      24.8801   ZZZZ    -159.5440
 -----------------------------------------------------------------
Archival summary:
1\1\c8-90\SP\ProcedureUnspecified\6-31+G**\166(2)\hpark21\WedMar215:43:402022WedMar215:43:402022\0\\#,ProcedureUnspecified,6-31+G**,\\0,2\N\C,1,1.28526\H,2,1.08825,1,121.684\C,1,1.44103,2,106.486,3,-176.198,0\H,4,1.08443,1,117.566,2,-165.462,0\C,4,1.48451,1,112.091,2,-16.7616,0\H,6,1.08503,4,129.165,1,-128.88,0\C,2,1.5247,1,113.511,3,172.553,0\H,8,1.09141,2,117.514,1,156.249,0\C,8,1.52652,2,105.141,1,-68.384,0\H,10,1.08592,8,131.736,2,-78.8364,0\C,10,1.45488,8,92.5826,2,84.5426,0\H,12,1.08457,10,128.655,8,161.82,0\\\@

 Total job time:  240.16s(wall), 199.34s(cpu) 
 Wed Mar  2 15:43:40 2022

        *************************************************************
        *                                                           *
        *  Thank you very much for using Q-Chem.  Have a nice day.  *
        *                                                           *
        *************************************************************


