
Running Job 1 of 1 irc_reactant.in
qchem irc_reactant.in_99706.0 ./irc_reactant.d/ 1
/home/leeping/opt/qchem/5.0.2-openmp/exe/qcprog.exe_s irc_reactant.in_99706.0 ./irc_reactant.d/
Check license passed

                  Welcome to Q-Chem
     A Quantum Leap Into The Future Of Chemistry


 Q-Chem 5.0, Q-Chem, Inc., Pleasanton, CA (2017)

 Yihan Shao,  Zhengting Gan,  E. Epifanovsky,  A. T. B. Gilbert,  M. Wormit,  
 J. Kussmann,  A. W. Lange,  A. Behn,  Jia Deng,  Xintian Feng,  D. Ghosh,  
 M. Goldey,  P. R. Horn,  L. D. Jacobson,  I. Kaliman,  T. Kus,  A. Landau,  
 Jie Liu,  E. I. Proynov,  R. M. Richard,  R. P. Steele,  E. J. Sundstrom,  
 H. L. Woodcock III,  P. M. Zimmerman,  D. Zuev,  B. Albrecht,  E. Alguire,  
 S. A. Baeppler,  D. Barton,  Z. Benda,  Y. A. Bernard,  E. J. Berquist,  
 K. B. Bravaya,  H. Burton,  D. Casanova,  Chun-Min Chang,  Yunqing Chen,  
 A. Chien,  K. D. Closser,  M. P. Coons,  S. Dasgupta,  A. L. Dempwolff,  
 M. Diedenhofen,  Hainam Do,  R. G. Edgar,  Po-Tung Fang,  S. Fatehi,  
 Qingguo Feng,  J. Fosso-Tande,  Qinghui Ge,  A. Ghysels,  G. Gidofalvi,  
 J. Gomes,  J. Gonthier,  A. Gunina,  M. W. D. Hanson-Heine,  
 P. H. P. Harbach,  A. W. Hauser,  J. E. Herr,  E. G. Hohenstein,  
 Z. C. Holden,  Kerwin Hui,  T.-C. Jagau,  Hyunjun Ji,  B. Kaduk,  
 K. Khistyaev,  Jaehoon Kim,  P. Klunzinger,  K. Koh,  D. Kosenkov,  
 L. Koulias,  T. Kowalczyk,  C. M. Krauter,  A. Kunitsa,  Ka Un Lao,  
 A. Laurent,  K. V. Lawler,  Joonho Lee,  D. Lefrancois,  S. Lehtola,  
 D. S. Levine,  Yi-Pei Li,  You-Sheng Lin,  Fenglai Liu,  E. Livshits,  
 A. Luenser,  P. Manohar,  E. Mansoor,  S. F. Manzer,  Shan-Ping Mao,  
 Yuezhi Mao,  N. Mardirossian,  A. V. Marenich,  T. Markovich,  
 L. A. Martinez-Martinez,  S. A. Maurer,  N. J. Mayhall,  S. C. McKenzie,  
 J.-M. Mewes,  A. F. Morrison,  J. W. Mullinax,  K. Nanda,  
 T. S. Nguyen-Beck,  R. Olivares-Amaya,  J. A. Parkhill,  T. M. Perrine,  
 F. Plasser,  S. Prager,  A. Prociuk,  E. Ramos,  D. R. Rehn,  F. Rob,  
 M. Schneider,  N. Sergueev,  S. M. Sharada,  S. Sharma,  D. W. Small,  
 T. Stauch,  T. Stein,  Yu-Chuan Su,  A. J. W. Thom,  A. Tkatchenko,  
 T. Tsuchimochi,  L. Vogt,  O. Vydrov,  M. A. Watson,  J. Wenzel,  
 M. de Wergifosse,  T. A. Wesolowski,  A. White,  J. Witte,  A. Yamada,  
 Jun Yang,  K. Yao,  S. Yeganeh,  S. R. Yost,  Zhi-Qiang You,  A. Zech,  
 Igor Ying Zhang,  Xing Zhang,  Yan Zhao,  Ying Zhu,  B. R. Brooks,  
 G. K. L. Chan,  C. J. Cramer,  M. S. Gordon,  W. J. Hehre,  A. Klamt,  
 M. W. Schmidt,  C. D. Sherrill,  D. G. Truhlar,  A. Aspuru-Guzik,  R. Baer,  
 A. T. Bell,  N. A. Besley,  Jeng-Da Chai,  R. A. DiStasio Jr.,  A. Dreuw,  
 B. D. Dunietz,  T. R. Furlani,  Chao-Ping Hsu,  Yousung Jung,  Jing Kong,  
 D. S. Lambrecht,  WanZhen Liang,  C. Ochsenfeld,  V. A. Rassolov,  
 L. V. Slipchenko,  J. E. Subotnik,  T. Van Voorhis,  J. M. Herbert,  
 A. I. Krylov,  P. M. W. Gill,  M. Head-Gordon

 Contributors to earlier versions of Q-Chem not listed above: 
 R. D. Adamson,  B. Austin,  J. Baker,  G. J. O. Beran,  K. Brandhorst,  
 S. T. Brown,  E. F. C. Byrd,  A. K. Chakraborty,  C.-L. Cheng,  
 Siu Hung Chien,  D. M. Chipman,  D. L. Crittenden,  H. Dachsel,  
 R. J. Doerksen,  A. D. Dutoi,  L. Fusti-Molnar,  W. A. Goddard III,  
 A. Golubeva-Zadorozhnaya,  S. R. Gwaltney,  G. Hawkins,  A. Heyden,  
 S. Hirata,  G. Kedziora,  F. J. Keil,  C. Kelley,  Jihan Kim,  R. A. King,  
 R. Z. Khaliullin,  P. P. Korambath,  W. Kurlancheek,  A. M. Lee,  M. S. Lee,  
 S. V. Levchenko,  Ching Yeh Lin,  D. Liotard,  R. C. Lochan,  I. Lotan,  
 P. E. Maslen,  N. Nair,  D. P. O'Neill,  D. Neuhauser,  E. Neuscamman,  
 C. M. Oana,  R. Olson,  B. Peters,  R. Peverati,  P. A. Pieniazek,  
 Y. M. Rhee,  J. Ritchie,  M. A. Rohrdanz,  E. Rosta,  N. J. Russ,  
 H. F. Schaefer III,  N. E. Schultz,  N. Shenvi,  A. C. Simmonett,  A. Sodt,  
 D. Stuck,  K. S. Thanthiriwatte,  V. Vanovschi,  Tao Wang,  A. Warshel,  
 C. F. Williams,  Q. Wu,  X. Xu,  W. Zhang

 Please cite Q-Chem as follows:
 Y. Shao et al., Mol. Phys. 113, 184-215 (2015)
 DOI: 10.1080/00268976.2014.952696

 Q-Chem 5.0.2 for Intel X86 EM64T Linux

 Parts of Q-Chem use Armadillo 5.200.1 (Boston Tea Smuggler).
 http://arma.sourceforge.net/

 Q-Chem begins on Wed Mar  2 15:38:11 2022  

Host: 
0

     Scratch files written to ./irc_reactant.d//
 Dec517 15110_ 26548  26544 5633   
Processing $rem in /home/leeping/opt/qchem/5.0.2-openmp/config/preferences.
 MEM_STATIC 2000
 MEM_TOTAL  8000
 SYMMETRY   OFF
 SYM_IGNORE TRUE 

Checking the input file for inconsistencies... 	...done.

--------------------------------------------------------------
User input:
--------------------------------------------------------------
$molecule
0 2
C        1.2055780378    0.1841777103    0.2113397718
C        0.7011930802   -1.1125093138   -0.4428680324
C       -0.6428956001   -1.0610442749   -0.4217674658
C       -1.0242747328    0.2665953407    0.2658455417
C       -0.4501532803    1.3805360264   -0.6310356952
N        0.8258924642    1.3493328889   -0.6876338794
H        2.2565302692    0.2187168464    0.4905250332
H        1.3341129080   -1.8907843106   -0.8526404414
H       -1.3505158891   -1.7757713849   -0.8263355910
H       -2.0548076402    0.3720326229    0.6036214505
H       -1.0437269409    2.1080811837   -1.1805589626
C        0.1247833438    0.2787993010    1.2810820808
H        0.1182839802   -0.3181626357    2.1904261903
$end

$rem
method                b3lyp
basis                 6-31+g(d,p)
unrestricted          true
symmetry              off
sym_ignore            true
incdft                false
incfock               0
scf_convergence       8
thresh                14
jobtype               sp
scf_guess             read
scf_algorithm         diis
max_scf_cycles        100
scf_final_print       1
$end

--------------------------------------------------------------
 ----------------------------------------------------------------
             Standard Nuclear Orientation (Angstroms)
    I     Atom           X                Y                Z
 ----------------------------------------------------------------
    1      C       1.2055780378     0.1841777103     0.2113397718
    2      C       0.7011930802    -1.1125093138    -0.4428680324
    3      C      -0.6428956001    -1.0610442749    -0.4217674658
    4      C      -1.0242747328     0.2665953407     0.2658455417
    5      C      -0.4501532803     1.3805360264    -0.6310356952
    6      N       0.8258924642     1.3493328889    -0.6876338794
    7      H       2.2565302692     0.2187168464     0.4905250332
    8      H       1.3341129080    -1.8907843106    -0.8526404414
    9      H      -1.3505158891    -1.7757713849    -0.8263355910
   10      H      -2.0548076402     0.3720326229     0.6036214505
   11      H      -1.0437269409     2.1080811837    -1.1805589626
   12      C       0.1247833438     0.2787993010     1.2810820808
   13      H       0.1182839802    -0.3181626357     2.1904261903
 ----------------------------------------------------------------
 Nuclear Repulsion Energy =   279.0122249153 hartrees
 There are       25 alpha and       24 beta electrons
 Requested basis set is 6-31+G(d,p)
 There are 53 shells and 163 basis functions

 Total QAlloc Memory Limit   8000 MB
 Mega-Array Size      1956 MB
 MEM_STATIC part      2000 MB

                       Distance Matrix (Angstroms)
             C (  1)   C (  2)   C (  3)   C (  4)   C (  5)   N (  6)
   C (  2)  1.537462
   C (  3)  2.316950  1.345239
   C (  4)  2.232041  2.319794  1.543013
   C (  5)  2.209596  2.752504  2.458100  1.541063
   N (  6)  1.519836  2.477121  2.835126  2.346180  1.277681
   H (  7)  1.087951  2.249991  3.297990  3.288838  3.151802  2.170962
   H (  8)  2.335389  1.083611  2.186935  3.386339  3.732861  3.283881
   H (  9)  3.384049  2.190085  1.084083  2.338922  3.288019  3.810809
   H ( 10)  3.289269  3.300689  2.258014  1.089591  2.261940  3.304677
   H ( 11)  3.270804  3.736460  3.283259  2.341695  1.087946  2.077053
   C ( 12)  1.523620  2.289103  2.298741  1.533359  2.280476  2.348071
   H ( 13)  2.313296  2.811585  2.820430  2.313308  3.342057  3.400659
             H (  7)   H (  8)   H (  9)   H ( 10)   H ( 11)   C ( 12)
   H (  8)  2.665510
   H (  9)  4.326995  2.687220
   H ( 10)  4.315545  4.327334  2.674671
   H ( 11)  4.153783  4.663966  3.912021  2.686903
   C ( 12)  2.274409  3.274499  3.292260  2.284352  3.281976
   H ( 13)  2.783882  3.634781  3.658258  2.777885  4.312826  1.087802

 
 A cutoff of  1.0D-14 yielded   1410 shell pairs
 There are     13528 function pairs
 
 -------------------------------------------------------
 OpenMP Integral Computing Module                       
 Release: version 1.0, May 2013, Q-Chem Inc. Pittsburgh 
 -------------------------------------------------------
 Integral Job Info:
 Integral job number is                      11
 Integral operator is                         1
 short-range coefficients                     0
 long-range coefficients              100000000
 Omega coefficients                           0
 if combine SR and LR in K                    0
 Integral screening is                        0
 Integral computing path is                   2
 max size of driver memory is            800000
 size of driver memory is                593474
 size of scratch memory is              2361544
 max col of scratch BK array               1296
 max len of scratch array in speh3          155
 max len of scratch index in speh4           18
 max int batch size is                      520
 min int batch size is                       52
 fixed nKL is                                52
 max L of basis functions is                  2
 order of int derivative is                   0
 number of shells is                         53
 number of basis is                         163
 number of cartesian basis is               163
 number of contracted shell pairs          1410
 number of primitive shell pairs           4819
 maxK2 (contraction) of shell pair           36
 max number of K2 of shell pair               1
 max number of CS2 of shell pair            127
 max number of PS2 of shell pair            684
 mem total for path MDJ                  535308
 -------------------------------------------------------
 Smallest overlap matrix eigenvalue = 2.23E-05

 Scale SEOQF with 1.000000e-01/1.000000e-01/1.000000e-01

 Standard Electronic Orientation quadrupole field applied
 Nucleus-field energy     =     0.0000000022 hartrees
 Guess MOs from SCF MO coefficient file
 Reading MOs from coefficient file
 Reading MOs from coefficient file
 An unrestricted hybrid HF-DFT SCF calculation will be
 performed using Pulay DIIS extrapolation
 Exchange:     0.2000 Hartree-Fock + 0.0800 Slater + 0.7200 B88
 Correlation:  0.1900 VWN1RPA + 0.8100 LYP
 Using SG-1 standard quadrature grid
 SCF converges when DIIS error is below 1.0E-08
Using Q-Chem read-in guess as SCF_GUESS READ specified.

 using 4 threads for integral computing
 -------------------------------------------------------
 OpenMP Integral computing Module                
 Release: version 1.0, May 2013, Q-Chem Inc. Pittsburgh 
 -------------------------------------------------------
 -------------------------------------------------------
 OpenMP BLAS3 based DFT computing Module                
 Release: version 1.0, May 2013, Q-Chem Inc. Pittsburgh 
 -------------------------------------------------------
 ---------------------------------------
  Cycle       Energy         DIIS Error
 ---------------------------------------
    1    -286.8734530743      6.40E-10
    2    -286.8734530743      1.39E-09 Convergence criterion met
 ---------------------------------------
 One-Electron    Energy =  -938.5489569399
 Total Coulomb   Energy =   414.2675963141
 Alpha Exchange  Energy =    -4.0200123365
 Beta  Exchange  Energy =    -3.9250055766
 DFT   Exchange  Energy =   -31.5531662258
 DFT Correlation Energy =    -2.1061332273
 Nuclear Repu.   Energy =   279.0122249176
 Nuclear Attr.   Energy = -1222.7090091089
 Kinetic         Energy =   284.1600521691
 <S^2> = 0.7539
 SCF time:  CPU 10.41 s  wall 3.67 s
 Final Alpha MO Eigenvalues
            1           2           3           4           5           6
    1 -14.3365612 -10.2345177 -10.2307106 -10.2206783 -10.2163035 -10.2129292
            7           8           9          10          11          12
    1 -10.2090622  -0.9646423  -0.8325416  -0.7367493  -0.7150025  -0.5888403
           13          14          15          16          17          18
    1  -0.5830518  -0.5393553  -0.5201664  -0.4813693  -0.4290079  -0.4203315
           19          20          21          22          23          24
    1  -0.3909983  -0.3823882  -0.3579359  -0.3045481  -0.2831788  -0.2710938
           25          26          27          28          29          30
    1  -0.2056172  -0.0409515   0.0020401   0.0023125   0.0204195   0.0259744
 Final Beta MO Eigenvalues
            1           2           3           4           5           6
    1 -14.3359588 -10.2345411 -10.2311183 -10.2210118 -10.2113044 -10.2080422
            7           8           9          10          11          12
    1 -10.2024518  -0.9612743  -0.8267558  -0.7353547  -0.7001998  -0.5870686
           13          14          15          16          17          18
    1  -0.5706360  -0.5359021  -0.5173847  -0.4724184  -0.4255740  -0.4160871
           19          20          21          22          23          24
    1  -0.3891241  -0.3791593  -0.3522992  -0.2975349  -0.2728600  -0.2680384
           25          26          27          28          29
    1  -0.0638325  -0.0356517   0.0025776   0.0034905   0.0206799
 SCF   energy in the final basis set = -286.87345307
 Total energy in the final basis set = -286.87345307
 
 --------------------------------------------------------------
 
                    Orbital Energies (a.u.)
 --------------------------------------------------------------
 
 Alpha MOs
 -- Occupied --
-14.337 -10.235 -10.231 -10.221 -10.216 -10.213 -10.209  -0.965
 -0.833  -0.737  -0.715  -0.589  -0.583  -0.539  -0.520  -0.481
 -0.429  -0.420  -0.391  -0.382  -0.358  -0.305  -0.283  -0.271
 -0.206
 -- Virtual --
 -0.041   0.002   0.002   0.020   0.026   0.032   0.048   0.049
  0.065   0.072   0.075   0.094   0.104   0.106   0.109   0.120
  0.121   0.131   0.138   0.150   0.170   0.171   0.185   0.190
  0.194   0.199   0.205   0.219   0.230   0.234   0.239   0.248
  0.257   0.267   0.280   0.287   0.303   0.325   0.336   0.342
  0.353   0.392   0.420   0.455   0.616   0.669   0.682   0.701
  0.707   0.717   0.727   0.737   0.746   0.764   0.777   0.789
  0.806   0.832   0.859   0.893   0.898   0.951   0.959   0.994
  1.011   1.026   1.052   1.071   1.083   1.107   1.121   1.145
  1.210   1.288   1.308   1.332   1.360   1.406   1.429   1.481
  1.498   1.576   1.625   1.685   1.743   1.753   1.809   1.832
  1.891   1.899   1.971   1.986   2.032   2.048   2.094   2.111
  2.121   2.170   2.219   2.266   2.292   2.322   2.354   2.397
  2.402   2.449   2.455   2.479   2.494   2.513   2.516   2.558
  2.590   2.605   2.625   2.636   2.686   2.742   2.777   2.791
  2.817   2.867   2.916   3.044   3.110   3.285   3.329   3.388
  3.448   3.542   3.717   4.140   4.375   4.473   4.555   4.612
  4.763   4.826
 
 Beta MOs
 -- Occupied --
-14.336 -10.235 -10.231 -10.221 -10.211 -10.208 -10.202  -0.961
 -0.827  -0.735  -0.700  -0.587  -0.571  -0.536  -0.517  -0.472
 -0.426  -0.416  -0.389  -0.379  -0.352  -0.298  -0.273  -0.268
 -- Virtual --
 -0.064  -0.036   0.003   0.003   0.021   0.029   0.033   0.048
  0.050   0.068   0.073   0.076   0.094   0.105   0.107   0.109
  0.120   0.127   0.132   0.140   0.152   0.170   0.171   0.185
  0.191   0.197   0.200   0.208   0.223   0.233   0.238   0.241
  0.251   0.261   0.269   0.280   0.291   0.308   0.328   0.340
  0.345   0.361   0.394   0.422   0.457   0.620   0.682   0.687
  0.710   0.714   0.725   0.733   0.740   0.749   0.769   0.790
  0.795   0.808   0.835   0.861   0.898   0.905   0.953   0.967
  0.999   1.013   1.029   1.057   1.077   1.084   1.109   1.126
  1.148   1.213   1.292   1.311   1.337   1.363   1.408   1.433
  1.486   1.508   1.584   1.631   1.692   1.746   1.759   1.817
  1.842   1.895   1.912   1.974   1.990   2.048   2.055   2.097
  2.123   2.130   2.172   2.225   2.273   2.306   2.324   2.359
  2.399   2.405   2.452   2.458   2.481   2.496   2.517   2.521
  2.564   2.601   2.610   2.635   2.638   2.689   2.746   2.780
  2.796   2.821   2.871   2.918   3.045   3.112   3.286   3.329
  3.396   3.451   3.543   3.718   4.142   4.385   4.477   4.571
  4.619   4.766   4.827
 --------------------------------------------------------------
 
          Ground-State Mulliken Net Atomic Charges

     Atom                 Charge (a.u.)    Spin (a.u.)
  --------------------------------------------------------
      1 C                     0.022616      -0.089098
      2 C                    -0.146718       0.044687
      3 C                    -0.127862       0.095696
      4 C                     0.008645      -0.060816
      5 C                    -0.091423      -0.031674
      6 N                    -0.203486       0.025860
      7 H                     0.129359       0.003596
      8 H                     0.138799       0.000731
      9 H                     0.138395       0.000104
     10 H                     0.124778       0.003449
     11 H                     0.137330      -0.000085
     12 C                    -0.269247       1.033705
     13 H                     0.138814      -0.026153
  --------------------------------------------------------
  Sum of atomic charges =     0.000000
  Sum of spin   charges =     1.000000

 -----------------------------------------------------------------
                    Cartesian Multipole Moments
 -----------------------------------------------------------------
    Charge (ESU x 10^10)
                -0.0000
    Dipole Moment (Debye)
         X      -1.6756      Y      -1.8957      Z       0.5537
       Tot       2.5900
    Quadrupole Moments (Debye-Ang)
        XX     -38.6510     XY      -4.2867     YY     -43.6716
        XZ       2.3950     YZ       1.0572     ZZ     -43.1420
    Octopole Moments (Debye-Ang^2)
       XXX     -12.0430    XXY     -10.7665    XYY     -11.7131
       YYY     -25.2040    XXZ       3.6286    XYZ       4.4454
       YYZ      -1.8660    XZZ      -6.6603    YZZ     -10.3343
       ZZZ       9.7883
    Hexadecapole Moments (Debye-Ang^3)
      XXXX    -226.3845   XXXY      -8.5155   XXYY     -90.1224
      XYYY     -19.7555   YYYY    -309.1867   XXXZ       4.9959
      XXYZ       8.4804   XYYZ       8.6717   YYYZ      11.5970
      XXZZ     -72.1670   XYZZ      -6.9109   YYZZ     -84.0174
      XZZZ       4.7779   YZZZ       0.4380   ZZZZ    -187.4069
 -----------------------------------------------------------------
 Mayer SCF Bond Order, atomic valence on the diagonal:

            1           2           3           4           5           6
    1   3.5200193   0.8570119  -0.1074488  -0.1336921   0.0307622   0.9781863
    2   0.8570119   4.0662828   2.0742058  -0.0321718   0.0730575  -0.0216540
    3  -0.1074488   2.0742058   4.1008793   0.9098432   0.0602128   0.0288989
    4  -0.1336921  -0.0321718   0.9098432   3.4482837   0.8716000  -0.0549028
    5   0.0307622   0.0730575   0.0602128   0.8716000   3.9410576   1.8292321
    6   0.9781863  -0.0216540   0.0288989  -0.0549028   1.8292321   2.7639047
    7   0.9160181   0.0104782   0.0102201   0.0204494   0.0046751  -0.0227339
    8   0.0254973   0.8466220   0.0680799  -0.0009005   0.0073619   0.0001308
    9   0.0053808   0.0566006   0.8641155   0.0048324   0.0150573   0.0014863
   10   0.0213897   0.0051832   0.0212264   0.8818956  -0.0000937   0.0116278
   11   0.0006909   0.0016722   0.0148283  -0.0428486   0.9640222  -0.0177130
   12   0.9251356   0.1806309   0.1601472   1.0105919   0.0767878   0.0191869
   13   0.0010875   0.0146462  -0.0034501   0.0135871   0.0083823   0.0121593
            7           8           9          10          11          12
    1   0.9160181   0.0254973   0.0053808   0.0213897   0.0006909   0.9251356
    2   0.0104782   0.8466220   0.0566006   0.0051832   0.0016722   0.1806309
    3   0.0102201   0.0680799   0.8641155   0.0212264   0.0148283   0.1601472
    4   0.0204494  -0.0009005   0.0048324   0.8818956  -0.0428486   1.0105919
    5   0.0046751   0.0073619   0.0150573  -0.0000937   0.9640222   0.0767878
    6  -0.0227339   0.0001308   0.0014863   0.0116278  -0.0177130   0.0191869
    7   0.9483828   0.0001812   0.0014327   0.0026543   0.0015335   0.0033542
    8   0.0001812   0.9547843   0.0007501   0.0012820   0.0001756   0.0056164
    9   0.0014327   0.0007501   0.9554914   0.0002192   0.0002213   0.0054447
   10   0.0026543   0.0012820   0.0002192   0.9568814   0.0001273   0.0112255
   11   0.0015335   0.0001756   0.0002213   0.0001273   0.9477476   0.0242787
   12   0.0033542   0.0056164   0.0054447   0.0112255   0.0242787   3.3296462
   13   0.0001200  -0.0000124  -0.0000494   0.0001441   0.0007591   0.9072463
           13
    1   0.0010875
    2   0.0146462
    3  -0.0034501
    4   0.0135871
    5   0.0083823
    6   0.0121593
    7   0.0001200
    8  -0.0000124
    9  -0.0000494
   10   0.0001441
   11   0.0007591
   12   0.9072463
   13   0.9546201


Archival summary:
1\1\c8-90\SP\ProcedureUnspecified\6-31+G**\166(2)\hpark21\WedMar215:38:182022WedMar215:38:182022\0\\#,ProcedureUnspecified,6-31+G**,\\0,2\N\C,1,1.27768\H,2,1.08795,1,122.605\C,1,1.51984,2,104.006,3,-179.466,0\H,4,1.08795,1,111.64,2,-163.193,0\C,4,1.52362,1,100.98,2,-34.2678,0\H,6,1.0878,4,123.854,1,-172.126,0\C,6,1.53336,4,93.7967,1,53.3036,0\H,8,1.08959,6,120.181,4,-176.904,0\C,4,1.53746,1,108.236,2,66.7392,0\H,10,1.08361,4,125.102,1,112.145,0\C,10,1.34524,4,106.789,1,-66.6741,0\H,12,1.08408,10,128.397,4,177.443,0\\\@

 Total job time:  6.85s(wall), 12.19s(cpu) 
 Wed Mar  2 15:38:18 2022

        *************************************************************
        *                                                           *
        *  Thank you very much for using Q-Chem.  Have a nice day.  *
        *                                                           *
        *************************************************************


