
Running Job 1 of 1 qcts1.in
qchem qcts1.in_69538.0 ./qcts1.d/ 1
/home/leeping/opt/qchem/5.0.2-openmp/exe/qcprog.exe_s qcts1.in_69538.0 ./qcts1.d/
Check license passed

                  Welcome to Q-Chem
     A Quantum Leap Into The Future Of Chemistry


 Q-Chem 5.0, Q-Chem, Inc., Pleasanton, CA (2017)

 Yihan Shao,  Zhengting Gan,  E. Epifanovsky,  A. T. B. Gilbert,  M. Wormit,  
 J. Kussmann,  A. W. Lange,  A. Behn,  Jia Deng,  Xintian Feng,  D. Ghosh,  
 M. Goldey,  P. R. Horn,  L. D. Jacobson,  I. Kaliman,  T. Kus,  A. Landau,  
 Jie Liu,  E. I. Proynov,  R. M. Richard,  R. P. Steele,  E. J. Sundstrom,  
 H. L. Woodcock III,  P. M. Zimmerman,  D. Zuev,  B. Albrecht,  E. Alguire,  
 S. A. Baeppler,  D. Barton,  Z. Benda,  Y. A. Bernard,  E. J. Berquist,  
 K. B. Bravaya,  H. Burton,  D. Casanova,  Chun-Min Chang,  Yunqing Chen,  
 A. Chien,  K. D. Closser,  M. P. Coons,  S. Dasgupta,  A. L. Dempwolff,  
 M. Diedenhofen,  Hainam Do,  R. G. Edgar,  Po-Tung Fang,  S. Fatehi,  
 Qingguo Feng,  J. Fosso-Tande,  Qinghui Ge,  A. Ghysels,  G. Gidofalvi,  
 J. Gomes,  J. Gonthier,  A. Gunina,  M. W. D. Hanson-Heine,  
 P. H. P. Harbach,  A. W. Hauser,  J. E. Herr,  E. G. Hohenstein,  
 Z. C. Holden,  Kerwin Hui,  T.-C. Jagau,  Hyunjun Ji,  B. Kaduk,  
 K. Khistyaev,  Jaehoon Kim,  P. Klunzinger,  K. Koh,  D. Kosenkov,  
 L. Koulias,  T. Kowalczyk,  C. M. Krauter,  A. Kunitsa,  Ka Un Lao,  
 A. Laurent,  K. V. Lawler,  Joonho Lee,  D. Lefrancois,  S. Lehtola,  
 D. S. Levine,  Yi-Pei Li,  You-Sheng Lin,  Fenglai Liu,  E. Livshits,  
 A. Luenser,  P. Manohar,  E. Mansoor,  S. F. Manzer,  Shan-Ping Mao,  
 Yuezhi Mao,  N. Mardirossian,  A. V. Marenich,  T. Markovich,  
 L. A. Martinez-Martinez,  S. A. Maurer,  N. J. Mayhall,  S. C. McKenzie,  
 J.-M. Mewes,  A. F. Morrison,  J. W. Mullinax,  K. Nanda,  
 T. S. Nguyen-Beck,  R. Olivares-Amaya,  J. A. Parkhill,  T. M. Perrine,  
 F. Plasser,  S. Prager,  A. Prociuk,  E. Ramos,  D. R. Rehn,  F. Rob,  
 M. Schneider,  N. Sergueev,  S. M. Sharada,  S. Sharma,  D. W. Small,  
 T. Stauch,  T. Stein,  Yu-Chuan Su,  A. J. W. Thom,  A. Tkatchenko,  
 T. Tsuchimochi,  L. Vogt,  O. Vydrov,  M. A. Watson,  J. Wenzel,  
 M. de Wergifosse,  T. A. Wesolowski,  A. White,  J. Witte,  A. Yamada,  
 Jun Yang,  K. Yao,  S. Yeganeh,  S. R. Yost,  Zhi-Qiang You,  A. Zech,  
 Igor Ying Zhang,  Xing Zhang,  Yan Zhao,  Ying Zhu,  B. R. Brooks,  
 G. K. L. Chan,  C. J. Cramer,  M. S. Gordon,  W. J. Hehre,  A. Klamt,  
 M. W. Schmidt,  C. D. Sherrill,  D. G. Truhlar,  A. Aspuru-Guzik,  R. Baer,  
 A. T. Bell,  N. A. Besley,  Jeng-Da Chai,  R. A. DiStasio Jr.,  A. Dreuw,  
 B. D. Dunietz,  T. R. Furlani,  Chao-Ping Hsu,  Yousung Jung,  Jing Kong,  
 D. S. Lambrecht,  WanZhen Liang,  C. Ochsenfeld,  V. A. Rassolov,  
 L. V. Slipchenko,  J. E. Subotnik,  T. Van Voorhis,  J. M. Herbert,  
 A. I. Krylov,  P. M. W. Gill,  M. Head-Gordon

 Contributors to earlier versions of Q-Chem not listed above: 
 R. D. Adamson,  B. Austin,  J. Baker,  G. J. O. Beran,  K. Brandhorst,  
 S. T. Brown,  E. F. C. Byrd,  A. K. Chakraborty,  C.-L. Cheng,  
 Siu Hung Chien,  D. M. Chipman,  D. L. Crittenden,  H. Dachsel,  
 R. J. Doerksen,  A. D. Dutoi,  L. Fusti-Molnar,  W. A. Goddard III,  
 A. Golubeva-Zadorozhnaya,  S. R. Gwaltney,  G. Hawkins,  A. Heyden,  
 S. Hirata,  G. Kedziora,  F. J. Keil,  C. Kelley,  Jihan Kim,  R. A. King,  
 R. Z. Khaliullin,  P. P. Korambath,  W. Kurlancheek,  A. M. Lee,  M. S. Lee,  
 S. V. Levchenko,  Ching Yeh Lin,  D. Liotard,  R. C. Lochan,  I. Lotan,  
 P. E. Maslen,  N. Nair,  D. P. O'Neill,  D. Neuhauser,  E. Neuscamman,  
 C. M. Oana,  R. Olson,  B. Peters,  R. Peverati,  P. A. Pieniazek,  
 Y. M. Rhee,  J. Ritchie,  M. A. Rohrdanz,  E. Rosta,  N. J. Russ,  
 H. F. Schaefer III,  N. E. Schultz,  N. Shenvi,  A. C. Simmonett,  A. Sodt,  
 D. Stuck,  K. S. Thanthiriwatte,  V. Vanovschi,  Tao Wang,  A. Warshel,  
 C. F. Williams,  Q. Wu,  X. Xu,  W. Zhang

 Please cite Q-Chem as follows:
 Y. Shao et al., Mol. Phys. 113, 184-215 (2015)
 DOI: 10.1080/00268976.2014.952696

 Q-Chem 5.0.2 for Intel X86 EM64T Linux

 Parts of Q-Chem use Armadillo 5.200.1 (Boston Tea Smuggler).
 http://arma.sourceforge.net/

 Q-Chem begins on Wed Mar  2 10:05:59 2022  

Host: 
0

     Scratch files written to ./qcts1.d//
 Dec517 15110_ 26548  26544 5633   
Processing $rem in /home/leeping/opt/qchem/5.0.2-openmp/config/preferences.
 MEM_STATIC 2000
 MEM_TOTAL  8000
 SYMMETRY   OFF
 SYM_IGNORE TRUE 

Checking the input file for inconsistencies... 	...done.

--------------------------------------------------------------
User input:
--------------------------------------------------------------
$molecule
0 2
C        1.3330909344    0.3451915530   -0.0295625002
C        0.6653534387   -1.0082130837   -0.1126171246
C       -0.7399892168   -1.0149462784   -0.5129873173
C       -1.1279057404    0.3073813230    0.0793849602
C       -0.4805224829    1.4724794616   -0.5972945737
N        0.7990610977    1.4856192549   -0.6721529640
H        2.4224974222    0.3652098374    0.0658887410
H        1.3293051093   -1.8746137160   -0.0698918321
H       -1.3629902135   -1.8698990047   -0.7285805944
H       -2.1887818873    0.4878354428    0.3106099395
H       -1.0518929446    2.3297196736   -0.9609717920
C        0.2088156735   -0.2565443124    1.1149653831
H        0.1674038425   -0.7771549042    2.0876103197
$end

$rem
method                b3lyp
basis                 6-31g(d)
unrestricted          true
symmetry              off
sym_ignore            true
incdft                false
incfock               0
scf_convergence       8
thresh                14
jobtype               freq
scf_guess             read
scf_algorithm         diis
max_scf_cycles        100
$end

--------------------------------------------------------------
 ----------------------------------------------------------------
             Standard Nuclear Orientation (Angstroms)
    I     Atom           X                Y                Z
 ----------------------------------------------------------------
    1      C       1.3330909344     0.3451915530    -0.0295625002
    2      C       0.6653534387    -1.0082130837    -0.1126171246
    3      C      -0.7399892168    -1.0149462784    -0.5129873173
    4      C      -1.1279057404     0.3073813230     0.0793849602
    5      C      -0.4805224829     1.4724794616    -0.5972945737
    6      N       0.7990610977     1.4856192549    -0.6721529640
    7      H       2.4224974222     0.3652098374     0.0658887410
    8      H       1.3293051093    -1.8746137160    -0.0698918321
    9      H      -1.3629902135    -1.8698990047    -0.7285805944
   10      H      -2.1887818873     0.4878354428     0.3106099395
   11      H      -1.0518929446     2.3297196736    -0.9609717920
   12      C       0.2088156735    -0.2565443124     1.1149653831
   13      H       0.1674038425    -0.7771549042     2.0876103197
 ----------------------------------------------------------------
 Nuclear Repulsion Energy =   278.0281736011 hartrees
 There are       25 alpha and       24 beta electrons
 Requested basis set is 6-31G(d)
 There are 40 shells and 117 basis functions

 Total QAlloc Memory Limit   8000 MB
 Mega-Array Size      1956 MB
 MEM_STATIC part      2000 MB

                       Distance Matrix (Angstroms)
             C (  1)   C (  2)   C (  3)   C (  4)   C (  5)   N (  6)
   C (  2)  1.511448
   C (  3)  2.526131  1.461277
   C (  4)  2.463697  2.232360  1.499978
   C (  5)  2.209591  2.775208  2.502342  1.494809
   N (  6)  1.413749  2.559328  2.940551  2.380390  1.281839
   H (  7)  1.093763  2.237344  3.498750  3.550900  3.177008  2.106079
   H (  8)  2.220175  1.092386  2.284150  3.289570  3.841440  3.454713
   H (  9)  3.558666  2.288251  1.079609  2.334228  3.459404  3.992136
   H ( 10)  3.541137  3.250134  2.244029  1.100676  2.170706  3.299788
   H ( 11)  3.239448  3.848433  3.388918  2.275516  1.092514  2.054739
   C ( 12)  1.713483  1.510097  2.031166  1.782488  2.529139  2.564628
   H ( 13)  2.664753  2.267673  2.764600  2.624312  3.562215  3.624284
             H (  7)   H (  8)   H (  9)   H ( 10)   H ( 11)   C ( 12)
   H (  8)  2.496060
   H (  9)  4.467305  2.771705
   H ( 10)  4.619396  4.254748  2.705690
   H ( 11)  4.121302  4.913303  4.217533  2.510373
   C ( 12)  2.527356  2.297288  2.910696  2.636202  3.547910
   H ( 13)  3.236943  2.685004  3.386315  3.210848  4.520311  1.103988

 
 A cutoff of  1.0D-14 yielded    810 shell pairs
 There are      7082 function pairs
 Smallest overlap matrix eigenvalue = 1.90E-03
 Guess MOs from SCF MO coefficient file
 Reading MOs from coefficient file
 Reading MOs from coefficient file
 An unrestricted hybrid HF-DFT SCF calculation will be
 performed using Pulay DIIS extrapolation
 Exchange:     0.2000 Hartree-Fock + 0.0800 Slater + 0.7200 B88
 Correlation:  0.1900 VWN1RPA + 0.8100 LYP
 Using SG-1 standard quadrature grid
 SCF converges when DIIS error is below 1.0E-08
Using Q-Chem read-in guess as SCF_GUESS READ specified.

 -------------------------------------------------------
 OpenMP BLAS3 based DFT computing Module                
 -------------------------------------------------------
 ---------------------------------------
  Cycle       Energy         DIIS Error
 ---------------------------------------
    1    -286.7863233559      1.03E-09
    2    -286.7863233559      1.56E-09 Convergence criterion met
 ---------------------------------------
 <S^2> = 0.7550
 SCF time:  CPU 3.39 s  wall 6.31 s
 SCF   energy in the final basis set = -286.78632336
 Total energy in the final basis set = -286.78632336
 
 --------------------------------------------------------------
 
                    Orbital Energies (a.u.)
 --------------------------------------------------------------
 
 Alpha MOs
 -- Occupied --
-14.325 -10.241 -10.233 -10.223 -10.221 -10.205 -10.189  -0.958
 -0.858  -0.753  -0.641  -0.623  -0.590  -0.536  -0.490  -0.451
 -0.446  -0.420  -0.402  -0.354  -0.330  -0.312  -0.271  -0.250
 -0.137
 -- Virtual --
 -0.023   0.056   0.085   0.113   0.137   0.143   0.156   0.164
  0.171   0.194   0.230   0.251   0.281   0.310   0.347   0.395
  0.483   0.505   0.526   0.538   0.550   0.573   0.584   0.600
  0.620   0.637   0.666   0.670   0.697   0.730   0.760   0.802
  0.812   0.841   0.842   0.847   0.865   0.873   0.899   0.926
  0.980   1.030   1.071   1.133   1.178   1.193   1.296   1.335
  1.352   1.430   1.475   1.518   1.567   1.612   1.653   1.692
  1.742   1.796   1.827   1.881   1.914   1.948   1.971   2.027
  2.062   2.162   2.191   2.211   2.256   2.286   2.357   2.394
  2.408   2.441   2.486   2.505   2.557   2.574   2.606   2.637
  2.704   2.780   2.811   2.944   3.033   3.966   4.179   4.206
  4.293   4.423   4.498   4.532
 
 Beta MOs
 -- Occupied --
-14.325 -10.240 -10.230 -10.223 -10.221 -10.205 -10.177  -0.955
 -0.850  -0.747  -0.625  -0.620  -0.585  -0.531  -0.486  -0.448
 -0.437  -0.417  -0.398  -0.348  -0.325  -0.297  -0.263  -0.246
 -- Virtual --
 -0.019  -0.007   0.060   0.089   0.118   0.138   0.150   0.161
  0.166   0.174   0.197   0.234   0.254   0.284   0.313   0.359
  0.397   0.491   0.510   0.535   0.547   0.554   0.579   0.589
  0.605   0.626   0.664   0.671   0.673   0.704   0.735   0.763
  0.804   0.813   0.843   0.845   0.849   0.869   0.875   0.903
  0.929   0.982   1.040   1.081   1.137   1.184   1.199   1.302
  1.341   1.359   1.432   1.482   1.523   1.574   1.615   1.663
  1.697   1.747   1.809   1.834   1.889   1.917   1.966   1.979
  2.032   2.071   2.167   2.196   2.232   2.265   2.295   2.366
  2.403   2.424   2.445   2.492   2.514   2.565   2.579   2.609
  2.641   2.714   2.784   2.819   2.946   3.036   3.966   4.183
  4.210   4.312   4.428   4.501   4.537
 --------------------------------------------------------------
 
          Ground-State Mulliken Net Atomic Charges

     Atom                 Charge (a.u.)    Spin (a.u.)
  --------------------------------------------------------
      1 C                    -0.012162       0.040050
      2 C                    -0.153190      -0.043273
      3 C                    -0.089422       0.921879
      4 C                    -0.263881      -0.049875
      5 C                     0.118137       0.017504
      6 N                    -0.342537       0.002039
      7 H                     0.155762       0.009237
      8 H                     0.145902       0.002572
      9 H                     0.139224      -0.048479
     10 H                     0.135544       0.007643
     11 H                     0.146103       0.003942
     12 C                    -0.136579       0.131878
     13 H                     0.157099       0.004884
  --------------------------------------------------------
  Sum of atomic charges =    -0.000000
  Sum of spin   charges =     1.000000

 -----------------------------------------------------------------
                    Cartesian Multipole Moments
 -----------------------------------------------------------------
    Charge (ESU x 10^10)
                -0.0000
    Dipole Moment (Debye)
         X      -0.9602      Y      -1.7118      Z       1.1830
       Tot       2.2916
    Quadrupole Moments (Debye-Ang)
        XX     -37.3223     XY      -4.1851     YY     -41.4105
        XZ       1.4951     YZ      -0.4376     ZZ     -42.5911
    Octopole Moments (Debye-Ang^2)
       XXX      -7.5446    XXY      -8.1219    XYY     -10.9202
       YYY     -25.2456    XXZ       3.9146    XYZ       2.4834
       YYZ       4.1955    XZZ      -4.5877    YZZ      -9.4612
       ZZZ      15.4259
    Hexadecapole Moments (Debye-Ang^3)
      XXXX    -235.0102   XXXY      -9.2591   XXYY     -93.1613
      XYYY     -22.7429   YYYY    -306.1036   XXXZ      -4.7103
      XXYZ      11.9445   XYYZ       7.1660   YYYZ      31.6462
      XXZZ     -71.1030   XYZZ      -6.1066   YYZZ     -76.8137
      XZZZ      -5.5543   YZZZ      23.3250   ZZZZ    -140.2431
 -----------------------------------------------------------------
 Calculating MO derivatives via CPSCF
   1         3          39      0.266105    0.059957
   2         3          39      0.027074    0.005383
   3         3          39      0.002957    0.000492
   4         3          39      0.000424    0.000070
   5        30          12      0.000033    0.000007
   6        42           0      0.000000    0.000000    Roots Converged
 Time for AOints: 6.3 s (CPU) 7.1 s (wall)
 ------------------------------------------------------------------------------
                     AOints        : Timing summary (seconds)
 ------------------------------------------------------------------------------
     job step          cpu (% of tot)      sys (% of tot)     wall (% of tot)
 ------------------------------------------------------------------------------
  cpscf_lag         0.5632E+02 (28.9)   0.6700E-04 (38.5)   0.6261E+02 (28.2)
  iterzp            0.1318E+03 (67.7)   0.1020E-03 (58.6)   0.1520E+03 (68.5)
  make_fx           0.0000E+00 ( 0.0)   0.0000E+00 ( 0.0)   0.0000E+00 ( 0.0)
  AOints            0.6310E+01 ( 3.2)   0.4000E-05 ( 2.3)   0.7149E+01 ( 3.2)
 ------------------------------------------------------------------------------
   Grand Totals     0.1946E+03          0.1740E-03          0.2220E+03
 ------------------------------------------------------------------------------
 Calculating analytic Hessian of the SCF energy
 Polarizability Matrix (a.u.)
            1           2           3
    1 -67.2142359   2.4868221  -2.3415564
    2   2.4868221 -62.3073916   6.7219011
    3  -2.3415564   6.7219011 -47.7833145
 
 Direct stationary perturbation theory relativistic correction:
 
 rels  =       0.069276721718
 relv  =      -0.340212785072
 rel2e =       0.158065345679
 E_rel =      -0.112870717675
 
 Hessian of the SCF Energy
            1           2           3           4           5           6
    1   0.6526769  -0.0284019   0.1254403  -0.0921367  -0.0703380  -0.0428222
    2  -0.0284019   0.4279881  -0.0618093  -0.0257335  -0.1693348  -0.0408104
    3   0.1254403  -0.0618093   0.1491121  -0.0079123   0.0211846  -0.0078887
    4  -0.0921367  -0.0257335  -0.0079123   0.5560765  -0.1551699   0.0617137
    5  -0.0703380  -0.1693348   0.0211846  -0.1551699   0.5865317   0.0619176
    6  -0.0428222  -0.0408104  -0.0078887   0.0617137   0.0619176   0.2721191
    7  -0.0122093  -0.0218989  -0.0034956  -0.2492792   0.0112285  -0.0765897
    8  -0.0215282   0.0021329  -0.0163590  -0.0036140  -0.0845028   0.0011427
    9  -0.0037298  -0.0071344   0.0107331  -0.0709459  -0.0081265  -0.0457398
   10  -0.0257911   0.0005079   0.0024423  -0.0346513   0.0439828   0.0111492
   11  -0.0017748  -0.0165361   0.0177611   0.0237220  -0.0176373  -0.0095575
   12  -0.0016702  -0.0023098  -0.0071911   0.0092262  -0.0069304   0.0059529
   13  -0.0510801   0.0458253  -0.0374480  -0.0020098  -0.0071927   0.0035129
   14   0.0411833  -0.0141367   0.0052807   0.0069320  -0.0019578  -0.0017042
   15  -0.0177331   0.0117674  -0.0052552  -0.0024168   0.0042763   0.0040994
   16  -0.1133877   0.0547282  -0.0230680   0.0041977   0.0053605  -0.0001800
   17   0.0431944  -0.1619467   0.0498088  -0.0032193  -0.0345262   0.0215891
   18  -0.0365097   0.0545202  -0.0820748   0.0122036  -0.0026838   0.0001656
   19  -0.3268543  -0.0069510  -0.0304150  -0.0056092   0.0000785   0.0003028
   20  -0.0131231  -0.0453961   0.0065424  -0.0269448  -0.0010534  -0.0034822
   21  -0.0194488   0.0029530  -0.0408159  -0.0116992   0.0029662  -0.0025091
   22   0.0098050  -0.0136981   0.0022043  -0.1514885   0.1325333  -0.0100323
   23   0.0144211  -0.0182081   0.0019233   0.1321460  -0.2221894   0.0073616
   24  -0.0058572   0.0048154  -0.0017246  -0.0179924   0.0111276  -0.0475062
   25  -0.0034327   0.0026771  -0.0014765  -0.0075491  -0.0220012   0.0006748
   26   0.0017392  -0.0024299   0.0004080   0.0077340   0.0076032   0.0036329
   27   0.0032748   0.0035463   0.0041268  -0.0105566  -0.0032359  -0.0051440
   28   0.0002414  -0.0000568   0.0009431  -0.0011134   0.0016751   0.0015616
   29  -0.0008261  -0.0014486   0.0013336   0.0028696  -0.0065002  -0.0025398
   30  -0.0034654   0.0021368  -0.0019840  -0.0017847  -0.0013477   0.0015355
   31  -0.0045733   0.0007053   0.0019206  -0.0005725  -0.0000337   0.0003195
   32   0.0004842   0.0054168   0.0046707  -0.0025353   0.0005122  -0.0004051
   33   0.0019466   0.0055887   0.0104673  -0.0027516   0.0013502  -0.0025143
   34  -0.0392031  -0.0093328  -0.0287021  -0.0179849   0.0622670   0.0419412
   35   0.0258885  -0.0049564  -0.0229475   0.0456248  -0.0675717  -0.0154012
   36   0.0008442   0.0360941  -0.0271953   0.0406295  -0.0914242  -0.1512598
   37   0.0059452   0.0016293  -0.0004330   0.0021202  -0.0023903   0.0084484
   38   0.0090815  -0.0011443  -0.0077975  -0.0018115   0.0106267  -0.0217437
   39  -0.0002696  -0.0093580  -0.0003097   0.0022863   0.0109259  -0.0213107
            7           8           9          10          11          12
    1  -0.0122093  -0.0215282  -0.0037298  -0.0257911  -0.0017748  -0.0016702
    2  -0.0218989   0.0021329  -0.0071344   0.0005079  -0.0165361  -0.0023098
    3  -0.0034956  -0.0163590   0.0107331   0.0024423   0.0177611  -0.0071911
    4  -0.2492792  -0.0036140  -0.0709459  -0.0346513   0.0237220   0.0092262
    5   0.0112285  -0.0845028  -0.0081265   0.0439828  -0.0176373  -0.0069304
    6  -0.0765897   0.0011427  -0.0457398   0.0111492  -0.0095575   0.0059529
    7   0.5179679   0.1411334   0.1255670  -0.0868072   0.0035732   0.0265779
    8   0.1411334   0.5267129   0.1732096   0.0401734  -0.1649540  -0.0692610
    9   0.1255670   0.1732096   0.1285397   0.0265281  -0.0662594  -0.0476396
   10  -0.0868072   0.0401734   0.0265281   0.5812371  -0.0297226  -0.1656259
   11   0.0035732  -0.1649540  -0.0662594  -0.0297226   0.4133315   0.0126960
   12   0.0265779  -0.0692610  -0.0476396  -0.1656259   0.0126960   0.2209348
   13   0.0186400  -0.0133344   0.0018607  -0.1086405  -0.0046530   0.0239357
   14   0.0030465  -0.0366780   0.0065514  -0.0407232  -0.1393475   0.0517586
   15  -0.0147822  -0.0113377   0.0048779   0.0363647   0.0471087  -0.0927810
   16  -0.0136412   0.0068530  -0.0032653  -0.0357659  -0.0432552   0.0211207
   17   0.0083307   0.0055534  -0.0003611  -0.0264757   0.0125802   0.0153324
   18   0.0002545   0.0076932  -0.0009686   0.0127612   0.0029746   0.0136142
   19  -0.0002586  -0.0003640  -0.0023666   0.0006005  -0.0008259   0.0015329
   20  -0.0005046  -0.0046348   0.0000202   0.0009965   0.0000424   0.0006834
   21  -0.0012419  -0.0037127   0.0015888   0.0030829   0.0018778  -0.0021746
   22  -0.0061131   0.0196441   0.0041377  -0.0067210   0.0025637  -0.0007532
   23  -0.0035408   0.0068570   0.0016054  -0.0023913  -0.0000500  -0.0028949
   24  -0.0004312   0.0107237  -0.0033634  -0.0004556  -0.0040158   0.0001848
   25  -0.1583914  -0.1449612  -0.0391172   0.0103316   0.0112628   0.0007765
   26  -0.1477155  -0.2454244  -0.0662618  -0.0136231  -0.0101346   0.0022711
   27  -0.0342165  -0.0604916   0.0010236  -0.0025758  -0.0108338  -0.0019454
   28  -0.0030930   0.0026100   0.0009690  -0.2910532   0.0353501   0.0581042
   29   0.0272128  -0.0009258  -0.0041432   0.0405949  -0.0557885  -0.0073498
   30   0.0102420   0.0039761  -0.0020650   0.0488245  -0.0080859  -0.0665425
   31  -0.0005609  -0.0000866   0.0007564   0.0084735  -0.0106641   0.0049919
   32  -0.0007880  -0.0002600  -0.0010082   0.0115922  -0.0098132   0.0082831
   33   0.0020675   0.0007559  -0.0017047  -0.0057334   0.0049195   0.0068476
   34  -0.0062856  -0.0267695  -0.0434184  -0.0176477   0.0074528   0.0294336
   35  -0.0233181  -0.0040351  -0.0305783  -0.0191931  -0.0114165   0.0019523
   36  -0.0345119  -0.0337184  -0.0462109   0.0309015   0.0133079  -0.0314353
   37   0.0000318   0.0002439   0.0030242   0.0064354   0.0069710  -0.0076505
   38   0.0032409   0.0001587   0.0024862  -0.0057188  -0.0002764  -0.0042311
   39   0.0005602  -0.0026209   0.0009288   0.0023362  -0.0018932   0.0021751
           13          14          15          16          17          18
    1  -0.0510801   0.0411833  -0.0177331  -0.1133877   0.0431944  -0.0365097
    2   0.0458253  -0.0141367   0.0117674   0.0547282  -0.1619467   0.0545202
    3  -0.0374480   0.0052807  -0.0052552  -0.0230680   0.0498088  -0.0820748
    4  -0.0020098   0.0069320  -0.0024168   0.0041977  -0.0032193   0.0122036
    5  -0.0071927  -0.0019578   0.0042763   0.0053605  -0.0345262  -0.0026838
    6   0.0035129  -0.0017042   0.0040994  -0.0001800   0.0215891   0.0001656
    7   0.0186400   0.0030465  -0.0147822  -0.0136412   0.0083307   0.0002545
    8  -0.0133344  -0.0366780  -0.0113377   0.0068530   0.0055534   0.0076932
    9   0.0018607   0.0065514   0.0048779  -0.0032653  -0.0003611  -0.0009686
   10  -0.1086405  -0.0407232   0.0363647  -0.0357659  -0.0264757   0.0127612
   11  -0.0046530  -0.1393475   0.0471087  -0.0432552   0.0125802   0.0029746
   12   0.0239357   0.0517586  -0.0927810   0.0211207   0.0153324   0.0136142
   13   0.8472056  -0.1112098   0.0044983  -0.5621273   0.0114686   0.0240502
   14  -0.1112098   0.5263344  -0.1852867  -0.0158335  -0.0941872   0.0205217
   15   0.0044983  -0.1852867   0.2540115   0.0452938   0.0160284  -0.0665478
   16  -0.5621273  -0.0158335   0.0452938   0.7507827  -0.0468021  -0.0079656
   17   0.0114686  -0.0941872   0.0160284  -0.0468021   0.2993958  -0.1178388
   18   0.0240502   0.0205217  -0.0665478  -0.0079656  -0.1178388   0.1594681
   19   0.0005698   0.0015689  -0.0018342  -0.0087323   0.0034166  -0.0028109
   20   0.0027460  -0.0038301   0.0031440   0.0304739  -0.0024611   0.0047447
   21  -0.0007137   0.0041811  -0.0004015  -0.0188803   0.0024219  -0.0039243
   22  -0.0011664  -0.0017328   0.0012393   0.0005420  -0.0016541  -0.0026003
   23  -0.0004259  -0.0007829   0.0009535  -0.0009826  -0.0018345  -0.0032081
   24   0.0013620  -0.0001675   0.0007961  -0.0001105   0.0021405   0.0000846
   25  -0.0013233   0.0003939   0.0022318   0.0012369   0.0006518  -0.0007330
   26   0.0014991  -0.0002628  -0.0040691  -0.0018713   0.0008236   0.0007013
   27   0.0018271   0.0025834  -0.0013436  -0.0007591  -0.0015118  -0.0003579
   28  -0.0113877   0.0047967   0.0017427  -0.0021273  -0.0027825   0.0015837
   29  -0.0261940   0.0079142   0.0047732  -0.0041900  -0.0043713   0.0022604
   30   0.0147662  -0.0056598  -0.0009225   0.0027010   0.0038847  -0.0002420
   31  -0.1168978   0.1017258  -0.0417729  -0.0263961   0.0274539  -0.0139800
   32   0.1091886  -0.2270557   0.0843151   0.0022256   0.0037492  -0.0049219
   33  -0.0399397   0.0841739  -0.0752560  -0.0025934  -0.0089861  -0.0020759
   34  -0.0081228   0.0134783  -0.0118766   0.0023995  -0.0158792   0.0114825
   35  -0.0034121  -0.0116282   0.0246495   0.0086169  -0.0187991   0.0293404
   36   0.0014400   0.0176531  -0.0211967  -0.0107589   0.0173904  -0.0189825
   37  -0.0036596  -0.0036260  -0.0009548   0.0030190   0.0022969   0.0022639
   38  -0.0043059  -0.0043815   0.0036774   0.0046766  -0.0039761   0.0058962
   39   0.0008484   0.0001144  -0.0000805  -0.0015343   0.0001015   0.0018412
           19          20          21          22          23          24
    1  -0.3268543  -0.0131231  -0.0194488   0.0098050   0.0144211  -0.0058572
    2  -0.0069510  -0.0453961   0.0029530  -0.0136981  -0.0182081   0.0048154
    3  -0.0304150   0.0065424  -0.0408159   0.0022043   0.0019233  -0.0017246
    4  -0.0056092  -0.0269448  -0.0116992  -0.1514885   0.1321460  -0.0179924
    5   0.0000785  -0.0010534   0.0029662   0.1325333  -0.2221894   0.0111276
    6   0.0003028  -0.0034822  -0.0025091  -0.0100323   0.0073616  -0.0475062
    7  -0.0002586  -0.0005046  -0.0012419  -0.0061131  -0.0035408  -0.0004312
    8  -0.0003640  -0.0046348  -0.0037127   0.0196441   0.0068570   0.0107237
    9  -0.0023666   0.0000202   0.0015888   0.0041377   0.0016054  -0.0033634
   10   0.0006005   0.0009965   0.0030829  -0.0067210  -0.0023913  -0.0004556
   11  -0.0008259   0.0000424   0.0018778   0.0025637  -0.0000500  -0.0040158
   12   0.0015329   0.0006834  -0.0021746  -0.0007532  -0.0028949   0.0001848
   13   0.0005698   0.0027460  -0.0007137  -0.0011664  -0.0004259   0.0013620
   14   0.0015689  -0.0038301   0.0041811  -0.0017328  -0.0007829  -0.0001675
   15  -0.0018342   0.0031440  -0.0004015   0.0012393   0.0009535   0.0007961
   16  -0.0087323   0.0304739  -0.0188803   0.0005420  -0.0009826  -0.0001105
   17   0.0034166  -0.0024611   0.0024219  -0.0016541  -0.0018345   0.0021405
   18  -0.0028109   0.0047447  -0.0039243  -0.0026003  -0.0032081   0.0000846
   19   0.3408945   0.0032508   0.0359438   0.0006329  -0.0001795  -0.0000730
   20   0.0032508   0.0570756  -0.0085484   0.0007998   0.0012411  -0.0009046
   21   0.0359438  -0.0085484   0.0401830   0.0009395   0.0008729   0.0003934
   22   0.0006329   0.0007998   0.0009395   0.1580339  -0.1413554   0.0082833
   23  -0.0001795   0.0012411   0.0008729  -0.1413554   0.2376695  -0.0070908
   24  -0.0000730  -0.0009046   0.0003934   0.0082833  -0.0070908   0.0379493
   25   0.0000639  -0.0011778  -0.0009860   0.0007249   0.0006657   0.0004705
   26   0.0000958   0.0005437   0.0000966  -0.0006559   0.0000483  -0.0001303
   27   0.0005435   0.0005599   0.0000630   0.0006192  -0.0002179  -0.0003739
   28   0.0001134   0.0002067   0.0000106  -0.0002273  -0.0005630   0.0002199
   29  -0.0001374   0.0001567   0.0001189   0.0017573   0.0004556   0.0001611
   30   0.0000688   0.0003088   0.0009154  -0.0001743   0.0002823   0.0010665
   31  -0.0003309   0.0012548  -0.0008905   0.0003302   0.0002771  -0.0002409
   32  -0.0001761   0.0000612   0.0000491   0.0004055   0.0003667  -0.0004773
   33   0.0000762  -0.0000637   0.0009432   0.0002545   0.0007565  -0.0001941
   34  -0.0016738   0.0017714   0.0140303  -0.0053650   0.0020067   0.0144924
   35   0.0000408  -0.0023757  -0.0029029   0.0015318  -0.0048476  -0.0184370
   36  -0.0011916  -0.0035984   0.0049968  -0.0039607  -0.0000639   0.0097105
   37   0.0005841   0.0002503  -0.0001467   0.0010124  -0.0000781   0.0003327
   38   0.0001826   0.0006305  -0.0003734  -0.0001392   0.0012743   0.0022551
   39   0.0002234   0.0005940   0.0007418  -0.0001571  -0.0002799   0.0029772
           25          26          27          28          29          30
    1  -0.0034327   0.0017392   0.0032748   0.0002414  -0.0008261  -0.0034654
    2   0.0026771  -0.0024299   0.0035463  -0.0000568  -0.0014486   0.0021368
    3  -0.0014765   0.0004080   0.0041268   0.0009431   0.0013336  -0.0019840
    4  -0.0075491   0.0077340  -0.0105566  -0.0011134   0.0028696  -0.0017847
    5  -0.0220012   0.0076032  -0.0032359   0.0016751  -0.0065002  -0.0013477
    6   0.0006748   0.0036329  -0.0051440   0.0015616  -0.0025398   0.0015355
    7  -0.1583914  -0.1477155  -0.0342165  -0.0030930   0.0272128   0.0102420
    8  -0.1449612  -0.2454244  -0.0604916   0.0026100  -0.0009258   0.0039761
    9  -0.0391172  -0.0662618   0.0010236   0.0009690  -0.0041432  -0.0020650
   10   0.0103316  -0.0136231  -0.0025758  -0.2910532   0.0405949   0.0488245
   11   0.0112628  -0.0101346  -0.0108338   0.0353501  -0.0557885  -0.0080859
   12   0.0007765   0.0022711  -0.0019454   0.0581042  -0.0073498  -0.0665425
   13  -0.0013233   0.0014991   0.0018271  -0.0113877  -0.0261940   0.0147662
   14   0.0003939  -0.0002628   0.0025834   0.0047967   0.0079142  -0.0056598
   15   0.0022318  -0.0040691  -0.0013436   0.0017427   0.0047732  -0.0009225
   16   0.0012369  -0.0018713  -0.0007591  -0.0021273  -0.0041900   0.0027010
   17   0.0006518   0.0008236  -0.0015118  -0.0027825  -0.0043713   0.0038847
   18  -0.0007330   0.0007013  -0.0003579   0.0015837   0.0022604  -0.0002420
   19   0.0000639   0.0000958   0.0005435   0.0001134  -0.0001374   0.0000688
   20  -0.0011778   0.0005437   0.0005599   0.0002067   0.0001567   0.0003088
   21  -0.0009860   0.0000966   0.0000630   0.0000106   0.0001189   0.0009154
   22   0.0007249  -0.0006559   0.0006192  -0.0002273   0.0017573  -0.0001743
   23   0.0006657   0.0000483  -0.0002179  -0.0005630   0.0004556   0.0002823
   24   0.0004705  -0.0001303  -0.0003739   0.0002199   0.0001611   0.0010665
   25   0.1569277   0.1525444   0.0391642   0.0004869  -0.0009822  -0.0001189
   26   0.1525444   0.2491070   0.0636171   0.0004850   0.0011643   0.0006852
   27   0.0391642   0.0636171   0.0070477  -0.0009631   0.0007731  -0.0000297
   28   0.0004869   0.0004850  -0.0009631   0.3062617  -0.0400511  -0.0683861
   29  -0.0009822   0.0011643   0.0007731  -0.0400511   0.0615502   0.0075002
   30  -0.0001189   0.0006852  -0.0000297  -0.0683861   0.0075002   0.0549114
   31   0.0002024  -0.0001615  -0.0001596   0.0004372   0.0008284  -0.0004510
   32   0.0002169  -0.0001894  -0.0000774  -0.0006966   0.0002206  -0.0004104
   33  -0.0004548   0.0006177  -0.0006308  -0.0000392  -0.0005335  -0.0000494
   34   0.0004437   0.0003584   0.0036957   0.0013779  -0.0010316  -0.0027778
   35   0.0012832  -0.0011871   0.0051446  -0.0012315  -0.0027453  -0.0030999
   36  -0.0002421  -0.0017446  -0.0012980   0.0044004  -0.0026268   0.0131038
   37   0.0002784  -0.0004287   0.0001061   0.0000833   0.0001494   0.0005557
   38  -0.0005735   0.0003383   0.0001439   0.0002578   0.0003180  -0.0001702
   39  -0.0001893   0.0001759  -0.0011380  -0.0001467   0.0002727   0.0003025
           31          32          33          34          35          36
    1  -0.0045733   0.0004842   0.0019466  -0.0392031   0.0258885   0.0008442
    2   0.0007053   0.0054168   0.0055887  -0.0093328  -0.0049564   0.0360941
    3   0.0019206   0.0046707   0.0104673  -0.0287021  -0.0229475  -0.0271953
    4  -0.0005725  -0.0025353  -0.0027516  -0.0179849   0.0456248   0.0406295
    5  -0.0000337   0.0005122   0.0013502   0.0622670  -0.0675717  -0.0914242
    6   0.0003195  -0.0004051  -0.0025143   0.0419412  -0.0154012  -0.1512598
    7  -0.0005609  -0.0007880   0.0020675  -0.0062856  -0.0233181  -0.0345119
    8  -0.0000866  -0.0002600   0.0007559  -0.0267695  -0.0040351  -0.0337184
    9   0.0007564  -0.0010082  -0.0017047  -0.0434184  -0.0305783  -0.0462109
   10   0.0084735   0.0115922  -0.0057334  -0.0176477  -0.0191931   0.0309015
   11  -0.0106641  -0.0098132   0.0049195   0.0074528  -0.0114165   0.0133079
   12   0.0049919   0.0082831   0.0068476   0.0294336   0.0019523  -0.0314353
   13  -0.1168978   0.1091886  -0.0399397  -0.0081228  -0.0034121   0.0014400
   14   0.1017258  -0.2270557   0.0841739   0.0134783  -0.0116282   0.0176531
   15  -0.0417729   0.0843151  -0.0752560  -0.0118766   0.0246495  -0.0211967
   16  -0.0263961   0.0022256  -0.0025934   0.0023995   0.0086169  -0.0107589
   17   0.0274539   0.0037492  -0.0089861  -0.0158792  -0.0187991   0.0173904
   18  -0.0139800  -0.0049219  -0.0020759   0.0114825   0.0293404  -0.0189825
   19  -0.0003309  -0.0001761   0.0000762  -0.0016738   0.0000408  -0.0011916
   20   0.0012548   0.0000612  -0.0000637   0.0017714  -0.0023757  -0.0035984
   21  -0.0008905   0.0000491   0.0009432   0.0140303  -0.0029029   0.0049968
   22   0.0003302   0.0004055   0.0002545  -0.0053650   0.0015318  -0.0039607
   23   0.0002771   0.0003667   0.0007565   0.0020067  -0.0048476  -0.0000639
   24  -0.0002409  -0.0004773  -0.0001941   0.0144924  -0.0184370   0.0097105
   25   0.0002024   0.0002169  -0.0004548   0.0004437   0.0012832  -0.0002421
   26  -0.0001615  -0.0001894   0.0006177   0.0003584  -0.0011871  -0.0017446
   27  -0.0001596  -0.0000774  -0.0006308   0.0036957   0.0051446  -0.0012980
   28   0.0004372  -0.0006966  -0.0000392   0.0013779  -0.0012315   0.0044004
   29   0.0008284   0.0002206  -0.0005335  -0.0010316  -0.0027453  -0.0026268
   30  -0.0004510  -0.0004104  -0.0000494  -0.0027778  -0.0030999   0.0131038
   31   0.1398429  -0.1193447   0.0489426  -0.0006872  -0.0019405   0.0005230
   32  -0.1193447   0.2277306  -0.0910780  -0.0014678  -0.0009788   0.0010395
   33   0.0489426  -0.0910780   0.0643932  -0.0012185   0.0015471   0.0001562
   34  -0.0006872  -0.0014678  -0.0012185   0.1435955  -0.0292525  -0.0343549
   35  -0.0019405  -0.0009788   0.0015471  -0.0292525   0.2230992  -0.0892940
   36   0.0005230   0.0010395   0.0001562  -0.0343549  -0.0892940   0.5176453
   37   0.0007323   0.0008955  -0.0005568  -0.0508466  -0.0046381   0.0062817
   38  -0.0000141   0.0002399   0.0009517  -0.0036013  -0.0925578   0.1369853
   39   0.0000408   0.0000208  -0.0003822   0.0072726   0.1200267  -0.2480340
           37          38          39
    1   0.0059452   0.0090815  -0.0002696
    2   0.0016293  -0.0011443  -0.0093580
    3  -0.0004330  -0.0077975  -0.0003097
    4   0.0021202  -0.0018115   0.0022863
    5  -0.0023903   0.0106267   0.0109259
    6   0.0084484  -0.0217437  -0.0213107
    7   0.0000318   0.0032409   0.0005602
    8   0.0002439   0.0001587  -0.0026209
    9   0.0030242   0.0024862   0.0009288
   10   0.0064354  -0.0057188   0.0023362
   11   0.0069710  -0.0002764  -0.0018932
   12  -0.0076505  -0.0042311   0.0021751
   13  -0.0036596  -0.0043059   0.0008484
   14  -0.0036260  -0.0043815   0.0001144
   15  -0.0009548   0.0036774  -0.0000805
   16   0.0030190   0.0046766  -0.0015343
   17   0.0022969  -0.0039761   0.0001015
   18   0.0022639   0.0058962   0.0018412
   19   0.0005841   0.0001826   0.0002234
   20   0.0002503   0.0006305   0.0005940
   21  -0.0001467  -0.0003734   0.0007418
   22   0.0010124  -0.0001392  -0.0001571
   23  -0.0000781   0.0012743  -0.0002799
   24   0.0003327   0.0022551   0.0029772
   25   0.0002784  -0.0005735  -0.0001893
   26  -0.0004287   0.0003383   0.0001759
   27   0.0001061   0.0001439  -0.0011380
   28   0.0000833   0.0002578  -0.0001467
   29   0.0001494   0.0003180   0.0002727
   30   0.0005557  -0.0001702   0.0003025
   31   0.0007323  -0.0000141   0.0000408
   32   0.0008955   0.0002399   0.0000208
   33  -0.0005568   0.0009517  -0.0003822
   34  -0.0508466  -0.0036013   0.0072726
   35  -0.0046381  -0.0925578   0.1200267
   36   0.0062817   0.1369853  -0.2480340
   37   0.0342640  -0.0012751  -0.0112709
   38  -0.0012751   0.0887498  -0.1180800
   39  -0.0112709  -0.1180800   0.2622885
 Gradient time:  CPU 259.49 s  wall 304.90 s
 **********************************************************************
 **                                                                  **
 **                       VIBRATIONAL ANALYSIS                       **
 **                       --------------------                       **
 **                                                                  **
 **        VIBRATIONAL FREQUENCIES (CM**-1) AND NORMAL MODES         **
 **     FORCE CONSTANTS (mDYN/ANGSTROM) AND REDUCED MASSES (AMU)     **
 **                  INFRARED INTENSITIES (KM/MOL)                   **
 **                                                                  **
 **********************************************************************
 

 Mode:                 1                      2                      3
 Frequency:      -537.96                  96.14                 251.53
 Force Cnst:      0.1967                 0.0204                 0.1479
 Red. Mass:       1.1538                 3.7369                 3.9689
 IR Active:          YES                    YES                    YES
 IR Intens:       40.424                 10.882                  2.446
 Raman Active:       YES                    YES                    YES
               X      Y      Z        X      Y      Z        X      Y      Z
 C          0.004 -0.005 -0.021   -0.163 -0.022  0.302    0.005  0.019  0.010
 C          0.019  0.013  0.007   -0.061 -0.085 -0.111    0.039  0.030 -0.014
 C          0.018  0.028 -0.087   -0.038  0.031 -0.126    0.064  0.058 -0.119
 C          0.005  0.013  0.001    0.054 -0.038  0.059    0.190 -0.020  0.315
 C         -0.000  0.005  0.008    0.003 -0.027 -0.043    0.004 -0.045  0.010
 N          0.002  0.002  0.005   -0.015 -0.020  0.000   -0.008 -0.066 -0.113
 H          0.000  0.002  0.002   -0.166 -0.081  0.309   -0.016  0.073  0.172
 H          0.004  0.004  0.008   -0.032 -0.061 -0.197    0.045  0.043  0.098
 H         -0.003 -0.221  0.966   -0.092 -0.019  0.220    0.042  0.116 -0.289
 H          0.004 -0.009 -0.003    0.075 -0.041  0.155    0.237 -0.050  0.518
 H          0.004  0.016  0.030   -0.040 -0.144 -0.245   -0.078 -0.199 -0.211
 C         -0.043 -0.036  0.001    0.205  0.157 -0.104   -0.279  0.032 -0.086
 H         -0.055 -0.030  0.007    0.463  0.438  0.037   -0.397  0.058 -0.089
 TransDip   0.026 -0.006  0.202   -0.029  0.035  0.096   -0.006  0.025  0.043

 Mode:                 4                      5                      6
 Frequency:       388.87                 445.18                 586.83
 Force Cnst:      0.5237                 0.3426                 0.9821
 Red. Mass:       5.8779                 2.9342                 4.8404
 IR Active:          YES                    YES                    YES
 IR Intens:        1.057                  5.148                 13.899
 Raman Active:       YES                    YES                    YES
               X      Y      Z        X      Y      Z        X      Y      Z
 C          0.049  0.001  0.034   -0.057 -0.084 -0.085    0.116 -0.023 -0.195
 C         -0.020  0.068  0.129   -0.006 -0.144  0.149   -0.193  0.033  0.122
 C          0.114  0.314 -0.259    0.099 -0.044 -0.118   -0.069 -0.003 -0.221
 C         -0.139  0.039  0.025    0.044 -0.034 -0.065    0.056 -0.126  0.066
 C         -0.066 -0.053  0.044   -0.025  0.149  0.177    0.012 -0.184 -0.091
 N         -0.078 -0.217 -0.174   -0.039 -0.015 -0.055    0.026  0.147  0.230
 H          0.055  0.093 -0.049   -0.058 -0.054 -0.094    0.148 -0.207 -0.482
 H         -0.111 -0.017 -0.143   -0.002 -0.133  0.321   -0.176  0.041  0.107
 H          0.156  0.290 -0.301    0.037 -0.001 -0.121   -0.082 -0.025 -0.120
 H         -0.213 -0.067 -0.210    0.021 -0.166 -0.066    0.076 -0.012  0.078
 H         -0.030 -0.100 -0.119    0.005  0.335  0.559   -0.099 -0.330 -0.241
 C          0.138 -0.118  0.277   -0.015  0.139 -0.054    0.044  0.156  0.093
 H          0.323 -0.174  0.268    0.060  0.450  0.107    0.162  0.255  0.152
 TransDip   0.003 -0.006 -0.032   -0.016  0.006  0.071   -0.031 -0.056 -0.101

 Mode:                 7                      8                      9
 Frequency:       649.83                 702.08                 801.54
 Force Cnst:      1.4603                 1.8485                 1.4374
 Red. Mass:       5.8695                 6.3649                 3.7972
 IR Active:          YES                    YES                    YES
 IR Intens:        3.290                  2.187                 18.488
 Raman Active:       YES                    YES                    YES
               X      Y      Z        X      Y      Z        X      Y      Z
 C          0.146 -0.065  0.011    0.093 -0.159 -0.075   -0.242 -0.181 -0.065
 C          0.023  0.242 -0.197    0.168 -0.144 -0.002    0.002  0.055 -0.126
 C         -0.021 -0.003  0.018    0.138  0.202  0.080    0.152 -0.013  0.033
 C         -0.206 -0.102 -0.028   -0.044  0.215  0.004    0.128  0.013 -0.003
 C          0.051 -0.145  0.203   -0.192 -0.013 -0.161   -0.012  0.067 -0.097
 N          0.040 -0.226  0.030   -0.175 -0.157  0.307   -0.011 -0.015  0.057
 H          0.144 -0.060  0.089    0.093  0.089 -0.058   -0.234 -0.330 -0.195
 H         -0.109  0.154  0.040   -0.037 -0.280  0.340    0.184  0.183 -0.415
 H          0.258 -0.219  0.075    0.047  0.286  0.035    0.192 -0.021 -0.005
 H         -0.215 -0.032 -0.109   -0.038 -0.015  0.185    0.102 -0.103 -0.059
 H          0.186  0.021  0.385    0.031  0.049 -0.362    0.039  0.150  0.011
 C         -0.055  0.360 -0.056    0.043  0.064 -0.198   -0.027  0.124  0.252
 H         -0.074 -0.145 -0.331   -0.137  0.083 -0.207   -0.145 -0.444 -0.042
 TransDip   0.048  0.019 -0.028    0.042 -0.009  0.020    0.042  0.026 -0.129

 Mode:                10                     11                     12
 Frequency:       860.39                 886.58                 902.85
 Force Cnst:      0.6178                 0.9683                 0.6985
 Red. Mass:       1.4164                 2.0907                 1.4545
 IR Active:          YES                    YES                    YES
 IR Intens:        0.968                 10.509                 10.918
 Raman Active:       YES                    YES                    YES
               X      Y      Z        X      Y      Z        X      Y      Z
 C         -0.029 -0.033 -0.071    0.051  0.027  0.042    0.021  0.029  0.027
 C          0.043  0.007 -0.031   -0.044  0.064  0.021   -0.002  0.062  0.012
 C          0.039  0.007  0.037   -0.015 -0.148 -0.061   -0.029 -0.036 -0.030
 C         -0.094 -0.002  0.039   -0.025  0.017  0.008    0.007  0.019  0.014
 C          0.038  0.021  0.030   -0.015  0.210  0.016   -0.018 -0.018 -0.145
 N          0.040  0.007  0.029   -0.023 -0.105  0.029   -0.010 -0.066  0.036
 H         -0.048 -0.053  0.098    0.104 -0.106 -0.397    0.026  0.030 -0.014
 H          0.068  0.012 -0.380    0.074  0.158  0.135    0.043  0.088 -0.169
 H          0.185 -0.079 -0.031    0.150 -0.282 -0.054    0.117 -0.137 -0.074
 H         -0.134 -0.042 -0.098    0.039 -0.034  0.323    0.098  0.115  0.321
 H          0.065 -0.104 -0.298    0.153  0.042 -0.642    0.150  0.440  0.645
 C         -0.082 -0.040 -0.006    0.023 -0.019 -0.003   -0.016 -0.046  0.005
 H          0.301  0.640  0.353    0.108 -0.110 -0.047    0.163  0.260  0.172
 TransDip   0.024  0.014  0.015    0.014  0.047 -0.092    0.027  0.061  0.082

 Mode:                13                     14                     15
 Frequency:       934.84                 993.48                 997.52
 Force Cnst:      0.8870                 0.9153                 0.9650
 Red. Mass:       1.7227                 1.5740                 1.6460
 IR Active:          YES                    YES                    YES
 IR Intens:        1.656                  8.874                 11.762
 Raman Active:       YES                    YES                    YES
               X      Y      Z        X      Y      Z        X      Y      Z
 C          0.063  0.059  0.058   -0.049  0.035 -0.096    0.130 -0.019 -0.035
 C         -0.007  0.005 -0.030    0.015  0.057  0.005   -0.018 -0.067 -0.028
 C         -0.031  0.012  0.035   -0.067 -0.027 -0.015   -0.042 -0.013 -0.004
 C          0.139 -0.000 -0.107    0.105  0.004 -0.034    0.007 -0.076 -0.006
 C         -0.029 -0.018  0.069    0.012  0.006  0.025   -0.038  0.105 -0.038
 N         -0.062 -0.082  0.018   -0.018 -0.099  0.058   -0.020  0.012 -0.006
 H          0.125 -0.044 -0.436   -0.121  0.285  0.474    0.059  0.373  0.609
 H          0.091  0.059 -0.455    0.182  0.198  0.233   -0.219 -0.244 -0.401
 H         -0.307  0.209  0.078   -0.360  0.179  0.015   -0.029 -0.036  0.032
 H          0.115 -0.059 -0.177    0.068  0.015 -0.209    0.023 -0.211  0.157
 H         -0.098 -0.111 -0.027    0.045 -0.028 -0.090    0.044  0.135 -0.114
 C         -0.029  0.002  0.022   -0.022 -0.008  0.013    0.014  0.058  0.091
 H         -0.332  0.376  0.209    0.527 -0.076 -0.003   -0.226 -0.033  0.041
 TransDip   0.003  0.026 -0.032    0.050  0.076 -0.029    0.063  0.083 -0.035

 Mode:                16                     17                     18
 Frequency:      1030.72                1058.24                1090.96
 Force Cnst:      1.0997                 1.0140                 2.1897
 Red. Mass:       1.7569                 1.5368                 3.1226
 IR Active:          YES                    YES                    YES
 IR Intens:        0.467                  3.488                  0.934
 Raman Active:       YES                    YES                    YES
               X      Y      Z        X      Y      Z        X      Y      Z
 C         -0.058  0.039 -0.067   -0.054  0.027 -0.030    0.105 -0.094  0.074
 C         -0.017 -0.029  0.049    0.092 -0.037  0.038    0.186 -0.100 -0.139
 C          0.012 -0.085 -0.058   -0.057  0.018 -0.040   -0.074 -0.113 -0.101
 C         -0.014  0.144 -0.032   -0.110 -0.066  0.040   -0.063  0.117  0.004
 C          0.013 -0.085  0.084    0.035  0.010 -0.027   -0.040 -0.016  0.009
 N         -0.007 -0.030  0.017    0.050 -0.012  0.012   -0.031  0.089 -0.047
 H         -0.105  0.171  0.298   -0.050 -0.022 -0.072    0.142  0.045 -0.175
 H          0.140  0.072 -0.308    0.527  0.280 -0.049    0.245 -0.058  0.304
 H          0.206 -0.230 -0.085   -0.419  0.259  0.026   -0.363  0.068 -0.065
 H          0.112  0.550  0.210   -0.105 -0.222  0.182    0.014  0.501  0.095
 H         -0.033 -0.186 -0.061    0.235  0.143 -0.036   -0.211 -0.104  0.054
 C          0.081  0.016  0.001    0.055  0.023  0.003   -0.090  0.060  0.174
 H         -0.427  0.022 -0.010   -0.413  0.026 -0.011    0.321  0.045  0.192
 TransDip   0.019 -0.003  0.010   -0.030  0.048 -0.019   -0.009 -0.014  0.026

 Mode:                19                     20                     21
 Frequency:      1114.98                1150.12                1188.37
 Force Cnst:      1.2607                 1.2722                 1.3491
 Red. Mass:       1.7212                 1.6324                 1.6214
 IR Active:          YES                    YES                    YES
 IR Intens:        5.555                  5.213                  6.064
 Raman Active:       YES                    YES                    YES
               X      Y      Z        X      Y      Z        X      Y      Z
 C         -0.016 -0.093 -0.002   -0.005  0.106  0.005   -0.098  0.108 -0.031
 C          0.037  0.085  0.035   -0.034 -0.102  0.053    0.021 -0.048 -0.111
 C         -0.018  0.082  0.034    0.096 -0.020  0.014    0.006  0.033  0.009
 C          0.001 -0.068 -0.168   -0.054  0.023 -0.032   -0.005 -0.048 -0.032
 C         -0.008 -0.009  0.043    0.022 -0.036  0.010    0.064 -0.023  0.015
 N          0.002  0.036 -0.023    0.032 -0.012  0.008    0.019 -0.038  0.030
 H         -0.035 -0.179  0.145    0.022  0.075 -0.204   -0.076  0.463 -0.306
 H         -0.010  0.053  0.079   -0.040 -0.130 -0.488   -0.362 -0.318  0.425
 H         -0.016  0.097  0.008   -0.220  0.201  0.074    0.096 -0.028  0.007
 H          0.274  0.029  0.845    0.028 -0.023  0.316    0.080  0.046  0.236
 H         -0.155 -0.166 -0.088    0.090  0.001  0.007    0.257  0.060 -0.077
 C         -0.012 -0.029 -0.003   -0.096  0.063 -0.016    0.003 -0.009  0.076
 H          0.094  0.056  0.044    0.502 -0.372 -0.210   -0.139  0.152  0.162
 TransDip  -0.051 -0.005  0.056   -0.045 -0.038 -0.043   -0.024  0.063  0.041

 Mode:                22                     23                     24
 Frequency:      1241.75                1314.41                1353.08
 Force Cnst:      1.6876                 1.4711                 1.6500
 Red. Mass:       1.8576                 1.4452                 1.5296
 IR Active:          YES                    YES                    YES
 IR Intens:       14.293                  2.079                 11.603
 Raman Active:       YES                    YES                    YES
               X      Y      Z        X      Y      Z        X      Y      Z
 C          0.026  0.043 -0.016   -0.030 -0.031  0.002   -0.043 -0.116  0.026
 C         -0.090  0.052 -0.085    0.078  0.102  0.055    0.029  0.102  0.052
 C          0.142 -0.112 -0.011    0.046 -0.053 -0.018   -0.004 -0.068 -0.025
 C         -0.032  0.117 -0.001   -0.013 -0.085  0.036   -0.019  0.075  0.015
 C         -0.047 -0.050  0.014   -0.003  0.018 -0.004    0.037  0.006 -0.015
 N          0.025  0.010 -0.012   -0.043  0.012 -0.002    0.047  0.002  0.005
 H         -0.006 -0.382  0.310   -0.033 -0.148 -0.001   -0.024  0.670 -0.256
 H         -0.219 -0.019  0.264   -0.432 -0.289 -0.165   -0.223 -0.092 -0.151
 H         -0.403  0.278  0.052   -0.362  0.231  0.030   -0.189  0.057 -0.023
 H         -0.070 -0.431  0.190    0.039  0.566 -0.150   -0.091 -0.380  0.035
 H          0.098  0.042  0.014    0.259  0.153 -0.115   -0.335 -0.187  0.112
 C          0.035 -0.035  0.030    0.023 -0.010 -0.032    0.021 -0.010 -0.033
 H         -0.147  0.195  0.148   -0.072  0.010 -0.037   -0.046  0.023 -0.031
 TransDip  -0.055 -0.040  0.100    0.006  0.021 -0.041   -0.103 -0.033 -0.017

 Mode:                25                     26                     27
 Frequency:      1373.35                1395.60                1675.04
 Force Cnst:      1.7595                 2.1816                12.0277
 Red. Mass:       1.5833                 1.9011                 7.2758
 IR Active:          YES                    YES                    YES
 IR Intens:        9.781                  4.015                 23.937
 Raman Active:       YES                    YES                    YES
               X      Y      Z        X      Y      Z        X      Y      Z
 C          0.008 -0.076  0.029   -0.053  0.096 -0.032    0.038  0.018 -0.014
 C          0.010  0.019  0.029    0.179  0.010  0.051   -0.005 -0.012 -0.006
 C         -0.048 -0.002 -0.005   -0.146 -0.011 -0.043    0.026 -0.021 -0.002
 C          0.050  0.069 -0.022    0.034  0.073 -0.007   -0.064  0.034  0.012
 C         -0.003 -0.112  0.060   -0.017 -0.012  0.008    0.561  0.050 -0.073
 N         -0.080  0.085 -0.041    0.029 -0.029  0.016   -0.449  0.012  0.016
 H          0.016  0.171 -0.064   -0.061 -0.565  0.057    0.010 -0.312  0.176
 H          0.047  0.041 -0.075   -0.336 -0.410 -0.136   -0.009 -0.022  0.018
 H          0.097 -0.103 -0.044    0.115 -0.213 -0.105   -0.058  0.032  0.013
 H          0.005 -0.303 -0.001   -0.047 -0.440 -0.007   -0.085 -0.276  0.136
 H          0.805  0.291 -0.227   -0.100 -0.072  0.018   -0.199 -0.346  0.260
 C         -0.013 -0.003 -0.007    0.001  0.029  0.022    0.001 -0.003  0.014
 H          0.089 -0.035 -0.023    0.034 -0.102 -0.039   -0.055 -0.036 -0.012
 TransDip   0.032 -0.094  0.011   -0.039 -0.029 -0.042    0.134  0.075 -0.030

 Mode:                28                     29                     30
 Frequency:      3031.32                3056.13                3124.61
 Force Cnst:      5.9130                 5.9866                 6.2664
 Red. Mass:       1.0922                 1.0879                 1.0894
 IR Active:          YES                    YES                    YES
 IR Intens:       11.213                 22.714                  8.005
 Raman Active:       YES                    YES                    YES
               X      Y      Z        X      Y      Z        X      Y      Z
 C          0.001 -0.003  0.001   -0.001  0.000 -0.000   -0.056  0.000 -0.007
 C          0.004 -0.002  0.001    0.001 -0.001  0.000    0.040 -0.051  0.003
 C          0.000  0.000  0.000    0.001  0.000 -0.000   -0.001  0.002 -0.000
 C         -0.006  0.000  0.003   -0.081  0.012  0.021    0.002 -0.000 -0.000
 C          0.001  0.001  0.000    0.004 -0.004  0.002    0.001  0.000 -0.000
 N         -0.001  0.000  0.000   -0.000 -0.000  0.000   -0.000  0.000  0.000
 H         -0.018  0.001 -0.001    0.017  0.000 -0.000    0.654  0.005  0.073
 H         -0.040  0.050 -0.002   -0.008  0.010 -0.001   -0.452  0.593 -0.027
 H         -0.001 -0.001 -0.003   -0.014 -0.015 -0.007   -0.017 -0.027 -0.008
 H          0.066 -0.010 -0.020    0.949 -0.150 -0.237   -0.022  0.003  0.007
 H          0.000 -0.002 -0.001   -0.049  0.067 -0.028    0.003 -0.006  0.003
 C          0.003  0.039 -0.078    0.001 -0.002  0.005    0.000 -0.001  0.004
 H         -0.033 -0.452  0.882    0.000  0.033 -0.062    0.000  0.014 -0.029
 TransDip  -0.014  0.005 -0.106   -0.140  0.020  0.058   -0.007 -0.089 -0.017

 Mode:                31                     32                     33
 Frequency:      3135.40                3143.50                3279.66
 Force Cnst:      6.3285                 6.3631                 6.9383
 Red. Mass:       1.0926                 1.0929                 1.0948
 IR Active:          YES                    YES                    YES
 IR Intens:       40.707                 22.846                  5.217
 Raman Active:       YES                    YES                    YES
               X      Y      Z        X      Y      Z        X      Y      Z
 C         -0.065 -0.002 -0.008   -0.010  0.001 -0.002    0.000  0.000  0.000
 C         -0.034  0.046 -0.001   -0.005  0.006 -0.000    0.005 -0.003  0.002
 C          0.001 -0.002 -0.000   -0.001 -0.000 -0.000   -0.052 -0.069 -0.020
 C         -0.000 -0.000  0.001    0.008  0.001 -0.002   -0.002  0.002  0.002
 C         -0.005  0.009 -0.004    0.046 -0.067  0.030    0.000  0.001 -0.000
 N          0.000 -0.000  0.000   -0.002 -0.000  0.000   -0.000 -0.000 -0.000
 H          0.736  0.010  0.085    0.101  0.001  0.011    0.001  0.000 -0.001
 H          0.390 -0.518  0.025    0.050 -0.066  0.003   -0.026  0.030 -0.003
 H          0.014  0.022  0.008    0.007  0.007  0.003    0.579  0.786  0.195
 H          0.013 -0.001 -0.003   -0.081  0.007  0.022    0.018 -0.005 -0.005
 H          0.069 -0.104  0.045   -0.513  0.769 -0.336    0.002 -0.003  0.001
 C          0.001  0.001 -0.005   -0.000  0.001 -0.002    0.001  0.001  0.001
 H         -0.001 -0.024  0.046    0.002 -0.006  0.013   -0.001 -0.000 -0.002
 TransDip  -0.174  0.105 -0.023    0.066 -0.128  0.052   -0.034 -0.052 -0.038

 STANDARD THERMODYNAMIC QUANTITIES AT   298.15 K  AND     1.00 ATM

   This Molecule has  1 Imaginary Frequencies
   Zero point vibrational energy:       61.836 kcal/mol

   Atom    1 Element C  Has Mass   12.00000
   Atom    2 Element C  Has Mass   12.00000
   Atom    3 Element C  Has Mass   12.00000
   Atom    4 Element C  Has Mass   12.00000
   Atom    5 Element C  Has Mass   12.00000
   Atom    6 Element N  Has Mass   14.00307
   Atom    7 Element H  Has Mass    1.00783
   Atom    8 Element H  Has Mass    1.00783
   Atom    9 Element H  Has Mass    1.00783
   Atom   10 Element H  Has Mass    1.00783
   Atom   11 Element H  Has Mass    1.00783
   Atom   12 Element C  Has Mass   12.00000
   Atom   13 Element H  Has Mass    1.00783
   Molecular Mass:    92.050050 amu
   Principal axes and moments of inertia in amu*Bohr^2:
                             1           2           3
    Eigenvalues --      365.59304   460.92726   632.78972
          X               0.15629     0.98247    -0.10158
          Y               0.94750    -0.12009     0.29636
          Z              -0.27897     0.14257     0.94966
   Rotational Symmetry Number is   1
   The Molecule is an Asymmetric Top
   Translational Enthalpy:        0.889 kcal/mol
   Rotational Enthalpy:           0.889 kcal/mol
   Vibrational Enthalpy:         63.595 kcal/mol
   gas constant (RT):             0.592 kcal/mol
   Translational Entropy:        39.471  cal/mol.K
   Rotational Entropy:           26.169  cal/mol.K
   Vibrational Entropy:           9.681  cal/mol.K

   Total Enthalpy:               65.965 kcal/mol
   Total Entropy:                75.321  cal/mol.K
Archival summary:
1\1\c8-90\FREQ\ProcedureUnspecified\6-31G*\166(2)\hpark21\WedMar210:11:172022WedMar210:11:172022\0\\#,FREQ,ProcedureUnspecified,6-31G*,\\0,2\N\C,1,1.28184\H,2,1.09251,1,119.642\C,1,1.41375,2,110.015,3,174.252,0\H,4,1.09376,1,113.649,2,-171.878,0\C,2,1.49481,1,117.824,3,-175.835,0\H,6,1.10068,2,112.628,1,166.32,0\C,6,1.49998,2,113.35,1,-55.7327,0\H,8,1.07961,6,128.884,2,-137.624,0\C,8,1.46128,6,97.8425,2,67.3571,0\H,10,1.09239,8,126.27,6,162.141,0\C,10,1.5101,8,86.2313,6,32.9964,0\H,12,1.10399,10,119.526,8,105.74,0\\\@

 Total job time:  318.57s(wall), 263.09s(cpu) 
 Wed Mar  2 10:11:17 2022

        *************************************************************
        *                                                           *
        *  Thank you very much for using Q-Chem.  Have a nice day.  *
        *                                                           *
        *************************************************************


