13
image # 1 Energy = -286.85495
C 1.46829   0.44308   -0.35339  
C 0.88440   -0.78568  0.21519   
C -0.74495  -0.80692  0.17339   
C -1.31234  0.45433   -0.33130  
C -0.54855  1.54224   -0.57507  
N 0.84583   1.53553   -0.63423  
H 2.52979   0.39802   -0.60898  
H 1.44228   -1.69950  0.00143   
H -1.25800  -1.72814  -0.10870  
H -2.38311  0.48734   -0.51715  
H -1.00368  2.48094   -0.88026  
C 0.03540   -0.79604  1.40881   
H 0.04465   -1.52522  2.21027   
13
image # 2 Energy = -286.85218
C 1.47459   0.42159   -0.34344  
C 0.87850   -0.80364  0.18403   
C -0.74600  -0.83129  0.13388   
C -1.31833  0.44115   -0.31268  
C -0.53983  1.54715   -0.58104  
N 0.83352   1.54438   -0.63948  
H 2.53501   0.39946   -0.55777  
H 1.43352   -1.71223  -0.00562  
H -1.25018  -1.73413  -0.16937  
H -2.38845  0.49773   -0.44367  
H -1.00488  2.46827   -0.89378  
C 0.03148   -0.78722  1.40206   
H 0.05832   -1.45389  2.22676   
13
image # 3 Energy = -286.85165
C 1.46282   0.43781   -0.34013  
C 0.85464   -0.81380  0.16995   
C -0.73044  -0.84289  0.11302   
C -1.30928  0.45388   -0.29854  
C -0.55402  1.52530   -0.58089  
N 0.85275   1.52142   -0.63917  
H 2.54058   0.40080   -0.51099  
H 1.43113   -1.73498  -0.01507  
H -1.25216  -1.75270  -0.23490  
H -2.39364  0.50635   -0.37366  
H -1.00914  2.45988   -0.90662  
C 0.03040   -0.76554  1.36485   
H 0.07070   -1.39783  2.25177   
13
image # 4 Energy = -286.84793
C 1.45920   0.43218   -0.34322  
C 0.85678   -0.82823  0.13423   
C -0.72490  -0.86746  0.08794   
C -1.31110  0.45011   -0.28843  
C -0.55470  1.51579   -0.58721  
N 0.85570   1.50888   -0.63995  
H 2.54617   0.40319   -0.45063  
H 1.41529   -1.74347  -0.02120  
H -1.24121  -1.74973  -0.30359  
H -2.39368  0.51664   -0.28390  
H -1.01344  2.44584   -0.91928  
C 0.01327   -0.77838  1.35470   
H 0.08500   -1.30994  2.25858   
13
image # 5 Energy = -286.84458
C 1.46529   0.41370   -0.34305  
C 0.84148   -0.83532  0.11531   
C -0.72203  -0.88326  0.06494   
C -1.30771  0.43895   -0.27802  
C -0.54983  1.50537   -0.59673  
N 0.84725   1.51205   -0.64651  
H 2.55416   0.40769   -0.39473  
H 1.40347   -1.75556  -0.02981  
H -1.22962  -1.74502  -0.36577  
H -2.39514  0.52601   -0.19951  
H -1.01784  2.43407   -0.92816  
C 0.00318   -0.77864  1.30799   
H 0.09832   -1.24526  2.28898   
13
image # 6 Energy = -286.83998
C 1.46870   0.42085   -0.34471  
C 0.81969   -0.84026  0.09825   
C -0.72901  -0.88695  0.02425   
C -1.31378  0.43144   -0.26203  
C -0.55695  1.49662   -0.61197  
N 0.85989   1.49707   -0.65352  
H 2.55942   0.41423   -0.33616  
H 1.39681   -1.77773  -0.04377  
H -1.22479  -1.75508  -0.43404  
H -2.38324  0.53363   -0.11199  
H -1.02021  2.41694   -0.93074  
C 0.00624   -0.78353  1.29563   
H 0.10656   -1.17180  2.30321   
13
image # 7 Energy = -286.83290
C 1.47199   0.41060   -0.33193  
C 0.81677   -0.85690  0.07287   
C -0.72421  -0.90749  -0.00665  
C -1.30767  0.45072   -0.25059  
C -0.55953  1.46380   -0.61773  
N 0.85578   1.49799   -0.66986  
H 2.56111   0.42045   -0.27789  
H 1.38172   -1.78757  -0.05843  
H -1.22500  -1.76561  -0.50042  
H -2.37310  0.53991   -0.02707  
H -1.02627  2.40999   -0.93395  
C 0.00422   -0.78198  1.28358   
H 0.11244   -1.09899  2.30725   
13
image # 8 Energy = -286.82596
C 1.46152   0.40930   -0.31513  
C 0.81591   -0.87578  0.04396   
C -0.71454  -0.93196  -0.03234  
C -1.30928  0.43473   -0.22125  
C -0.54808  1.46951   -0.63456  
N 0.85519   1.48388   -0.68156  
H 2.55796   0.42486   -0.21779  
H 1.36679   -1.79593  -0.07215  
H -1.22892  -1.77188  -0.56313  
H -2.35766  0.54619   0.05390   
H -1.02984  2.39765   -0.93460  
C -0.00136  -0.76661  1.25426   
H 0.11905   -1.02915  2.30582   
13
image # 9 Energy = -286.81598
C 1.46153   0.40214   -0.29839  
C 0.80231   -0.87237  0.01662   
C -0.72461  -0.96108  -0.07309  
C -1.28218  0.41427   -0.18580  
C -0.55008  1.46563   -0.64318  
N 0.85582   1.47276   -0.68922  
H 2.54074   0.42880   -0.15646  
H 1.36500   -1.81832  -0.08600  
H -1.23082  -1.77290  -0.60857  
H -2.33811  0.54972   0.12962   
H -1.03212  2.39061   -0.93569  
C -0.00439  -0.74513  1.22784   
H 0.12158   -0.95942  2.28456   
13
image # 10 Energy = -286.80551
C 1.45243   0.40189   -0.28798  
C 0.79106   -0.89214  -0.01486  
C -0.72129  -0.97307  -0.12084  
C -1.26973  0.40166   -0.13935  
C -0.53477  1.45587   -0.64092  
N 0.85130   1.47769   -0.68543  
H 2.52283   0.42927   -0.10214  
H 1.36470   -1.82742  -0.09136  
H -1.25174  -1.80806  -0.62013  
H -2.29806  0.54507   0.17341   
H -1.03244  2.39405   -0.93128  
C -0.01083  -0.69851  1.19489   
H 0.11813   -0.91311  2.24412   
13
image # 11 Energy = -286.81371
C 1.44983   0.39102   -0.31392  
C 0.79446   -0.90059  -0.06189  
C -0.71270  -1.00834  -0.16595  
C -1.21275  0.38797   -0.06197  
C -0.51615  1.46663   -0.64111  
N 0.84373   1.49102   -0.67920  
H 2.50563   0.44030   -0.02851  
H 1.36175   -1.82998  -0.09829  
H -1.26726  -1.85482  -0.59639  
H -2.24787  0.53100   0.24326   
H -1.02445  2.38032   -0.91428  
C -0.07672  -0.66027  1.12131   
H 0.08051   -0.84383  2.17234   
13
image # 12 Energy = -286.83654
C 1.47308   0.38501   -0.36364  
C 0.79126   -0.89287  -0.09457  
C -0.70377  -1.05336  -0.23926  
C -1.13355  0.34973   0.05790   
C -0.47772  1.47705   -0.62047  
N 0.84842   1.51668   -0.67017  
H 2.49334   0.45174   -0.00267  
H 1.36340   -1.82237  -0.08698  
H -1.28478  -1.91399  -0.53922  
H -2.19494  0.50214   0.28463   
H -1.02403  2.38110   -0.90293  
C -0.17977  -0.57844  1.05710   
H 0.00327   -0.81753  2.09460   
13
image # 13 Energy = -286.83214
C 1.47213   0.38175   -0.34920  
C 0.77368   -0.90296  -0.11969  
C -0.69448  -1.05458  -0.31919  
C -1.10287  0.33299   0.10406   
C -0.46721  1.49047   -0.59654  
N 0.85033   1.52211   -0.67080  
H 2.48891   0.44724   0.00442   
H 1.36146   -1.82087  -0.07060  
H -1.29846  -1.94849  -0.49205  
H -2.17147  0.48233   0.29563   
H -1.02453  2.37917   -0.89646  
C -0.17824  -0.50549  1.02723   
H -0.03783  -0.82479  2.05838   
13
image # 14 Energy = -286.82625
C 1.46458   0.37698   -0.33844  
C 0.76230   -0.91023  -0.13950  
C -0.68930  -1.04624  -0.40381  
C -1.09249  0.32720   0.10823   
C -0.46174  1.49960   -0.58334  
N 0.85113   1.51780   -0.67111  
H 2.48489   0.44566   0.03917   
H 1.35151   -1.82959  -0.06970  
H -1.28909  -1.96661  -0.41435  
H -2.14813  0.46520   0.32110   
H -1.02559  2.38439   -0.87853  
C -0.15549  -0.47453  0.98949   
H -0.08475  -0.81737  2.01821   
13
image # 15 Energy = -286.82097
C 1.47214   0.37874   -0.34078  
C 0.76327   -0.92641  -0.15712  
C -0.68879  -1.03487  -0.46683  
C -1.07726  0.32751   0.09849   
C -0.46145  1.50930   -0.57616  
N 0.85107   1.51251   -0.66993  
H 2.46805   0.44307   0.07578   
H 1.33786   -1.83979  -0.07327  
H -1.25896  -1.96097  -0.32574  
H -2.12844  0.44423   0.35254   
H -1.02841  2.38896   -0.86010  
C -0.13511  -0.45679  0.95030   
H -0.14783  -0.81656  1.97170   
13
image # 16 Energy = -286.79336
C 1.42546   0.36659   -0.26870  
C 0.73872   -0.95278  -0.16352  
C -0.69014  -1.03082  -0.54832  
C -1.06900  0.32132   0.09752   
C -0.46458  1.51278   -0.57644  
N 0.83212   1.50858   -0.65911  
H 2.45159   0.42752   0.09348   
H 1.33548   -1.86541  -0.08226  
H -1.26298  -1.94802  -0.29546  
H -2.13537  0.44564   0.30417   
H -1.02635  2.40297   -0.86164  
C -0.05712  -0.38327  0.97099   
H -0.11116  -0.83414  1.96853   
13
image # 17 Energy = -286.78257
C 1.39936   0.36457   -0.20465  
C 0.71839   -0.97130  -0.15013  
C -0.70282  -1.03170  -0.56502  
C -1.08514  0.31182   0.08408   
C -0.46670  1.50877   -0.58604  
N 0.82161   1.50869   -0.65388  
H 2.44944   0.41774   0.08200   
H 1.34002   -1.86592  -0.08887  
H -1.29288  -1.95625  -0.35233  
H -2.16357  0.47202   0.26301   
H -1.01790  2.41008   -0.86898  
C -0.00227  -0.35499  1.01059   
H -0.02964  -0.83858  2.00924   
13
image # 18 Energy = -286.77339
C 1.37556   0.35876   -0.15005  
C 0.70547   -0.98636  -0.13006  
C -0.71258  -1.02090  -0.55196  
C -1.11822  0.31333   0.05243   
C -0.47223  1.50341   -0.59830  
N 0.81062   1.50727   -0.65142  
H 2.45285   0.40506   0.05949   
H 1.34526   -1.86678  -0.08978  
H -1.31917  -1.94706  -0.43505  
H -2.20304  0.49800   0.23318   
H -1.01785  2.41119   -0.88768  
C 0.07239   -0.34316  1.06540   
H 0.04978   -0.85271  2.06171   
13
image # 19 Energy = -286.77166
C 1.35946   0.35465   -0.09654  
C 0.69468   -0.99650  -0.10040  
C -0.72549  -1.01656  -0.49693  
C -1.14897  0.32138   0.04637   
C -0.48080  1.49353   -0.60426  
N 0.80251   1.50021   -0.65707  
H 2.45040   0.38755   0.02057   
H 1.35045   -1.86088  -0.07960  
H -1.34061  -1.90894  -0.57930  
H -2.22808  0.51223   0.22797   
H -1.02825  2.38758   -0.92701  
C 0.14907   -0.32499  1.11752   
H 0.11729   -0.86105  2.10391   
13
image # 20 Energy = -286.77058
C 1.33973   0.34994   -0.03641  
C 0.67192   -1.00327  -0.09868  
C -0.74112  -1.02411  -0.47277  
C -1.14876  0.31748   0.06861   
C -0.48082  1.48629   -0.59866  
N 0.79902   1.49470   -0.66843  
H 2.43922   0.37469   0.00551   
H 1.35637   -1.85931  -0.06941  
H -1.35723  -1.88372  -0.69125  
H -2.22683  0.51397   0.24587   
H -1.03617  2.35869   -0.95799  
C 0.20008   -0.28812  1.13959   
H 0.15804   -0.84516  2.10842   
13
image # 21 Energy = -286.78656
C 1.31978   0.35174   0.00568   
C 0.65767   -1.01814  -0.09989  
C -0.74525  -1.02072  -0.46575  
C -1.12827  0.30625   0.10724   
C -0.48078  1.47479   -0.58976  
N 0.79667   1.48183   -0.67216  
H 2.41902   0.36262   0.00893   
H 1.35172   -1.85749  -0.06343  
H -1.37105  -1.86543  -0.78027  
H -2.20766  0.50765   0.27446   
H -1.04405  2.33260   -0.98274  
C 0.22626   -0.24271  1.13405   
H 0.18263   -0.81499  2.09673   
13
image # 22 Energy = -286.78888
C 1.30691   0.34627   0.02314   
C 0.65482   -1.03373  -0.08312  
C -0.75142  -1.02598  -0.43557  
C -1.12011  0.30896   0.14675   
C -0.49333  1.45290   -0.58777  
N 0.78670   1.46482   -0.69169  
H 2.41211   0.35402   0.01232   
H 1.34528   -1.87243  -0.06377  
H -1.35691  -1.77856  -0.92005  
H -2.19323  0.49480   0.32998   
H -1.06142  2.28932   -1.02356  
C 0.23567   -0.23162  1.14356   
H 0.21291   -0.76906  2.12286   
13
image # 23 Energy = -286.79974
C 1.29803   0.34283   0.04093   
C 0.64476   -1.04523  -0.07752  
C -0.75408  -1.02297  -0.43669  
C -1.09868  0.29694   0.17740   
C -0.49955  1.45094   -0.59164  
N 0.77145   1.44321   -0.69767  
H 2.39672   0.34517   0.03459   
H 1.33838   -1.89144  -0.06651  
H -1.35045  -1.72157  -1.01737  
H -2.17694  0.48137   0.38485   
H -1.07182  2.25022   -1.04655  
C 0.24578   -0.21157  1.13751   
H 0.23586   -0.71692  2.13224   
13
image # 24 Energy = -286.81023
C 1.28974   0.34030   0.05270   
C 0.64402   -1.06151  -0.07364  
C -0.76670  -1.03268  -0.45435  
C -1.09079  0.29023   0.20925   
C -0.50532  1.43617   -0.58928  
N 0.76979   1.42097   -0.70290  
H 2.38058   0.33708   0.06444   
H 1.32610   -1.91068  -0.07119  
H -1.33522  -1.65428  -1.10616  
H -2.15276  0.46420   0.44515   
H -1.09157  2.22025   -1.07316  
C 0.25409   -0.19167  1.12672   
H 0.25916   -0.65735  2.14694   
13
image # 25 Energy = -286.81915
C 1.27792   0.32643   0.06317   
C 0.62493   -1.07776  -0.07680  
C -0.75557  -1.02586  -0.46351  
C -1.08025  0.27369   0.23302   
C -0.51355  1.41656   -0.58575  
N 0.77481   1.41375   -0.71616  
H 2.37276   0.33059   0.10178   
H 1.31299   -1.93136  -0.07572  
H -1.32628  -1.59489  -1.19650  
H -2.13098  0.44659   0.51288   
H -1.11407  2.19407   -1.09947  
C 0.25699   -0.18348  1.12279   
H 0.28351   -0.58696  2.15733   
13
image # 26 Energy = -286.82673
C 1.27598   0.31786   0.06508   
C 0.62371   -1.10155  -0.07571  
C -0.76714  -1.02802  -0.48775  
C -1.06852  0.26275   0.24423   
C -0.50629  1.41274   -0.59445  
N 0.75420   1.41059   -0.72549  
H 2.36480   0.32078   0.14760   
H 1.29350   -1.94727  -0.08096  
H -1.30880  -1.53112  -1.26970  
H -2.10746  0.42517   0.58543   
H -1.12907  2.15598   -1.11487  
C 0.25288   -0.18678  1.12274   
H 0.30897   -0.51045  2.16374   
13
image # 27 Energy = -286.83216
C 1.27121   0.32093   0.05986   
C 0.61334   -1.10616  -0.06986  
C -0.77521  -1.02654  -0.50714  
C -1.06259  0.26086   0.24656   
C -0.52071  1.40196   -0.59246  
N 0.76005   1.39934   -0.72775  
H 2.35332   0.30942   0.19682   
H 1.28086   -1.97104  -0.08608  
H -1.29730  -1.48007  -1.33648  
H -2.07194  0.40141   0.65228   
H -1.14058  2.11809   -1.12517  
C 0.24689   -0.18993  1.09918   
H 0.33333   -0.43796  2.17389   
13
image # 28 Energy = -286.83520
C 1.27422   0.31860   0.07132   
C 0.60386   -1.13992  -0.08184  
C -0.77781  -1.02172  -0.53182  
C -1.04891  0.24250   0.26584   
C -0.54532  1.38936   -0.58618  
N 0.77733   1.38840   -0.73186  
H 2.32593   0.30006   0.24249   
H 1.25755   -1.97842  -0.08878  
H -1.28970  -1.43764  -1.40211  
H -2.03370  0.38096   0.71052   
H -1.15297  2.08773   -1.13630  
C 0.25359   -0.16937  1.12373   
H 0.35077   -0.35982  2.13708   
13
image # 29 Energy = -286.83831
C 1.25519   0.30554   0.08057   
C 0.58726   -1.13611  -0.07250  
C -0.78241  -1.02295  -0.55564  
C -1.03633  0.23240   0.27599   
C -0.52312  1.37923   -0.58670  
N 0.75187   1.38419   -0.73247  
H 2.31997   0.29026   0.28961   
H 1.24471   -1.99966  -0.09372  
H -1.27561  -1.39220  -1.45176  
H -2.00294  0.35902   0.76847   
H -1.16584  2.05732   -1.14597  
C 0.25662   -0.16432  1.07595   
H 0.37064   -0.29271  2.14817   
