13   
From qcopt_rct.out: Frame 3 / 3, Energy=    -286.8549501785
C        1.4682868321    0.4430805743   -0.3533865526
C        0.8844022873   -0.7856752825    0.2151865042
C       -0.7449520357   -0.8069154899    0.1733851284
C       -1.3123418507    0.4543349172   -0.3313042279
C       -0.5485538449    1.5422439192   -0.5750737492
N        0.8458281931    1.5355327297   -0.6342302106
H        2.5297900783    0.3980229984   -0.6089834874
H        1.4422790578   -1.6995033966    0.0014279069
H       -1.2580007387   -1.7281406933   -0.1086990447
H       -2.3831085016    0.4873436658   -0.5171458804
H       -1.0036800811    2.4809373004   -0.8802618728
C        0.0353959252   -0.7960443043    1.4088119362
H        0.0446546791   -1.5252169379    2.2102735501
13   
From qcopt_prd.out: Frame 2 / 2, Energy=    -286.8383129690
C        1.2551885738    0.3055587644    0.0805748096
C        0.5872717795   -1.1360963016   -0.0725624373
C       -0.7823960568   -1.0229322859   -0.5556883492
C       -1.0363338108    0.2323675066    0.2760045962
C       -0.5231415214    1.3792541931   -0.5866263006
N        0.7518488814    1.3842409081   -0.7323961386
H        2.3199680237    0.2902754207    0.2896156472
H        1.2447417021   -1.9996360286   -0.0938346510
H       -1.2756023844   -1.3921447015   -1.4518250255
H       -2.0029412583    0.3589462274    0.7685038427
H       -1.1658816107    2.0573585386   -1.1458516048
C        0.2566240795   -0.1643717476    1.0759371643
H        0.3706536024   -0.2928204938    2.1481484469
