13   
From optimize.out: Frame 2 / 3, Energy=    -286.8505816574
C        0.0319714848   -0.5333175667   -0.1427400561
C        1.5576113711   -0.4988355063   -0.0351273078
C        2.3711780219   -1.3299123757   -0.6406536961
C       -1.3603029260    1.2874427662    0.1039385723
C       -1.3430895248    0.4247886342    1.2952133943
N       -0.5766590089   -0.6087100396    1.1965567815
H       -0.2668709717   -1.4316102531   -0.6999986983
H        1.9464765813    0.3017313693    0.5964272419
H        2.2991653582   -2.1878093685   -1.2978372333
H       -1.9380964353    2.1976527738   -0.0111081502
H       -1.9187150676    0.6090736045    2.2016245916
C       -0.5296299095    0.7136112444   -0.7852588237
H       -0.2730389731    1.0558947172   -1.7810366164
13   
From optimize.out: Frame 1 / 3, Energy=    -286.8505782439
C        0.0603337703   -0.5157978578   -0.1109259095
C        1.5877130313   -0.4969737697   -0.0333066980
C        2.3619341857   -1.3377351100   -0.6759395698
C       -1.3684975843    1.2815357019    0.0997620217
C       -1.3630498125    0.4205505962    1.2929429224
N       -0.5602258378   -0.5887727028    1.2247272845
H       -0.2514303175   -1.4184786186   -0.6544694699
H        2.0123642730    0.2993288162    0.5792397361
H        2.2304011940   -2.1929602920   -1.3274682486
H       -1.9686888219    2.1769877495   -0.0356145867
H       -1.9873766914    0.5909028469    2.1697780536
C       -0.5096339082    0.7190625559   -0.7685037587
H       -0.2438434807    1.0623500844   -1.7602217771
13   
From optimize.out: Frame 46 / 47, Energy=    -286.8505782439
C        0.0935918177   -0.4741868531   -0.1038387112
C        1.6204200022   -0.4965063195   -0.0249388927
C        2.3547157197   -1.3761064320   -0.6678353665
C       -1.3881676946    1.2775565082    0.0948467307
C       -1.3633630833    0.4207710615    1.2905939597
N       -0.5331230494   -0.5618761175    1.2244816802
H       -0.2211885326   -1.3656594258   -0.6598765066
H        2.0724291377    0.2765488895    0.5994886464
H        2.1567388916   -2.2180132025   -1.3228797536
H       -2.0287027440    2.1348003990   -0.0633491293
H       -1.9977642407    0.5554581667    2.1656944888
C       -0.4930587407    0.7541521451   -0.7621902534
H       -0.2725274837    1.0730611805   -1.7701968924
13   
From optimize.out: Frame 44 / 47, Energy=    -286.8505690518
C        0.1196880653   -0.4452982982   -0.0935025859
C        1.6404702016   -0.5042239642   -0.0101175988
C        2.3412893397   -1.3962924637   -0.6751435807
C       -1.4071811301    1.2753175301    0.0690473412
C       -1.3603172262    0.4278377563    1.2705433081
N       -0.5098501222   -0.5389732351    1.2244049087
H       -0.2248127304   -1.3407206946   -0.6233919196
H        2.1142698628    0.2438144323    0.6276518849
H        2.1173254757   -2.2316647844   -1.3367746701
H       -2.1105626855    2.0906628102   -0.0596981650
H       -1.9885847832    0.5393636442    2.1563166077
C       -0.4681757378    0.7854956534   -0.7676500384
H       -0.2635585297    1.0946816137   -1.7816854921
13   
From optimize.out: Frame 41 / 47, Energy=    -286.8505183765
C        0.1490193324   -0.4194830295   -0.0706457762
C        1.6499940253   -0.5205974079    0.0009209826
C        2.3218419330   -1.3969263713   -0.6998158836
C       -1.4239296731    1.2647862530    0.0487592557
C       -1.3700442405    0.4399391139    1.2652367429
N       -0.4804307364   -0.4986337954    1.2422602059
H       -0.2444050853   -1.2992187468   -0.5973970627
H        2.1497004856    0.1893156103    0.6501586392
H        2.0806675812   -2.2088035757   -1.3739408551
H       -2.1853504287    2.0353648031   -0.0828957475
H       -1.9904955979    0.5409141425    2.1478915448
C       -0.4532582752    0.7876431292   -0.7581596152
H       -0.2033093205    1.0856998746   -1.7723724309
13   
From optimize.out: Frame 39 / 47, Energy=    -286.8504861411
C        0.1586198612   -0.4022866648   -0.0441440210
C        1.6487868527   -0.5310976191    0.0027790021
C        2.3084155696   -1.3858742764   -0.7350659751
C       -1.4349315783    1.2519861472    0.0342269043
C       -1.3784021960    0.4482791325    1.2689079907
N       -0.4615278243   -0.4602863881    1.2717546868
H       -0.2741670924   -1.2731497000   -0.5740145889
H        2.1635264216    0.1523691391    0.6647929011
H        2.0608383764   -2.1809268713   -1.4280525409
H       -2.2335500359    1.9876596070   -0.1214718818
H       -2.0040087064    0.5516258988    2.1451914654
C       -0.4340353983    0.7798364296   -0.7424454606
H       -0.1195642500    1.0618651656   -1.7424584821
13   
From optimize.out: Frame 37 / 47, Energy=    -286.8504522065
C        0.1590130963   -0.3950713309   -0.0124720823
C        1.6412368555   -0.5164031685   -0.0089887296
C        2.3012841548   -1.3772537830   -0.7488834085
C       -1.4353233499    1.2454843718    0.0402064371
C       -1.3884338703    0.4182482872    1.2743278861
N       -0.4503242509   -0.4496717473    1.3139665984
H       -0.3208903769   -1.2119381137   -0.6032790353
H        2.1615326092    0.1795503986    0.6389069253
H        2.0439806662   -2.1905178170   -1.4352340009
H       -2.2617357264    1.9842073216   -0.1212984164
H       -2.0173577560    0.5334858387    2.1541108438
C       -0.4131077896    0.7984119333   -0.7428112227
H       -0.0198742621    0.9814678093   -1.7485517950
13   
From optimize.out: Frame 35 / 47, Energy=    -286.8504033938
C        0.1433230316   -0.3879043000    0.0102578176
C        1.6421438351   -0.5161538125   -0.0209950412
C        2.2917882892   -1.3686667147   -0.7762763804
C       -1.4492051347    1.2409465520    0.0405044619
C       -1.3933074520    0.4097044037    1.2813687271
N       -0.4295135728   -0.4311896037    1.3475418328
H       -0.3582593671   -1.1572760433   -0.6149816606
H        2.1670520436    0.1823465864    0.6243709908
H        2.0265026912   -2.1751344881   -1.4513529477
H       -2.2904348087    1.9516715740   -0.1276489116
H       -2.0350728096    0.5331110393    2.1525127784
C       -0.4085373362    0.8149610233   -0.7407165291
H        0.0935205905    0.9035837834   -1.7245851378
13   
From optimize.out: Frame 33 / 47, Energy=    -286.8502986112
C        0.1366654598   -0.3972796346    0.0457612049
C        1.6484840795   -0.5136987495   -0.0106566896
C        2.2728030741   -1.3547329161   -0.7906905205
C       -1.4673486022    1.2442551806    0.0293587486
C       -1.3878293288    0.4110631401    1.2914322348
N       -0.4070980737   -0.4279910370    1.3747232581
H       -0.3887683851   -1.1024186238   -0.6186849191
H        2.1745066165    0.1800776743    0.6403074420
H        1.9974226477   -2.1384099756   -1.4924430902
H       -2.2798998201    1.8983654511   -0.1209373019
H       -2.0558367616    0.5460050154    2.1391723591
C       -0.4170884195    0.8145091471   -0.7440728590
H        0.1739875135    0.8402553280   -1.7432698671
13   
From optimize.out: Frame 31 / 47, Energy=    -286.8500937849
C        0.1658963129   -0.4348672851    0.0792500713
C        1.6637198307   -0.5146725771    0.0039727452
C        2.2554278560   -1.3559725306   -0.7660944224
C       -1.4836513455    1.2430834069    0.0143563351
C       -1.3698453171    0.4277817560    1.2908354455
N       -0.3907275336   -0.4241068355    1.3656344275
H       -0.3869198057   -1.0832007360   -0.6222999775
H        2.1941145234    0.1737856578    0.6576468175
H        1.9687600456   -2.1192028746   -1.5221657068
H       -2.2634124557    1.8465128343   -0.0910950046
H       -2.0656516169    0.5604964497    2.1176123785
C       -0.4877737247    0.8682844038   -0.7944991213
H        0.2000632306    0.8120783304   -1.7331539880
13   
From optimize.out: Frame 28 / 47, Energy=    -286.8497612576
C        0.1423688894   -0.4497111741    0.0585114596
C        1.6507085520   -0.5340905326    0.0222156791
C        2.2560933522   -1.3413932084   -0.7738583210
C       -1.4711670000    1.2320697133    0.0276959959
C       -1.3202003680    0.4355818412    1.3075001978
N       -0.4106367031   -0.4185574626    1.3538343066
H       -0.3657979167   -1.0880419182   -0.6146163365
H        2.1835425306    0.1399975689    0.6684527516
H        1.9863820306   -2.0833625076   -1.5009711072
H       -2.2591608800    1.8412068844   -0.0481586738
H       -2.0605355007    0.5859762254    2.0956175619
C       -0.5305840395    0.9004882963   -0.8993849126
H        0.1989870530    0.7798362742   -1.6968386015
13   
From optimize.out: Frame 26 / 47, Energy=    -286.8487686692
C        0.1584277033   -0.4488182501    0.0840688943
C        1.6260962952   -0.5024603839    0.0135262694
C        2.2545780202   -1.3597918295   -0.7709614738
C       -1.4174004297    1.1657949686    0.0370206090
C       -1.3356622382    0.4416405909    1.3117869176
N       -0.4130252889   -0.4234035461    1.3596114583
H       -0.3875346625   -1.0764417950   -0.6239490938
H        2.1861583413    0.1737402280    0.6633317699
H        1.9828677948   -2.0964749881   -1.5169845926
H       -2.2598565732    1.8470690081   -0.0714409812
H       -2.0679847274    0.5727364981    2.1076641888
C       -0.5463437795    0.9623272331   -0.9512810129
H        0.2196795444    0.7440822659   -1.6423929531
13   
From optimize.out: Frame 24 / 47, Energy=    -286.8478670137
C        0.1432130509   -0.4467478707    0.0671477447
C        1.6159828948   -0.4854574102   -0.0148643862
C        2.2497689215   -1.3456138271   -0.7842960114
C       -1.4279942294    1.1765215329    0.0354240089
C       -1.3521631936    0.4406228902    1.3106935210
N       -0.4193640085   -0.4043358548    1.3369448769
H       -0.3863934594   -1.0856416875   -0.6394602357
H        2.1686860764    0.2009370641    0.6223773194
H        1.9789135775   -2.1000705679   -1.5155577665
H       -2.2557330558    1.8637678370   -0.0976974226
H       -2.0668133836    0.5646216102    2.1209053740
C       -0.5334831908    0.9492992936   -0.9235487979
H        0.2853800002    0.6720969904   -1.5180682245
13   
From optimize.out: Frame 22 / 47, Energy=    -286.8452695115
C        0.1308858263   -0.4484748572    0.0483559703
C        1.6088150239   -0.4699784931   -0.0433688546
C        2.2493470342   -1.3369571691   -0.7918232366
C       -1.4406681829    1.1912458026    0.0354594589
C       -1.3679527360    0.4380406262    1.3075872454
N       -0.4258494119   -0.3885934484    1.3107662649
H       -0.3811590836   -1.0981169413   -0.6582963896
H        2.1525280571    0.2304738908    0.5783167546
H        1.9793170303   -2.1126049413   -1.5037923915
H       -2.2535731747    1.8863909585   -0.1147513437
H       -2.0629786721    0.5542170098    2.1337653919
C       -0.5279691866    0.9457078818   -0.9003869686
H        0.3392574760    0.6086496807   -1.4018319015
13   
From optimize.out: Frame 20 / 47, Energy=    -286.8356718959
C        0.1353010918   -0.4692716121    0.0231105769
C        1.6178420000   -0.4648072862   -0.0677723835
C        2.2713595348   -1.3578646105   -0.7685115288
C       -1.4618616658    1.2239349193    0.0438082990
C       -1.3775266430    0.4279074443    1.2947267159
N       -0.4320173000   -0.3923846579    1.2709819301
H       -0.3559194652   -1.1252355564   -0.6909947923
H        2.1457276012    0.2670907038    0.5256611824
H        2.0018656551   -2.1686439284   -1.4412623615
H       -2.2617676964    1.9355072429   -0.0820956870
H       -2.0462034553    0.5338447733    2.1425681908
C       -0.5608088224    0.9908051599   -0.9043213982
H        0.3240091651    0.5991174080   -1.3458987438
13   
From optimize.out: Frame 19 / 47, Energy=    -286.8270127752
C        0.1508747873   -0.4918412101    0.0049822022
C        1.6358933841   -0.4712239378   -0.0793509376
C        2.2985439888   -1.3902108677   -0.7388047332
C       -1.4851889612    1.2547909956    0.0510211800
C       -1.3802349002    0.4208684257    1.2797415427
N       -0.4328711230   -0.3995091850    1.2380563969
H       -0.3273621070   -1.1497406437   -0.7165519291
H        2.1519798074    0.2863304164    0.4925174052
H        2.0273231206   -2.2270985192   -1.3800714477
H       -2.2813589283    1.9758861650   -0.0373715878
H       -2.0282523166    0.5181079130    2.1449407037
C       -0.6089454033    1.0493750824   -0.9229923633
H        0.2795986513    0.6242653654   -1.3361164318
13   
From optimize.out: Frame 15 / 47, Energy=    -286.7724526475
C        0.1789710568   -0.5089522240    0.0002907257
C        1.6635920672   -0.4935001376   -0.0732554298
C        2.3255268888   -1.4301595393   -0.7132819321
C       -1.5130423138    1.2768299263    0.0512732094
C       -1.3757769711    0.4240104427    1.2640452591
N       -0.4239229195   -0.3987442797    1.2193272031
H       -0.3000866574   -1.1646665667   -0.7247218634
H        2.1777062293    0.2719743683    0.4938620168
H        2.0478493114   -2.2722180083   -1.3448512250
H       -2.3207272630    1.9898204440    0.0030003379
H       -2.0131924295    0.5147661891    2.1390372946
C       -0.6698603283    1.1117510779   -0.9533103735
H        0.2229633290    0.6790883072   -1.3614152228
13   
From optimize.out: Frame 13 / 47, Energy=    -286.7426001980
C        0.2107213130   -0.5227916473    0.0015125836
C        1.6937593960   -0.5211649352   -0.0600834742
C        2.3508815875   -1.4710175564   -0.6909764406
C       -1.5412042377    1.2939043760    0.0485864803
C       -1.3685632342    0.4312497635    1.2489479658
N       -0.4113682251   -0.3947086099    1.2076330879
H       -0.2749094158   -1.1747148739   -0.7251199737
H        2.2101424111    0.2443260782    0.5096185242
H        2.0651295104   -2.3091555159   -1.3225556376
H       -2.3661533249    1.9918480111    0.0392349472
H       -2.0002082963    0.5168224118    2.1299949774
C       -0.7326592271    1.1721594631   -0.9867877827
H        0.1644317430    0.7432430348   -1.4000052577
13   
From optimize.out: Frame 11 / 47, Energy=    -286.7310059291
C        0.2424707801   -0.5366309769    0.0027347864
C        1.7239256797   -0.5488291281   -0.0469117176
C        2.3762352068   -1.5118745880   -0.6686715480
C       -1.5693655332    1.3109784145    0.0458996243
C       -1.3613493298    0.4384887630    1.2338513043
N       -0.3988134301   -0.3906730915    1.1959395121
H       -0.2497327210   -1.1847632204   -0.7255176992
H        2.2425773884    0.2166784651    0.5253747236
H        2.0824089262   -2.3460921345   -1.3002606823
H       -2.4115791596    1.9938752845    0.0754682332
H       -1.9872241836    0.5188782764    2.1209532649
C       -0.7954559700    1.2325669889   -1.0202649138
H        0.1059023462    0.8073969470   -1.4385948880
13   
From optimize.out: Frame 9 / 47, Energy=    -286.7275980227
C        0.2713231726   -0.5497685767   -0.0031201119
C        1.7518798577   -0.5691478698   -0.0403512310
C        2.3989326869   -1.5524941089   -0.6383643683
C       -1.5946830964    1.3290827570    0.0474891321
C       -1.3541006356    0.4404517684    1.2187005664
N       -0.3881855432   -0.3917390623    1.1779902322
H       -0.2224914444   -1.1948975259   -0.7348659635
H        2.2713111774    0.2033503239    0.5243004065
H        2.0949064992   -2.3900072142   -1.2586947964
H       -2.4483610744    2.0015277043    0.1173310072
H       -1.9728048953    0.5121910470    2.1126626407
C       -0.8543591169    1.2927054296   -1.0473190715
H        0.0466324125    0.8687453276   -1.4757584425
13   
From optimize.out: Frame 8 / 47, Energy=    -286.7260504101
C        0.2858175753   -0.5579636826   -0.0258685685
C        1.7674605108   -0.5656466736   -0.0524372763
C        2.4093618960   -1.5828250909   -0.5945972832
C       -1.6066222970    1.3455376832    0.0597505500
C       -1.3484891209    0.4283142614    1.2070182140
N       -0.3850689708   -0.4057336765    1.1481508348
H       -0.1964037223   -1.2028399302   -0.7651168216
H        2.2836379552    0.2301974778    0.4799912124
H        2.0920723336   -2.4414945162   -1.1772319026
H       -2.4540446330    2.0218940559    0.1637706186
H       -1.9581118213    0.4845049595    2.1082869644
C       -0.8891733982    1.3378241217   -1.0513318228
H       -0.0004363075    0.9082310103   -1.5003847192
13   
From optimize.out: Frame 6 / 47, Energy=    -286.7207893425
C        0.2942381583   -0.5652686287   -0.0537715872
C        1.7772510256   -0.5539246031   -0.0708484443
C        2.4149299135   -1.6069540524   -0.5471053882
C       -1.6122265426    1.3608846576    0.0756176142
C       -1.3434255973    0.4117299206    1.1969440929
N       -0.3854800649   -0.4248206170    1.1151845299
H       -0.1723108563   -1.2107758584   -0.8015665799
H        2.2883536969    0.2700653970    0.4210456514
H        2.0845190065   -2.4915458661   -1.0841713001
H       -2.4463953103    2.0468054963    0.2110751232
H       -1.9438320642    0.4509617281    2.1051862840
C       -0.9138195714    1.3752254034   -1.0472307411
H       -0.0418017937    0.9376170228   -1.5203592549
13   
From optimize.out: Frame 2 / 47, Energy=    -286.6718383047
C        0.2979961329   -0.5767353870   -0.0824727568
C        1.7808478804   -0.5398637911   -0.0916014840
C        2.4177845330   -1.6215487279   -0.4979294462
C       -1.6102663965    1.3754425779    0.0933388464
C       -1.3378127294    0.3945679803    1.1877474444
N       -0.3903943216   -0.4493291120    1.0824220028
H       -0.1526995290   -1.2227763088   -0.8384233466
H        2.2842565961    0.3123303673    0.3550408454
H        2.0779798985   -2.5295094315   -0.9888259791
H       -2.4250648633    2.0756723433    0.2605530035
H       -1.9302337965    0.4189731488    2.1015889652
C       -0.9318769869    1.4048317339   -1.0409381875
H       -0.0805164178    0.9579446071   -1.5404999074
13   
C6H6N->C6H6N atoms 1-13 frame 986 charge +0.000 sz -1.000 sz^2 1.347
C        0.2985940386   -0.5916552236   -0.1111280316
C        1.7798932743   -0.5238420981   -0.1144564614
C        2.4185456809   -1.6298858479   -0.4485575513
C       -1.6032342317    1.3893342546    0.1118846993
C       -1.3316045901    0.3771939042    1.1791763936
N       -0.3978376031   -0.4770901477    1.0505181893
H       -0.1364051221   -1.2398251145   -0.8734423414
H        2.2735242824    0.3566785696    0.2840921865
H        2.0719910407   -2.5599903291   -0.8930924259
H       -2.3956790492    2.1060474549    0.3107728606
H       -1.9176976854    0.3881386856    2.0973319404
C       -0.9447865149    1.4304210319   -1.0333374306
H       -0.1153035203    0.9744748600   -1.5597620274
13   
C6H6N->C6H6N atoms 1-13 frame 987 charge -0.000 sz -1.000 sz^2 1.321
C        0.2924969319   -0.6146415973   -0.1370811861
C        1.7685701680   -0.5035339738   -0.1419074392
C        2.4142740676   -1.6251147587   -0.4031119525
C       -1.5859342693    1.4009041184    0.1303659760
C       -1.3239072329    0.3605500808    1.1723747385
N       -0.4090968129   -0.5095236666    1.0234795629
H       -0.1284681718   -1.2719975959   -0.8982169088
H        2.2477569654    0.4045083629    0.2054894371
H        2.0671137987   -2.5749508041   -0.8034225262
H       -2.3533674294    2.1355865842    0.3586714034
H       -1.9093264033    0.3613337623    2.0911337947
C       -0.9447054207    1.4492834115   -1.0237151791
H       -0.1354061914    0.9875960760   -1.5740597207
13   
C6H6N->C6H6N atoms 1-13 frame 989 charge -0.000 sz -1.000 sz^2 1.271
C        0.2895239921   -0.6385754106   -0.1622536937
C        1.7580175849   -0.4815657475   -0.1647972250
C        2.4063123218   -1.6187625259   -0.3525712029
C       -1.5655405446    1.4112017540    0.1481586829
C       -1.3133350093    0.3439598962    1.1649111422
N       -0.4213286744   -0.5455301896    0.9959781196
H       -0.1182473860   -1.3014121610   -0.9244855408
H        2.2238162428    0.4510253502    0.1338075444
H        2.0567489656   -2.5833634072   -0.7162305732
H       -2.3038086814    2.1651105440    0.4093183364
H       -1.8997184945    0.3353651784    2.0832640214
C       -0.9487970668    1.4637904105   -1.0179147052
H       -0.1636432502    0.9987563084   -1.5971849060
13   
From optimize.out: Frame 1 / 88, Energy=    -286.6154169195
C        0.3104542726   -0.6470073815   -0.1787509407
C        1.7688542430   -0.4660870285   -0.1532894182
C        2.3920070624   -1.6258040305   -0.2924340636
C       -1.5530446879    1.4154632340    0.1566847811
C       -1.2960379638    0.3325214434    1.1547890982
N       -0.4281916154   -0.5778515723    0.9695813566
H       -0.0902142560   -1.2874931848   -0.9619871926
H        2.2370720546    0.4704243816    0.1284434759
H        2.0246025974   -2.5815420106   -0.6626374372
H       -2.2580878277    2.1851773194    0.4570760866
H       -1.8824163842    0.3167749330    2.0735763181
C       -0.9875032881    1.4633610642   -1.0336435209
H       -0.2374942070    1.0020628326   -1.6574085433
13   
From optimize.out: Frame 3 / 88, Energy=    -286.6818221284
C        0.3188037927   -0.6773573571   -0.1915504687
C        1.7588336659   -0.4397546416   -0.1568762902
C        2.3719521314   -1.6124008320   -0.2373754044
C       -1.5207884222    1.4185265352    0.1684795617
C       -1.2760784505    0.3199037390    1.1489209469
N       -0.4436870459   -0.6213905729    0.9512770724
H       -0.0796506526   -1.3072364109   -0.9841143251
H        2.2156106041    0.5121546855    0.0879619958
H        1.9997053297   -2.5667427425   -0.6065618591
H       -2.1892999813    2.2067896301    0.5069957017
H       -1.8768108331    0.2996102245    2.0591780925
C       -0.9985166016    1.4606803035   -1.0410217962
H       -0.2800735366    1.0072174393   -1.7053132273
13   
From optimize.out: Frame 5 / 88, Energy=    -286.7068539497
C        0.3102824776   -0.7202714847   -0.1977958485
C        1.7301968466   -0.4111390698   -0.1763851596
C        2.3538672885   -1.5830210349   -0.2050462555
C       -1.4791547193    1.4200046674    0.1803922290
C       -1.2601800050    0.3098815742    1.1492245602
N       -0.4633645699   -0.6623625649    0.9459403016
H       -0.0911371932   -1.3567022458   -0.9835057944
H        2.1642448053    0.5646065777    0.0211447941
H        1.9928651514   -2.5456823105   -0.5632545239
H       -2.1198307204    2.2240092521    0.5438476853
H       -1.8845151063    0.2888652838    2.0449881652
C       -0.9770060349    1.4582093517   -1.0362036188
H       -0.2762682204    1.0136020038   -1.7233465347
13   
From optimize.out: Frame 8 / 88, Energy=    -286.7243698466
C        0.3239739693   -0.7541056881   -0.1989033136
C        1.7183340292   -0.3880273113   -0.1568664623
C        2.3334515259   -1.5686038968   -0.1511237484
C       -1.4364039391    1.4147142922    0.1833727488
C       -1.2289887610    0.3066808506    1.1476824033
N       -0.4868497238   -0.7102438427    0.9354456287
H       -0.0941003309   -1.3701539790   -0.9926148054
H        2.1372903100    0.6023419175    0.0145150585
H        1.9802669550   -2.5156791514   -0.5545991870
H       -2.0387440927    2.2355033404    0.5910411240
H       -1.8827493272    0.2884546462    2.0248447660
C       -0.9931960369    1.4411064161   -1.0536006889
H       -0.3322845778    1.0180124063   -1.7891935237
13   
From optimize.out: Frame 10 / 88, Energy=    -286.7359895954
C        0.3284078396   -0.7936143643   -0.1870214951
C        1.6965529308   -0.3686005772   -0.1318742716
C        2.3225759062   -1.5495222968   -0.1219553130
C       -1.3861541470    1.4014787576    0.1804806605
C       -1.1955283600    0.3149481812    1.1554432123
N       -0.5149671825   -0.7521803836    0.9430113419
H       -0.1281660388   -1.3930172815   -0.9749477611
H        2.0901744523    0.6443512626    0.0057931752
H        1.9849414520   -2.4711778858   -0.5901035752
H       -1.9639517987    2.2339876517    0.6285717567
H       -1.9007160670    0.3030186847    1.9971388930
C       -0.9832002163    1.4144886489   -1.0667656928
H       -0.3499687708    1.0158396025   -1.8377709309
13   
From optimize.out: Frame 12 / 88, Energy=    -286.7426205887
C        0.3387041293   -0.8202623273   -0.1685365550
C        1.6953484897   -0.3650154421   -0.0854442822
C        2.3287202998   -1.5497545950   -0.1101815517
C       -1.3502167140    1.3798064957    0.1648563449
C       -1.1659642484    0.3311712747    1.1571700139
N       -0.5385735299   -0.7817690655    0.9531892121
H       -0.1735575325   -1.3945744045   -0.9468110379
H        2.0750192563    0.6696899216    0.0402298229
H        1.9925532984   -2.4233330901   -0.6601735114
H       -1.9246231811    2.2333202779    0.6703562973
H       -1.9207974246    0.3326117888    1.9647712840
C       -0.9818630055    1.3826783085   -1.0894796306
H       -0.3747498374    1.0054308573   -1.8899464064
13   
From optimize.out: Frame 14 / 88, Energy=    -286.7472040635
C        0.3499518105   -0.8394811732   -0.1614955932
C        1.7133659751   -0.3684802850   -0.0520310731
C        2.3472166433   -1.5672195321   -0.1051475284
C       -1.3289045682    1.3566700847    0.1515985334
C       -1.1489336060    0.3495222440    1.1482766357
N       -0.5578232846   -0.8012711496    0.9518162952
H       -0.2257439326   -1.4019440770   -0.9141408378
H        2.0956606372    0.6970863664    0.0658451512
H        2.0006920572   -2.3907553477   -0.7125253052
H       -1.9178780801    2.2259529229    0.7390599633
H       -1.9545358198    0.3743730724    1.9240746671
C       -0.9817202917    1.3607178217   -1.1073191596
H       -0.3913475403    1.0048290525   -1.9280117483
13   
From optimize.out: Frame 16 / 88, Energy=    -286.7533528575
C        0.3479707761   -0.8211027636   -0.1583315085
C        1.7194138717   -0.3573163634   -0.0215365190
C        2.3414484347   -1.5656967764   -0.1241194319
C       -1.3103228530    1.3293087709    0.1437416931
C       -1.1424207574    0.3570899492    1.1516576343
N       -0.5757098457   -0.8093250399    0.9478916345
H       -0.2579399097   -1.3515394001   -0.9148319784
H        2.1145535598    0.7152455157    0.1288217855
H        1.9818547098   -2.3411560743   -0.7760910582
H       -1.8956452470    2.2208889380    0.7534261049
H       -1.9714901982    0.4071473977    1.9107393060
C       -0.9681337826    1.2988733184   -1.1146038227
H       -0.3835787584    0.9175825278   -1.9267638397
13   
From optimize.out: Frame 18 / 88, Energy=    -286.7573638218
C        0.3432009946   -0.7966343043   -0.1556505088
C        1.7209130056   -0.3438676808    0.0055752818
C        2.3301279223   -1.5590513960   -0.1459757192
C       -1.2939149390    1.3044133523    0.1378262942
C       -1.1383764252    0.3611333308    1.1580779702
N       -0.5912644977   -0.8142555207    0.9446258762
H       -0.2810661877   -1.2933805528   -0.9234198544
H        2.1287117959    0.7286360676    0.1936873147
H        1.9590786176   -2.2927999271   -0.8357837751
H       -1.8708338453    2.2174817499    0.7516614955
H       -1.9814893177    0.4330590213    1.9059420296
C       -0.9532236454    1.2348301916   -1.1189795103
H       -0.3718634780    0.8204356683   -1.9175868944
13   
From optimize.out: Frame 21 / 88, Energy=    -286.7611720482
C        0.3397148307   -0.7729324070   -0.1470513377
C        1.7181701967   -0.3332983944    0.0352771305
C        2.3168696948   -1.5576959966   -0.1596401306
C       -1.2725916086    1.2813453815    0.1322989410
C       -1.1338418120    0.3633339346    1.1652784124
N       -0.6005872145   -0.8110171175    0.9482402686
H       -0.3177076135   -1.2313370011   -0.9319210393
H        2.1421805752    0.7395470249    0.2443264474
H        1.9508436424   -2.2407910301   -0.8968749422
H       -1.8463726568    2.2222079327    0.7522269515
H       -1.9948118277    0.4471047270    1.8941279452
C       -0.9402386738    1.1690869713   -1.1212639009
H       -0.3616275328    0.7244459748   -1.9150247459
13   
From optimize.out: Frame 23 / 88, Energy=    -286.7631288781
C        0.3421380769   -0.7651571912   -0.1183613204
C        1.6987808571   -0.3392547826    0.0577128193
C        2.3032452294   -1.5757325342   -0.1299779822
C       -1.2453278594    1.2832567084    0.1332777338
C       -1.1319835631    0.3561172848    1.1731555448
N       -0.5773100759   -0.7736044550    0.9790517477
H       -0.3792361084   -1.1882514447   -0.9347441922
H        2.1390600175    0.7246799354    0.2061327281
H        2.0072299822   -2.2095851026   -0.9284495752
H       -1.8346128587    2.2519862314    0.7516760417
H       -2.0092031729    0.4014791226    1.8627446430
C       -0.9443390704    1.1384540981   -1.1125322487
H       -0.3684414543    0.6956121297   -1.9396859396
13   
From optimize.out: Frame 25 / 88, Energy=    -286.7641346791
C        0.3421269442   -0.7586791699   -0.0845668398
C        1.6742084352   -0.3464146651    0.0770857928
C        2.2884728242   -1.5918907539   -0.0884284245
C       -1.2199085606    1.2987293693    0.1387631895
C       -1.1353941363    0.3463017659    1.1840080813
N       -0.5432941511   -0.7242115683    1.0171650921
H       -0.4239220019   -1.1433720591   -0.9324277855
H        2.1205357271    0.6860762377    0.1497999709
H        2.0770928312   -2.1947682212   -0.9570766633
H       -1.8170545044    2.2732575685    0.7278105534
H       -2.0161322936    0.3385163887    1.8330010579
C       -0.9547510844    1.1214304508   -1.1006121903
H       -0.3919800297    0.6950246565   -1.9645218345
13   
From optimize.out: Frame 27 / 88, Energy=    -286.7650921206
C        0.3535313936   -0.7748970038   -0.0792802642
C        1.6809013332   -0.3615115945    0.0677446327
C        2.2959444976   -1.6062840005   -0.0589767925
C       -1.2336884204    1.3221925766    0.1431993954
C       -1.1403246691    0.3430152978    1.1785165336
N       -0.5241688983   -0.7106264879    1.0214853799
H       -0.4046328462   -1.1690198402   -0.9276647483
H        2.1259557742    0.6599800822    0.1016490103
H        2.1043490065   -2.2342998419   -0.9202934039
H       -1.8340968479    2.2771949167    0.7285375144
H       -2.0131466210    0.3114404411    1.8282693619
C       -0.9817730240    1.1673120159   -1.1003963300