13   
From optimize.out: Frame 46 / 47, Energy=    -286.8505782439
C        0.0323354011   -0.5318852731   -0.1425790934
C        1.5581502613   -0.4987224907   -0.0361758984
C        2.3714477397   -1.3318815971   -0.6397513775
C       -1.3602315908    1.2889386344    0.1048715793
C       -1.3435322768    0.4249103373    1.2951205846
N       -0.5751515175   -0.6071782017    1.1970260081
H       -0.2672893449   -1.4309651605   -0.6982099671
H        1.9490515043    0.3013655335    0.5947974000
H        2.3009105776   -2.1896444090   -1.2979591369
H       -1.9383258056    2.1987825375   -0.0102784924
H       -1.9221201643    0.6059336445    2.1999768231
C       -0.5304462436    0.7146612875   -0.7851427860
H       -0.2747985402    1.0556851571   -1.7816956437
13   
From optimize.out: Frame 45 / 47, Energy=    -286.8505752237
C        0.0330064664   -0.5309915609   -0.1428609769
C        1.5590836702   -0.4981224528   -0.0360895548
C        2.3708371117   -1.3329393204   -0.6395815905
C       -1.3604257927    1.2888294774    0.1050387420
C       -1.3445020457    0.4244178454    1.2948332663
N       -0.5745622282   -0.6063079203    1.1967929567
H       -0.2671147816   -1.4310123734   -0.6969333378
H        1.9514394258    0.3017730267    0.5943869708
H        2.2995459874   -2.1904211617   -1.2982376838
H       -1.9393318829    2.1979364056   -0.0096732063
H       -1.9234773954    0.6053249850    2.1996452399
C       -0.5302229129    0.7153206774   -0.7853071229
H       -0.2742756220    1.0561923717   -1.7820137030
13   
From optimize.out: Frame 44 / 47, Energy=    -286.8505690518
C        0.0331647499   -0.5310140297   -0.1427319732
C        1.5597902241   -0.4974813538   -0.0362110738
C        2.3698593775   -1.3329482575   -0.6409001631
C       -1.3600922671    1.2885211155    0.1048462874
C       -1.3462938966    0.4238594538    1.2947879640
N       -0.5746775805   -0.6056252403    1.1970915427
H       -0.2668294578   -1.4325359269   -0.6942860507
H        1.9532992100    0.3027445823    0.5932937993
H        2.2989433865   -2.1905222731   -1.2991592945
H       -1.9387875337    2.1981095186   -0.0090361465
H       -1.9261065834    0.6051405440    2.1997386174
C       -0.5297242328    0.7149800413   -0.7856280290
H       -0.2725453962    1.0567718259   -1.7818054799
13   
From optimize.out: Frame 43 / 47, Energy=    -286.8505573633
C        0.0339041294   -0.5310044464   -0.1402866427
C        1.5609731096   -0.4975521974   -0.0363682725
C        2.3682125563   -1.3318655424   -0.6454859849
C       -1.3603341173    1.2875987927    0.1035438588
C       -1.3492426601    0.4238121845    1.2949938049
N       -0.5749529329   -0.6038266220    1.1993646506
H       -0.2656203661   -1.4340812620   -0.6888999182
H        1.9565303092    0.3027870177    0.5913849838
H        2.2967759297   -2.1896106081   -1.3022376284
H       -1.9383583041    2.1978791289   -0.0102796849
H       -1.9316422658    0.6045593935    2.1995160498
C       -0.5283833533    0.7139122772   -0.7852439035
H       -0.2678620348    1.0573918839   -1.7800013129
13   
From optimize.out: Frame 42 / 47, Energy=    -286.8505389024
C        0.0347840071   -0.5313059908   -0.1358341076
C        1.5621632332   -0.4978318663   -0.0368910256
C        2.3669378516   -1.3297744268   -0.6518634754
C       -1.3612476718    1.2866247982    0.1021204851
C       -1.3530047392    0.4239678642    1.2954351535
N       -0.5762664030   -0.6024742396    1.2029196598
H       -0.2628554848   -1.4354216735   -0.6829385953
H        1.9601595877    0.3037889942    0.5873482816
H        2.2937637440   -2.1890682128   -1.3056084589
H       -1.9359583841    2.1994544490   -0.0125582622
H       -1.9392138827    0.6026708298    2.1987652621
C       -0.5268917009    0.7122514915   -0.7838952760
H       -0.2623701571    1.0571179830   -1.7769996410
13   
From optimize.out: Frame 41 / 47, Energy=    -286.8505183765
C        0.0370406906   -0.5300917427   -0.1303570733
C        1.5641839320   -0.4983993659   -0.0370374239
C        2.3660027305   -1.3287652498   -0.6579810115
C       -1.3634956069    1.2855148321    0.1007310446
C       -1.3561623327    0.4245009477    1.2955416227
N       -0.5767065840   -0.6002935685    1.2068783654
H       -0.2596084117   -1.4342245776   -0.6775193185
H        1.9657582101    0.3038039595    0.5835364932
H        2.2879299395   -2.1892887966   -1.3091314297
H       -1.9359600615    2.1991292450   -0.0159680045
H       -1.9467722198    0.5995973414    2.1966224396
C       -0.5251583601    0.7119058110   -0.7815450850
H       -0.2570519260    1.0566111643   -1.7737706191
13   
From optimize.out: Frame 40 / 47, Energy=    -286.8505007741
C        0.0388626268   -0.5290352408   -0.1265400387
C        1.5658761160   -0.4981707673   -0.0372015472
C        2.3660224417   -1.3285221382   -0.6611970664
C       -1.3653441794    1.2850488585    0.1006091057
C       -1.3581927783    0.4244375075    1.2953195582
N       -0.5774183932   -0.5997497163    1.2091910246
H       -0.2568432316   -1.4327286999   -0.6749652246
H        1.9701951736    0.3055166964    0.5797801474
H        2.2829490889   -2.1908327869   -1.3103194946
H       -1.9351401341    2.1999916510   -0.0175615744
H       -1.9520014107    0.5964486925    2.1941157915
C       -0.5241383074    0.7120870782   -0.7794516170
H       -0.2548270123    1.0555088654   -1.7717790646
13   
From optimize.out: Frame 39 / 47, Energy=    -286.8504861411
C        0.0414661049   -0.5270406327   -0.1233607498
C        1.5681624676   -0.4978672372   -0.0367979586
C        2.3658836559   -1.3294513449   -0.6634036193
C       -1.3673076274    1.2844200289    0.1004850181
C       -1.3592553062    0.4243850463    1.2946149922
N       -0.5768455419   -0.5984687854    1.2110627270
H       -0.2552428958   -1.4302096498   -0.6724373967
H        1.9757194017    0.3061304735    0.5775814197
H        2.2765193595   -2.1923013390   -1.3118200403
H       -1.9373274890    2.1982310114   -0.0189808556
H       -1.9562554396    0.5938374371    2.1905908929
C       -0.5228107688    0.7133057318   -0.7773398271
H       -0.2527059209    1.0550292603   -1.7701946026
13   
From optimize.out: Frame 38 / 47, Energy=    -286.8504709933
C        0.0436606834   -0.5256870383   -0.1214111119
C        1.5705198569   -0.4967294138   -0.0364484021
C        2.3659932371   -1.3303988997   -0.6642985858
C       -1.3682059783    1.2841673394    0.1011684974
C       -1.3599010734    0.4234528548    1.2936004565
N       -0.5764688363   -0.5986454062    1.2120817586
H       -0.2544257569   -1.4286357465   -0.6705772832
H        1.9807995316    0.3085660121    0.5751653587
H        2.2703409066   -2.1941343196   -1.3122132344
H       -1.9387304134    2.1976226697   -0.0186156836
H       -1.9601288288    0.5918725068    2.1862493828
C       -0.5215129168    0.7142010628   -0.7755894982
H       -0.2519404116    1.0543483785   -1.7691116548
13   
From optimize.out: Frame 37 / 47, Energy=    -286.8504522065
C        0.0467425462   -0.5238809569   -0.1191851281
C        1.5737329935   -0.4958245633   -0.0355686517
C        2.3653391486   -1.3315849593   -0.6662643483
C       -1.3686641831    1.2833806665    0.1011925506
C       -1.3602216825    0.4225638674    1.2923342872
N       -0.5745414686   -0.5976692146    1.2139569662
H       -0.2549806363   -1.4270863737   -0.6664069657
H        1.9875450172    0.3093032295    0.5741421242
H        2.2620619511   -2.1945636039   -1.3146819771
H       -1.9434716889    2.1940524620   -0.0190104638
H       -1.9651971079    0.5912667897    2.1804822549
C       -0.5192219798    0.7152373456   -0.7737108706
H       -0.2491229097    1.0548053110   -1.7672797777
13   
From optimize.out: Frame 36 / 47, Energy=    -286.8504299078
C        0.0490981753   -0.5231711273   -0.1176470744
C        1.5766011098   -0.4950905464   -0.0349402023
C        2.3645823544   -1.3318747025   -0.6684201760
C       -1.3678103314    1.2828796183    0.1012841841
C       -1.3605848333    0.4213585045    1.2915098196
N       -0.5725242022   -0.5974238636    1.2159730936
H       -0.2559847859   -1.4269902838   -0.6622349250
H        1.9929318321    0.3099415167    0.5736757168
H        2.2552169680   -2.1939220904   -1.3173544965
H       -1.9474474415    2.1915650507   -0.0194602318
H       -1.9705007837    0.5921081542    2.1754453606
C       -0.5170178225    0.7150806069   -0.7725097805
H       -0.2465602392    1.0555391626   -1.7653212883
13   
From optimize.out: Frame 35 / 47, Energy=    -286.8504033938
C        0.0518511212   -0.5223100032   -0.1154821606
C        1.5795116675   -0.4954483136   -0.0342447389
C        2.3634320739   -1.3320335605   -0.6719808061
C       -1.3668391719    1.2821085643    0.1005655836
C       -1.3611422684    0.4208650425    1.2914226530
N       -0.5692099023   -0.5956552197    1.2192040122
H       -0.2569129426   -1.4266853938   -0.6572697653
H        1.9982785178    0.3075457070    0.5748433694
H        2.2484021036   -2.1917948174   -1.3219762491
H       -1.9534017986    2.1872880000   -0.0227118468
H       -1.9765516549    0.5939113392    2.1717000021
C       -0.5145950193    0.7147711111   -0.7714078121
H       -0.2428227260    1.0574375441   -1.7626622412
13   
From optimize.out: Frame 34 / 47, Energy=    -286.8503635114
C        0.0556168519   -0.5207412565   -0.1126485118
C        1.5832785818   -0.4966286805   -0.0338185063
C        2.3625265404   -1.3329778039   -0.6759274665
C       -1.3661791099    1.2817585053    0.1000368916
C       -1.3623950623    0.4205894203    1.2924759297
N       -0.5645118095   -0.5928128904    1.2234321790
H       -0.2556607892   -1.4247916453   -0.6538155780
H        2.0045086910    0.3030392050    0.5771498289
H        2.2403801694   -2.1900005507   -1.3270364673
H       -1.9605155057    2.1826673486   -0.0296453920
H       -1.9839963038    0.5950559627    2.1699564986
C       -0.5121283264    0.7147676613   -0.7701626359
H       -0.2409239277    1.0600747240   -1.7599967700
13   
From optimize.out: Frame 33 / 47, Energy=    -286.8502986112
C        0.0624434368   -0.5156985193   -0.1082189711
C        1.5893164631   -0.4986690121   -0.0331706365
C        2.3617808229   -1.3374179181   -0.6798294627
C       -1.3680053413    1.2813160389    0.0994126897
C       -1.3642579703    0.4211115111    1.2944808213
N       -0.5570412878   -0.5864196795    1.2286907648
H       -0.2507856712   -1.4177766324   -0.6522792627
H        2.0149492174    0.2947609116    0.5812864537
H        2.2272498400   -2.1904111423   -1.3325492480
H       -1.9725697965    2.1740779785   -0.0422492871
H       -1.9928036238    0.5929671957    2.1699424424
C       -0.5088321947    0.7179768546   -0.7677355374
H       -0.2414438945    1.0641824134   -1.7577807665
13   
From optimize.out: Frame 32 / 47, Energy=    -286.8502091647
C        0.0711618750   -0.5071332718   -0.1040699324
C        1.5970466353   -0.5001347552   -0.0322060904
C        2.3614253745   -1.3456665574   -0.6807480402
C       -1.3725245827    1.2810881291    0.0994247881
C       -1.3659922768    0.4215929732    1.2963463278
N       -0.5490168999   -0.5786480912    1.2322055564
H       -0.2425227101   -1.4056540327   -0.6544846055
H        2.0286501712    0.2867309309    0.5860370482
H        2.2103207385   -2.1950968581   -1.3349184149
H       -1.9865468973    2.1641179413   -0.0554999459
H       -1.9997842545    0.5861919597    2.1708856048
C       -0.5052710714    0.7246834300   -0.7648141412
H       -0.2469461019    1.0679282021   -1.7581581549
13   
From optimize.out: Frame 31 / 47, Energy=    -286.8500937849
C        0.0807770609   -0.4956897603   -0.1012181765
C        1.6057569112   -0.5002389097   -0.0308393571
C        2.3608136952   -1.3570767946   -0.6785053766
C       -1.3791654608    1.2805897274    0.0991206099
C       -1.3667600002    0.4217544438    1.2967273821
N       -0.5413696308   -0.5700581535    1.2328696402
H       -0.2331914709   -1.3906944040   -0.6580842529
H        2.0447198405    0.2804869641    0.5901843345
H        2.1905796969   -2.2036826097   -1.3335891493
H       -2.0026962448    2.1525047126   -0.0658728887
H       -2.0034892785    0.5754343621    2.1710564736
C       -0.5010264526    0.7352275136   -0.7614584783
H       -0.2549486662    1.0714429082   -1.7603907609
13   
From optimize.out: Frame 30 / 47, Energy=    -286.8500175825
C        0.0857142428   -0.4885876440   -0.1012612618
C        1.6107606550   -0.4988838862   -0.0297077014
C        2.3600546804   -1.3642990006   -0.6747147424
C       -1.3826861221    1.2802595193    0.0989916881
C       -1.3664663891    0.4210926364    1.2959572753
N       -0.5382525058   -0.5669140435    1.2309465725
H       -0.2277513306   -1.3819277562   -0.6609047912
H        2.0539128471    0.2797531470    0.5920747964
H        2.1789673870   -2.2101562914   -1.3297493186
H       -2.0104441910    2.1471654925   -0.0678845724
H       -2.0031997806    0.5677453060    2.1703800149
C       -0.4982528394    0.7418194528   -0.7601124370
H       -0.2623566537    1.0729330680   -1.7640155224
13   
From optimize.out: Frame 29 / 47, Energy=    -286.8499023187
C        0.0898185795   -0.4801373714   -0.1047959342
C        1.6165793049   -0.4952595717   -0.0301869080
C        2.3577012755   -1.3727636740   -0.6671307683
C       -1.3862439539    1.2802980179    0.0982544562
C       -1.3649326249    0.4187899196    1.2925974887
N       -0.5359910424   -0.5647337258    1.2251589793
H       -0.2222222384   -1.3749689965   -0.6632938532
H        2.0638032549    0.2833328240    0.5889391443
H        2.1645286254   -2.2202141045   -1.3183571991
H       -2.0200779199    2.1419560624   -0.0636448549
H       -1.9997518144    0.5560839065    2.1676924875
C       -0.4928891771    0.7528845611   -0.7581515397
H       -0.2703222690    1.0747321526   -1.7670814986
13   
From optimize.out: Frame 28 / 47, Energy=    -286.8497612576
C        0.0907932148   -0.4754829512   -0.1090966384
C        1.6189577784   -0.4913286335   -0.0309929296
C        2.3548701425   -1.3766021305   -0.6599453030
C       -1.3855789358    1.2793571063    0.0988590709
C       -1.3636511193    0.4171006900    1.2905431507
N       -0.5360702088   -0.5667841815    1.2200615490
H       -0.2186980725   -1.3735603987   -0.6645991648
H        2.0678117418    0.2879980351    0.5845359611
H        2.1554449802   -2.2250229494   -1.3072415591
H       -2.0210941203    2.1404755584   -0.0583052450
H       -1.9964260006    0.5481407389    2.1649782281
C       -0.4874717343    0.7579135716   -0.7564512399
H       -0.2788876661    1.0777955446   -1.7723458800
13   
From optimize.out: Frame 27 / 47, Energy=    -286.8494408210
C        0.0889423623   -0.4741932312   -0.1102496468
C        1.6174239609   -0.4877944120   -0.0325160639
C        2.3460175789   -1.3711051918   -0.6566752332
C       -1.3806816365    1.2740307457    0.1001887411
C       -1.3625137243    0.4191878171    1.2917177867
N       -0.5351911047   -0.5699514748    1.2195679433
H       -0.2198034500   -1.3713905846   -0.6625027898
H        2.0677406102    0.2884985725    0.5796832762
H        2.1438797603   -2.2157525748   -1.3017582273
H       -2.0167500147    2.1332547688   -0.0546638138
H       -1.9958134743    0.5447915866    2.1596946947
C       -0.4801513041    0.7599010476   -0.7605757426
H       -0.2730995640    1.0705229308   -1.7719109246
13   
From optimize.out: Frame 26 / 47, Energy=    -286.8487686692
C        0.1115352634   -0.4458339029   -0.1019202776
C        1.6396690782   -0.4997401527   -0.0048925398
C        2.3438881416   -1.3959840786   -0.6665366792
C       -1.3996380367    1.2683444591    0.0808462290
C       -1.3565887666    0.4263507820    1.2804410426
N       -0.5204063616   -0.5480824569    1.2183963349
H       -0.2131789269   -1.3252815885   -0.6488646889
H        2.1125862816    0.2527109602    0.6389437041
H        2.1196107284   -2.2186874198   -1.3342405051
H       -2.0702841705    2.1049268110   -0.0606453714
H       -1.9881118844    0.5458926061    2.1576094164
C       -0.4920560755    0.7664815871   -0.7755078665
H       -0.2870252712    1.0689023938   -1.7836287986
13   
From optimize.out: Frame 25 / 47, Energy=    -286.8484298582
C        0.1162368328   -0.4471344567   -0.1040131052
C        1.6407571121   -0.4967359237   -0.0163521775
C        2.3465662339   -1.4013451278   -0.6634198321
C       -1.4071019418    1.2842230356    0.0750597161
C       -1.3632239216    0.4192225856    1.2675327503
N       -0.5143686505   -0.5504701288    1.2134175269
H       -0.2182288705   -1.3426255923   -0.6401403080
H        2.1093802995    0.2653481564    0.6114354918
H        2.1222235015   -2.2499118056   -1.3101190652
H       -2.1004275751    2.1131894153   -0.0455675831
H       -1.9822715872    0.5284335559    2.1608955759
C       -0.4700286953    0.7892796054   -0.7654825465
H       -0.2795127379    1.0885266806   -1.7832464435
13   
From optimize.out: Frame 24 / 47, Energy=    -286.8478670137
C        0.1284244554   -0.4410665535   -0.0778935140
C        1.6420663102   -0.5150637150   -0.0035163174
C        2.3342993591   -1.3925298889   -0.6923132352
C       -1.4117410049    1.2679136652    0.0562574329
C       -1.3581858828    0.4384231510    1.2690608110
N       -0.4994343079   -0.5210280351    1.2389206949
H       -0.2363247502   -1.3417456142   -0.5935083746
H        2.1235072886    0.2140893939    0.6449173284
H        2.1093315053   -2.2170693311   -1.3694281470
H       -2.1420583753    2.0579509742   -0.0752657951
H       -1.9951019489    0.5487997930    2.1506772641
C       -0.4572701634    0.7895230139   -0.7678779248
H       -0.2375124851    1.1118031467   -1.7800302232
13   
From optimize.out: Frame 23 / 47, Energy=    -286.8467388607
C        0.1521695729   -0.4165942067   -0.0707255978
C        1.6514488152   -0.5207928330    0.0014889542
C        2.3203834774   -1.3982933008   -0.6991243474
C       -1.4254696142    1.2649227388    0.0483572136
C       -1.3717094369    0.4394672744    1.2643915957
N       -0.4780436171   -0.4968616127    1.2413912164
H       -0.2443616438   -1.2927437196   -0.5997042805
H        2.1535673354    0.1873985522    0.6499408288
H        2.0766101224   -2.2090919826   -1.3714872975
H       -2.1904451794    2.0341556262   -0.0818828757
H       -1.9888738514    0.5387004398    2.1476727871
C       -0.4535904075    0.7878752454   -0.7573725501
H       -0.2016855730    1.0818577785   -1.7729456468
13   
From optimize.out: Frame 22 / 47, Energy=    -286.8452695115
C        0.1580832754   -0.4033822901   -0.0488651534
C        1.6500118571   -0.5336502786    0.0044376035
C        2.3094040067   -1.3869061538   -0.7338481431
C       -1.4352713323    1.2528351947    0.0330658716
C       -1.3768694998    0.4535100730    1.2682526089
N       -0.4628865309   -0.4613762727    1.2654578434
H       -0.2671228408   -1.2825708381   -0.5688950447
H        2.1639332826    0.1475954431    0.6691164318
H        2.0634443296   -2.1786087497   -1.4279811910
H       -2.2295810146    1.9872186638   -0.1221837699
H       -2.0022252120    0.5550330633    2.1437477918
C       -0.4375241370    0.7769590286   -0.7425545014
H       -0.1333961840    1.0733431166   -1.7397503476
13   
From optimize.out: Frame 21 / 47, Energy=    -286.8411312360
C        0.1627908355   -0.3969709829   -0.0219565333
C        1.6434834567   -0.5174487980   -0.0058449997
C        2.3048417205   -1.3828869973   -0.7376301440
C       -1.4332253546    1.2490004783    0.0414178255
C       -1.3856725524    0.4196436939    1.2714634436
N       -0.4549839303   -0.4566572063    1.3021393644
H       -0.3081550005   -1.2261050121   -0.6021120552
H        2.1619188807    0.1793033404    0.6396987201
H        2.0483920310   -2.1970774254   -1.4216577738
H       -2.2538494500    1.9930475279   -0.1135926220
H       -2.0110762943    0.5319205764    2.1527785578
C       -0.4172178193    0.7957849845   -0.7408326045
H       -0.0572465232    1.0084458206   -1.7638711789
13   
From optimize.out: Frame 20 / 47, Energy=    -286.8356718959
C        0.1550022349   -0.3920011108    0.0041178726
C        1.6343244793   -0.5128501001   -0.0109252269
C        2.2927061207   -1.3632288070   -0.7669087756
C       -1.4334069752    1.2361150606    0.0364394456
C       -1.3922890017    0.4185444021    1.2799023101
N       -0.4463577600   -0.4394811278    1.3324334485
H       -0.3400930281   -1.1943683937   -0.6008270792
H        2.1584189756    0.1783115701    0.6449775343
H        2.0358580319   -2.1740667662   -1.4672853711
H       -2.2667465172    1.9705975768   -0.1396989340
H       -2.0272320398    0.5388498328    2.1573368201
C       -0.4028957103    0.7937230879   -0.7480634682
H        0.0327111900    0.9398547753   -1.7214985762
13   
From optimize.out: Frame 19 / 47, Energy=    -286.8270127752
C        0.1399708220   -0.3897779022    0.0085965860
C        1.6488155513   -0.5207785944   -0.0313390904
C        2.3032440888   -1.3817797093   -0.7812115461
C       -1.4635343757    1.2506847059    0.0445518407
C       -1.3980903152    0.4039204140    1.2788229509
N       -0.4218437429   -0.4253593972    1.3497739315
H       -0.3617769448   -1.1509790268   -0.6238631562
H        2.1710753975    0.1879538621    0.6050191049
H        2.0358518129   -2.1967137937   -1.4308063392
H       -2.3163398568    1.9562317156   -0.1176169629
H       -2.0349754379    0.5263588069    2.1540988644
C       -0.4171852861    0.8423787496   -0.7398790574
H        0.1147882868    0.8978601697   -1.7161471261
13   
From optimize.out: Frame 18 / 47, Energy=    -286.8214853305
C        0.1293480216   -0.3770859195    0.0242679875
C        1.6430078543   -0.5128828426   -0.0188766520
C        2.2680270952   -1.3527965194   -0.7833627241
C       -1.4493256736    1.2304951986    0.0398814450
C       -1.3856702266    0.4054449603    1.2890356571
N       -0.4145239719   -0.4277508309    1.3698635549
H       -0.3833360835   -1.1045015401   -0.6224221200
H        2.1745118852    0.1788577101    0.6252212938
H        1.9919641441   -2.1353620910   -1.4631317682
H       -2.2821171857    1.9094616796   -0.1257884055
H       -2.0486923314    0.5362347909    2.1412551442
C       -0.4019171150    0.7991024358   -0.7294967861
H        0.1587235874    0.8507829682   -1.7464466266
13   
From optimize.out: Frame 17 / 47, Energy=    -286.8038115893
C        0.1418814386   -0.4169760604    0.0761891341
C        1.6530851123   -0.5120371428    0.0029493337
C        2.2670346901   -1.3476172569   -0.8001258540
C       -1.4840574403    1.2538909625    0.0154752773
C       -1.3862545464    0.4182314871    1.2976562341
N       -0.3958259643   -0.4289452405    1.3870226384
H       -0.4021526399   -1.0850113180   -0.6136796848
H        2.1756648663    0.1787273418    0.6643996532
H        1.9896232100   -2.1222161198   -1.5374559098
H       -2.2663188569    1.8700552126   -0.1178050368
H       -2.0685124073    0.5608123950    2.1327152183
C       -0.4301480491    0.8186031508   -0.7579334478
H        0.2059805869    0.8124825887   -1.7494075559
13   
From optimize.out: Frame 16 / 47, Energy=    -286.7829995738
C        0.1747175179   -0.4425302333    0.0822271070
C        1.6678003796   -0.5155009731    0.0050455094
C        2.2513529578   -1.3586581320   -0.7549517856
C       -1.4848204954    1.2401346844    0.0130981418
C       -1.3640927913    0.4316018954    1.2888468359
N       -0.3881660726   -0.4223969625    1.3588840760
H       -0.3823210971   -1.0819115066   -0.6248810430
H        2.2006050568    0.1721792723    0.6565729971
H        1.9613945171   -2.1177048780   -1.5195703649
H       -2.2618936765    1.8368117616   -0.0814863095
H       -2.0652574535    0.5613483267    2.1121581398
C       -0.5089085920    0.8861907090   -0.8082632767
H        0.1995897492    0.8104360361   -1.7276800273
13   
From optimize.out: Frame 15 / 47, Energy=    -286.7724526475
C        0.1399078706   -0.4500509900    0.0558771279
C        1.6512598592   -0.5364824213    0.0231205864
C        2.2563326057   -1.3394385575   -0.7750416767
C       -1.4737283425    1.2355177169    0.0278191124
C       -1.3175004481    0.4354326239    1.3081188933
N       -0.4114691607   -0.4178782834    1.3531074710
H       -0.3638410724   -1.0890918785   -0.6137204453
H        2.1825071458    0.1370310046    0.6687424274
H        1.9876124107   -2.0811675899   -1.4992475879
H       -2.2590100033    1.8411735592   -0.0456003939
H       -2.0597994636    0.5877709803    2.0944233466
C       -0.5305946339    0.8974518529   -0.9002114834
H        0.1983232325    0.7797319827   -1.6973873776
13   
From optimize.out: Frame 14 / 47, Energy=    -286.7561758166
C        0.1625254763   -0.4493653642    0.0886210760
C        1.6288235203   -0.5069785448    0.0210824652
C        2.2558639544   -1.3635728595   -0.7674363956
C       -1.4145867557    1.1628823789    0.0374671384
C       -1.3311794603    0.4419406618    1.3121280961
N       -0.4112434531   -0.4284653663    1.3657334491
H       -0.3878448716   -1.0740130050   -0.6197174846
H        2.1908758032    0.1665326229    0.6741978132
H        1.9839048533   -2.0955302056   -1.5173710510
H       -2.2610140611    1.8425274455   -0.0643674252
H       -2.0682054482    0.5749586770    2.1041915464
C       -0.5498682070    0.9657629814   -0.9587377306
H        0.2019486496    0.7633205779   -1.6757914975
13   
From optimize.out: Frame 13 / 47, Energy=    -286.7426001980
C        0.1252262588   -0.4443007909    0.0471471203
C        1.6040246503   -0.4653585668   -0.0484450960
C        2.2440715630   -1.3288620490   -0.8000771798
C       -1.4405178949    1.1892026477    0.0335437375
C       -1.3716524669    0.4394334003    1.3094157973
N       -0.4268409463   -0.3817811037    1.3101580308
H       -0.3850538842   -1.0965252317   -0.6577801955
H        2.1480361508    0.2330929544    0.5739287303
H        1.9742179250   -2.1043376466   -1.5138755442
H       -2.2508611882    1.8835072142   -0.1287274324
H       -2.0653984051    0.5550517061    2.1365818630
C       -0.5182902411    0.9338896428   -0.8907666829
H        0.3630384786    0.5869878232   -1.3711031485
13   
From optimize.out: Frame 12 / 47, Energy=    -286.7312624387
C        0.1454007722   -0.4943254497   -0.0010095888
C        1.6316956831   -0.4642806358   -0.0871799058
C        2.2987063407   -1.3869914248   -0.7368763466
C       -1.4832533612    1.2588034554    0.0541305126
C       -1.3834020599    0.4163543101    1.2800056658
N       -0.4372065159   -0.4030278997    1.2316787480
H       -0.3267154542   -1.1540254318   -0.7243253020
H        2.1434206574    0.3011571292    0.4772232896
H        2.0295540160   -2.2331773237   -1.3684534228
H       -2.2726775831    1.9877137488   -0.0352749486
H       -2.0269202474    0.5125817664    2.1485958593
C       -0.6034551507    1.0479233334   -0.9179050125
H        0.2848529027    0.6112944221   -1.3206095482
13   
From optimize.out: Frame 11 / 47, Energy=    -286.7310059291
C        0.2756303800   -0.5510847319    0.0040007529
C        1.7554306442   -0.5777198018   -0.0332026230
C        2.4026994463   -1.5545387070   -0.6454471434
C       -1.5987772414    1.3288087714    0.0431425046
C       -1.3537851675    0.4460389006    1.2181213272
N       -0.3856713252   -0.3864674782    1.1837336993
H       -0.2234550779   -1.1952528021   -0.7259359924
H        2.2764651941    0.1878014086    0.5417757199
H        2.1004257239   -2.3846574189   -1.2770453207
H       -2.4590214983    1.9959893527    0.1133850661
H       -1.9736116982    0.5210079207    2.1115630121
C       -0.8610672680    1.2956639458   -1.0551980559
H        0.0447378880    0.8744106402   -1.4788929467
13   
From optimize.out: Frame 10 / 47, Energy=    -286.7291257114
C        0.2960498152   -0.5648760910   -0.0559131396
C        1.7795431838   -0.5535227454   -0.0718548804
C        2.4160245098   -1.6112381159   -0.5436567955
C       -1.6144956948    1.3623529954    0.0765513793
C       -1.3431177213    0.4104671445    1.1959307770
N       -0.3844204101   -0.4251324823    1.1123973354
H       -0.1692588898   -1.2104342122   -0.8045222439
H        2.2908654782    0.2727678590    0.4178284209
H        2.0836194095   -2.4985724419   -1.0771119263
H       -2.4490269735    2.0479296395    0.2145695697
H       -1.9424517197    0.4477593215    2.1050902816
C       -0.9174490584    1.3802300314   -1.0473625641
H       -0.0458819291    0.9422690974   -1.5219462141
13   
From optimize.out: Frame 9 / 47, Energy=    -286.7275980227
C        0.3002445015   -0.5905145978   -0.1133894422
C        1.7823512936   -0.5240205581   -0.1146265516
C        2.4197870873   -1.6335364245   -0.4449791550
C       -1.6053223431    1.3906771149    0.1129934757
C       -1.3316177681    0.3760194836    1.1782975609
N       -0.3973243571   -0.4775292680    1.0475601877
H       -0.1334985376   -1.2370430117   -0.8779170848
H        2.2765905427    0.3582251107    0.2820659053
H        2.0713563591   -2.5654161677   -0.8864942109
H       -2.3971742531    2.1079356984    0.3142081561
H       -1.9159882422    0.3853843499    2.0975928330
C       -0.9486333068    1.4335260432   -1.0333357290
H       -0.1207709762    0.9762922271   -1.5619759453
13   
From optimize.out: Frame 8 / 47, Energy=    -286.7260504101
C        0.2840238013   -0.6409613827   -0.1630045055
C        1.7535172513   -0.4812217817   -0.1717184427
C        2.4082078084   -1.6159577000   -0.3576000059
C       -1.5647328714    1.4121009438    0.1494759954
C       -1.3154936038    0.3435727429    1.1659420678
N       -0.4219701243   -0.5445452024    0.9971374340
H       -0.1230127394   -1.3100257289   -0.9205230439
H        2.2163064155    0.4549110462    0.1220035842
H        2.0624058492   -2.5853270500   -0.7130682247
H       -2.3054987292    2.1657938333    0.4074233534
H       -1.9020664607    0.3349012136    2.0841100964
C       -0.9403602504    1.4666331773   -1.0130514562
H       -0.1513263466    1.0001258885   -1.5871268522
13   