13   
From optimize.out: Frame 2 / 3, Energy=    -286.8505816574
C        0.0319714848   -0.5333175667   -0.1427400561
C        1.5576113711   -0.4988355063   -0.0351273078
C        2.3711780219   -1.3299123757   -0.6406536961
C       -1.3603029260    1.2874427662    0.1039385723
C       -1.3430895248    0.4247886342    1.2952133943
N       -0.5766590089   -0.6087100396    1.1965567815
H       -0.2668709717   -1.4316102531   -0.6999986983
H        1.9464765813    0.3017313693    0.5964272419
H        2.2991653582   -2.1878093685   -1.2978372333
H       -1.9380964353    2.1976527738   -0.0111081502
H       -1.9187150676    0.6090736045    2.2016245916
C       -0.5296299095    0.7136112444   -0.7852588237
H       -0.2730389731    1.0558947172   -1.7810366164
13   
From optimize.out: Frame 1 / 3, Energy=    -286.8505782439
C        0.0323354015   -0.5318852731   -0.1425790934
C        1.5581502616   -0.4987224897   -0.0361758972
C        2.3714477411   -1.3318815955   -0.6397513756
C       -1.3602315917    1.2889386335    0.1048715783
C       -1.3435322781    0.4249103364    1.2951205836
N       -0.5751515181   -0.6071782021    1.1970260077
H       -0.2672893434   -1.4309651607   -0.6982099673
H        1.9490515036    0.3013655348    0.5947974016
H        2.3009105800   -2.1896444075   -1.2979591351
H       -1.9383258071    2.1987825363   -0.0102784939
H       -1.9221201664    0.6059336433    2.1999768216
C       -0.5304462435    0.7146612872   -0.7851427864
H       -0.2747985395    1.0556851569   -1.7816956439
13   
From optimize.out: Frame 46 / 47, Energy=    -286.8505782439
C        0.0323354015   -0.5318852731   -0.1425790934
C        1.5581502616   -0.4987224897   -0.0361758972
C        2.3714477411   -1.3318815955   -0.6397513756
C       -1.3602315917    1.2889386335    0.1048715783
C       -1.3435322781    0.4249103364    1.2951205836
N       -0.5751515181   -0.6071782021    1.1970260077
H       -0.2672893434   -1.4309651607   -0.6982099673
H        1.9490515036    0.3013655348    0.5947974016
H        2.3009105800   -2.1896444075   -1.2979591351
H       -1.9383258071    2.1987825363   -0.0102784939
H       -1.9221201664    0.6059336433    2.1999768216
C       -0.5304462435    0.7146612872   -0.7851427864
H       -0.2747985395    1.0556851569   -1.7816956439
13   
From optimize.out: Frame 44 / 47, Energy=    -286.8505690518
C        0.0570527586   -0.5196762115   -0.1117216799
C        1.5845477804   -0.4970740576   -0.0336786639
C        2.3623608531   -1.3339270724   -0.6767551561
C       -1.3665525793    1.2816769326    0.0999157093
C       -1.3627928495    0.4206927977    1.2928960782
N       -0.5629499195   -0.5914776189    1.2245285473
H       -0.2546416777   -1.4232990650   -0.6535152870
H        2.0067103045    0.3012641974    0.5780409761
H        2.2375978176   -2.1900883871   -1.3282181220
H       -1.9630371182    2.1808748873   -0.0322840786
H       -1.9858634781    0.5946009963    2.1699491318
C       -0.5114206836    0.7154616318   -0.7696430005
H       -0.2410112082    1.0609709695   -1.7595144545
13   
From optimize.out: Frame 42 / 47, Energy=    -286.8505389024
C        0.0888842865   -0.4820494254   -0.1040013209
C        1.6152562272   -0.4961010909   -0.0300699469
C        2.3582214359   -1.3708716700   -0.6688425480
C       -1.3854225152    1.2803067488    0.0984246715
C       -1.3652858379    0.4193131951    1.2933505480
N       -0.5365215827   -0.5652352212    1.2264566444
H       -0.2234858898   -1.3765323384   -0.6627725229
H        2.0615636464    0.2824876295    0.5896710363
H        2.1677780346   -2.2179508669   -1.3209430438
H       -2.0178684872    2.1431628798   -0.0645958073
H       -2.0005442830    0.5587225056    2.1682893757
C       -0.4940858503    0.7503968675   -0.7585903703
H       -0.2684891845    1.0743507864   -1.7663767158
13   
From optimize.out: Frame 41 / 47, Energy=    -286.8505183765
C        0.1076555859   -0.4506973875   -0.1033529143
C        1.6358468004   -0.4977169417   -0.0096098481
C        2.3442423788   -1.3917453041   -0.6648264080
C       -1.3963689291    1.2693401535    0.0841576184
C       -1.3576188461    0.4251264431    1.2823586411
N       -0.5229699178   -0.5518407819    1.2185814670
H       -0.2143251688   -1.3331765565   -0.6512246463
H        2.1048898357    0.2588068803    0.6288187952
H        2.1237594084   -2.2181994304   -1.3286656816
H       -2.0610701285    2.1098174548   -0.0596246738
H       -1.9894588534    0.5457059411    2.1579422541
C       -0.4899902468    0.7653710516   -0.7729449183
H       -0.2845919186    1.0692084777   -1.7816096854
13   
From optimize.out: Frame 39 / 47, Energy=    -286.8504861411
C        0.1220332927   -0.4442459721   -0.0915826774
C        1.6413713399   -0.5054922355   -0.0102165635
C        2.3407137685   -1.3971787419   -0.6771544810
C       -1.4092885154    1.2764825691    0.0661022262
C       -1.3608431623    0.4283662131    1.2682404043
N       -0.5072929681   -0.5364652463    1.2255399445
H       -0.2268568408   -1.3421911080   -0.6179670964
H        2.1160981059    0.2408922831    0.6274244446
H        2.1160714503   -2.2342892906   -1.3383551774
H       -2.1202091845    2.0869294153   -0.0597124890
H       -1.9884144198    0.5381274793    2.1559997561
C       -0.4639239139    0.7894181008   -0.7666180236
H       -0.2594589524    1.0996465336   -1.7817002674
13   
From optimize.out: Frame 37 / 47, Energy=    -286.8504522065
C        0.1485427276   -0.4203262954   -0.0718237977
C        1.6500072186   -0.5199555004    0.0007589146
C        2.3224932506   -1.3974494794   -0.6980548745
C       -1.4233506221    1.2654085735    0.0495516909
C       -1.3696727165    0.4393091480    1.2650761819
N       -0.4813489525   -0.5005632498    1.2409901436
H       -0.2431486204   -1.3001944649   -0.5987960270
H        2.1489716268    0.1914055655    0.6492377680
H        2.0815870952   -2.2103221670   -1.3711672631
H       -2.1830226189    2.0378323579   -0.0808870187
H       -1.9898697821    0.5402343901    2.1480890685
C       -0.4541135467    0.7881536241   -0.7589683247
H       -0.2070750597    1.0864674977   -1.7740064616
13   
From optimize.out: Frame 35 / 47, Energy=    -286.8504033938
C        0.1582622878   -0.4031292913   -0.0478000111
C        1.6497381643   -0.5330461352    0.0040640212
C        2.3092107128   -1.3867815606   -0.7339677225
C       -1.4351594020    1.2527173826    0.0333912946
C       -1.3772493296    0.4521562529    1.2683505567
N       -0.4626234650   -0.4612152408    1.2668909494
H       -0.2687721294   -1.2802963197   -0.5702664789
H        2.1638354884    0.1487844087    0.6680174033
H        2.0628351389   -2.1793530263   -1.4277300528
H       -2.2304944233    1.9875106873   -0.1218516961
H       -2.0026322541    0.5540968078    2.1440609020
C       -0.4366717089    0.7777429310   -0.7424760398
H       -0.1302790799    1.0708131035   -1.7406831261
13   
From optimize.out: Frame 33 / 47, Energy=    -286.8502986112
C        0.1612811315   -0.3960153467   -0.0169340088
C        1.6417066360   -0.5165956254   -0.0067848603
C        2.3024976499   -1.3791217377   -0.7432398116
C       -1.4332359812    1.2465438663    0.0404459994
C       -1.3869825003    0.4194233395    1.2730567395
N       -0.4533734263   -0.4533733245    1.3079534594
H       -0.3143195552   -1.2199603849   -0.6019102109
H        2.1612261657    0.1790487953    0.6407942735
H        2.0459773045   -2.1926403440   -1.4304526852
H       -2.2562916882    1.9887679540   -0.1186450821
H       -2.0142530673    0.5332359514    2.1536057781
C       -0.4144144364    0.7954174680   -0.7422178730
H       -0.0398182325    0.9952693888   -1.7556717181
13   
From optimize.out: Frame 31 / 47, Energy=    -286.8500937849
C        0.1497962585   -0.3912350411    0.0056602879
C        1.6393277622   -0.5156210623   -0.0179448103
C        2.2963527553   -1.3696627919   -0.7718178491
C       -1.4438059957    1.2411787997    0.0392329043
C       -1.3943319454    0.4134731118    1.2794935694
N       -0.4379330165   -0.4346292833    1.3384027835
H       -0.3475928718   -1.1793372206   -0.6088416618
H        2.1627779338    0.1815888134    0.6312371223
H        2.0358667309   -2.1818922946   -1.4546643041
H       -2.2838592003    1.9656738302   -0.1320810322
H       -2.0299745851    0.5345013304    2.1561633290
C       -0.4077978402    0.8105808368   -0.7452224763
H        0.0611740143    0.9253809715   -1.7196178626
13   
From optimize.out: Frame 30 / 47, Energy=    -286.8500175825
C        0.1346644356   -0.3834490967    0.0164074787
C        1.6459106176   -0.5168664198   -0.0250750337
C        2.2856828541   -1.3673343607   -0.7822401172
C       -1.4564270294    1.2406358972    0.0422052990
C       -1.3919370885    0.4046633754    1.2838769401
N       -0.4182517151   -0.4265886842    1.3597662358
H       -0.3725268838   -1.1277669866   -0.6231945303
H        2.1727690979    0.1833601845    0.6151868451
H        2.0139773407   -2.1660952381   -1.4469236735
H       -2.2992303503    1.9329421397   -0.1217205018
H       -2.0418922006    0.5312513844    2.1476297976
C       -0.4095264870    0.8208199659   -0.7346893689
H        0.1367874089    0.8744278389   -1.7312293710
13   
From optimize.out: Frame 28 / 47, Energy=    -286.8497612576
C        0.1375067668   -0.4030945212    0.0581026330
C        1.6495660613   -0.5123669399   -0.0045946668
C        2.2673879224   -1.3494347873   -0.7942433930
C       -1.4719404487    1.2457768657    0.0239575679
C       -1.3861022697    0.4137538458    1.2946087693
N       -0.4024086567   -0.4285806398    1.3810117619
H       -0.3955969328   -1.0917612035   -0.6167889062
H        2.1752371357    0.1786975816    0.6508691008
H        1.9904624222   -2.1267700334   -1.5115811924
H       -2.2717725266    1.8838280900   -0.1206080147
H       -2.0616995880    0.5522080057    2.1356165287
C       -0.4202677449    0.8118558378   -0.7480180368
H        0.1896278591    0.8258878985   -1.7483321518
13   
From optimize.out: Frame 26 / 47, Energy=    -286.8487686692
C        0.1682951094   -0.4375519491    0.0810369403
C        1.6649157643   -0.5148673937    0.0046966552
C        2.2544172811   -1.3565249422   -0.7637159536
C       -1.4846408667    1.2428558210    0.0135450716
C       -1.3684716735    0.4289670550    1.2905166156
N       -0.3897405282   -0.4237288180    1.3643351078
H       -0.3861866252   -1.0824774127   -0.6227656397
H        2.1957095827    0.1733706211    0.6582195058
H        1.9669262867   -2.1185634817   -1.5230600535
H       -2.2627060651    1.8433598532   -0.0886012803
H       -2.0659855466    0.5611967881    2.1160911041
C       -0.4934776940    0.8730523786   -0.7984265760
H        0.2009449753    0.8109114804   -1.7318714975
13   
From optimize.out: Frame 24 / 47, Energy=    -286.8478670137
C        0.1413605095   -0.4497400781    0.0569745597
C        1.6519426320   -0.5356391808    0.0224201896
C        2.2561303388   -1.3402682085   -0.7741388611
C       -1.4741673576    1.2357463537    0.0271778923
C       -1.3195196165    0.4352453823    1.3072586655
N       -0.4105668366   -0.4181183239    1.3533113981
H       -0.3646141943   -1.0887536456   -0.6142571438
H        2.1832386189    0.1384298619    0.6683476575
H        1.9865348559   -2.0826883413   -1.5000935996
H       -2.2590849231    1.8410460590   -0.0471467322
H       -2.0601225715    0.5866151623    2.0950907598
C       -0.5296137265    0.8970296136   -0.8963258646
H        0.1984822711    0.7810953453   -1.6986189212
13   
From optimize.out: Frame 22 / 47, Energy=    -286.8452695115
C        0.1610536031   -0.4491756007    0.0869893498
C        1.6278417441   -0.5053949518    0.0184262154
C        2.2554080111   -1.3622388236   -0.7686600701
C       -1.4155720614    1.1639436340    0.0372961653
C       -1.3328143097    0.4418162342    1.3119756567
N       -0.4119312906   -0.4266944571    1.3635235070
H       -0.3877316273   -1.0748540104   -0.6212719756
H        2.1891738450    0.1690462979    0.6704000859
H        1.9835502655   -2.0958544300   -1.5172308291
H       -2.2605683182    1.8441868878   -0.0669093828
H       -2.0681868466    0.5741370831    2.1053789088
C       -0.5485633928    0.9645757426   -0.9560673517
H        0.2083403778    0.7565063942   -1.6638502795
13   
From optimize.out: Frame 20 / 47, Energy=    -286.8356718959
C        0.1459163555   -0.4471156196    0.0701541081
C        1.6177799387   -0.4884783579   -0.0098199862
C        2.2506234502   -1.3481328948   -0.7819267293
C       -1.4261118635    1.1746158274    0.0357076950
C       -1.3492314623    0.4408037220    1.3108876527
N       -0.4182377468   -0.4077236895    1.3409721329
H       -0.3865962048   -1.0840069446   -0.6367044764
H        2.1717906892    0.1961049013    0.6296541106
H        1.9796160987   -2.0994316954   -1.5158113754
H       -2.2564653967    1.8608011427   -0.0930322098
H       -2.0670217112    0.5660632785    2.1185526217
C       -0.5357682219    0.9516139968   -0.9284760493
H        0.2737060748    0.6848863330   -1.5401574946
13   
From optimize.out: Frame 19 / 47, Energy=    -286.8270127752
C        0.1307787832   -0.4450563529    0.0533195111
C        1.6077171134   -0.4715620943   -0.0380668839
C        2.2458383843   -1.3340269857   -0.7951938912
C       -1.4366524626    1.1852871199    0.0341191507
C       -1.3656481450    0.4397911263    1.3098005822
N       -0.4245444236   -0.3887529851    1.3184208899
H       -0.3854609006   -1.0931609405   -0.6521357767
H        2.1544059295    0.2231633440    0.5889065933
H        1.9756822221   -2.1030091605   -1.5143912530
H       -2.2523645407    1.8774136061   -0.1191557907
H       -2.0658551488    0.5579904338    2.1317272219
C       -0.5229728370    0.9386524578   -0.9008851431
H        0.3390760257    0.6132704310   -1.4164652105
13   
From optimize.out: Frame 17 / 47, Energy=    -286.8038115893
C        0.1312203327   -0.4591575821    0.0328450525
C        1.6122459616   -0.4650297863   -0.0599373559
C        2.2603114612   -1.3461139052   -0.7812900408
C       -1.4532171897    1.2098665094    0.0396478822
C       -1.3751545147    0.4325703652    1.3006706333
N       -0.4299274615   -0.3880949007    1.2868457887
H       -0.3677160329   -1.1136042972   -0.6775481225
H        2.1466597615    0.2533191331    0.5452238225
H        1.9906756982   -2.1425914719   -1.4706712631
H       -2.2573501203    1.9144449185   -0.1009875773
H       -2.0539897676    0.5424251717    2.1401346128
C       -0.5435826312    0.9677558727   -0.8988301882
H        0.3398245028    0.5942099727   -1.3561032443
13   
From optimize.out: Frame 15 / 47, Energy=    -286.7724526475
C        0.1406873018   -0.4826211603    0.0102620042
C        1.6252282331   -0.4645136074   -0.0781138673
C        2.2859419308   -1.3733744126   -0.7516451205
C       -1.4732715438    1.2425038689    0.0492996495
C       -1.3806576245    0.4217528365    1.2868813159
N       -0.4347756861   -0.3980467253    1.2500431605
H       -0.3403491289   -1.1405877013   -0.7087431047
H        2.1444972393    0.2852678543    0.4998403765
H        2.0166353233   -2.2030306685   -1.4024454363
H       -2.2675984725    1.9633074879   -0.0571602065
H       -2.0359262709    0.5225194715    2.1457802801
C       -0.5835457400    1.0212280050   -0.9115692680
H        0.3031344384    0.6055947512   -1.3324297833
13   
From optimize.out: Frame 13 / 47, Energy=    -286.7426001980
C        0.1612432278   -0.5012250311   -0.0003913823
C        1.6467479748   -0.4780534604   -0.0806099812
C        2.3113698907   -1.4073463803   -0.7257362688
C       -1.4973180615    1.2672963722    0.0527732892
C       -1.3798046672    0.4199683057    1.2724749493
N       -0.4309327302   -0.4009976216    1.2258567185
H       -0.3141444032   -1.1590561651   -0.7244994576
H        2.1595952845    0.2874118523    0.4850643597
H        2.0382007598   -2.2515938749   -1.3573000414
H       -2.2953638040    1.9886882708   -0.0172314740
H       -2.0204420538    0.5136179942    2.1440862143
C       -0.6347962278    1.0780221220   -0.9346183612
H        0.2556448101    0.6432676161   -1.3398685644
13   
From optimize.out: Frame 11 / 47, Energy=    -286.7310059291
C        0.1928316533   -0.5149937706    0.0008240354
C        1.6767617095   -0.5055772035   -0.0675052350
C        2.3365956124   -1.4479961278   -0.7035444434
C       -1.5253364032    1.2842837858    0.0501003642
C       -1.3726278957    0.4271708088    1.2574544615
N       -0.4184422622   -0.3969824924    1.2142220670
H       -0.2890955348   -1.1690530887   -0.7248957525
H        2.1918663668    0.2599044901    0.5007405113
H        2.0553930823   -2.2883430955   -1.3351180523
H       -2.3405578169    1.9907056397    0.0188186866
H       -2.0075242726    0.5156639113    2.1350897701
C       -0.6972753798    1.1381222396   -0.9679248218
H        0.1974111410    0.7070949032   -1.3782615911
13   
From optimize.out: Frame 9 / 47, Energy=    -286.7275980227
C        0.2244200348   -0.5287627472    0.0020398285
C        1.7067751036   -0.5331009923   -0.0544003791
C        2.3618208453   -1.4886458486   -0.6813526927
C       -1.5533547790    1.3012711897    0.0474272479
C       -1.3654507845    0.4343731580    1.2424342523
N       -0.4059513940   -0.3929674205    1.2025876822
H       -0.2640466211   -1.1790502956   -0.7252916675
H        2.2241370008    0.2323971575    0.5164167212
H        2.0725850250   -2.3250922951   -1.3129361687
H       -2.3857526772    1.9927227638    0.0548683733
H       -1.9946062040    0.5177095150    2.1260937210
C       -0.7597538443    1.1982229246   -1.0012317945
H        0.1391782946    0.7709228906   -1.4166551239
13   
From optimize.out: Frame 8 / 47, Energy=    -286.7260504101
C        0.2560083748   -0.5425319469    0.0032559870
C        1.7367881707   -0.5606248253   -0.0412954140
C        2.3870456071   -1.5292955450   -0.6591610157
C       -1.5813731871    1.3182585833    0.0447539460
C       -1.3582733444    0.4415753609    1.2274143140
N       -0.3934601408   -0.3889524038    1.1909535555
H       -0.2389976641   -1.1890477670   -0.7256872172
H        2.2564072048    0.2048898501    0.5320929950
H        2.0897765994   -2.3618414740   -1.2907543935
H       -2.4309483571    1.9947396453    0.0909175983
H       -1.9816878582    0.5197548174    2.1170980551
C       -0.8222316460    1.2583241537   -1.0345392638
H        0.0809462409    0.8347515511   -1.4550491467
13   
From optimize.out: Frame 6 / 47, Energy=    -286.7207893425
C        0.2791761825   -0.5534793228   -0.0063896013
C        1.7596184625   -0.5735182542   -0.0398670798
C        2.4050280567   -1.5643896988   -0.6277004156
C       -1.6015080544    1.3346330976    0.0488916609
C       -1.3519609845    0.4398756208    1.2142323947
N       -0.3854808736   -0.3931679847    1.1713429940
H       -0.2140275058   -1.1978971224   -0.7395725738
H        2.2789535275    0.2025608969    0.5203045799
H        2.0975369717   -2.4044498364   -1.2422555108
H       -2.4572898401    2.0050084355    0.1308750819
H       -1.9682499547    0.5083125521    2.1103882813
C       -0.8708332063    1.3103352087   -1.0538722079
H        0.0290372185    0.8861764077   -1.4863776037
13   
From optimize.out: Frame 4 / 47, Energy=    -286.7085602796
C        0.2885371786   -0.5597999962   -0.0338450677
C        1.7706717740   -0.5624233171   -0.0575846828
C        2.4111365725   -1.5903742534   -0.5810417849
C       -1.6087165432    1.3500030338    0.0641971882
C       -1.3470674173    0.4235799666    1.2040640581
N       -0.3849002994   -0.4108792383    1.1386538098
H       -0.1891869077   -1.2048639750   -0.7755770102
H        2.2855561952    0.2415144621    0.4634831738
H        2.0898346030   -2.4566640503   -1.1506051954
H       -2.4527157436    2.0288085980    0.1772411080
H       -1.9539603274    0.4747559189    2.1074264899
C       -0.8966835770    1.3490806370   -1.0502915531
H       -0.0125055078    0.9172622140   -1.5061205339
13   
From optimize.out: Frame 2 / 47, Energy=    -286.6718383047
C        0.2964687380   -0.5674082997   -0.0615680878
C        1.7798252402   -0.5505993747   -0.0760380573
C        2.4164141057   -1.6134411067   -0.5338273475
C       -1.6135998739    1.3651422293    0.0800859990
C       -1.3420006895    0.4070934415    1.1941583172
N       -0.3857069055   -0.4302753561    1.1060018799
H       -0.1657078896   -1.2130889568   -0.8117353248
H        2.2894482545    0.2812363082    0.4044414387
H        2.0824392128   -2.5051938139   -1.0581782057
H       -2.4439223616    2.0538470084    0.2243131059
H       -1.9398692543    0.4416519527    2.1043097754
C       -0.9205242440    1.3854548710   -1.0460331600
H       -0.0532643329    0.9455810969   -1.5259303330
13   
C6H6N->C6H6N atoms 1-13 frame 986 charge +0.000 sz -1.000 sz^2 1.347
C        0.2985739927   -0.5802641065   -0.0903816261
C        1.7812347761   -0.5358021948   -0.0974895996
C        2.4183030072   -1.6246160865   -0.4843481831
C       -1.6090052410    1.3793395117    0.0983527999
C       -1.3362282973    0.3898292191    1.1853220171
N       -0.3921677130   -0.4565377248    1.0735010213
H       -0.1477780723   -1.2264413274   -0.8485202333
H        2.2822924345    0.3240941914    0.3363511051
H        2.0762928049   -2.5387087660   -0.9625879318
H       -2.4179305007    2.0839295283    0.2742636541
H       -1.9265884111    0.4103930705    2.1005596004
C       -0.9361720732    1.4121625878   -1.0390106052
H       -0.0908267067    0.9626220973   -1.5460120186
13   
C6H6N->C6H6N atoms 1-13 frame 987 charge -0.000 sz -1.000 sz^2 1.321
C        0.2986010750   -0.5956536996   -0.1184103731
C        1.7794223843   -0.5196439006   -0.1204121187
C        2.4186308635   -1.6317356238   -0.4359944303
C       -1.6012085092    1.3928425795    0.1166346263
C       -1.3299815901    0.3727586936    1.1770191751
N       -0.3998278311   -0.4843043980    1.0424508240
H       -0.1324130229   -1.2445230515   -0.8821904255
H        2.2704465117    0.3681162410    0.2657484165
H        2.0704810483   -2.5674605200   -0.8686983204
H       -2.3878684110    2.1138112236    0.3235882135
H       -1.9145768893    0.3803270176    2.0961989768
C       -0.9478103306    1.4368300566   -1.0313460498
H       -0.1238952985    0.9786353815   -1.5645885145
13   
C6H6N->C6H6N atoms 1-13 frame 989 charge -0.000 sz -1.000 sz^2 1.271
C        0.2904474746   -0.6210167568   -0.1433498849
C        1.7649265519   -0.4981250888   -0.1491244624
C        2.4128112796   -1.6228918126   -0.3920717075
C       -1.5808059650    1.4036107686    0.1349762571
C       -1.3218677761    0.3564510565    1.1708153756
N       -0.4122088603   -0.5179910001    1.0171099891
H       -0.1271436937   -1.2812221350   -0.9035977777
H        2.2401389826    0.4167269659    0.1852575708
H        2.0659832494   -2.5774656563   -0.7815062715
H       -2.3417837740    2.1428976305    0.3704505344
H       -1.9075635601    0.3549568039    2.0894331670
C       -0.9436629516    1.4534646077   -1.0211531251
H       -0.1392709573    0.9906046164   -1.5772396647
13   
From optimize.out: Frame 1 / 88, Energy=    -286.6154169195
C        0.2893344890   -0.6421785314   -0.1661328468
C        1.7565998314   -0.4781676904   -0.1680133518
C        2.4049787041   -1.6179151762   -0.3444655079
C       -1.5624080064    1.4127594610    0.1508637805
C       -1.3115840442    0.3413966495    1.1636995648
N       -0.4232001045   -0.5511813647    0.9916417576
H       -0.1164218205   -1.3055552522   -0.9287718110
H        2.2204667375    0.4580635449    0.1232497496
H        2.0548540459   -2.5845736543   -0.7028356836
H       -2.2960160084    2.1696687415    0.4172941977
H       -1.8981086490    0.3313448818    2.0819980828
C       -0.9498506122    1.4659093153   -1.0172501658
H       -0.1686445628    1.0004290752   -1.6012777662
13   
From optimize.out: Frame 3 / 88, Energy=    -286.6818221284
C        0.3141682940   -0.6478565594   -0.1809698967
C        1.7710092437   -0.4639625827   -0.1507001395
C        2.3897259332   -1.6271913256   -0.2832840694
C       -1.5513981007    1.4159387062    0.1577084337
C       -1.2933041065    0.3309606933    1.1532221473
N       -0.4290693980   -0.5825416640    0.9657019228
H       -0.0856055224   -1.2843168783   -0.9678282864
H        2.2399921841    0.4725980977    0.1293568191
H        2.0192827263   -2.5810088807   -0.6555683710
H       -2.2514179641    2.1879045817    0.4640719342
H       -1.8796568196    0.3142127334    2.0720953079
C       -0.9941247028    1.4629129412   -1.0365263759
H       -0.2496017672    1.0023501372   -1.6672794261
13   
From optimize.out: Frame 5 / 88, Energy=    -286.7068539497
C        0.3194431983   -0.6746261827   -0.1911422148
C        1.7607085920   -0.4415697728   -0.1554787382
C        2.3730695328   -1.6143111740   -0.2392893655
C       -1.5233938265    1.4184066274    0.1676953349
C       -1.2770053179    0.3205565985    1.1488884815
N       -0.4424701319   -0.6188598891    0.9515787118
H       -0.0788777112   -1.3039697489   -0.9842098085
H        2.2189487678    0.5088014133    0.0924224710
H        2.0000983522   -2.5680269229   -0.6094102433
H       -2.1935940123    2.2056929478    0.5047408626
H       -1.8762752359    0.3003229230    2.0600429490
C       -1.0000482862    1.4607724472   -1.0414273271
H       -0.2806039214    1.0068107333   -1.7044111134
13   
From optimize.out: Frame 7 / 88, Energy=    -286.7189331540
C        0.3092781730   -0.7180453473   -0.1976324789
C        1.7309017342   -0.4127135117   -0.1776964850
C        2.3553055132   -1.5839412891   -0.2088619450
C       -1.4819741079    1.4203128754    0.1801626726
C       -1.2622703362    0.3101776888    1.1494046049
N       -0.4618161646   -0.6590917303    0.9467833640
H       -0.0911656373   -1.3559018890   -0.9826918497
H        2.1658799211    0.5621104500    0.0215115445
H        1.9938502318   -2.5476115160   -0.5641277224
H       -2.1253291533    2.2231275833    0.5405874306
H       -1.8847899551    0.2889927152    2.0462937920
C       -0.9756981514    1.4593075808   -1.0349803534
H       -0.2721720674    1.0132763900   -1.7187525742
13   
From optimize.out: Frame 8 / 88, Energy=    -286.7243698466
C        0.3236028809   -0.7497974340   -0.1999626699
C        1.7208477035   -0.3902567590   -0.1589926457
C        2.3347916703   -1.5708154184   -0.1544375856
C       -1.4417602952    1.4159168088    0.1834369070
C       -1.2324552957    0.3059541145    1.1468365716
N       -0.4839015483   -0.7057446559    0.9347585036
H       -0.0907599291   -1.3673176269   -0.9943013946
H        2.1425577580    0.5977134923    0.0162804708
H        1.9797997249   -2.5200946612   -0.5516730218
H       -2.0469033020    2.2357030984    0.5870894530
H       -1.8808697016    0.2871751219    2.0276712336
C       -0.9943528987    1.4436431990   -1.0524281669
H       -0.3305967669    1.0179207205   -1.7842776550
13   
From optimize.out: Frame 10 / 88, Energy=    -286.7359895954
C        0.3270501655   -0.7898196383   -0.1901216131
C        1.6974965308   -0.3695459536   -0.1392411302
C        2.3223421877   -1.5502711407   -0.1236531729
C       -1.3920015817    1.4047458417    0.1828408997
C       -1.2002523761    0.3127052442    1.1546940590
N       -0.5112890886   -0.7475405598    0.9411416604
H       -0.1217911174   -1.3936663655   -0.9786335589
H        2.0936249706    0.6407099770   -0.0001196043
H        1.9841401324   -2.4790760882   -0.5788560935
H       -1.9711070431    2.2338474148    0.6237991221
H       -1.8983307793    0.2990614635    2.0014143176
C       -0.9836060488    1.4200773549   -1.0633204944
H       -0.3462759518    1.0187724501   -1.8299443915
13   
From optimize.out: Frame 12 / 88, Energy=    -286.7426205887
C        0.3358053664   -0.8142905974   -0.1701299558
C        1.6914115597   -0.3634495273   -0.0917346444
C        2.3238493628   -1.5454420885   -0.1127042241
C       -1.3542933684    1.3836774744    0.1676204811
C       -1.1697887256    0.3271692188    1.1595251061
N       -0.5350079247   -0.7774612812    0.9531986306
H       -0.1629009210   -1.3894806331   -0.9548650426
H        2.0713736954    0.6641914485    0.0380099959
H        1.9893075832   -2.4281431380   -0.6513874609
H       -1.9249651891    2.2347517573    0.6545762973
H       -1.9137127269    0.3245803014    1.9738434891
C       -0.9809889661    1.3840376000   -1.0855374630
H       -0.3700897457    0.9998594653   -1.8804152094
13   
From optimize.out: Frame 14 / 88, Energy=    -286.7472040635
C        0.3495807970   -0.8426693065   -0.1625578352
C        1.7101205424   -0.3708910295   -0.0618417385
C        2.3469969108   -1.5659358766   -0.1007160418
C       -1.3349203910    1.3652819037    0.1544848205
C       -1.1516141380    0.3461876912    1.1483332941
N       -0.5519523070   -0.7979326287    0.9531538722
H       -0.2135430110   -1.4136871294   -0.9165909976
H        2.0886980415    0.6903211582    0.0485590039
H        2.0047317921   -2.4052849453   -0.6931403161
H       -1.9233399070    2.2279491160    0.7295656291
H       -1.9473804547    0.3627473404    1.9307307769
C       -0.9851425550    1.3775780082   -1.1042713360
H       -0.3922353201    1.0263356983   -1.9257091314
13   
From optimize.out: Frame 16 / 88, Energy=    -286.7533528575
C        0.3505504991   -0.8343366196   -0.1597814991
C        1.7186029903   -0.3645901703   -0.0362000240
C        2.3475712161   -1.5692909117   -0.1122984278
C       -1.3191970934    1.3427735624    0.1469410561
C       -1.1446081467    0.3549030686    1.1481852084
N       -0.5672970288   -0.8066583774    0.9496579045
H       -0.2454320356   -1.3829948182   -0.9101871203
H        2.1068958786    0.7080030922    0.0937390642
H        1.9941733107   -2.3673095603   -0.7438060291
H       -1.9090645647    2.2227317520    0.7543805623
H       -1.9660821251    0.3931330164    1.9133339887
C       -0.9761979323    1.3335112635   -1.1122373016