13   
From optimize.out: Frame 46 / 47, Energy=    -286.8505782439
C        0.0323354011   -0.5318852731   -0.1425790934
C        1.5581502613   -0.4987224907   -0.0361758984
C        2.3714477397   -1.3318815971   -0.6397513775
C       -1.3602315908    1.2889386344    0.1048715793
C       -1.3435322768    0.4249103373    1.2951205846
N       -0.5751515175   -0.6071782017    1.1970260081
H       -0.2672893449   -1.4309651605   -0.6982099671
H        1.9490515043    0.3013655335    0.5947974000
H        2.3009105776   -2.1896444090   -1.2979591369
H       -1.9383258056    2.1987825375   -0.0102784924
H       -1.9221201643    0.6059336445    2.1999768231
C       -0.5304462436    0.7146612875   -0.7851427860
H       -0.2747985402    1.0556851571   -1.7816956437
13   
From optimize.out: Frame 44 / 47, Energy=    -286.8505690518
C        0.0570570591   -0.5196773883   -0.1117140099
C        1.5845523959   -0.4970591300   -0.0336818250
C        2.3623692161   -1.3339145365   -0.6767506722
C       -1.3665643906    1.2816651580    0.0999052035
C       -1.3627880807    0.4206995660    1.2928989025
N       -0.5629357507   -0.5914641122    1.2245415849
H       -0.2546322837   -1.4233116853   -0.6534914609
H        2.0067113329    0.3012927303    0.5780225342
H        2.2376100588   -2.1900871734   -1.3281995008
H       -1.9630586041    2.1808552459   -0.0323044406
H       -1.9858543875    0.5946152947    2.1699535331
C       -0.5114329402    0.7154447060   -0.7696505900
H       -0.2410336253    1.0609413249   -1.7595292589
13   
From optimize.out: Frame 42 / 47, Energy=    -286.8505389024
C        0.0888898354   -0.4820495295   -0.1039960958
C        1.6152626399   -0.4960796946   -0.0300784714
C        2.3582338124   -1.3708482573   -0.6688468972
C       -1.3854388750    1.2802893063    0.0984212796
C       -1.3652796906    0.4193109866    1.2933577533
N       -0.5365027745   -0.5652270959    1.2264686167
H       -0.2234733813   -1.3765436497   -0.6627532477
H        2.0615652179    0.2825228018    0.5896486909
H        2.1677958802   -2.2179381865   -1.3209350488
H       -2.0178979651    2.1431348709   -0.0646042334
H       -2.0005320326    0.5587226898    2.1683006308
C       -0.4941028859    0.7503807086   -0.7585952586
H       -0.2685197809    1.0743250493   -1.7663877185
13   
From optimize.out: Frame 41 / 47, Energy=    -286.8505183765
C        0.1076609276   -0.4506970925   -0.1033486366
C        1.6358543820   -0.4976916415   -0.0096295502
C        2.3442533074   -1.3917177313   -0.6648455925
C       -1.3963873050    1.2693195700    0.0841631730
C       -1.3576048059    0.4251224434    1.2823748311
N       -0.5229417182   -0.5518326579    1.2185972477
H       -0.2143149310   -1.3331885737   -0.6512034139
H        2.1048959372    0.2588479864    0.6287814502
H        2.1237724949   -2.2181841389   -1.3286702929
H       -2.0611038843    2.1097846210   -0.0596196261
H       -1.9894325889    0.5457037982    2.1579670096
C       -0.4900145899    0.7653531255   -0.7729472364
H       -0.2846372261    1.0691802910   -1.7816193630
13   
From optimize.out: Frame 39 / 47, Energy=    -286.8504861411
C        0.1220396146   -0.4442454012   -0.0915770221
C        1.6413804486   -0.5054621681   -0.0102407563
C        2.3407257185   -1.3971480084   -0.6771765850
C       -1.4093106967    1.2764578036    0.0661075562
C       -1.3608252060    0.4283643759    1.2682602920
N       -0.5072580979   -0.5364521328    1.2255601180
H       -0.2268446969   -1.3422066163   -0.6179378702
H        2.1161064542    0.2409427886    0.6273768937
H        2.1160853528   -2.2342748173   -1.3383573582
H       -2.1202488689    2.0868892394   -0.0597075223
H       -1.9883803905    0.5381303469    2.1560304242
C       -0.4639540917    0.7893954973   -0.7666230362
H       -0.2595155400    1.0996090925   -1.7817151338
13   
From optimize.out: Frame 37 / 47, Energy=    -286.8504522065
C        0.1485499430   -0.4203246930   -0.0718182521
C        1.6500185761   -0.5199195046    0.0007259666
C        2.3225047699   -1.3974147447   -0.6980860833
C       -1.4233768689    1.2653786661    0.0495614978
C       -1.3696479496    0.4393081116    1.2651033559
N       -0.4813043456   -0.5005454649    1.2410146180
H       -0.2431365254   -1.3002134118   -0.5987597964
H        2.1489850779    0.1914672188    0.6491750625
H        2.0815980655   -2.2103080241   -1.3711734072
H       -2.1830692496    2.0377829130   -0.0808741891
H       -1.9898232427    0.5402399529    2.1481307800
C       -0.4541513377    0.7881264259   -0.7589739558
H       -0.2071469129    1.0864225547   -1.7740255970
13   
From optimize.out: Frame 35 / 47, Energy=    -286.8504033938
C        0.1582708891   -0.4031267759   -0.0477927457
C        1.6497516763   -0.5330045899    0.0040278039
C        2.3092221827   -1.3867459756   -0.7339988698
C       -1.4351897925    1.2526823671    0.0333987278
C       -1.3772203339    0.4521603729    1.2683805725
N       -0.4625715831   -0.4611882005    1.2669197373
H       -0.2687581236   -1.2803204668   -0.5702188650
H        2.1638530012    0.1488591197    0.6679440276
H        2.0628444401   -2.1793447945   -1.4277291795
H       -2.2305482012    1.9874509655   -0.1218413810
H       -2.0025779602    0.5541119455    2.1441077011
C       -0.4367148554    0.7777093123   -0.7424858775
H       -0.1303613393    1.0707567202   -1.7407116516
13   
From optimize.out: Frame 33 / 47, Energy=    -286.8502986112
C        0.1612887468   -0.3960125066   -0.0169278932
C        1.6417170808   -0.5165619054   -0.0068247587
C        2.3025012812   -1.3790957714   -0.7432767425
C       -1.4332603814    1.2465154312    0.0404577085
C       -1.3869485831    0.4194316875    1.2730909408
N       -0.4533203102   -0.4533446738    1.3079818004
H       -0.3143144830   -1.2199843728   -0.6018642382
H        2.1612438983    0.1791120702    0.6407167781
H        2.0459747575   -2.1926396513   -1.4304573900
H       -2.2563367438    1.9887178904   -0.1186274154
H       -2.0141920481    0.5332569342    2.1536576521
C       -0.4144556957    0.7953873326   -0.7422271295
H       -0.0398975195    0.9952175353   -1.7556993122
13   
From optimize.out: Frame 31 / 47, Energy=    -286.8500937849
C        0.1498034560   -0.3912321897    0.0056668847
C        1.6393363753   -0.5155922567   -0.0179855853
C        2.2963507924   -1.3696448398   -0.7718555455
C       -1.4438268667    1.2411541321    0.0392452063
C       -1.3942954495    0.4134865356    1.2795290019
N       -0.4378793186   -0.4345969725    1.3384308445
H       -0.3475926483   -1.1793617057   -0.6087943588
H        2.1627963378    0.1816464624    0.6311574737
H        2.0358558810   -2.1818994888   -1.4546686982
H       -2.2838989171    1.9656289863   -0.1320616423
H       -2.0299101789    0.5345296746    2.1562169377
C       -0.4078379167    0.8105511816   -0.7452328001
H        0.0610984533    0.9253304808   -1.7196477186
13   
From optimize.out: Frame 30 / 47, Energy=    -286.8500175825
C        0.1346714830   -0.3834463214    0.0164144933
C        1.6459182969   -0.5168396834   -0.0251220212
C        2.2856755777   -1.3673210221   -0.7822846926
C       -1.4564461573    1.2406128755    0.0422219456
C       -1.3918943727    0.4046809561    1.2839177084
N       -0.4181921683   -0.4265523988    1.3597959333
H       -0.3725320357   -1.1277930544   -0.6231442743
H        2.1727897395    0.1834161139    0.6150972617
H        2.0139578089   -2.1661076015   -1.4469323512
H       -2.2992673779    1.9328998006   -0.1216934063
H       -2.0418183104    0.5312855857    2.1476915872
C       -0.4095685362    0.8207897289   -0.7346997099
H        0.1367060526    0.8743750208   -1.7312624740
13   
From optimize.out: Frame 28 / 47, Energy=    -286.8497612576
C        0.1375181579   -0.4030890350    0.0581137334
C        1.6495768986   -0.5123315578   -0.0046489854
C        2.2673801779   -1.3494203228   -0.7942900759
C       -1.4719662088    1.2457461538    0.0239718397
C       -1.3860511261    0.4137800908    1.2946551374
N       -0.4023353348   -0.4285294286    1.3810490163
H       -0.3956019988   -1.0917964835   -0.6167232042
H        2.1752634770    0.1787727271    0.6507604215
H        1.9904381635   -2.1267926500   -1.5115813147
H       -2.2718187571    1.8837738557   -0.1205843011
H       -2.0616124092    0.5522561502    2.1356882378
C       -0.4203199640    0.8118143324   -0.7480337424
H        0.1895289239    0.8258161676   -1.7483767623
13   
From optimize.out: Frame 26 / 47, Energy=    -286.8487686692
C        0.1683102750   -0.4375438952    0.0810489286
C        1.6649290169   -0.5148250824    0.0046364865
C        2.2544129050   -1.3565037467   -0.7637665173
C       -1.4846716019    1.2428189213    0.0135619878
C       -1.3684171732    0.4289929526    1.2905657973
N       -0.3896607330   -0.4236747158    1.3643747013
H       -0.3861907891   -1.0825163671   -0.6226953428
H        2.1957385240    0.1734569849    0.6581001979
H        1.9669027293   -2.1185851482   -1.5230603380
H       -2.2627571537    1.8432984942   -0.0885731150
H       -2.0658925865    0.5612437514    2.1161694042
C       -0.4935401941    0.8730024748   -0.7984425110
H        0.2008367814    0.8108353761   -1.7319196794
13   
From optimize.out: Frame 24 / 47, Energy=    -286.8478670137
C        0.1413742096   -0.4497341819    0.0569871076
C        1.6519566203   -0.5355985882    0.0223591828
C        2.2561228405   -1.3402481724   -0.7741954001
C       -1.4741955939    1.2357122043    0.0271989988
C       -1.3194631273    0.4352712564    1.3073070675
N       -0.4104875297   -0.4180686305    1.3533508076
H       -0.3646195342   -1.0887894089   -0.6141905799
H        2.1832695112    0.1385116078    0.6682297962
H        1.9865079951   -2.0827067049   -1.5001036747
H       -2.2591314766    1.8409898207   -0.0471120701
H       -2.0600293787    0.5866579393    2.0951704159
C       -0.5296811202    0.8969774828   -0.8963382112
H        0.1983765839    0.7810253756   -1.6986634403
13   
From optimize.out: Frame 22 / 47, Energy=    -286.8452695115
C        0.1610691550   -0.4491676215    0.0870017550
C        1.6278552662   -0.5053535225    0.0183678113
C        2.2554035289   -1.3622176007   -0.7687108317
C       -1.4155992185    1.1639100350    0.0373139520
C       -1.3327597000    0.4418427675    1.3120221963
N       -0.4118524461   -0.4266426127    1.3635635466
H       -0.3877358995   -1.0748919788   -0.6212036159
H        2.1892031596    0.1691314234    0.6702828785
H        1.9835266341   -2.0958740858   -1.5172345715
H       -2.2606176494    1.8441274713   -0.0668803156
H       -2.0680958492    0.5741814235    2.1054562031
C       -0.5486352679    0.9645185097   -0.9560838496
H        0.2082382868    0.7564357916   -1.6638951587
13   
From optimize.out: Frame 20 / 47, Energy=    -286.8356718959
C        0.1459252442   -0.4471113466    0.0701628526
C        1.6177866401   -0.4884553333   -0.0098611773
C        2.2506156825   -1.3481246129   -0.7819633650
C       -1.4261275589    1.1745963665    0.0357210062
C       -1.3491922056    0.4408247906    1.3109209719
N       -0.4181852075   -0.4076882657    1.3409992883
H       -0.3866027266   -1.0840322015   -0.6366575138
H        2.1718097686    0.1961556827    0.6295724790
H        1.9795936299   -2.0994500081   -1.5158153555
H       -2.2564954664    1.8607657282   -0.0930112180
H       -2.0669561575    0.5660989647    2.1186070438
C       -0.5358142509    0.9515775681   -0.9284868234
H        0.2736426080    0.6848426674   -1.5401881887
13   
From optimize.out: Frame 19 / 47, Energy=    -286.8270127752
C        0.1307813334   -0.4450550716    0.0533239501
C        1.6077180140   -0.4715571441   -0.0380901659
C        2.2458278361   -1.3340316251   -0.7952158984
C       -1.4366558993    1.1852826980    0.0341280604
C       -1.3656247112    0.4398068137    1.3098197474
N       -0.4245179689   -0.3887339188    1.3184350300
H       -0.3854695536   -1.0931724241   -0.6521114117
H        2.1544163776    0.2231799420    0.5888620794
H        1.9756606257   -2.1030259303   -1.5143961396
H       -2.2523732833    1.8774039850   -0.1191421203
H       -2.0658164657    0.5580165058    2.1317578844
C       -0.5229932340    0.9386366264   -0.9008897972
H        0.3390469293    0.6132495433   -1.4164812187
13   
From optimize.out: Frame 17 / 47, Energy=    -286.8038115893
C        0.1312181442   -0.4591582508    0.0328444465
C        1.6122430224   -0.4650384184   -0.0599494400
C        2.2602982408   -1.3461266320   -0.7813063601
C       -1.4532104448    1.2098742772    0.0396580658
C       -1.3751421280    0.4325788477    1.3006809082
N       -0.4299195487   -0.3880914600    1.2868494700
H       -0.3677272116   -1.1136029478   -0.6775442734
H        2.1466653367    0.2533081997    0.5452069510
H        1.9906528948   -2.1426033817   -1.4706847780
H       -2.2573407169    1.9144568388   -0.1009717902
H       -2.0539702874    0.5424380183    2.1401500526
C       -0.5435844512    0.9677579595   -0.8988268407
H        0.3398171496    0.5942069493   -1.3561064116
13   
From optimize.out: Frame 15 / 47, Energy=    -286.7724526475
C        0.1406812925   -0.4826230429    0.0102558433
C        1.6252225219   -0.4645327992   -0.0781185646
C        2.2859254761   -1.3733930592   -0.7516610923
C       -1.4732561354    1.2425215460    0.0493145914
C       -1.3806534451    0.4217532655    1.2868856592
N       -0.4347816695   -0.3980575780    1.2500376236
H       -0.3403627244   -1.1405742510   -0.7087582213
H        2.1445003726    0.2852346886    0.4998458607
H        2.0166090913   -2.2030375018   -1.4024724217
H       -2.2675740135    1.9633364261   -0.0571365465
H       -2.0359215492    0.5225168768    2.1457853919
C       -0.5835322879    1.0212471169   -0.9115564680
H        0.3031430707    0.6056083122   -1.3324216557
13   
From optimize.out: Frame 13 / 47, Energy=    -286.7426001980
C        0.1612363597   -0.5012272334   -0.0004003440
C        1.6467415382   -0.4780745486   -0.0806164061
C        2.3113516367   -1.4073647463   -0.7257587891
C       -1.4973007698    1.2673159230    0.0527943989
C       -1.3798007214    0.4199638805    1.2724806884
N       -0.4309399684   -0.4010141948    1.2258487525
H       -0.3141592563   -1.1590385747   -0.7245211579
H        2.1595985331    0.2873733632    0.4850727002
H        2.0381718346   -2.2515969162   -1.3573384311
H       -2.2953365270    1.9887200411   -0.0171982707
H       -2.0204380640    0.5136063653    2.1440927597
C       -0.6347801259    1.0780479589   -0.9345994958
H        0.2556555305    0.6432886819   -1.3398564051
13   
From optimize.out: Frame 11 / 47, Energy=    -286.7310059291
C        0.1928267862   -0.5149956073    0.0008150388
C        1.6767565268   -0.5055920363   -0.0675228753
C        2.3365777478   -1.4480075017   -0.7035803647
C       -1.5253239568    1.2842974514    0.0501289846
C       -1.3726164084    0.4271646153    1.2574691048
N       -0.4184388277   -0.3969970531    1.2142184900
H       -0.2891108869   -1.1690392975   -0.7249118708
H        2.1918717905    0.2598761173    0.5007314958
H        2.0553635279   -2.2883421763   -1.3351651252
H       -2.3405388727    1.9907274944    0.0188629088
H       -2.0075067511    0.5156503383    2.1351095227
C       -0.6972703444    1.1381435986   -0.9679033340
H        0.1974096688    0.7071140568   -1.3782519753
13   
From optimize.out: Frame 9 / 47, Energy=    -286.7275980227
C        0.2244172127   -0.5287639811    0.0020304217
C        1.7067715153   -0.5331095240   -0.0544293445
C        2.3618038589   -1.4886502571   -0.6814019402
C       -1.5533471437    1.3012789798    0.0474635703
C       -1.3654320955    0.4343653501    1.2424575211
N       -0.4059376870   -0.3929799115    1.2025882274
H       -0.2640625174   -1.1790400203   -0.7253025838
H        2.2241450479    0.2323788713    0.5163902913
H        2.0725552212   -2.3250874364   -1.3129918194
H       -2.3857412184    1.9927349477    0.0549240883
H       -1.9945754383    0.5176943114    2.1261262856
C       -0.7597605630    1.1982392384   -1.0012071722
H        0.1391638072    0.7709394317   -1.4166475456
13   
From optimize.out: Frame 8 / 47, Energy=    -286.7260504101
C        0.2560076392   -0.5425323550    0.0032458045
C        1.7367865039   -0.5606270117   -0.0413358137
C        2.3870299700   -1.5292930125   -0.6592235157
C       -1.5813703306    1.3182605082    0.0447981560
C       -1.3582477825    0.4415660850    1.2274459375
N       -0.3934365463   -0.3889627699    1.1909579648
H       -0.2390141480   -1.1890407432   -0.7256932967
H        2.2564183053    0.2048816254    0.5320490868
H        2.0897469145   -2.3618326964   -1.2908185135
H       -2.4309435641    1.9947424010    0.0909852678
H       -1.9816441254    0.5197382844    2.1171430486
C       -0.8222507815    1.2583348782   -1.0345110105
H        0.0809179456    0.8347648065   -1.4550431159
13   
From optimize.out: Frame 6 / 47, Energy=    -286.7207893425
C        0.2791758415   -0.5534793492   -0.0064021988
C        1.7596173457   -0.5735184255   -0.0399138806
C        2.4050130999   -1.5643835224   -0.6277731111
C       -1.6015064634    1.3346331124    0.0489433447
C       -1.3519329605    0.4398625157    1.2142683440
N       -0.3854541267   -0.3931809491    1.1713474443
H       -0.2140449010   -1.1978887764   -0.7395810577
H        2.2789655401    0.2025542788    0.5202545382
H        2.0975076148   -2.4044366793   -1.2423305432
H       -2.4572861319    2.0050078336    0.1309539047
H       -1.9682013378    0.5082896411    2.1104391408
C       -0.8708569348    1.3103473000   -1.0538375660
H        0.0290034140    0.8861930202   -1.4863683592
13   
From optimize.out: Frame 4 / 47, Energy=    -286.7085602796
C        0.2885345967   -0.5598002857   -0.0338622852
C        1.7706687462   -0.5624282888   -0.0576292098
C        2.4111203211   -1.5903703278   -0.5811199622
C       -1.6087106370    1.3500072978    0.0642554959
C       -1.3470437941    0.4235590600    1.2040978409
N       -0.3848808000   -0.4109021204    1.1386521439
H       -0.1892053864   -1.2048468092   -0.7755991692
H        2.2855655627    0.2414966004    0.4634462857
H        2.0898048462   -2.4566468804   -1.1506958980
H       -2.4527053827    2.0288134103    0.1773293795
H       -1.9539199138    0.4747179137    2.1074725210
C       -0.8966981674    1.3491061240   -1.0502463575
H       -0.0125299917    0.9172943061   -1.5061007850
13   
From optimize.out: Frame 2 / 47, Energy=    -286.6718383047
C        0.2964641143   -0.5674083445   -0.0615899355
C        1.7798205341   -0.5506088854   -0.0760793353
C        2.4163961305   -1.6134404661   -0.5339106428
C       -1.6135896649    1.3651505004    0.0801506773
C       -1.3419818986    0.4070648321    1.1941891867
N       -0.3856949019   -0.4303075866    1.1059935266
H       -0.1657269259   -1.2130622992   -0.8117712755
H        2.2894555773    0.2812082658    0.4044194844
H        2.0824082175   -2.5051744356   -1.0582850739
H       -2.4439056052    2.0538562933    0.2244106328
H       -1.9398379858    0.4415986958    2.1043497766
C       -0.9205290515    1.3854939501   -1.0459771674
H       -0.0532785399    0.9456294800   -1.5258998542
13   
C6H6N->C6H6N atoms 1-13 frame 986 charge +0.000 sz -1.000 sz^2 1.347
C        0.2985673126   -0.5802633859   -0.0904083161
C        1.7812285087   -0.5358166106   -0.0975248745
C        2.4182826713   -1.6246207459   -0.4844340816
C       -1.6089901843    1.3793520969    0.0984225939
C       -1.3362158696    0.3897929172    1.1853479651
N       -0.3921648876   -0.4565791184    1.0734844487
H       -0.1477968331   -1.2264038413   -0.8485711454
H        2.2822981836    0.3240561787    0.3363487202
H        2.0762595748   -2.5386896035   -0.9627101392
H       -2.4179068655    2.0839430832    0.2743690082
H       -1.9265693075    0.4103241429    2.1005905869
C       -0.9361647048    1.4122163501   -1.0389441702
H       -0.0908275986    0.9626885366   -1.5459705959
13   
C6H6N->C6H6N atoms 1-13 frame 987 charge -0.000 sz -1.000 sz^2 1.321
C        0.2985927342   -0.5956516356   -0.1184417851
C        1.7794150993   -0.5196623233   -0.1204402660
C        2.4186079598   -1.6317463685   -0.4360812641
C       -1.6011890837    1.3928587211    0.1167085208
C       -1.3299758311    0.3727154052    1.1770393909
N       -0.3998340560   -0.4843535559    1.0424255971
H       -0.1324307601   -1.2444749020   -0.8822556848
H        2.2704517603    0.3680707194    0.2657666270
H        2.0704449213   -2.5674437093   -0.8688340995
H       -2.3878388587    2.1138274400    0.3237003366
H       -1.9145705757    0.3802436104    2.0962198748
C       -0.9477908547    1.4368973700   -1.0312701648
H       -0.1238824548    0.9787192285   -1.5645370829
13   
C6H6N->C6H6N atoms 1-13 frame 989 charge -0.000 sz -1.000 sz^2 1.271
C        0.2904380000   -0.6210130637   -0.1433850766
C        1.7649191806   -0.4981458264   -0.1491424300
C        2.4127866364   -1.6229089062   -0.3921525973
C       -1.5807832844    1.4036292568    0.1350496064
C       -1.3218696290    0.3564032520    1.1708278364
N       -0.4122243768   -0.5180448963    1.0170762504
H       -0.1271591691   -1.2811659605   -0.9036752454
H        2.2401447435    0.4166782452    0.1852974939
H        2.0659451754   -2.5774536319   -0.7816465674
H       -2.3417502485    2.1429148225    0.3705629965
H       -1.9075715913    0.3548639072    2.0894416142
C       -0.9436316892    1.4535415268   -1.0210725253
H       -0.1392437475    0.9907012744   -1.5771813559
13   
From optimize.out: Frame 1 / 88, Energy=    -286.6154169195
C        0.2893243566   -0.6421729129   -0.1661722063
C        1.7565928120   -0.4781896008   -0.1680243816
C        2.4049522973   -1.6179375463   -0.3445447942
C       -1.5623831699    1.4127788520    0.1509393893
C       -1.3115914121    0.3413438262    1.1637067563
N       -0.4232222538   -0.5512394645    0.9916000087
H       -0.1164354096   -1.3054911669   -0.9288601844
H        2.2204739080    0.4580134816    0.1233066056
H        2.0548136715   -2.5845655435   -0.7029835340
H       -2.2959800667    2.1696842037    0.4174115419
H       -1.8981270978    0.3312419229    2.0819976464
C       -0.9498109195    1.4659949974   -1.0171637482
H       -0.1686067160    1.0005389510   -1.6012130996
13   
From optimize.out: Frame 3 / 88, Energy=    -286.6818221284
C        0.3141584495   -0.6478491583   -0.1810134767
C        1.7710023889   -0.4639832665   -0.1507170142
C        2.3896996188   -1.6272134963   -0.2833786861
C       -1.5513743792    1.4159549784    0.1577956633
C       -1.2933089142    0.3309009349    1.1532339039
N       -0.4290887144   -0.5826033343    0.9656561357
H       -0.0856193899   -1.2842458961   -0.9679212468
H        2.2399993897    0.4725489714    0.1294115045
H        2.0192428998   -2.5809977428   -0.6557348724
H       -2.2513833534    2.1879113166    0.4642080725
H       -1.8796704463    0.3140974613    2.0721004234
C       -0.9940890712    1.4630050055   -1.0364306048
H       -0.2495684780    1.0024742262   -1.6672098023
13   
From optimize.out: Frame 5 / 88, Energy=    -286.7068539497
C        0.3194337344   -0.6746177485   -0.1911877934
C        1.7607027088   -0.4415883318   -0.1554926523
C        2.3730446484   -1.6143340312   -0.2393819268
C       -1.5233715254    1.4184202797    0.1677824262
C       -1.2770116773    0.3204950230    1.1488985917
N       -0.4424903764   -0.6189213068    0.9515293519
H       -0.0788896959   -1.3038971331   -0.9843050487
H        2.2189564359    0.5087571379    0.0924820835
H        2.0000611139   -2.5680166566   -0.6095756983
H       -2.1935618362    2.2056935397    0.5048780924
H       -1.8762912870    0.3002055113    2.0600454432
C       -1.0000128612    1.4608648003   -1.0413317951
H       -0.2805693819    1.0069389161   -1.7043410745
13   
From optimize.out: Frame 7 / 88, Energy=    -286.7189331540
C        0.3092692967   -0.7180366353   -0.1976780168
C        1.7308975419   -0.4127293159   -0.1777006142
C        2.3552827089   -1.5839650820   -0.2089386512
C       -1.4819535585    1.4203244556    0.1802403969
C       -1.2622816052    0.3101183027    1.1494082536
N       -0.4618403263   -0.6591500481    0.9467309779
H       -0.0911737469   -1.3558320725   -0.9827874218
H        2.1658887600    0.5620737149    0.0215813716
H        1.9938167930   -2.5476047229   -0.5642765654
H       -2.1253006592    2.2231245670    0.5407118450
H       -1.8848142997    0.2888810937    2.0462871295
C       -0.9756597190    1.4593954168   -1.0348927287
H       -0.2721311855    1.0134003260   -1.7186859763
13   
From optimize.out: Frame 8 / 88, Energy=    -286.7243698466
C        0.3235952801   -0.7497887350   -0.2000075835
C        1.7208443225   -0.3902687691   -0.1589997594
C        2.3347729756   -1.5708356587   -0.1545143226
C       -1.4417439074    1.4159236328    0.1835130202
C       -1.2324633543    0.3058961694    1.1468433685
N       -0.4839204675   -0.7057986163    0.9347079662
H       -0.0907671930   -1.3672523947   -0.9943904297
H        2.1425653162    0.5976847351    0.0163414224
H        1.9797729167   -2.5200847178   -0.5518146320
H       -2.0468805424    2.2356917418    0.5872120389
H       -1.8808872312    0.2870688163    2.0276700261
C       -0.9943232047    1.4437238549   -1.0523455779
H       -0.3305649106    1.0180399414   -1.7842155372
13   
From optimize.out: Frame 10 / 88, Energy=    -286.7359895954
C        0.3270446595   -0.7898127752   -0.1901595921
C        1.6974942568   -0.3695532011   -0.1392496175
C        2.3223298806   -1.5502844352   -0.1237176195
C       -1.3919908555    1.4047483110    0.1829035779
C       -1.2002566841    0.3126569497    1.1547026588
N       -0.5113010382   -0.7475838525    0.9411007797
H       -0.1217969672   -1.3936158444   -0.9787047738
H        2.0936303647    0.6406923574   -0.0000746176
H        1.9841227426   -2.4790635126   -0.5789695461
H       -1.9710919878    2.2338324569    0.6239002506
H       -1.8983402914    0.2989762232    2.0014180306
C       -0.9835877034    1.4201394103   -1.0632545848
H       -0.3462563767    1.0188679125   -1.8298949463
13   
From optimize.out: Frame 12 / 88, Energy=    -286.7426205887
C        0.3358013869   -0.8142862899   -0.1701584252
C        1.6914097118   -0.3634531529   -0.0917543510
C        2.3238427644   -1.5454475103   -0.1127659143
C       -1.3542871577    1.3836772607    0.1676724161
C       -1.1697821721    0.3271354572    1.1595412431
N       -0.5350066586   -0.7774907149    0.9531753334
H       -0.1629107290   -1.3894483945   -0.9549102800
H        2.0713764838    0.6641820327    0.0380225683
H        1.9892950623   -2.4281294169   -0.6514768401
H       -1.9249534155    2.2347376773    0.6546589851
H       -1.9137024862    0.3245225239    1.9738629179
C       -0.9809884441    1.3840773828   -1.0854872105
H       -0.3700943459    0.9999231449   -1.8803804428
13   
From optimize.out: Frame 14 / 88, Energy=    -286.7472040635
C        0.3495808209   -0.8426665960   -0.1625718338
C        1.7101207478   -0.3708838338   -0.0618792017
C        2.3470010050   -1.5659258701   -0.1007761956
C       -1.3349226197    1.3652754086    0.1545229588
C       -1.1515923937    0.3461736954    1.1483593192
N       -0.5519300168   -0.7979426668    0.9531583763
H       -0.2135559214   -1.4136803856   -0.9165983909
H        2.0886963196    0.6903289208    0.0485227004
H        2.0047272513   -2.4052713784   -0.6932005255
H       -1.9233339404    2.2279355660    0.7296227351
H       -1.9473430382    0.3627237652    1.9307729444
C       -0.9851701499    1.3775832877   -1.1042401310
H       -0.3922780644    1.0263500870   -1.9256927558
13   
From optimize.out: Frame 16 / 88, Energy=    -286.7533528575
C        0.3505505297   -0.8343350600   -0.1597895753
C        1.7186039318   -0.3645810849   -0.0362467975
C        2.3475764728   -1.5692786223   -0.1123602552
C       -1.3192001869    1.3427668180    0.1469749114
C       -1.1445783185    0.3548991836    1.1482161436
N       -0.5672664973   -0.8066595696    0.9496751298
H       -0.2454498117   -1.3829978794   -0.9101776753
H        2.1068946956    0.7080144964    0.0936794975
H        1.9941653735   -2.3673003703   -0.7438565562
H       -1.9090555653    2.2227230358    0.7544290168
H       -1.9660313632    0.3931262296    1.9133875430
C       -0.9762357611    1.3335039200   -1.1122129033
H       -0.3899734995    0.9701189031   -1.9317184794
13   
From optimize.out: Frame 18 / 88, Energy=    -286.7573638218
C        0.3458030992   -0.8099922182   -0.1571208261
C        1.7200956212   -0.3512035965   -0.0092781974
C        2.3363097675   -1.5626715583   -0.1341083891
C       -1.3028731638    1.3180007590    0.1410896823
C       -1.1405495926    0.3589276928    1.1546066275
N       -0.5827399937   -0.8115609811    0.9464312592
H       -0.2684644123   -1.3251376845   -0.9187161549
H        2.1209846468    0.7213342745    0.1582043485
H        1.9714963634   -2.3191966294   -0.8032446438
H       -1.8843640424    2.2193388575    0.7526722524
H       -1.9759722102    0.4189154221    1.9086206630
C       -0.9614033511    1.2697847335   -1.1165670791
H       -0.3783227319    0.8734609286   -1.9225895428
13   
From optimize.out: Frame 19 / 88, Energy=    -286.7587671233
C        0.3410556686   -0.7856493764   -0.1544520768
C        1.7215873106   -0.3378261081    0.0176904027
C        2.3250430622   -1.5560644943   -0.1558565229
C       -1.2865461407    1.2932346999    0.1352044533
C       -1.1365208666    0.3629562021    1.1609971114
N       -0.5982134901   -0.8164623927    0.9431873887
H       -0.2914790128   -1.2672774896   -0.9272546344
H        2.1350745980    0.7346540526    0.2227291995
H        1.9488273532   -2.2710928885   -0.8626327313
H       -1.8596725196    2.2159546793    0.7509154880
H       -1.9859130573    0.4447046146    1.9038537830
C       -0.9465709411    1.2060655470   -1.1209212550