13   
From optimize.out: Frame 1 / 5, Energy=    -286.8723903084
C        0.0678960000   -0.1401670000   -0.0000000000
C        0.0276410000   -0.0026390000    0.0000000000
C       -0.1932730000   -0.0053630000    0.0000000000
C       -0.1867180000   -0.0086200000    0.0000000000
C        0.0374970000    0.0088590000   -0.0000000000
N       -0.4015510000    0.0193760000   -0.0000000000
H        0.1632750000    0.0688020000   -0.0000000000
H        0.1449110000    0.0001000000    0.0000000000
H        0.1285690000    0.0010060000    0.0000000000
H        0.1289480000    0.0008230000    0.0000000000
H        0.1548290000    0.0005300000   -0.0000000000
C       -0.2441230000    1.0620850000   -0.0000000000
H        0.1720980000   -0.0047910000   -0.0000000000
13   
From optimize.out: Frame 2 / 5, Energy=    -286.8723998333
C        0.0680910000   -0.1403670000   -0.0000000000
C        0.0277940000   -0.0026290000    0.0000000000
C       -0.1933690000   -0.0053840000    0.0000000000
C       -0.1868320000   -0.0086450000    0.0000000000
C        0.0375830000    0.0089200000   -0.0000000000
N       -0.4014880000    0.0193980000   -0.0000000000
H        0.1632000000    0.0687700000   -0.0000000000
H        0.1449060000    0.0000990000    0.0000000000
H        0.1285520000    0.0010140000    0.0000000000
H        0.1289160000    0.0008240000    0.0000000000
H        0.1549110000    0.0005380000   -0.0000000000
C       -0.2444230000    1.0623040000   -0.0000000000
H        0.1721590000   -0.0048420000   -0.0000000000
13   
From optimize.out: Frame 3 / 5, Energy=    -286.8724074115
C        0.0683340000   -0.1406980000   -0.0000000000
C        0.0278670000   -0.0026140000    0.0000000000
C       -0.1934380000   -0.0054040000    0.0000000000
C       -0.1868830000   -0.0086680000    0.0000000000
C        0.0376070000    0.0089900000   -0.0000000000
N       -0.4014490000    0.0195020000   -0.0000000000
H        0.1631470000    0.0687430000   -0.0000000000
H        0.1448140000    0.0000990000    0.0000000000
H        0.1285450000    0.0010260000    0.0000000000
H        0.1288960000    0.0008250000    0.0000000000
H        0.1549100000    0.0005510000   -0.0000000000
C       -0.2446800000    1.0626710000   -0.0000000000
H        0.1723310000   -0.0050200000   -0.0000000000
13   
From optimize.out: Frame 4 / 5, Energy=    -286.8724098281
C        0.0683450000   -0.1406600000   -0.0000000000
C        0.0277730000   -0.0026130000    0.0000000000
C       -0.1933900000   -0.0053940000    0.0000000000
C       -0.1868170000   -0.0086600000    0.0000000000
C        0.0375920000    0.0089700000   -0.0000000000
N       -0.4015720000    0.0195440000   -0.0000000000
H        0.1631760000    0.0687830000   -0.0000000000
H        0.1448050000    0.0000990000    0.0000000000
H        0.1285490000    0.0010240000    0.0000000000
H        0.1289080000    0.0008260000    0.0000000000
H        0.1548500000    0.0005490000   -0.0000000000
C       -0.2445780000    1.0626080000   -0.0000000000
H        0.1723590000   -0.0050770000   -0.0000000000
