13   
From optimize.out: Frame 1 / 5, Energy=    -286.8723903084
C        1.5563975317    0.3342681546   -0.6044598336
C        0.0168710970   -1.1642377329    0.6129085033
C       -1.3095311657   -1.1478334902    0.9640310380
C       -1.8663763910    0.0699302854    0.4636169603
C       -0.8615573798    0.7539172924   -0.1745623340
N        0.2962897907    0.0001620612   -0.0860811382
H        2.3033024549   -0.4477897132   -0.4426818979
H        0.7955441002   -1.8913159378    0.7967933116
H       -1.8270721516   -1.9185037383    1.5190989321
H       -2.8919369375    0.4005032513    0.5594391657
H       -0.8513086895    1.7013478292   -0.6924690126
C        1.8757115795    1.4494219153   -1.2306002926
H        2.7636661612    1.8601298230   -1.6850334020
13   
From optimize.out: Frame 2 / 5, Energy=    -286.8723998333
C        1.5574173245    0.3347225609   -0.6010300777
C        0.0164511692   -1.1655326081    0.6117390212
C       -1.3097309068   -1.1483029846    0.9628936080
C       -1.8656529238    0.0704839115    0.4632363749
C       -0.8604470979    0.7538998926   -0.1749662128
N        0.2967388776   -0.0005331280   -0.0855351508
H        2.3064510655   -0.4431782914   -0.4298902882
H        0.7944708583   -1.8935293504    0.7929323482
H       -1.8282967033   -1.9197724032    1.5158385917
H       -2.8904674883    0.4026847185    0.5615861775
H       -0.8492443827    1.7028735585   -0.6898671005
C        1.8730052927    1.4464479770   -1.2354265172
H        2.7593049150    1.8597361467   -1.6915107743
13   
From optimize.out: Frame 3 / 5, Energy=    -286.8724074115
C        1.5592930160    0.3351726112   -0.5968714799
C        0.0159926785   -1.1665258695    0.6114096504
C       -1.3108614932   -1.1499132004    0.9595762841
C       -1.8652015920    0.0706283105    0.4617835658
C       -0.8578188488    0.7558017734   -0.1712305942
N        0.2977332715   -0.0011498666   -0.0843234678
H        2.3138485391   -0.4317429525   -0.4026989906
H        0.7929492009   -1.8964936462    0.7877768169
H       -1.8318802748   -1.9241100492    1.5063296935
H       -2.8892666459    0.4044380722    0.5626675564
H       -0.8442762944    1.7090602233   -0.6778837689
C        1.8680502210    1.4384623031   -1.2493182913
H        2.7514382222    1.8563722906   -1.7072169743
13   
From optimize.out: Frame 4 / 5, Energy=    -286.8724098281
C        1.5600971194    0.3366657743   -0.5948628505
C        0.0154665657   -1.1672959254    0.6095751237
C       -1.3112562087   -1.1504295579    0.9586596126
C       -1.8652458856    0.0709521486    0.4628898677
C       -0.8582042734    0.7558063593   -0.1709654911
N        0.2980830869    0.0000289195   -0.0828075540
H        2.3163657188   -0.4270235464   -0.3945309062
H        0.7918992561   -1.8986209083    0.7840586386
H       -1.8323573304   -1.9249731232    1.5048765916
H       -2.8891536949    0.4049836790    0.5644336601
H       -0.8445786144    1.7094383749   -0.6770263632
C        1.8677565256    1.4364754553   -1.2533428260
H        2.7511277351    1.8539923503   -1.7109575031
