
Running Job 1 of 1 irc_reactant.in
qchem irc_reactant.in_3319.0 ./irc_reactant.d/ 1
/home/leeping/opt/qchem/5.0.2-openmp/exe/qcprog.exe_s irc_reactant.in_3319.0 ./irc_reactant.d/
Check license passed

                  Welcome to Q-Chem
     A Quantum Leap Into The Future Of Chemistry


 Q-Chem 5.0, Q-Chem, Inc., Pleasanton, CA (2017)

 Yihan Shao,  Zhengting Gan,  E. Epifanovsky,  A. T. B. Gilbert,  M. Wormit,  
 J. Kussmann,  A. W. Lange,  A. Behn,  Jia Deng,  Xintian Feng,  D. Ghosh,  
 M. Goldey,  P. R. Horn,  L. D. Jacobson,  I. Kaliman,  T. Kus,  A. Landau,  
 Jie Liu,  E. I. Proynov,  R. M. Richard,  R. P. Steele,  E. J. Sundstrom,  
 H. L. Woodcock III,  P. M. Zimmerman,  D. Zuev,  B. Albrecht,  E. Alguire,  
 S. A. Baeppler,  D. Barton,  Z. Benda,  Y. A. Bernard,  E. J. Berquist,  
 K. B. Bravaya,  H. Burton,  D. Casanova,  Chun-Min Chang,  Yunqing Chen,  
 A. Chien,  K. D. Closser,  M. P. Coons,  S. Dasgupta,  A. L. Dempwolff,  
 M. Diedenhofen,  Hainam Do,  R. G. Edgar,  Po-Tung Fang,  S. Fatehi,  
 Qingguo Feng,  J. Fosso-Tande,  Qinghui Ge,  A. Ghysels,  G. Gidofalvi,  
 J. Gomes,  J. Gonthier,  A. Gunina,  M. W. D. Hanson-Heine,  
 P. H. P. Harbach,  A. W. Hauser,  J. E. Herr,  E. G. Hohenstein,  
 Z. C. Holden,  Kerwin Hui,  T.-C. Jagau,  Hyunjun Ji,  B. Kaduk,  
 K. Khistyaev,  Jaehoon Kim,  P. Klunzinger,  K. Koh,  D. Kosenkov,  
 L. Koulias,  T. Kowalczyk,  C. M. Krauter,  A. Kunitsa,  Ka Un Lao,  
 A. Laurent,  K. V. Lawler,  Joonho Lee,  D. Lefrancois,  S. Lehtola,  
 D. S. Levine,  Yi-Pei Li,  You-Sheng Lin,  Fenglai Liu,  E. Livshits,  
 A. Luenser,  P. Manohar,  E. Mansoor,  S. F. Manzer,  Shan-Ping Mao,  
 Yuezhi Mao,  N. Mardirossian,  A. V. Marenich,  T. Markovich,  
 L. A. Martinez-Martinez,  S. A. Maurer,  N. J. Mayhall,  S. C. McKenzie,  
 J.-M. Mewes,  A. F. Morrison,  J. W. Mullinax,  K. Nanda,  
 T. S. Nguyen-Beck,  R. Olivares-Amaya,  J. A. Parkhill,  T. M. Perrine,  
 F. Plasser,  S. Prager,  A. Prociuk,  E. Ramos,  D. R. Rehn,  F. Rob,  
 M. Schneider,  N. Sergueev,  S. M. Sharada,  S. Sharma,  D. W. Small,  
 T. Stauch,  T. Stein,  Yu-Chuan Su,  A. J. W. Thom,  A. Tkatchenko,  
 T. Tsuchimochi,  L. Vogt,  O. Vydrov,  M. A. Watson,  J. Wenzel,  
 M. de Wergifosse,  T. A. Wesolowski,  A. White,  J. Witte,  A. Yamada,  
 Jun Yang,  K. Yao,  S. Yeganeh,  S. R. Yost,  Zhi-Qiang You,  A. Zech,  
 Igor Ying Zhang,  Xing Zhang,  Yan Zhao,  Ying Zhu,  B. R. Brooks,  
 G. K. L. Chan,  C. J. Cramer,  M. S. Gordon,  W. J. Hehre,  A. Klamt,  
 M. W. Schmidt,  C. D. Sherrill,  D. G. Truhlar,  A. Aspuru-Guzik,  R. Baer,  
 A. T. Bell,  N. A. Besley,  Jeng-Da Chai,  R. A. DiStasio Jr.,  A. Dreuw,  
 B. D. Dunietz,  T. R. Furlani,  Chao-Ping Hsu,  Yousung Jung,  Jing Kong,  
 D. S. Lambrecht,  WanZhen Liang,  C. Ochsenfeld,  V. A. Rassolov,  
 L. V. Slipchenko,  J. E. Subotnik,  T. Van Voorhis,  J. M. Herbert,  
 A. I. Krylov,  P. M. W. Gill,  M. Head-Gordon

 Contributors to earlier versions of Q-Chem not listed above: 
 R. D. Adamson,  B. Austin,  J. Baker,  G. J. O. Beran,  K. Brandhorst,  
 S. T. Brown,  E. F. C. Byrd,  A. K. Chakraborty,  C.-L. Cheng,  
 Siu Hung Chien,  D. M. Chipman,  D. L. Crittenden,  H. Dachsel,  
 R. J. Doerksen,  A. D. Dutoi,  L. Fusti-Molnar,  W. A. Goddard III,  
 A. Golubeva-Zadorozhnaya,  S. R. Gwaltney,  G. Hawkins,  A. Heyden,  
 S. Hirata,  G. Kedziora,  F. J. Keil,  C. Kelley,  Jihan Kim,  R. A. King,  
 R. Z. Khaliullin,  P. P. Korambath,  W. Kurlancheek,  A. M. Lee,  M. S. Lee,  
 S. V. Levchenko,  Ching Yeh Lin,  D. Liotard,  R. C. Lochan,  I. Lotan,  
 P. E. Maslen,  N. Nair,  D. P. O'Neill,  D. Neuhauser,  E. Neuscamman,  
 C. M. Oana,  R. Olson,  B. Peters,  R. Peverati,  P. A. Pieniazek,  
 Y. M. Rhee,  J. Ritchie,  M. A. Rohrdanz,  E. Rosta,  N. J. Russ,  
 H. F. Schaefer III,  N. E. Schultz,  N. Shenvi,  A. C. Simmonett,  A. Sodt,  
 D. Stuck,  K. S. Thanthiriwatte,  V. Vanovschi,  Tao Wang,  A. Warshel,  
 C. F. Williams,  Q. Wu,  X. Xu,  W. Zhang

 Please cite Q-Chem as follows:
 Y. Shao et al., Mol. Phys. 113, 184-215 (2015)
 DOI: 10.1080/00268976.2014.952696

 Q-Chem 5.0.2 for Intel X86 EM64T Linux

 Parts of Q-Chem use Armadillo 5.200.1 (Boston Tea Smuggler).
 http://arma.sourceforge.net/

 Q-Chem begins on Wed Mar  2 01:09:48 2022  

Host: 
0

     Scratch files written to ./irc_reactant.d//
 Dec517 15110_ 26548  26544 5633   
Processing $rem in /home/leeping/opt/qchem/5.0.2-openmp/config/preferences.
 MEM_STATIC 2000
 MEM_TOTAL  8000
 SYMMETRY   OFF
 SYM_IGNORE TRUE 

Checking the input file for inconsistencies... 	...done.

--------------------------------------------------------------
User input:
--------------------------------------------------------------
$molecule
0 2
C        1.6764250729    0.3747709935   -0.2334392591
C        1.1023141276   -0.8497570868   -0.3105020546
C       -0.3341608134   -1.0624972866   -0.0765829487
C       -1.1528042251    0.3488409284    0.1003397990
C       -0.3194233388    1.5367597442   -0.1509141628
N        0.9692597077    1.5764632583   -0.2118673813
H        2.7519111526    0.4884160752   -0.3297736923
H        1.7067755099   -1.7181395061   -0.5597740924
H       -0.8092292255   -1.8924266244   -0.6022800680
H       -2.1797468596    0.4256591709   -0.2616368981
H       -0.8537414331    2.4642254150   -0.3654143113
C       -0.9122004099   -0.6050758373    1.1836887942
H       -1.6453792659   -1.0872392438    1.8181562759
$end

$rem
method                b3lyp
basis                 6-31+g(d,p)
unrestricted          true
symmetry              off
sym_ignore            true
incdft                false
incfock               0
scf_convergence       6
thresh                14
jobtype               sp
scf_guess             read
scf_algorithm         diis
max_scf_cycles        100
stability_analysis    true
max_cis_cycles        100
cis_n_roots           4
$end

--------------------------------------------------------------
 ----------------------------------------------------------------
             Standard Nuclear Orientation (Angstroms)
    I     Atom           X                Y                Z
 ----------------------------------------------------------------
    1      C       1.6764250729     0.3747709935    -0.2334392591
    2      C       1.1023141276    -0.8497570868    -0.3105020546
    3      C      -0.3341608134    -1.0624972866    -0.0765829487
    4      C      -1.1528042251     0.3488409284     0.1003397990
    5      C      -0.3194233388     1.5367597442    -0.1509141628
    6      N       0.9692597077     1.5764632583    -0.2118673813
    7      H       2.7519111526     0.4884160752    -0.3297736923
    8      H       1.7067755099    -1.7181395061    -0.5597740924
    9      H      -0.8092292255    -1.8924266244    -0.6022800680
   10      H      -2.1797468596     0.4256591709    -0.2616368981
   11      H      -0.8537414331     2.4642254150    -0.3654143113
   12      C      -0.9122004099    -0.6050758373     1.1836887942
   13      H      -1.6453792659    -1.0872392438     1.8181562759
 ----------------------------------------------------------------
 Nuclear Repulsion Energy =   269.0134387077 hartrees
 There are       25 alpha and       24 beta electrons
 Requested basis set is 6-31+G(d,p)
 There are 53 shells and 163 basis functions

 Total QAlloc Memory Limit   8000 MB
 Mega-Array Size      1956 MB
 MEM_STATIC part      2000 MB

                       Distance Matrix (Angstroms)
             C (  1)   C (  2)   C (  3)   C (  4)   C (  5)   N (  6)
   C (  2)  1.354626
   C (  3)  2.476449  1.470863
   C (  4)  2.848968  2.586694  1.641144
   C (  5)  2.310939  2.782493  2.600361  1.472686
   N (  6)  1.394494  2.431867  2.946408  2.471373  1.290735
   H (  7)  1.085756  2.124206  3.463131  3.930812  3.250248  2.091792
   H (  8)  2.118417  1.087013  2.197444  3.589618  3.855777  3.394021
   H (  9)  3.384480  2.196882  1.091252  2.373815  3.493274  3.917734
   H ( 10)  3.856611  3.521505  2.378033  1.091577  2.169702  3.353069
   H ( 11)  3.284049  3.848590  3.576473  2.186599  1.091650  2.033478
   C ( 12)  3.109555  2.520068  1.460017  1.463384  2.592298  3.201028
   H ( 13)  4.169041  3.483878  2.304331  2.292564  3.538470  4.248840
             H (  7)   H (  8)   H (  9)   H ( 10)   H ( 11)   C ( 12)
   H (  8)  2.452365
   H (  9)  4.292364  2.522392
   H ( 10)  4.932528  4.448574  2.714384
   H ( 11)  4.111669  4.907769  4.363313  2.434094
   C ( 12)  4.112421  3.337306  2.203987  2.181297  3.438568
   H ( 13)  5.141250  4.158068  2.684397  2.626776  4.243533  1.082858

 
 A cutoff of  1.0D-14 yielded   1381 shell pairs
 There are     13441 function pairs
 Smallest overlap matrix eigenvalue = 2.91E-05

 Scale SEOQF with 1.000000e-01/1.000000e-01/1.000000e-01

 Standard Electronic Orientation quadrupole field applied
 Nucleus-field energy     =     0.0000000051 hartrees
 Guess MOs from SCF MO coefficient file
 Reading MOs from coefficient file
 Reading MOs from coefficient file
 An unrestricted hybrid HF-DFT SCF calculation will be
 performed using Pulay DIIS extrapolation
 Exchange:     0.2000 Hartree-Fock + 0.0800 Slater + 0.7200 B88
 Correlation:  0.1900 VWN1RPA + 0.8100 LYP
 Using SG-1 standard quadrature grid
 SCF converges when DIIS error is below 1.0E-06
Using Q-Chem read-in guess as SCF_GUESS READ specified.

 -------------------------------------------------------
 OpenMP BLAS3 based DFT computing Module                
 -------------------------------------------------------
 ---------------------------------------
  Cycle       Energy         DIIS Error
 ---------------------------------------
    1    -286.8764952403      3.45E-09
    2    -286.8764952404      2.65E-09 Convergence criterion met
 ---------------------------------------
 <S^2> = 0.7535
 SCF time:  CPU 6.68 s  wall 10.48 s
 SCF   energy in the final basis set = -286.87649524
 Total energy in the final basis set = -286.87649524
 
 Direct TDDFT/TDA calculation will be performed
 Exchange:     0.2000 Hartree-Fock + 0.0800 Slater + 0.7200 B88
 Correlation:  0.1900 VWN1RPA + 0.8100 LYP
 Using SG-1 standard quadrature grid
 CIS energy converged when residual is below 10e- 6
 ---------------------------------------------------
 Iter    Rts Conv    Rts Left    Ttl Dev     Max Dev
 ---------------------------------------------------
   1         0           4      0.003579    0.001839
   2         0           4      0.001436    0.000619
   3         0           4      0.000589    0.000201
   4         0           4      0.000289    0.000130
   5         0           4      0.000106    0.000048
   6         0           4      0.000028    0.000014
   7         2           2      0.000009    0.000005
   8         2           2      0.000004    0.000001
   9         4           0      0.000002    0.000001    Roots Converged
 ---------------------------------------------------
 
 ---------------------------------------------------
         TDDFT/TDA Excitation Energies              
 ---------------------------------------------------

 Excited state   1: excitation energy (eV) =    2.6888
 Total energy for state  1:                  -286.77768270 au
    <S**2>     :  0.9236
    Trans. Mom.: -0.0745 X  -0.0294 Y   0.0960 Z
    Strength   :     0.0010289473
    D( 24) --> V(  1) amplitude =  0.1672 alpha
    D( 24) --> S(  1) amplitude =  0.9556 beta

 Excited state   2: excitation energy (eV) =    3.1517
 Total energy for state  2:                  -286.76067201 au
    <S**2>     :  2.5519
    Trans. Mom.: -0.0386 X  -0.0191 Y   0.0422 Z
    Strength   :     0.0002807978
    D( 24) --> V(  1) amplitude = -0.5460 alpha
    S(  1) --> V(  1) amplitude =  0.3844 alpha
    D( 24) --> S(  1) amplitude =  0.2257 beta
    D( 24) --> V(  1) amplitude =  0.6700 beta

 Excited state   3: excitation energy (eV) =    3.6411
 Total energy for state  3:                  -286.74268762 au
    <S**2>     :  1.2281
    Trans. Mom.:  0.0486 X  -0.0708 Y   0.0173 Z
    Strength   :     0.0006853807
    D( 23) --> V(  1) amplitude =  0.1978 alpha
    D( 24) --> V(  1) amplitude = -0.3046 alpha
    S(  1) --> V(  1) amplitude = -0.5573 alpha
    D( 23) --> S(  1) amplitude =  0.6895 beta
    D( 23) --> V(  1) amplitude = -0.2231 beta

 Excited state   4: excitation energy (eV) =    3.7477
 Total energy for state  4:                  -286.73876931 au
    <S**2>     :  0.9141
    Trans. Mom.: -0.1976 X  -0.0953 Y   0.2507 Z
    Strength   :     0.0101906704
    D( 23) --> V(  1) amplitude = -0.1550 alpha
    D( 24) --> V(  1) amplitude =  0.2109 alpha
    S(  1) --> V(  1) amplitude =  0.6476 alpha
    D( 23) --> S(  1) amplitude =  0.6781 beta
    D( 24) --> V(  1) amplitude = -0.1614 beta
 
 ---------------------------------------------------

 Stability analysis will be performed
 ---------------------------------------------------
 Iter    Rts Conv    Rts Left    Ttl Dev     Max Dev
 ---------------------------------------------------
   1         0           8      0.003440    0.000617
   2         0           8      0.001084    0.000273
   3         0           8      0.000614    0.000197
   4         1           7      0.000310    0.000123
   5         2           6      0.000133    0.000059
   6         3           5      0.000074    0.000033
   7         5           3      0.000061    0.000033
   8         6           2      0.000031    0.000019
   9         6           2      0.000011    0.000006
  10         7           1      0.000005    0.000002
  11         8           0      0.000003    0.000001    Roots Converged
 UKS-> UKS   stable,    smallest eigenvalue:      0.0695509
 UKS->CUKS   stable,    smallest eigenvalue:      0.1009440
 ---------------------------------------------------
  SETman timing summary (seconds)
  CPU time               187.80s
  System time              0.00s
  Wall time              243.89s
 
 --------------------------------------------------------------
 
                    Orbital Energies (a.u.)
 --------------------------------------------------------------
 
 Alpha MOs
 -- Occupied --
-14.337 -10.240 -10.235 -10.232 -10.230 -10.217 -10.206  -0.946
 -0.878  -0.776  -0.677  -0.651  -0.579  -0.540  -0.500  -0.492
 -0.460  -0.435  -0.387  -0.381  -0.370  -0.309  -0.267  -0.241
 -0.228
 -- Virtual --
 -0.048  -0.001   0.015   0.022   0.026   0.032   0.047   0.050
  0.068   0.073   0.075   0.092   0.099   0.113   0.115   0.121
  0.124   0.129   0.138   0.148   0.168   0.175   0.180   0.186
  0.193   0.198   0.202   0.212   0.225   0.233   0.253   0.262
  0.268   0.283   0.288   0.300   0.309   0.321   0.329   0.335
  0.353   0.386   0.463   0.505   0.592   0.628   0.649   0.667
  0.681   0.708   0.713   0.727   0.737   0.750   0.770   0.778
  0.824   0.835   0.883   0.898   0.926   0.935   0.950   0.985
  0.993   1.017   1.063   1.089   1.098   1.106   1.132   1.149
  1.182   1.205   1.239   1.311   1.351   1.374   1.438   1.474
  1.499   1.524   1.557   1.650   1.689   1.759   1.799   1.806
  1.864   1.880   1.902   1.960   1.983   2.008   2.077   2.089
  2.128   2.147   2.187   2.230   2.269   2.290   2.370   2.390
  2.405   2.416   2.437   2.455   2.476   2.506   2.520   2.527
  2.559   2.594   2.625   2.667   2.694   2.718   2.741   2.811
  2.867   2.934   3.014   3.179   3.216   3.277   3.293   3.367
  3.443   3.564   3.709   4.195   4.303   4.338   4.475   4.501
  4.577   4.734
 
 Beta MOs
 -- Occupied --
-14.337 -10.239 -10.235 -10.232 -10.218 -10.216 -10.205  -0.944
 -0.869  -0.774  -0.669  -0.649  -0.565  -0.535  -0.497  -0.483
 -0.456  -0.432  -0.386  -0.379  -0.362  -0.300  -0.263  -0.236
 -- Virtual --
 -0.090  -0.045   0.001   0.015   0.023   0.027   0.034   0.048
  0.050   0.071   0.074   0.078   0.093   0.099   0.113   0.116
  0.123   0.125   0.129   0.138   0.149   0.168   0.175   0.183
  0.189   0.194   0.200   0.206   0.213   0.228   0.235   0.257
  0.262   0.270   0.284   0.292   0.302   0.311   0.325   0.335
  0.340   0.360   0.393   0.465   0.506   0.598   0.632   0.665
  0.675   0.693   0.711   0.715   0.731   0.742   0.751   0.778
  0.791   0.829   0.840   0.886   0.900   0.927   0.938   0.952
  0.988   0.997   1.017   1.071   1.091   1.100   1.112   1.137
  1.151   1.185   1.209   1.244   1.315   1.354   1.377   1.447
  1.479   1.500   1.528   1.563   1.656   1.694   1.774   1.803
  1.816   1.883   1.889   1.906   1.968   1.987   2.014   2.084
  2.100   2.129   2.165   2.192   2.233   2.272   2.295   2.372
  2.393   2.407   2.420   2.439   2.459   2.480   2.509   2.523
  2.533   2.563   2.608   2.628   2.670   2.702   2.725   2.747
  2.818   2.874   2.939   3.018   3.180   3.217   3.282   3.294
  3.369   3.446   3.573   3.710   4.195   4.308   4.339   4.495
  4.512   4.579   4.735
 --------------------------------------------------------------
 
          Ground-State Mulliken Net Atomic Charges

     Atom                 Charge (a.u.)    Spin (a.u.)
  --------------------------------------------------------
      1 C                    -0.252055      -0.037230
      2 C                     0.077292       0.051681
      3 C                    -0.144196      -0.029781
      4 C                    -0.018989       0.029722
      5 C                    -0.051758      -0.051456
      6 N                    -0.182058       0.017911
      7 H                     0.124881       0.000893
      8 H                     0.133092       0.002909
      9 H                     0.144265       0.016537
     10 H                     0.144236       0.023685
     11 H                     0.128281       0.005031
     12 C                    -0.251570       0.991989
     13 H                     0.148579      -0.021892
  --------------------------------------------------------
  Sum of atomic charges =     0.000000
  Sum of spin   charges =     1.000000

 -----------------------------------------------------------------
                    Cartesian Multipole Moments
 -----------------------------------------------------------------
    Charge (ESU x 10^10)
                 0.0000
    Dipole Moment (Debye)
         X      -2.2009      Y      -2.2103      Z      -0.2157
       Tot       3.1266
    Quadrupole Moments (Debye-Ang)
        XX     -38.0807     XY      -3.3164     YY     -42.9273
        XZ      -0.6645     YZ       0.4385     ZZ     -43.8711
    Octopole Moments (Debye-Ang^2)
       XXX     -14.8209    XXY     -11.1546    XYY     -15.5994
       YYY     -30.4497    XXZ      -1.4274    XYZ       3.7855
       YYZ      -2.4086    XZZ      -9.1612    YZZ      -8.8663
       ZZZ      -2.7074
    Hexadecapole Moments (Debye-Ang^3)
      XXXX    -333.1786   XXXY     -20.1055   XXYY    -121.5478
      XYYY     -44.6241   YYYY    -355.1303   XXXZ      34.8413
      XXYZ       4.7919   XYYZ      14.6009   YYYZ      23.0655
      XXZZ     -81.4565   XYZZ      -2.8194   YYZZ     -79.3246
      XZZZ      37.6839   YZZZ      15.9354   ZZZZ    -127.3561
 -----------------------------------------------------------------
Archival summary:
1\1\c8-73\SP\ProcedureUnspecified\6-31+G**\166(2)\hpark21\WedMar201:14:092022WedMar201:14:092022\0\\#,ProcedureUnspecified,6-31+G**,\\0,2\N\C,1,1.29073\H,2,1.09165,1,116.954\C,1,1.39449,2,118.72,3,-166.307,0\H,4,1.08576,1,114.424,2,177.412,0\C,4,1.35463,1,124.398,2,5.94653,0\H,6,1.08701,4,119.968,1,165.409,0\C,6,1.47086,4,122.385,1,-14.1489,0\H,8,1.09125,6,117.294,4,150.599,0\C,8,1.46002,6,118.595,4,-55.4152,0\H,10,1.08286,8,129.37,6,-139.382,0\C,10,1.46338,8,68.3027,6,98.8494,0\H,12,1.09158,10,116.49,8,109.178,0\\\@

 Total job time:  261.66s(wall), 194.71s(cpu) 
 Wed Mar  2 01:14:09 2022

        *************************************************************
        *                                                           *
        *  Thank you very much for using Q-Chem.  Have a nice day.  *
        *                                                           *
        *************************************************************


