
Running Job 1 of 1 irc_transition.in
qchem irc_transition.in_4669.0 ./irc_transition.d/ 1
/home/leeping/opt/qchem/5.0.2-openmp/exe/qcprog.exe_s irc_transition.in_4669.0 ./irc_transition.d/
Check license passed

                  Welcome to Q-Chem
     A Quantum Leap Into The Future Of Chemistry


 Q-Chem 5.0, Q-Chem, Inc., Pleasanton, CA (2017)

 Yihan Shao,  Zhengting Gan,  E. Epifanovsky,  A. T. B. Gilbert,  M. Wormit,  
 J. Kussmann,  A. W. Lange,  A. Behn,  Jia Deng,  Xintian Feng,  D. Ghosh,  
 M. Goldey,  P. R. Horn,  L. D. Jacobson,  I. Kaliman,  T. Kus,  A. Landau,  
 Jie Liu,  E. I. Proynov,  R. M. Richard,  R. P. Steele,  E. J. Sundstrom,  
 H. L. Woodcock III,  P. M. Zimmerman,  D. Zuev,  B. Albrecht,  E. Alguire,  
 S. A. Baeppler,  D. Barton,  Z. Benda,  Y. A. Bernard,  E. J. Berquist,  
 K. B. Bravaya,  H. Burton,  D. Casanova,  Chun-Min Chang,  Yunqing Chen,  
 A. Chien,  K. D. Closser,  M. P. Coons,  S. Dasgupta,  A. L. Dempwolff,  
 M. Diedenhofen,  Hainam Do,  R. G. Edgar,  Po-Tung Fang,  S. Fatehi,  
 Qingguo Feng,  J. Fosso-Tande,  Qinghui Ge,  A. Ghysels,  G. Gidofalvi,  
 J. Gomes,  J. Gonthier,  A. Gunina,  M. W. D. Hanson-Heine,  
 P. H. P. Harbach,  A. W. Hauser,  J. E. Herr,  E. G. Hohenstein,  
 Z. C. Holden,  Kerwin Hui,  T.-C. Jagau,  Hyunjun Ji,  B. Kaduk,  
 K. Khistyaev,  Jaehoon Kim,  P. Klunzinger,  K. Koh,  D. Kosenkov,  
 L. Koulias,  T. Kowalczyk,  C. M. Krauter,  A. Kunitsa,  Ka Un Lao,  
 A. Laurent,  K. V. Lawler,  Joonho Lee,  D. Lefrancois,  S. Lehtola,  
 D. S. Levine,  Yi-Pei Li,  You-Sheng Lin,  Fenglai Liu,  E. Livshits,  
 A. Luenser,  P. Manohar,  E. Mansoor,  S. F. Manzer,  Shan-Ping Mao,  
 Yuezhi Mao,  N. Mardirossian,  A. V. Marenich,  T. Markovich,  
 L. A. Martinez-Martinez,  S. A. Maurer,  N. J. Mayhall,  S. C. McKenzie,  
 J.-M. Mewes,  A. F. Morrison,  J. W. Mullinax,  K. Nanda,  
 T. S. Nguyen-Beck,  R. Olivares-Amaya,  J. A. Parkhill,  T. M. Perrine,  
 F. Plasser,  S. Prager,  A. Prociuk,  E. Ramos,  D. R. Rehn,  F. Rob,  
 M. Schneider,  N. Sergueev,  S. M. Sharada,  S. Sharma,  D. W. Small,  
 T. Stauch,  T. Stein,  Yu-Chuan Su,  A. J. W. Thom,  A. Tkatchenko,  
 T. Tsuchimochi,  L. Vogt,  O. Vydrov,  M. A. Watson,  J. Wenzel,  
 M. de Wergifosse,  T. A. Wesolowski,  A. White,  J. Witte,  A. Yamada,  
 Jun Yang,  K. Yao,  S. Yeganeh,  S. R. Yost,  Zhi-Qiang You,  A. Zech,  
 Igor Ying Zhang,  Xing Zhang,  Yan Zhao,  Ying Zhu,  B. R. Brooks,  
 G. K. L. Chan,  C. J. Cramer,  M. S. Gordon,  W. J. Hehre,  A. Klamt,  
 M. W. Schmidt,  C. D. Sherrill,  D. G. Truhlar,  A. Aspuru-Guzik,  R. Baer,  
 A. T. Bell,  N. A. Besley,  Jeng-Da Chai,  R. A. DiStasio Jr.,  A. Dreuw,  
 B. D. Dunietz,  T. R. Furlani,  Chao-Ping Hsu,  Yousung Jung,  Jing Kong,  
 D. S. Lambrecht,  WanZhen Liang,  C. Ochsenfeld,  V. A. Rassolov,  
 L. V. Slipchenko,  J. E. Subotnik,  T. Van Voorhis,  J. M. Herbert,  
 A. I. Krylov,  P. M. W. Gill,  M. Head-Gordon

 Contributors to earlier versions of Q-Chem not listed above: 
 R. D. Adamson,  B. Austin,  J. Baker,  G. J. O. Beran,  K. Brandhorst,  
 S. T. Brown,  E. F. C. Byrd,  A. K. Chakraborty,  C.-L. Cheng,  
 Siu Hung Chien,  D. M. Chipman,  D. L. Crittenden,  H. Dachsel,  
 R. J. Doerksen,  A. D. Dutoi,  L. Fusti-Molnar,  W. A. Goddard III,  
 A. Golubeva-Zadorozhnaya,  S. R. Gwaltney,  G. Hawkins,  A. Heyden,  
 S. Hirata,  G. Kedziora,  F. J. Keil,  C. Kelley,  Jihan Kim,  R. A. King,  
 R. Z. Khaliullin,  P. P. Korambath,  W. Kurlancheek,  A. M. Lee,  M. S. Lee,  
 S. V. Levchenko,  Ching Yeh Lin,  D. Liotard,  R. C. Lochan,  I. Lotan,  
 P. E. Maslen,  N. Nair,  D. P. O'Neill,  D. Neuhauser,  E. Neuscamman,  
 C. M. Oana,  R. Olson,  B. Peters,  R. Peverati,  P. A. Pieniazek,  
 Y. M. Rhee,  J. Ritchie,  M. A. Rohrdanz,  E. Rosta,  N. J. Russ,  
 H. F. Schaefer III,  N. E. Schultz,  N. Shenvi,  A. C. Simmonett,  A. Sodt,  
 D. Stuck,  K. S. Thanthiriwatte,  V. Vanovschi,  Tao Wang,  A. Warshel,  
 C. F. Williams,  Q. Wu,  X. Xu,  W. Zhang

 Please cite Q-Chem as follows:
 Y. Shao et al., Mol. Phys. 113, 184-215 (2015)
 DOI: 10.1080/00268976.2014.952696

 Q-Chem 5.0.2 for Intel X86 EM64T Linux

 Parts of Q-Chem use Armadillo 5.200.1 (Boston Tea Smuggler).
 http://arma.sourceforge.net/

 Q-Chem begins on Wed Mar  2 01:29:20 2022  

Host: 
0

     Scratch files written to ./irc_transition.d//
 Dec517 15110_ 26548  26544 5633   
Processing $rem in /home/leeping/opt/qchem/5.0.2-openmp/config/preferences.
 MEM_STATIC 2000
 MEM_TOTAL  8000
 SYMMETRY   OFF
 SYM_IGNORE TRUE 

Checking the input file for inconsistencies... 	...done.

--------------------------------------------------------------
User input:
--------------------------------------------------------------
$molecule
0 2
C        1.5984347897    0.3885287601   -0.1739450571
C        0.9424011772   -0.8446051493   -0.1757696699
C       -0.5066546816   -0.9919532158   -0.4031800304
C       -1.1200555247    0.3449233748    0.0855975749
C       -0.3459791143    1.5639288277   -0.2760550508
N        0.9495447869    1.5831455464   -0.3611205073
H        2.6661205843    0.4391808047    0.0133393687
H        1.5248361562   -1.7547741179   -0.0538157379
H       -0.9973499013   -1.7339315185   -1.0258078735
H       -2.2037119529    0.4310588253    0.0006652124
H       -0.8907344675    2.4711123322   -0.5366950965
C       -0.6326716826   -0.6962835615    1.0151240085
H       -0.9946935826   -1.2082432875    1.8929751225
$end

$rem
method                b3lyp
basis                 6-31+g(d,p)
unrestricted          true
symmetry              off
sym_ignore            true
incdft                false
incfock               0
scf_convergence       8
thresh                14
jobtype               sp
scf_guess             read
scf_algorithm         diis
max_scf_cycles        100
scf_final_print       1
$end

--------------------------------------------------------------
 ----------------------------------------------------------------
             Standard Nuclear Orientation (Angstroms)
    I     Atom           X                Y                Z
 ----------------------------------------------------------------
    1      C       1.5984347897     0.3885287601    -0.1739450571
    2      C       0.9424011772    -0.8446051493    -0.1757696699
    3      C      -0.5066546816    -0.9919532158    -0.4031800304
    4      C      -1.1200555247     0.3449233748     0.0855975749
    5      C      -0.3459791143     1.5639288277    -0.2760550508
    6      N       0.9495447869     1.5831455464    -0.3611205073
    7      H       2.6661205843     0.4391808047     0.0133393687
    8      H       1.5248361562    -1.7547741179    -0.0538157379
    9      H      -0.9973499013    -1.7339315185    -1.0258078735
   10      H      -2.2037119529     0.4310588253     0.0006652124
   11      H      -0.8907344675     2.4711123322    -0.5366950965
   12      C      -0.6326716826    -0.6962835615     1.0151240085
   13      H      -0.9946935826    -1.2082432875     1.8929751225
 ----------------------------------------------------------------
 Nuclear Repulsion Energy =   273.9150671200 hartrees
 There are       25 alpha and       24 beta electrons
 Requested basis set is 6-31+G(d,p)
 There are 53 shells and 163 basis functions

 Total QAlloc Memory Limit   8000 MB
 Mega-Array Size      1956 MB
 MEM_STATIC part      2000 MB

                       Distance Matrix (Angstroms)
             C (  1)   C (  2)   C (  3)   C (  4)   C (  5)   N (  6)
   C (  2)  1.396783
   C (  3)  2.527782  1.474174
   C (  4)  2.731200  2.395207  1.549969
   C (  5)  2.274365  2.733316  2.564081  1.488610
   N (  6)  1.372298  2.434826  2.958618  2.452753  1.298456
   H (  7)  1.085170  2.157563  3.505444  3.788038  3.228243  2.096547
   H (  8)  2.147928  1.087433  2.197932  3.379884  3.816167  3.401045
   H (  9)  3.459567  2.296976  1.085808  2.360491  3.444168  3.903231
   H ( 10)  3.806392  3.399482  2.251235  1.090387  2.193431  3.376569
   H ( 11)  3.265686  3.805869  3.486856  2.227222  1.089804  2.050839
   C ( 12)  2.751098  1.980172  1.454265  1.478403  2.618758  3.097298
   H ( 13)  3.680510  2.857319  2.357391  2.386348  3.579170  4.080792
             H (  7)   H (  8)   H (  9)   H ( 10)   H ( 11)   C ( 12)
   H (  8)  2.473960
   H (  9)  4.384434  2.703077
   H ( 10)  4.869856  4.322373  2.682562
   H ( 11)  4.133098  4.891449  4.234736  2.484851
   C ( 12)  3.629722  2.630185  2.318428  2.183620  3.536543
   H ( 13)  4.432674  3.230591  2.965746  2.780265  4.410415  1.078789

 
 A cutoff of  1.0D-14 yielded   1389 shell pairs
 There are     13465 function pairs
 
 -------------------------------------------------------
 OpenMP Integral Computing Module                       
 Release: version 1.0, May 2013, Q-Chem Inc. Pittsburgh 
 -------------------------------------------------------
 Integral Job Info:
 Integral job number is                      11
 Integral operator is                         1
 short-range coefficients                     0
 long-range coefficients              100000000
 Omega coefficients                           0
 if combine SR and LR in K                    0
 Integral screening is                        0
 Integral computing path is                   2
 max size of driver memory is            800000
 size of driver memory is                593474
 size of scratch memory is              2361544
 max col of scratch BK array               1296
 max len of scratch array in speh3          155
 max len of scratch index in speh4           18
 max int batch size is                      520
 min int batch size is                       52
 fixed nKL is                                52
 max L of basis functions is                  2
 order of int derivative is                   0
 number of shells is                         53
 number of basis is                         163
 number of cartesian basis is               163
 number of contracted shell pairs          1389
 number of primitive shell pairs           4745
 maxK2 (contraction) of shell pair           36
 max number of K2 of shell pair               1
 max number of CS2 of shell pair            126
 max number of PS2 of shell pair            678
 mem total for path MDJ                  535308
 -------------------------------------------------------
 Smallest overlap matrix eigenvalue = 4.28E-05

 Scale SEOQF with 1.000000e-01/1.000000e-01/1.000000e-01

 Standard Electronic Orientation quadrupole field applied
 Nucleus-field energy     =     0.0000000049 hartrees
 Guess MOs from SCF MO coefficient file
 Reading MOs from coefficient file
 Reading MOs from coefficient file
 An unrestricted hybrid HF-DFT SCF calculation will be
 performed using Pulay DIIS extrapolation
 Exchange:     0.2000 Hartree-Fock + 0.0800 Slater + 0.7200 B88
 Correlation:  0.1900 VWN1RPA + 0.8100 LYP
 Using SG-1 standard quadrature grid
 SCF converges when DIIS error is below 1.0E-08
Using Q-Chem read-in guess as SCF_GUESS READ specified.

 using 4 threads for integral computing
 -------------------------------------------------------
 OpenMP Integral computing Module                
 Release: version 1.0, May 2013, Q-Chem Inc. Pittsburgh 
 -------------------------------------------------------
 -------------------------------------------------------
 OpenMP BLAS3 based DFT computing Module                
 Release: version 1.0, May 2013, Q-Chem Inc. Pittsburgh 
 -------------------------------------------------------
 ---------------------------------------
  Cycle       Energy         DIIS Error
 ---------------------------------------
    1    -286.8561843435      2.38E-09
    2    -286.8561843435      3.15E-09 Convergence criterion met
 ---------------------------------------
 One-Electron    Energy =  -928.0153984982
 Total Coulomb   Energy =   408.8614109814
 Alpha Exchange  Energy =    -4.0182328507
 Beta  Exchange  Energy =    -3.9253107278
 DFT   Exchange  Energy =   -31.5640838875
 DFT Correlation Energy =    -2.1096364856
 Nuclear Repu.   Energy =   273.9150671249
 Nuclear Attr.   Energy = -1212.1021106185
 Kinetic         Energy =   284.0867121203
 <S^2> = 0.7877
 SCF time:  CPU 10.49 s  wall 5.65 s
 Final Alpha MO Eigenvalues
            1           2           3           4           5           6
    1 -14.3354636 -10.2334240 -10.2290433 -10.2287125 -10.2274892 -10.2260191
            7           8           9          10          11          12
    1 -10.2209431  -0.9571496  -0.8943598  -0.7693549  -0.6608126  -0.6500467
           13          14          15          16          17          18
    1  -0.5904406  -0.5464069  -0.4940693  -0.4911294  -0.4732839  -0.4342084
           19          20          21          22          23          24
    1  -0.3898632  -0.3801038  -0.3552909  -0.3112019  -0.2771440  -0.2588250
           25          26          27          28          29          30
    1  -0.1748253  -0.0405833  -0.0003992   0.0158665   0.0212840   0.0262921
 Final Beta MO Eigenvalues
            1           2           3           4           5           6
    1 -14.3371205 -10.2308253 -10.2294108 -10.2283096 -10.2277947 -10.2164789
            7           8           9          10          11          12
    1 -10.2150110  -0.9528891  -0.8889774  -0.7632807  -0.6548903  -0.6435303
           13          14          15          16          17          18
    1  -0.5773789  -0.5418941  -0.4881536  -0.4864463  -0.4703117  -0.4312446
           19          20          21          22          23          24
    1  -0.3795914  -0.3763434  -0.3489606  -0.3057289  -0.2637607  -0.2475368
           25          26          27          28          29
    1  -0.0788331  -0.0279750   0.0004542   0.0161351   0.0220783
 SCF   energy in the final basis set = -286.85618434
 Total energy in the final basis set = -286.85618434
 
 --------------------------------------------------------------
 
                    Orbital Energies (a.u.)
 --------------------------------------------------------------
 
 Alpha MOs
 -- Occupied --
-14.335 -10.233 -10.229 -10.229 -10.227 -10.226 -10.221  -0.957
 -0.894  -0.769  -0.661  -0.650  -0.590  -0.546  -0.494  -0.491
 -0.473  -0.434  -0.390  -0.380  -0.355  -0.311  -0.277  -0.259
 -0.175
 -- Virtual --
 -0.041  -0.000   0.016   0.021   0.026   0.043   0.048   0.056
  0.065   0.076   0.081   0.087   0.097   0.104   0.116   0.118
  0.122   0.127   0.143   0.148   0.160   0.174   0.177   0.184
  0.191   0.197   0.205   0.213   0.224   0.238   0.252   0.258
  0.265   0.270   0.292   0.295   0.308   0.319   0.325   0.341
  0.352   0.375   0.470   0.496   0.616   0.638   0.650   0.672
  0.674   0.708   0.720   0.738   0.747   0.760   0.779   0.802
  0.839   0.856   0.872   0.905   0.936   0.945   0.961   0.983
  1.005   1.012   1.040   1.074   1.087   1.125   1.135   1.149
  1.170   1.204   1.289   1.325   1.363   1.382   1.450   1.494
  1.521   1.563   1.603   1.648   1.676   1.746   1.804   1.809
  1.854   1.878   1.943   2.000   2.016   2.054   2.062   2.112
  2.131   2.172   2.198   2.262   2.280   2.319   2.351   2.399
  2.424   2.449   2.452   2.467   2.484   2.495   2.526   2.545
  2.589   2.597   2.629   2.642   2.658   2.708   2.787   2.815
  2.879   2.935   2.993   3.169   3.180   3.282   3.293   3.377
  3.510   3.587   3.697   4.180   4.321   4.388   4.528   4.604
  4.661   4.730
 
 Beta MOs
 -- Occupied --
-14.337 -10.231 -10.229 -10.228 -10.228 -10.216 -10.215  -0.953
 -0.889  -0.763  -0.655  -0.644  -0.577  -0.542  -0.488  -0.486
 -0.470  -0.431  -0.380  -0.376  -0.349  -0.306  -0.264  -0.248
 -- Virtual --
 -0.079  -0.028   0.000   0.016   0.022   0.029   0.044   0.050
  0.058   0.066   0.076   0.087   0.091   0.099   0.109   0.116
  0.119   0.123   0.130   0.143   0.149   0.162   0.175   0.179
  0.186   0.194   0.200   0.207   0.214   0.226   0.241   0.251
  0.261   0.268   0.272   0.295   0.297   0.310   0.321   0.328
  0.346   0.357   0.379   0.473   0.499   0.619   0.644   0.666
  0.675   0.689   0.712   0.736   0.742   0.753   0.764   0.784
  0.807   0.844   0.861   0.875   0.908   0.939   0.947   0.964
  0.984   1.007   1.011   1.043   1.076   1.090   1.130   1.140
  1.153   1.176   1.206   1.297   1.331   1.372   1.385   1.455
  1.504   1.530   1.568   1.612   1.651   1.682   1.755   1.811
  1.816   1.858   1.892   1.948   2.004   2.019   2.057   2.070
  2.127   2.137   2.181   2.206   2.266   2.286   2.321   2.357
  2.404   2.431   2.452   2.457   2.471   2.486   2.501   2.533
  2.548   2.594   2.602   2.633   2.648   2.662   2.714   2.790
  2.825   2.882   2.940   2.997   3.171   3.181   3.285   3.293
  3.379   3.512   3.594   3.700   4.178   4.328   4.394   4.533
  4.618   4.670   4.732
 --------------------------------------------------------------
 
          Ground-State Mulliken Net Atomic Charges

     Atom                 Charge (a.u.)    Spin (a.u.)
  --------------------------------------------------------
      1 C                    -0.194174       0.427716
      2 C                    -0.084048      -0.193791
      3 C                     0.052016      -0.001417
      4 C                    -0.135710      -0.048245
      5 C                    -0.038468       0.277295
      6 N                    -0.192590      -0.095540
      7 H                     0.126859      -0.023053
      8 H                     0.140477       0.010886
      9 H                     0.139504       0.000527
     10 H                     0.137576       0.019271
     11 H                     0.124898      -0.013499
     12 C                    -0.219754       0.661949
     13 H                     0.143415      -0.022099
  --------------------------------------------------------
  Sum of atomic charges =    -0.000000
  Sum of spin   charges =     1.000000

 -----------------------------------------------------------------
                    Cartesian Multipole Moments
 -----------------------------------------------------------------
    Charge (ESU x 10^10)
                -0.0000
    Dipole Moment (Debye)
         X      -1.8157      Y      -2.4644      Z       0.2356
       Tot       3.0701
    Quadrupole Moments (Debye-Ang)
        XX     -38.8901     XY      -4.0598     YY     -42.8305
        XZ       0.8457     YZ       0.4956     ZZ     -43.2586
    Octopole Moments (Debye-Ang^2)
       XXX     -12.0851    XXY     -10.3637    XYY     -14.1204
       YYY     -31.1311    XXZ       3.0431    XYZ       2.7359
       YYZ       1.7805    XZZ      -8.8110    YZZ     -10.6663
       ZZZ       6.6961
    Hexadecapole Moments (Debye-Ang^3)
      XXXX    -299.3631   XXXY     -25.4376   XXYY    -116.3955
      XYYY     -46.5945   YYYY    -357.3434   XXXZ      25.4504
      XXYZ       9.6001   XYYZ      13.0617   YYYZ      27.1597
      XXZZ     -78.6437   XYZZ      -3.5246   YYZZ     -77.4040
      XZZZ      18.0543   YZZZ      21.3069   ZZZZ    -117.7783
 -----------------------------------------------------------------
 Mayer SCF Bond Order, atomic valence on the diagonal:

            1           2           3           4           5           6
    1   3.8377580   1.4060181   0.0648001   0.0150777   0.1124483   1.1670495
    2   1.4060181   3.9879461   1.0649379  -0.0056882   0.0314828  -0.0483278
    3   0.0648001   1.0649379   3.7027266   0.9476355   0.0344565   0.0340642
    4   0.0150777  -0.0056882   0.9476355   3.9768151   0.9020045  -0.0142152
    5   0.1124483   0.0314828   0.0344565   0.9020045   3.6994555   1.5539711
    6   1.1670495  -0.0483278   0.0340642  -0.0142152   1.5539711   2.6898330
    7   0.9792917  -0.0332302   0.0237326  -0.0028428   0.0097284  -0.0334121
    8   0.0271206   0.8504018   0.0260670   0.0287663  -0.0007935   0.0112003
    9  -0.0094095   0.0785640   0.7866313   0.0566603  -0.0152038   0.0064862
   10   0.0009091   0.0294112   0.0213136   0.8366407   0.0009476   0.0094971
   11   0.0116491  -0.0012184   0.0103457  -0.0471673   0.9857261  -0.0312580
   12   0.0585006   0.6086514   0.6528422   1.2155783   0.0817589   0.0294921
   13   0.0043028   0.0069435   0.0359000   0.0443652   0.0029285   0.0052857
            7           8           9          10          11          12
    1   0.9792917   0.0271206  -0.0094095   0.0009091   0.0116491   0.0585006
    2  -0.0332302   0.8504018   0.0785640   0.0294112  -0.0012184   0.6086514
    3   0.0237326   0.0260670   0.7866313   0.0213136   0.0103457   0.6528422
    4  -0.0028428   0.0287663   0.0566603   0.8366407  -0.0471673   1.2155783
    5   0.0097284  -0.0007935  -0.0152038   0.0009476   0.9857261   0.0817589
    6  -0.0334121   0.0112003   0.0064862   0.0094971  -0.0312580   0.0294921
    7   0.9470450   0.0005179   0.0007170   0.0000627   0.0015155   0.0009371
    8   0.0005179   0.9523472  -0.0000178   0.0025689   0.0001254   0.0064013
    9   0.0007170  -0.0000178   0.9536293   0.0002533   0.0002001   0.0478648
   10   0.0000627   0.0025689   0.0002533   0.9545209   0.0002159   0.0526053
   11   0.0015155   0.0001254   0.0002001   0.0002159   0.9448341   0.0145609
   12   0.0009371   0.0064013   0.0478648   0.0526053   0.0145609   3.6336660
   13   0.0000272  -0.0000111   0.0008835   0.0000956   0.0001389   0.8644732
           13
    1   0.0043028
    2   0.0069435
    3   0.0359000
    4   0.0443652
    5   0.0029285
    6   0.0052857
    7   0.0000272
    8  -0.0000111
    9   0.0008835
   10   0.0000956
   11   0.0001389
   12   0.8644732
   13   0.9653328


Archival summary:
1\1\c8-73\SP\ProcedureUnspecified\6-31+G**\166(2)\hpark21\WedMar201:29:332022WedMar201:29:332022\0\\#,ProcedureUnspecified,6-31+G**,\\0,2\N\C,1,1.29846\H,2,1.0898,1,118.083\C,1,1.3723,2,116.741,3,-172.868,0\H,4,1.08517,1,116.624,2,-164.524,0\C,4,1.39678,1,123.111,2,13.4882,0\H,6,1.08743,4,119.158,1,177.999,0\C,6,1.47417,4,123.375,1,1.17383,0\H,8,1.08581,6,126.94,4,136.69,0\C,8,1.45427,6,85.0899,4,-83.5836,0\H,10,1.07879,8,136.57,6,-117.279,0\C,10,1.4784,8,63.8046,6,110.485,0\H,12,1.09039,10,115.61,8,105.558,0\\\@

 Total job time:  12.96s(wall), 12.30s(cpu) 
 Wed Mar  2 01:29:33 2022

        *************************************************************
        *                                                           *
        *  Thank you very much for using Q-Chem.  Have a nice day.  *
        *                                                           *
        *************************************************************


