
Running Job 1 of 1 qcfsm.in
qchem qcfsm.in_32773.0 ./qcfsm.d/ 1
/home/leeping/opt/qchem/5.0.2-openmp/exe/qcprog.exe_s qcfsm.in_32773.0 ./qcfsm.d/
Check license passed

                  Welcome to Q-Chem
     A Quantum Leap Into The Future Of Chemistry


 Q-Chem 5.0, Q-Chem, Inc., Pleasanton, CA (2017)

 Yihan Shao,  Zhengting Gan,  E. Epifanovsky,  A. T. B. Gilbert,  M. Wormit,  
 J. Kussmann,  A. W. Lange,  A. Behn,  Jia Deng,  Xintian Feng,  D. Ghosh,  
 M. Goldey,  P. R. Horn,  L. D. Jacobson,  I. Kaliman,  T. Kus,  A. Landau,  
 Jie Liu,  E. I. Proynov,  R. M. Richard,  R. P. Steele,  E. J. Sundstrom,  
 H. L. Woodcock III,  P. M. Zimmerman,  D. Zuev,  B. Albrecht,  E. Alguire,  
 S. A. Baeppler,  D. Barton,  Z. Benda,  Y. A. Bernard,  E. J. Berquist,  
 K. B. Bravaya,  H. Burton,  D. Casanova,  Chun-Min Chang,  Yunqing Chen,  
 A. Chien,  K. D. Closser,  M. P. Coons,  S. Dasgupta,  A. L. Dempwolff,  
 M. Diedenhofen,  Hainam Do,  R. G. Edgar,  Po-Tung Fang,  S. Fatehi,  
 Qingguo Feng,  J. Fosso-Tande,  Qinghui Ge,  A. Ghysels,  G. Gidofalvi,  
 J. Gomes,  J. Gonthier,  A. Gunina,  M. W. D. Hanson-Heine,  
 P. H. P. Harbach,  A. W. Hauser,  J. E. Herr,  E. G. Hohenstein,  
 Z. C. Holden,  Kerwin Hui,  T.-C. Jagau,  Hyunjun Ji,  B. Kaduk,  
 K. Khistyaev,  Jaehoon Kim,  P. Klunzinger,  K. Koh,  D. Kosenkov,  
 L. Koulias,  T. Kowalczyk,  C. M. Krauter,  A. Kunitsa,  Ka Un Lao,  
 A. Laurent,  K. V. Lawler,  Joonho Lee,  D. Lefrancois,  S. Lehtola,  
 D. S. Levine,  Yi-Pei Li,  You-Sheng Lin,  Fenglai Liu,  E. Livshits,  
 A. Luenser,  P. Manohar,  E. Mansoor,  S. F. Manzer,  Shan-Ping Mao,  
 Yuezhi Mao,  N. Mardirossian,  A. V. Marenich,  T. Markovich,  
 L. A. Martinez-Martinez,  S. A. Maurer,  N. J. Mayhall,  S. C. McKenzie,  
 J.-M. Mewes,  A. F. Morrison,  J. W. Mullinax,  K. Nanda,  
 T. S. Nguyen-Beck,  R. Olivares-Amaya,  J. A. Parkhill,  T. M. Perrine,  
 F. Plasser,  S. Prager,  A. Prociuk,  E. Ramos,  D. R. Rehn,  F. Rob,  
 M. Schneider,  N. Sergueev,  S. M. Sharada,  S. Sharma,  D. W. Small,  
 T. Stauch,  T. Stein,  Yu-Chuan Su,  A. J. W. Thom,  A. Tkatchenko,  
 T. Tsuchimochi,  L. Vogt,  O. Vydrov,  M. A. Watson,  J. Wenzel,  
 M. de Wergifosse,  T. A. Wesolowski,  A. White,  J. Witte,  A. Yamada,  
 Jun Yang,  K. Yao,  S. Yeganeh,  S. R. Yost,  Zhi-Qiang You,  A. Zech,  
 Igor Ying Zhang,  Xing Zhang,  Yan Zhao,  Ying Zhu,  B. R. Brooks,  
 G. K. L. Chan,  C. J. Cramer,  M. S. Gordon,  W. J. Hehre,  A. Klamt,  
 M. W. Schmidt,  C. D. Sherrill,  D. G. Truhlar,  A. Aspuru-Guzik,  R. Baer,  
 A. T. Bell,  N. A. Besley,  Jeng-Da Chai,  R. A. DiStasio Jr.,  A. Dreuw,  
 B. D. Dunietz,  T. R. Furlani,  Chao-Ping Hsu,  Yousung Jung,  Jing Kong,  
 D. S. Lambrecht,  WanZhen Liang,  C. Ochsenfeld,  V. A. Rassolov,  
 L. V. Slipchenko,  J. E. Subotnik,  T. Van Voorhis,  J. M. Herbert,  
 A. I. Krylov,  P. M. W. Gill,  M. Head-Gordon

 Contributors to earlier versions of Q-Chem not listed above: 
 R. D. Adamson,  B. Austin,  J. Baker,  G. J. O. Beran,  K. Brandhorst,  
 S. T. Brown,  E. F. C. Byrd,  A. K. Chakraborty,  C.-L. Cheng,  
 Siu Hung Chien,  D. M. Chipman,  D. L. Crittenden,  H. Dachsel,  
 R. J. Doerksen,  A. D. Dutoi,  L. Fusti-Molnar,  W. A. Goddard III,  
 A. Golubeva-Zadorozhnaya,  S. R. Gwaltney,  G. Hawkins,  A. Heyden,  
 S. Hirata,  G. Kedziora,  F. J. Keil,  C. Kelley,  Jihan Kim,  R. A. King,  
 R. Z. Khaliullin,  P. P. Korambath,  W. Kurlancheek,  A. M. Lee,  M. S. Lee,  
 S. V. Levchenko,  Ching Yeh Lin,  D. Liotard,  R. C. Lochan,  I. Lotan,  
 P. E. Maslen,  N. Nair,  D. P. O'Neill,  D. Neuhauser,  E. Neuscamman,  
 C. M. Oana,  R. Olson,  B. Peters,  R. Peverati,  P. A. Pieniazek,  
 Y. M. Rhee,  J. Ritchie,  M. A. Rohrdanz,  E. Rosta,  N. J. Russ,  
 H. F. Schaefer III,  N. E. Schultz,  N. Shenvi,  A. C. Simmonett,  A. Sodt,  
 D. Stuck,  K. S. Thanthiriwatte,  V. Vanovschi,  Tao Wang,  A. Warshel,  
 C. F. Williams,  Q. Wu,  X. Xu,  W. Zhang

 Please cite Q-Chem as follows:
 Y. Shao et al., Mol. Phys. 113, 184-215 (2015)
 DOI: 10.1080/00268976.2014.952696

 Q-Chem 5.0.2 for Intel X86 EM64T Linux

 Parts of Q-Chem use Armadillo 5.200.1 (Boston Tea Smuggler).
 http://arma.sourceforge.net/

 Q-Chem begins on Tue Mar  1 18:42:15 2022  

Host: 
0

     Scratch files written to ./qcfsm.d//
 Dec517 15110_ 26548  26544 5633   
Processing $rem in /home/leeping/opt/qchem/5.0.2-openmp/config/preferences.
 MEM_STATIC 2000
 MEM_TOTAL  8000
 SYMMETRY   OFF
 SYM_IGNORE TRUE 
 Now reading second FSM geometry

Checking the input file for inconsistencies... 	...done.

--------------------------------------------------------------
User input:
--------------------------------------------------------------
$molecule
0 2
C        1.6774494264    0.3775130876   -0.2339841621
C        1.1088802591   -0.8466465315   -0.3001627119
C       -0.3293362138   -1.0592492420   -0.0688964740
C       -1.1502957489    0.3402213035    0.0846810444
C       -0.3166385595    1.5351286417   -0.1446096668
N        0.9695577502    1.5797475958   -0.2040895693
H        2.7527683321    0.4949897241   -0.3401038867
H        1.7149907015   -1.7167235257   -0.5405367200
H       -0.7959040089   -1.8958152810   -0.5923514450
H       -2.1699443524    0.4132381868   -0.2986848120
H       -0.8540411968    2.4673425304   -0.3354672669
C       -0.9261495871   -0.6018192192    1.1840394596
H       -1.6813368020   -1.0879272699    1.7901662104
****
C        1.5767525004    0.4212072865   -0.1580425364
C        0.8156910173   -0.8228734704    0.1099907438
C       -0.5524346341   -0.9778871952   -0.5326191729
C       -1.1160168445    0.3308457910   -0.0023203351
C       -0.3589473536    1.5756861467   -0.2756034190
N        0.9707505214    1.5920276923   -0.3457360219
H        2.6637959667    0.4001447288   -0.2053232891
H        1.3921210898   -1.7361844504    0.2480245654
H       -0.9897678102   -1.7670236761   -1.1282713052
H       -2.2010546446    0.4094364865    0.0400074794
H       -0.8859801077    2.5153693575   -0.4296286867
C       -0.4780118944   -0.7118859543    0.9002367123
H       -0.8368978066   -1.2288627429    1.7792852654
$end

$rem
method                b3lyp
basis                 6-31g(d)
unrestricted          true
symmetry              off
sym_ignore            true
incdft                false
incfock               0
scf_convergence       8
thresh                14
jobtype               fsm
scf_guess             core
scf_guess_mix         5
scf_algorithm         diis
max_scf_cycles        100
fsm_nnode             21
fsm_ngrad             6
fsm_mode              2
fsm_opt_mode          2
$end

--------------------------------------------------------------
 ----------------------------------------------------------------
             Standard Nuclear Orientation (Angstroms)
    I     Atom           X                Y                Z
 ----------------------------------------------------------------
    1      C       1.6774494264     0.3775130876    -0.2339841621
    2      C       1.1088802591    -0.8466465315    -0.3001627119
    3      C      -0.3293362138    -1.0592492420    -0.0688964740
    4      C      -1.1502957489     0.3402213035     0.0846810444
    5      C      -0.3166385595     1.5351286417    -0.1446096668
    6      N       0.9695577502     1.5797475958    -0.2040895693
    7      H       2.7527683321     0.4949897241    -0.3401038867
    8      H       1.7149907015    -1.7167235257    -0.5405367200
    9      H      -0.7959040089    -1.8958152810    -0.5923514450
   10      H      -2.1699443524     0.4132381868    -0.2986848120
   11      H      -0.8540411968     2.4673425304    -0.3354672669
   12      C      -0.9261495871    -0.6018192192     1.1840394596
   13      H      -1.6813368020    -1.0879272699     1.7901662104
 ----------------------------------------------------------------
 Nuclear Repulsion Energy =   269.1103605855 hartrees
 There are       25 alpha and       24 beta electrons
 Requested basis set is 6-31G(d)
 There are 40 shells and 117 basis functions

 Total QAlloc Memory Limit   8000 MB
 Mega-Array Size      1956 MB
 MEM_STATIC part      2000 MB
 beginning FSman 

*******************************************
*******************************************
******** Starting FSM Calculation *********
*******************************************
*******************************************
-FSM parameters:
 Maximum displacement of each coordinate during optimization (Angstrom)      0.05
 Maximum optimization steps for each new node                                6
 The scaling factor for optimization (hartrees/Angstrom^2)                   1.75
 The number of LST interpolations used for reparameterization                100
-Aligning product structure to maximum coincidence with the reactant structure
 Total R --> P Distance 1.688486
 New node interpolation distace (Angstroms): 0.08
-Performing force calculation on reactant structure in state:0
 ----------------------------------------------------------------
             Standard Nuclear Orientation (Angstroms)
    I     Atom           X                Y                Z
 ----------------------------------------------------------------
    1      C       1.6774494264     0.3775130876    -0.2339841621
    2      C       1.1088802591    -0.8466465315    -0.3001627119
    3      C      -0.3293362138    -1.0592492420    -0.0688964740
    4      C      -1.1502957489     0.3402213035     0.0846810444
    5      C      -0.3166385595     1.5351286417    -0.1446096668
    6      N       0.9695577502     1.5797475958    -0.2040895693
    7      H       2.7527683321     0.4949897241    -0.3401038867
    8      H       1.7149907015    -1.7167235257    -0.5405367200
    9      H      -0.7959040089    -1.8958152810    -0.5923514450
   10      H      -2.1699443524     0.4132381868    -0.2986848120
   11      H      -0.8540411968     2.4673425304    -0.3354672669
   12      C      -0.9261495871    -0.6018192192     1.1840394596
   13      H      -1.6813368020    -1.0879272699     1.7901662104
 ----------------------------------------------------------------
 Nuclear Repulsion Energy =   269.1103605855 hartrees
 There are       25 alpha and       24 beta electrons

                       Distance Matrix (Angstroms)
             C (  1)   C (  2)   C (  3)   C (  4)   C (  5)   N (  6)
   C (  2)  1.351376
   C (  3)  2.473606  1.472125
   C (  4)  2.845888  2.580821  1.629748
   C (  5)  2.307477  2.780136  2.595513  1.474911
   N (  6)  1.395483  2.432289  2.944437  2.472568  1.288344
   H (  7)  1.086910  2.122251  3.462453  3.929161  3.246747  2.091660
   H (  8)  2.116887  1.087283  2.198634  3.582148  3.854714  3.396408
   H (  9)  3.378450  2.194159  1.091574  2.363012  3.493071  3.917543
   H ( 10)  3.848104  3.512549  2.368303  1.091780  2.171893  3.350547
   H ( 11)  3.284225  3.851861  3.575364  2.188364  1.092818  2.032387
   C ( 12)  3.122277  2.530641  1.461259  1.465016  2.589084  3.206219
   H ( 13)  4.186424  3.494711  2.298878  2.286983  3.533579  4.256852
             H (  7)   H (  8)   H (  9)   H ( 10)   H ( 11)   C ( 12)
   H (  8)  2.451292
   H (  9)  4.286333  2.517807
   H ( 10)  4.923566  4.437111  2.702953
   H ( 11)  4.110872  4.914101  4.371100  2.439733
   C ( 12)  4.130429  3.345564  2.201580  2.185369  3.425471
   H ( 13)  5.167685  4.166845  2.667033  2.618307  4.224060  1.083512

 
 Requested basis set is 6-31G(d)
 There are 40 shells and 117 basis functions
 A cutoff of  1.0D-14 yielded    804 shell pairs
 There are      7076 function pairs
 
 -------------------------------------------------------
 OpenMP Integral Computing Module                       
 Release: version 1.0, May 2013, Q-Chem Inc. Pittsburgh 
 -------------------------------------------------------
 Integral Job Info:
 Integral job number is                      11
 Integral operator is                         1
 short-range coefficients                     0
 long-range coefficients              100000000
 Omega coefficients                           0
 if combine SR and LR in K                    0
 Integral screening is                        0
 Integral computing path is                   2
 max size of driver memory is            800000
 size of driver memory is                593474
 size of scratch memory is              2361544
 max col of scratch BK array               1296
 max len of scratch array in speh3          155
 max len of scratch index in speh4           18
 max int batch size is                      520
 min int batch size is                       52
 fixed nKL is                                52
 max L of basis functions is                  2
 order of int derivative is                   0
 number of shells is                         40
 number of basis is                         117
 number of cartesian basis is               117
 number of contracted shell pairs           804
 number of primitive shell pairs           3486
 maxK2 (contraction) of shell pair           36
 max number of K2 of shell pair               1
 max number of CS2 of shell pair             86
 max number of PS2 of shell pair            390
 mem total for path MDJ                  535308
 -------------------------------------------------------
 Smallest overlap matrix eigenvalue = 1.47E-03

 Scale SEOQF with 1.000000e-01/1.000000e-01/1.000000e-01

 Standard Electronic Orientation quadrupole field applied
 Nucleus-field energy     =     0.0000000051 hartrees
 Guess MOs from core Hamiltonian diagonalization
 Mixing HOMO and LUMO in initial guess
 Adding  50% of the LUMO to the HOMO
 An unrestricted hybrid HF-DFT SCF calculation will be
 performed using Pulay DIIS extrapolation
 Exchange:     0.2000 Hartree-Fock + 0.0800 Slater + 0.7200 B88
 Correlation:  0.1900 VWN1RPA + 0.8100 LYP
 Using SG-1 standard quadrature grid
 SCF converges when DIIS error is below 1.0E-08
 using 4 threads for integral computing
 -------------------------------------------------------
 OpenMP Integral computing Module                
 Release: version 1.0, May 2013, Q-Chem Inc. Pittsburgh 
 -------------------------------------------------------
 -------------------------------------------------------
 OpenMP BLAS3 based DFT computing Module                
 Release: version 1.0, May 2013, Q-Chem Inc. Pittsburgh 
 -------------------------------------------------------
 ---------------------------------------
  Cycle       Energy         DIIS Error
 ---------------------------------------
    1    -237.9524707706      1.30E-01
    2    -233.0922078781      1.00E-01
    3    -251.2677923463      1.06E-01
    4    -279.8550316008      6.25E-02
    5    -282.0468693929      4.60E-02
    6    -286.1648558125      1.68E-02
    7    -286.3659539988      1.57E-02
    8    -286.8298035865      3.42E-03
    9    -286.8535361347      8.66E-04
   10    -286.8545869867      4.22E-04
   11    -286.8549106262      8.27E-05
   12    -286.8549273889      3.50E-05
   13    -286.8549310844      1.17E-05
   14    -286.8549320666      2.82E-06
   15    -286.8549321657      1.37E-06
   16    -286.8549321949      3.50E-07
   17    -286.8549322061      1.66E-07
   18    -286.8549322090      4.52E-08
   19    -286.8549322107      2.11E-08
   20    -286.8549322113      9.97E-09 Convergence criterion met
 ---------------------------------------
 <S^2> = 0.7532
 SCF time:  CPU 52.45 s  wall 38.82 s
 SCF   energy in the final basis set = -286.85493221
 Total energy in the final basis set = -286.85493221
 
 --------------------------------------------------------------
 
                    Orbital Energies (a.u.)
 --------------------------------------------------------------
 
 Alpha MOs
 -- Occupied --
-14.323 -10.230 -10.224 -10.221 -10.219 -10.206 -10.195  -0.934
 -0.868  -0.765  -0.667  -0.641  -0.570  -0.532  -0.491  -0.482
 -0.451  -0.425  -0.377  -0.373  -0.359  -0.300  -0.256  -0.229
 -0.219
 -- Virtual --
 -0.031   0.048   0.085   0.130   0.135   0.151   0.156   0.173
  0.184   0.228   0.244   0.286   0.296   0.328   0.400   0.437
  0.504   0.506   0.529   0.551   0.552   0.581   0.592   0.605
  0.617   0.630   0.647   0.669   0.672   0.713   0.754   0.803
  0.832   0.845   0.860   0.867   0.879   0.896   0.902   0.924
  0.937   1.000   1.077   1.099   1.114   1.170   1.212   1.328
  1.350   1.434   1.488   1.522   1.547   1.567   1.602   1.700
  1.724   1.766   1.816   1.828   1.897   1.914   1.949   2.021
  2.032   2.055   2.146   2.203   2.220   2.242   2.295   2.344
  2.436   2.469   2.504   2.529   2.545   2.579   2.633   2.673
  2.733   2.806   2.838   3.019   3.234   4.027   4.106   4.140
  4.276   4.317   4.397   4.609
 
 Beta MOs
 -- Occupied --
-14.323 -10.229 -10.224 -10.221 -10.207 -10.205 -10.194  -0.932
 -0.858  -0.763  -0.659  -0.639  -0.556  -0.527  -0.488  -0.473
 -0.447  -0.422  -0.375  -0.371  -0.351  -0.291  -0.250  -0.225
 -- Virtual --
 -0.072  -0.029   0.051   0.091   0.131   0.137   0.154   0.162
  0.179   0.186   0.233   0.246   0.291   0.311   0.330   0.403
  0.439   0.508   0.531   0.541   0.557   0.558   0.587   0.595
  0.611   0.622   0.640   0.650   0.673   0.674   0.719   0.766
  0.806   0.833   0.847   0.862   0.869   0.884   0.902   0.905
  0.925   0.941   1.013   1.079   1.104   1.119   1.176   1.215
  1.331   1.351   1.440   1.496   1.526   1.550   1.570   1.609
  1.705   1.730   1.787   1.821   1.830   1.920   1.925   1.963
  2.026   2.039   2.064   2.158   2.213   2.230   2.252   2.300
  2.354   2.440   2.474   2.514   2.535   2.547   2.589   2.637
  2.674   2.737   2.816   2.849   3.019   3.235   4.028   4.111
  4.141   4.300   4.321   4.401   4.610
 --------------------------------------------------------------
 
          Ground-State Mulliken Net Atomic Charges

     Atom                 Charge (a.u.)    Spin (a.u.)
  --------------------------------------------------------
      1 C                    -0.009231      -0.014854
      2 C                    -0.083993       0.041392
      3 C                    -0.175782      -0.016514
      4 C                    -0.194449      -0.016798
      5 C                     0.088580       0.019022
      6 N                    -0.391477       0.002732
      7 H                     0.136788       0.000779
      8 H                     0.139589       0.003607
      9 H                     0.155148       0.016926
     10 H                     0.155389       0.022606
     11 H                     0.142810       0.005874
     12 C                    -0.121114       0.958309
     13 H                     0.157744      -0.023082
  --------------------------------------------------------
  Sum of atomic charges =    -0.000000
  Sum of spin   charges =     1.000000

 -----------------------------------------------------------------
                    Cartesian Multipole Moments
 -----------------------------------------------------------------
    Charge (ESU x 10^10)
                 0.0000
    Dipole Moment (Debye)
         X      -1.9682      Y      -2.0181      Z      -0.2674
       Tot       2.8316
    Quadrupole Moments (Debye-Ang)
        XX     -37.0835     XY      -2.9988     YY     -41.5061
        XZ      -0.5685     YZ       0.4111     ZZ     -42.3169
    Octopole Moments (Debye-Ang^2)
       XXX     -13.7382    XXY     -10.5181    XYY     -13.9105
       YYY     -27.9922    XXZ      -1.5711    XYZ       3.3766
       YYZ      -2.4175    XZZ      -7.9504    YZZ      -8.1757
       ZZZ      -3.1578
    Hexadecapole Moments (Debye-Ang^3)
      XXXX    -321.7430   XXXY     -19.1595   XXYY    -115.1280
      XYYY     -40.4784   YYYY    -335.6451   XXXZ      34.0047
      XXYZ       4.1338   XYYZ      13.8178   YYYZ      22.0218
      XXZZ     -75.8936   XYZZ      -2.9174   YYZZ     -73.8075
      XZZZ      36.8021   YZZZ      15.6261   ZZZZ    -112.3665
 -----------------------------------------------------------------
 Calculating analytic gradient of the SCF energy
 Gradient of SCF Energy
            1           2           3           4           5           6
    1   0.0000193   0.0000187  -0.0000125  -0.0000255   0.0000289  -0.0000342
    2   0.0000045  -0.0000556   0.0000927  -0.0001369   0.0000485   0.0000257
    3   0.0000076  -0.0000031  -0.0000127  -0.0000334  -0.0000032   0.0000051
            7           8           9          10          11          12
    1   0.0000006   0.0000179   0.0000202   0.0000062  -0.0000138  -0.0000131
    2   0.0000244   0.0000164   0.0000039   0.0000057  -0.0000021  -0.0000109
    3   0.0000292   0.0000142  -0.0000110  -0.0000285   0.0000011   0.0000524
           13
    1  -0.0000127
    2  -0.0000164
    3  -0.0000176
 Max gradient component =       1.369E-04
 RMS gradient           =       3.435E-05
 Gradient time:  CPU 7.84 s  wall 2.74 s
-Performing force calculation on product structure in state0
 ----------------------------------------------------------------
             Standard Nuclear Orientation (Angstroms)
    I     Atom           X                Y                Z
 ----------------------------------------------------------------
    1      C       1.5767520984     0.4212454892    -0.1579446968
    2      C       0.8157055589    -0.8228485303     0.1100694549
    3      C      -0.5523714044    -0.9779164517    -0.5326310354
    4      C      -1.1160255913     0.3308156687    -0.0024065650
    5      C      -0.3589707009     1.5756690378    -0.2756708174
    6      N       0.9707315879     1.5920445051    -0.3457117627
    7      H       2.6637994038     0.4002109343    -0.2051495892
    8      H       1.3921506671    -1.7361402576     0.2481678570
    9      H      -0.9896420687    -1.7670807906    -1.1282921533
   10      H      -2.2010684368     0.4093782817     0.0398439750
   11      H      -0.8860180934     2.5153338947    -0.4297579562
   12      C      -0.4780550736    -0.7118745276     0.9002228195
   13      H      -0.8369879471    -1.2288372530     1.7792604692
 ----------------------------------------------------------------
 Nuclear Repulsion Energy =   277.2192138281 hartrees
 There are       25 alpha and       24 beta electrons

                       Distance Matrix (Angstroms)
             C (  1)   C (  2)   C (  3)   C (  4)   C (  5)   N (  6)
   C (  2)  1.482833
   C (  3)  2.575114  1.519455
   C (  4)  2.698781  2.252815  1.520403
   C (  5)  2.256895  2.698434  2.573758  1.482385
   N (  6)  1.331648  2.462413  2.993239  2.462339  1.331646
   H (  7)  1.088275  2.238457  3.514290  3.785895  3.244043  2.075260
   H (  8)  2.203025  1.088789  2.228389  3.259761  3.782712  3.406920
   H (  9)  3.509519  2.384197  1.081110  2.384274  3.506948  3.967269
   H ( 10)  3.783013  3.259485  2.229465  1.088703  2.202977  3.407003
   H ( 11)  3.244122  3.785596  3.510655  2.237778  1.088344  2.075342
   C ( 12)  2.574085  1.520024  1.459237  1.519523  2.574833  2.993222
   H ( 13)  3.507375  2.383783  2.342821  2.384264  3.509487  3.967459
             H (  7)   H (  8)   H (  9)   H ( 10)   H ( 11)   C ( 12)
   H (  8)  2.527169
   H (  9)  4.347066  2.751097
   H ( 10)  4.871041  4.190211  2.751194
   H ( 11)  4.138284  4.870798  4.340249  2.526842
   C ( 12)  3.511386  2.229790  2.343087  2.228505  3.514279
   H ( 13)  4.341335  2.751483  2.960890  2.751370  4.347526  1.081106

 
 Applying Cartesian multipole field
    Component          Value
    ---------          -----
     (2,0,0)        1.00000E-11
     (0,2,0)        2.00000E-11
     (0,0,2)       -3.00000E-11
 Nucleus-field energy     =     0.0000000049 hartrees
 Requested basis set is 6-31G(d)
 There are 40 shells and 117 basis functions
 A cutoff of  1.0D-14 yielded    808 shell pairs
 There are      7080 function pairs
 Smallest overlap matrix eigenvalue = 1.59E-03
 Guess MOs from core Hamiltonian diagonalization
 Mixing HOMO and LUMO in initial guess
 Adding  50% of the LUMO to the HOMO
 An unrestricted hybrid HF-DFT SCF calculation will be
 performed using Pulay DIIS extrapolation
 Exchange:     0.2000 Hartree-Fock + 0.0800 Slater + 0.7200 B88
 Correlation:  0.1900 VWN1RPA + 0.8100 LYP
 Using SG-1 standard quadrature grid
 SCF converges when DIIS error is below 1.0E-08
 using 4 threads for integral computing
 -------------------------------------------------------
 OpenMP Integral computing Module                
 Release: version 1.0, May 2013, Q-Chem Inc. Pittsburgh 
 -------------------------------------------------------
 -------------------------------------------------------
 OpenMP BLAS3 based DFT computing Module                
 Release: version 1.0, May 2013, Q-Chem Inc. Pittsburgh 
 -------------------------------------------------------
 ---------------------------------------
  Cycle       Energy         DIIS Error
 ---------------------------------------
    1    -240.3630025964      1.30E-01
    2    -241.5705564633      1.02E-01
    3    -280.7306571555      4.96E-02
    4    -283.2206645247      4.28E-02
    5    -286.3317581250      1.60E-02
    6    -286.7185806884      9.51E-03
    7    -286.8414281082      3.01E-03
    8    -286.8568986022      8.10E-04
    9    -286.8581563813      2.62E-04
   10    -286.8583822448      7.82E-05
   11    -286.8584377865      3.81E-05
   12    -286.8584631383      9.01E-06
   13    -286.8584703008      5.52E-06
   14    -286.8584726112      2.39E-06
   15    -286.8584728369      7.59E-07
   16    -286.8584728455      1.36E-07
   17    -286.8584728457      4.98E-08
   18    -286.8584728457      1.65E-08
   19    -286.8584728457      3.64E-09 Convergence criterion met
 ---------------------------------------
 <S^2> = 0.7737
 SCF time:  CPU 49.72 s  wall 40.64 s
 SCF   energy in the final basis set = -286.85847285
 Total energy in the final basis set = -286.85847285
 
 --------------------------------------------------------------
 
                    Orbital Energies (a.u.)
 --------------------------------------------------------------
 
 Alpha MOs
 -- Occupied --
-14.317 -10.216 -10.216 -10.215 -10.215 -10.215 -10.215  -0.960
 -0.896  -0.750  -0.643  -0.635  -0.589  -0.545  -0.482  -0.471
 -0.465  -0.408  -0.395  -0.365  -0.338  -0.299  -0.298  -0.227
 -0.173
 -- Virtual --
  0.016   0.089   0.114   0.142   0.143   0.153   0.159   0.166
  0.198   0.211   0.232   0.274   0.291   0.304   0.321   0.388
  0.526   0.528   0.540   0.541   0.564   0.589   0.592   0.595
  0.615   0.617   0.632   0.656   0.672   0.735   0.791   0.802
  0.814   0.838   0.854   0.854   0.882   0.888   0.925   0.938
  0.958   0.983   1.144   1.156   1.165   1.197   1.256   1.370
  1.413   1.457   1.489   1.500   1.582   1.617   1.647   1.677
  1.740   1.742   1.860   1.868   1.877   1.916   1.993   2.025
  2.037   2.134   2.160   2.202   2.247   2.287   2.358   2.468
  2.473   2.484   2.526   2.578   2.596   2.609   2.624   2.690
  2.733   2.772   2.804   2.989   3.152   4.017   4.114   4.179
  4.381   4.454   4.461   4.550
 
 Beta MOs
 -- Occupied --
-14.320 -10.216 -10.216 -10.213 -10.213 -10.207 -10.207  -0.955
 -0.894  -0.738  -0.631  -0.630  -0.584  -0.542  -0.476  -0.466
 -0.464  -0.405  -0.377  -0.362  -0.323  -0.298  -0.294  -0.227
 -- Virtual --
 -0.064   0.036   0.091   0.120   0.144   0.144   0.161   0.165
  0.170   0.210   0.213   0.235   0.277   0.300   0.308   0.329
  0.393   0.528   0.534   0.547   0.563   0.567   0.592   0.599
  0.605   0.621   0.639   0.652   0.659   0.678   0.740   0.795
  0.804   0.817   0.842   0.847   0.857   0.883   0.897   0.931
  0.942   0.962   0.992   1.147   1.157   1.167   1.199   1.256
  1.387   1.420   1.457   1.497   1.515   1.583   1.633   1.660
  1.684   1.748   1.750   1.863   1.881   1.886   1.920   1.999
  2.030   2.050   2.143   2.164   2.224   2.256   2.297   2.374
  2.475   2.477   2.497   2.541   2.583   2.597   2.618   2.625
  2.694   2.736   2.776   2.810   2.991   3.157   4.013   4.130
  4.191   4.384   4.459   4.472   4.552
 --------------------------------------------------------------
 
          Ground-State Mulliken Net Atomic Charges

     Atom                 Charge (a.u.)    Spin (a.u.)
  --------------------------------------------------------
      1 C                     0.076357       0.597269
      2 C                    -0.221100      -0.053277
      3 C                    -0.089918       0.094698
      4 C                    -0.221043      -0.053336
      5 C                     0.076606       0.597233
      6 N                    -0.395196      -0.205395
      7 H                     0.135618      -0.032056
      8 H                     0.142110       0.000515
      9 H                     0.154204      -0.004290
     10 H                     0.142136       0.000518
     11 H                     0.135567      -0.032056
     12 C                    -0.089548       0.094457
     13 H                     0.154207      -0.004280
  --------------------------------------------------------
  Sum of atomic charges =    -0.000000
  Sum of spin   charges =     1.000000

 -----------------------------------------------------------------
                    Cartesian Multipole Moments
 -----------------------------------------------------------------
    Charge (ESU x 10^10)
                -0.0000
    Dipole Moment (Debye)
         X      -1.5273      Y      -2.5051      Z       0.5431
       Tot       2.9838
    Quadrupole Moments (Debye-Ang)
        XX     -37.8474     XY      -3.6679     YY     -41.7566
        XZ       0.5167     YZ       0.2714     ZZ     -41.3484
    Octopole Moments (Debye-Ang^2)
       XXX     -11.0161    XXY     -10.6261    XYY     -13.6857
       YYY     -30.2148    XXZ       1.8878    XYZ       1.3575
       YYZ       2.3388    XZZ      -6.7051    YZZ     -10.6857
       ZZZ       6.9182
    Hexadecapole Moments (Debye-Ang^3)
      XXXX    -271.4466   XXXY     -26.3384   XXYY    -109.9485
      XYYY     -42.9172   YYYY    -340.2740   XXXZ       8.6541
      XXYZ       9.2150   XYYZ       9.0376   YYYZ      27.2151
      XXZZ     -68.1632   XYZZ      -4.2447   YYZZ     -71.2948
      XZZZ       7.4134   YZZZ      22.1482   ZZZZ     -99.5437
 -----------------------------------------------------------------
 Calculating analytic gradient of the SCF energy
 Gradient of SCF Energy
            1           2           3           4           5           6
    1   0.0000057  -0.0000082   0.0001779  -0.0000103  -0.0000293  -0.0000008
    2   0.0000357  -0.0000088  -0.0001478   0.0000128  -0.0000013  -0.0000123
    3  -0.0000128  -0.0000576  -0.0000348   0.0001497  -0.0000065   0.0000160
            7           8           9          10          11          12
    1   0.0000007   0.0000046  -0.0000370  -0.0000017  -0.0000250  -0.0001225
    2   0.0000233   0.0000057   0.0000225  -0.0000071  -0.0000155   0.0001219
    3   0.0000298  -0.0000019   0.0000015   0.0000108  -0.0000554  -0.0000420
           13
    1   0.0000459
    2  -0.0000292
    3   0.0000030
 Max gradient component =       1.779E-04
 RMS gradient           =       5.677E-05
 Gradient time:  CPU 7.46 s  wall 3.14 s

STARTING FREEZING STRING ITERATION # 1
 The distance between the innermost nodes (Angstroms): 1.688
-Adding two new nodes
 The distance between the previous and current R_nodes (Angstroms): 0.0845
 The distance between the previous and current P_nodes (Angstroms): 0.0825
-Optimizing new reactant side node
 Using BFGS, step: 2 E_tol 0.0035
 max_steps 6, node_spacing 0.0804, sigma 0.7000
 ----------------------------------------------------------------
             Standard Nuclear Orientation (Angstroms)
    I     Atom           X                Y                Z
 ----------------------------------------------------------------
    1      C       1.6731591579     0.3816666783    -0.2298609310
    2      C       1.0987541647    -0.8468105749    -0.2796461484
    3      C      -0.3455871248    -1.0573815179    -0.0970202114
    4      C      -1.1486449664     0.3409977059     0.0797607222
    5      C      -0.3187612274     1.5379129991    -0.1515254980
    6      N       0.9694069507     1.5821760045    -0.2111844391
    7      H       2.7495900825     0.4918111198    -0.3332257135
    8      H       1.7057332786    -1.7212808859    -0.5015497510
    9      H      -0.8097522232    -1.8929986754    -0.6220442122
   10      H      -2.1753453193     0.4151387862    -0.2833721491
   11      H      -0.8557419978     2.4705350314    -0.3403425062
   12      C      -0.9031782751    -0.6061391113     1.1738769921
   13      H      -1.6423831439    -1.0967467379     1.7956764715
 ----------------------------------------------------------------
 Nuclear Repulsion Energy =   269.3909362998 hartrees
 There are       25 alpha and       24 beta electrons

                       Distance Matrix (Angstroms)
             C (  1)   C (  2)   C (  3)   C (  4)   C (  5)   N (  6)
   C (  2)  1.357047
   C (  3)  2.482709  1.470991
   C (  4)  2.839031  2.567268  1.622226
   C (  5)  2.304515  2.777170  2.596005  1.474723
   N (  6)  1.391703  2.433391  2.951187  2.472108  1.290308
   H (  7)  1.086977  2.126038  3.469281  3.922950  3.246864  2.091134
   H (  8)  2.120675  1.087365  2.193701  3.569088  3.852718  3.396957
   H (  9)  3.390097  2.203212  1.090576  2.366034  3.497658  3.925691
   H ( 10)  3.849022  3.508883  2.356068  1.091548  2.173686  3.355094
   H ( 11)  3.281908  3.850782  3.572906  2.190253  1.092604  2.033970
   C ( 12)  3.095764  2.485636  1.459352  1.467792  2.587507  3.195887
   H ( 13)  4.157082  3.447211  2.294674  2.292434  3.533412  4.245653
             H (  7)   H (  8)   H (  9)   H ( 10)   H ( 11)   C ( 12)
   H (  8)  2.452702
   H (  9)  4.294142  2.524217
   H ( 10)  4.925784  4.435613  2.703154
   H ( 11)  4.112641  4.915126  4.372859  2.443205
   C ( 12)  4.101167  3.294999  2.211350  2.187463  3.429436
   H ( 13)  5.132755  4.108184  2.678183  2.625317  4.231652  1.083399

 
 Applying Cartesian multipole field
    Component          Value
    ---------          -----
     (2,0,0)        1.00000E-11
     (0,2,0)        2.00000E-11
     (0,0,2)       -3.00000E-11
 Nucleus-field energy     =     0.0000000052 hartrees
 Requested basis set is 6-31G(d)
 There are 40 shells and 117 basis functions
 A cutoff of  1.0D-14 yielded    805 shell pairs
 There are      7077 function pairs
 Smallest overlap matrix eigenvalue = 1.44E-03
 Guess MOs from core Hamiltonian diagonalization
 Mixing HOMO and LUMO in initial guess
 Adding  50% of the LUMO to the HOMO
 An unrestricted hybrid HF-DFT SCF calculation will be
 performed using Pulay DIIS extrapolation
 Exchange:     0.2000 Hartree-Fock + 0.0800 Slater + 0.7200 B88
 Correlation:  0.1900 VWN1RPA + 0.8100 LYP
 Using SG-1 standard quadrature grid
 SCF converges when DIIS error is below 1.0E-08
 using 4 threads for integral computing
 -------------------------------------------------------
 OpenMP Integral computing Module                
 Release: version 1.0, May 2013, Q-Chem Inc. Pittsburgh 
 -------------------------------------------------------
 -------------------------------------------------------
 OpenMP BLAS3 based DFT computing Module                
 Release: version 1.0, May 2013, Q-Chem Inc. Pittsburgh 
 -------------------------------------------------------
 ---------------------------------------
  Cycle       Energy         DIIS Error
 ---------------------------------------
    1    -237.9884538906      1.30E-01
    2    -233.1346744282      1.00E-01
    3    -251.1185046285      1.07E-01
    4    -279.9782313873      6.22E-02
    5    -282.0729574969      4.57E-02
    6    -286.2331112368      1.63E-02
    7    -286.2626725410      1.71E-02
    8    -286.8358010264      2.87E-03
    9    -286.8524757250      1.07E-03
   10    -286.8541951370      3.87E-04
   11    -286.8544640686      6.31E-05
   12    -286.8544767629      1.12E-05
   13    -286.8544782856      8.56E-06
   14    -286.8544786687      2.41E-06
   15    -286.8544788137      9.22E-07
   16    -286.8544788743      3.19E-07
   17    -286.8544789175      1.13E-07
   18    -286.8544789398      6.77E-08
   19    -286.8544789543      4.82E-08
   20    -286.8544789603      2.43E-08
   21    -286.8544789630      8.03E-09 Convergence criterion met
 ---------------------------------------
 <S^2> = 0.7532
 SCF time:  CPU 54.84 s  wall 37.69 s
 SCF   energy in the final basis set = -286.85447896
 Total energy in the final basis set = -286.85447896
 
 --------------------------------------------------------------
 
                    Orbital Energies (a.u.)
 --------------------------------------------------------------
 
 Alpha MOs
 -- Occupied --
-14.323 -10.230 -10.223 -10.221 -10.218 -10.207 -10.196  -0.935
 -0.869  -0.764  -0.666  -0.641  -0.571  -0.533  -0.490  -0.482
 -0.451  -0.426  -0.376  -0.374  -0.358  -0.300  -0.255  -0.231
 -0.217
 -- Virtual --
 -0.032   0.050   0.085   0.130   0.137   0.152   0.156   0.173
  0.184   0.226   0.242   0.286   0.294   0.328   0.398   0.436
  0.506   0.510   0.531   0.550   0.557   0.582   0.591   0.604
  0.617   0.628   0.648   0.668   0.671   0.713   0.753   0.805
  0.831   0.845   0.860   0.867   0.878   0.896   0.903   0.925
  0.941   1.002   1.077   1.100   1.113   1.171   1.211   1.330
  1.353   1.440   1.492   1.520   1.546   1.570   1.601   1.701
  1.726   1.781   1.816   1.830   1.896   1.910   1.947   2.020
  2.037   2.056   2.145   2.208   2.225   2.239   2.289   2.342
  2.441   2.474   2.504   2.533   2.550   2.577   2.634   2.674
  2.729   2.799   2.837   3.019   3.234   4.030   4.112   4.141
  4.281   4.321   4.395   4.608
 
 Beta MOs
 -- Occupied --
-14.322 -10.229 -10.223 -10.221 -10.207 -10.204 -10.195  -0.933
 -0.859  -0.762  -0.659  -0.639  -0.556  -0.528  -0.487  -0.473
 -0.448  -0.423  -0.374  -0.371  -0.350  -0.291  -0.250  -0.224
 -- Virtual --
 -0.071  -0.030   0.053   0.091   0.132   0.138   0.155   0.162
  0.178   0.186   0.231   0.244   0.291   0.308   0.330   0.401
  0.438   0.512   0.533   0.542   0.555   0.563   0.588   0.594
  0.609   0.622   0.638   0.650   0.672   0.673   0.719   0.766
  0.807   0.833   0.847   0.861   0.869   0.883   0.901   0.906
  0.926   0.945   1.015   1.079   1.105   1.118   1.176   1.213
  1.333   1.355   1.447   1.499   1.524   1.549   1.573   1.608
  1.706   1.731   1.800   1.821   1.833   1.917   1.929   1.958
  2.025   2.042   2.066   2.156   2.218   2.235   2.249   2.295
  2.352   2.445   2.479   2.515   2.538   2.553   2.587   2.637
  2.675   2.734   2.809   2.848   3.019   3.235   4.031   4.117
  4.142   4.306   4.324   4.399   4.610
 --------------------------------------------------------------
 
          Ground-State Mulliken Net Atomic Charges

     Atom                 Charge (a.u.)    Spin (a.u.)
  --------------------------------------------------------
      1 C                    -0.006643      -0.016495
      2 C                    -0.087903       0.044896
      3 C                    -0.171607      -0.018803
      4 C                    -0.195274      -0.015880
      5 C                     0.089016       0.014529
      6 N                    -0.392166       0.004687
      7 H                     0.137048       0.000785
      8 H                     0.139060       0.003887
      9 H                     0.155895       0.014889
     10 H                     0.155920       0.023671
     11 H                     0.142827       0.005872
     12 C                    -0.123138       0.959983
     13 H                     0.156966      -0.022020
  --------------------------------------------------------
  Sum of atomic charges =     0.000000
  Sum of spin   charges =     1.000000

 -----------------------------------------------------------------
                    Cartesian Multipole Moments
 -----------------------------------------------------------------
    Charge (ESU x 10^10)
                 0.0000
    Dipole Moment (Debye)
         X      -1.9725      Y      -2.0410      Z      -0.2575
       Tot       2.8500
    Quadrupole Moments (Debye-Ang)
        XX     -37.1295     XY      -3.0170     YY     -41.4515
        XZ      -0.4891     YZ       0.4010     ZZ     -42.3235
    Octopole Moments (Debye-Ang^2)
       XXX     -13.6395    XXY     -10.4558    XYY     -13.9495
       YYY     -28.2272    XXZ      -1.4854    XYZ       3.2596
       YYZ      -2.1785    XZZ      -7.9239    YZZ      -8.2860
       ZZZ      -2.6894
    Hexadecapole Moments (Debye-Ang^3)
      XXXX    -319.2817   XXXY     -19.5912   XXYY    -114.8362
      XYYY     -40.7328   YYYY    -336.1911   XXXZ      32.9044
      XXYZ       4.2787   XYYZ      13.5589   YYYZ      22.3144
      XXZZ     -75.6765   XYZZ      -2.9280   YYZZ     -73.7023
      XZZZ      35.2085   YZZZ      15.8094   ZZZZ    -111.2845
 -----------------------------------------------------------------
 Calculating analytic gradient of the SCF energy
 Gradient of SCF Energy
            1           2           3           4           5           6
    1   0.0020238  -0.0045246  -0.0029684  -0.0007137  -0.0022677   0.0034360
    2   0.0072004  -0.0035788  -0.0017640   0.0002795  -0.0005645  -0.0017997
    3  -0.0008953   0.0068040  -0.0042554  -0.0013287   0.0006205   0.0006700
            7           8           9          10          11          12
    1   0.0000355  -0.0006363   0.0000323   0.0000104   0.0000054   0.0051990
    2   0.0001557  -0.0001925  -0.0000753  -0.0000353   0.0000618   0.0010413
    3  -0.0009117  -0.0001343   0.0004206  -0.0002856   0.0001873  -0.0003648
           13
    1   0.0003683
    2  -0.0007285
    3  -0.0005266
 Max gradient component =       7.200E-03
 RMS gradient           =       2.380E-03
 Gradient time:  CPU 7.88 s  wall 2.46 s
 ----------------------------------------------------------------
             Standard Nuclear Orientation (Angstroms)
    I     Atom           X                Y                Z
 ----------------------------------------------------------------
    1      C       1.6648678590     0.3566666783    -0.2255725674
    2      C       1.1128269009    -0.8339858477    -0.2991665634
    3      C      -0.3387725243    -1.0505471344    -0.0886401946
    4      C      -1.1456928783     0.3401307123     0.0834375015
    5      C      -0.3110793615     1.5406254303    -0.1554330286
    6      N       0.9569436690     1.5892969644    -0.2152552202
    7      H       2.7487402083     0.4907011629    -0.3281888662
    8      H       1.7060834827    -1.7216122073    -0.4916027962
    9      H      -0.8132836387    -1.8921186387    -0.6308083103
   10      H      -2.1766307545     0.4157826091    -0.2786752965
   11      H      -0.8561667259     2.4710948614    -0.3421723619
   12      C      -0.9163480837    -0.6110184299     1.1727055470
   13      H      -1.6342387588    -1.0961353974     1.7989146999
 ----------------------------------------------------------------
 Nuclear Repulsion Energy =   269.7580082843 hartrees
 There are       25 alpha and       24 beta electrons

                       Distance Matrix (Angstroms)
             C (  1)   C (  2)   C (  3)   C (  4)   C (  5)   N (  6)
   C (  2)  1.314465
   C (  3)  2.452259  1.482687
   C (  4)  2.827545  2.574072  1.617008
   C (  5)  2.304571  2.772534  2.592181  1.481495
   N (  6)  1.421492  2.429741  2.943414  2.463882  1.270366
   H (  7)  1.096939  2.105196  3.459128  3.919020  3.239550  2.104804
   H (  8)  2.095642  1.084834  2.189553  3.565681  3.850214  3.405833
   H (  9)  3.370829  2.222506  1.107858  2.367188  3.501703  3.927677
   H ( 10)  3.842320  3.518931  2.358805  1.095300  2.181912  3.346707
   H ( 11)  3.292418  3.847381  3.568464  2.192254  1.094425  2.020160
   C ( 12)  3.090999  2.516679  1.455257  1.464168  2.599976  3.205783
   H ( 13)  4.134403  3.466560  2.289798  2.290065  3.538747  4.240596
             H (  7)   H (  8)   H (  9)   H ( 10)   H ( 11)   C ( 12)
   H (  8)  2.451156
   H (  9)  4.296210  2.528964
   H ( 10)  4.926190  4.437259  2.703539
   H ( 11)  4.113090  4.915918  4.372960  2.443761
   C ( 12)  4.110881  3.298558  2.214611  2.179252  3.434807
   H ( 13)  5.123780  4.098225  2.685351  2.626112  4.232586  1.069039

 
 Applying Cartesian multipole field
    Component          Value
    ---------          -----
     (2,0,0)        1.00000E-11
     (0,2,0)        2.00000E-11
     (0,0,2)       -3.00000E-11
 Nucleus-field energy     =     0.0000000051 hartrees
 Requested basis set is 6-31G(d)
 There are 40 shells and 117 basis functions
 A cutoff of  1.0D-14 yielded    805 shell pairs
 There are      7077 function pairs
 Smallest overlap matrix eigenvalue = 1.42E-03
 Guess MOs from core Hamiltonian diagonalization
 Mixing HOMO and LUMO in initial guess
 Adding  50% of the LUMO to the HOMO
 An unrestricted hybrid HF-DFT SCF calculation will be
 performed using Pulay DIIS extrapolation
 Exchange:     0.2000 Hartree-Fock + 0.0800 Slater + 0.7200 B88
 Correlation:  0.1900 VWN1RPA + 0.8100 LYP
 Using SG-1 standard quadrature grid
 SCF converges when DIIS error is below 1.0E-08
 using 4 threads for integral computing
 -------------------------------------------------------
 OpenMP Integral computing Module                
 Release: version 1.0, May 2013, Q-Chem Inc. Pittsburgh 
 -------------------------------------------------------
 -------------------------------------------------------
 OpenMP BLAS3 based DFT computing Module                
 Release: version 1.0, May 2013, Q-Chem Inc. Pittsburgh 
 -------------------------------------------------------
 ---------------------------------------
  Cycle       Energy         DIIS Error
 ---------------------------------------
    1    -237.7788058093      1.30E-01
    2    -232.5873587464      1.01E-01
    3    -251.4620056308      1.06E-01
    4    -279.6556070406      6.40E-02
    5    -282.1598781191      4.56E-02
    6    -286.2118948990      1.59E-02
    7    -286.4876546753      1.41E-02
    8    -286.8296378955      3.39E-03
    9    -286.8506224506      1.01E-03
   10    -286.8521879385      3.55E-04
   11    -286.8524361214      7.56E-05
   12    -286.8524509771      3.26E-05
   13    -286.8524547201      7.25E-06
   14    -286.8524556470      3.23E-06
   15    -286.8524558538      1.17E-06
   16    -286.8524559556      2.63E-07
   17    -286.8524560036      1.53E-07
   18    -286.8524560182      5.32E-08
   19    -286.8524560294      3.19E-08
   20    -286.8524560362      1.67E-08
   21    -286.8524560371      5.13E-09 Convergence criterion met
 ---------------------------------------
 <S^2> = 0.7532
 SCF time:  CPU 54.79 s  wall 35.26 s
 SCF   energy in the final basis set = -286.85245604
 Total energy in the final basis set = -286.85245604
 
 --------------------------------------------------------------
 
                    Orbital Energies (a.u.)
 --------------------------------------------------------------
 
 Alpha MOs
 -- Occupied --
-14.323 -10.229 -10.224 -10.220 -10.216 -10.205 -10.193  -0.936
 -0.869  -0.771  -0.664  -0.639  -0.572  -0.530  -0.490  -0.484
 -0.456  -0.424  -0.377  -0.368  -0.357  -0.300  -0.258  -0.237
 -0.216
 -- Virtual --
 -0.026   0.052   0.086   0.127   0.137   0.154   0.156   0.173
  0.184   0.227   0.239   0.283   0.300   0.330   0.409   0.438
  0.498   0.507   0.526   0.551   0.556   0.579   0.593   0.605
  0.617   0.629   0.653   0.674   0.680   0.718   0.755   0.801
  0.830   0.841   0.855   0.869   0.882   0.897   0.907   0.920
  0.939   1.016   1.079   1.097   1.124   1.173   1.210   1.331
  1.354   1.430   1.490   1.522   1.541   1.574   1.610   1.696
  1.719   1.772   1.816   1.832   1.900   1.921   1.940   2.020
  2.038   2.055   2.158   2.216   2.226   2.236   2.302   2.354
  2.435   2.474   2.515   2.533   2.547   2.598   2.638   2.681
  2.748   2.807   2.849   3.029   3.242   4.021   4.111   4.149
  4.282   4.318   4.397   4.612
 
 Beta MOs
 -- Occupied --
-14.323 -10.229 -10.224 -10.220 -10.205 -10.202 -10.191  -0.935
 -0.859  -0.768  -0.656  -0.637  -0.558  -0.525  -0.486  -0.475
 -0.451  -0.421  -0.376  -0.365  -0.350  -0.290  -0.252  -0.232
 -- Virtual --
 -0.069  -0.024   0.055   0.091   0.128   0.138   0.156   0.162
  0.178   0.186   0.231   0.242   0.288   0.314   0.332   0.412
  0.440   0.501   0.529   0.542   0.557   0.562   0.586   0.597
  0.609   0.623   0.643   0.655   0.675   0.684   0.725   0.766
  0.803   0.831   0.843   0.856   0.870   0.885   0.905   0.909
  0.921   0.943   1.030   1.081   1.105   1.126   1.178   1.213
  1.333   1.355   1.435   1.499   1.527   1.544   1.577   1.616
  1.701   1.725   1.790   1.822   1.834   1.924   1.931   1.954
  2.024   2.044   2.066   2.170   2.223   2.235   2.250   2.306
  2.365   2.439   2.479   2.523   2.539   2.549   2.609   2.642
  2.682   2.752   2.816   2.859   3.029   3.243   4.021   4.116
  4.151   4.308   4.321   4.402   4.613
 --------------------------------------------------------------
 
          Ground-State Mulliken Net Atomic Charges

     Atom                 Charge (a.u.)    Spin (a.u.)
  --------------------------------------------------------
      1 C                    -0.017041      -0.013693
      2 C                    -0.072071       0.041513
      3 C                    -0.177789      -0.020003
      4 C                    -0.197428      -0.017851
      5 C                     0.096206       0.018684
      6 N                    -0.390852       0.003714
      7 H                     0.135765       0.000857
      8 H                     0.140290       0.003679
      9 H                     0.152214       0.017812
     10 H                     0.154006       0.024146
     11 H                     0.140662       0.006289
     12 C                    -0.121699       0.959888
     13 H                     0.157738      -0.025034
  --------------------------------------------------------
  Sum of atomic charges =    -0.000000
  Sum of spin   charges =     1.000000

 -----------------------------------------------------------------
                    Cartesian Multipole Moments
 -----------------------------------------------------------------
    Charge (ESU x 10^10)
                -0.0000
    Dipole Moment (Debye)
         X      -1.9062      Y      -2.0126      Z      -0.2157
       Tot       2.7804
    Quadrupole Moments (Debye-Ang)
        XX     -37.1817     XY      -3.0498     YY     -41.4456
        XZ      -0.4933     YZ       0.3742     ZZ     -42.2132
    Octopole Moments (Debye-Ang^2)
       XXX     -13.4638    XXY     -10.4930    XYY     -13.6982
       YYY     -28.1528    XXZ      -1.2054    XYZ       3.2788
       YYZ      -1.9713    XZZ      -7.8937    YZZ      -8.2739
       ZZZ      -2.3500
    Hexadecapole Moments (Debye-Ang^3)
      XXXX    -319.4384   XXXY     -19.0705   XXYY    -114.6354
      XYYY     -40.1963   YYYY    -336.0363   XXXZ      33.4136
      XXYZ       4.2930   XYYZ      13.7102   YYYZ      22.2967
      XXZZ     -75.5201   XYZZ      -2.6873   YYZZ     -73.5153
      XZZZ      35.4656   YZZZ      15.6999   ZZZZ    -110.9558
 -----------------------------------------------------------------
 Calculating analytic gradient of the SCF energy
 Gradient of SCF Energy
            1           2           3           4           5           6
    1  -0.0216807   0.0216102   0.0027185   0.0029845   0.0199350  -0.0224384
    2  -0.0451075   0.0344243   0.0057543   0.0010733  -0.0003681   0.0106465
    3   0.0015138   0.0005731   0.0067008   0.0017779  -0.0023177   0.0010266
            7           8           9          10          11          12
    1   0.0063399  -0.0025861  -0.0050874  -0.0025874   0.0001911  -0.0070233
    2   0.0016205   0.0005049  -0.0078026  -0.0002235   0.0003524  -0.0046797
    3  -0.0015662   0.0009611  -0.0045593   0.0003344  -0.0002437   0.0014761
           13
    1   0.0076240
    2   0.0038052
    3  -0.0056769
 Max gradient component =       4.511E-02
 RMS gradient           =       1.201E-02
 Gradient time:  CPU 7.38 s  wall 5.41 s
WARNING!!!!! energy has increased from optimization step!
 ----------------------------------------------------------------
             Standard Nuclear Orientation (Angstroms)
    I     Atom           X                Y                Z
 ----------------------------------------------------------------
    1      C       1.6794182616     0.3866768726    -0.2266603895
    2      C       1.0986248136    -0.8569314736    -0.2999989925
    3      C      -0.3402255865    -1.0544287381    -0.0924869302
    4      C      -1.1477202884     0.3393937431     0.0823436402
    5      C      -0.3243404855     1.5408090534    -0.1537347486
    6      N       0.9719070581     1.5821468039    -0.2157775704
    7      H       2.7445753580     0.4896890607    -0.3272736355
    8      H       1.7080002781    -1.7218433303    -0.4930851510
    9      H      -0.8095642118    -1.8869714124    -0.6271296128
   10      H      -2.1747927158     0.4158715298    -0.2792462237
   11      H      -0.8562714413     2.4707847236    -0.3419052551
   12      C      -0.9121757585    -0.6078067130     1.1719343031
   13      H      -1.6401858793    -1.0985093683     1.8025630874
 ----------------------------------------------------------------
 Nuclear Repulsion Energy =   269.0465796233 hartrees
 There are       25 alpha and       24 beta electrons

                       Distance Matrix (Angstroms)
             C (  1)   C (  2)   C (  3)   C (  4)   C (  5)   N (  6)
   C (  2)  1.374504
   C (  3)  2.484703  1.467091
   C (  4)  2.844368  2.573606  1.620295
   C (  5)  2.313523  2.792021  2.596009  1.475495
   N (  6)  1.389186  2.443819  2.947613  2.475102  1.298390
   H (  7)  1.074846  2.126801  3.457661  3.916675  3.248571  2.085245
   H (  8)  2.125478  1.075497  2.191153  3.568607  3.858817  3.396334
   H (  9)  3.394832  2.192985  1.095102  2.361017  3.494170  3.921432
   H ( 10)  3.854680  3.512224  2.358453  1.091547  2.169196  3.356478
   H ( 11)  3.284282  3.859672  3.571504  2.192660  1.087756  2.036620
   C ( 12)  3.108283  2.504390  1.457861  1.462832  2.592200  3.204904
   H ( 13)  4.164529  3.461244  2.298490  2.295483  3.539004  4.252369
             H (  7)   H (  8)   H (  9)   H ( 10)   H ( 11)   C ( 12)
   H (  8)  2.448031
   H (  9)  4.286063  2.526532
   H ( 10)  4.920156  4.437526  2.699622
   H ( 11)  4.109872  4.916958  4.367330  2.442354
   C ( 12)  4.101701  3.298286  2.209847  2.179001  3.431117
   H ( 13)  5.126862  4.107176  2.686077  2.629274  4.237113  1.080963

 
 Applying Cartesian multipole field
    Component          Value
    ---------          -----
     (2,0,0)        1.00000E-11
     (0,2,0)        2.00000E-11
     (0,0,2)       -3.00000E-11
 Nucleus-field energy     =     0.0000000052 hartrees
 Requested basis set is 6-31G(d)
 There are 40 shells and 117 basis functions
 A cutoff of  1.0D-14 yielded    805 shell pairs
 There are      7077 function pairs
 Smallest overlap matrix eigenvalue = 1.49E-03
 Guess MOs from core Hamiltonian diagonalization
 Mixing HOMO and LUMO in initial guess
 Adding  50% of the LUMO to the HOMO
 An unrestricted hybrid HF-DFT SCF calculation will be
 performed using Pulay DIIS extrapolation
 Exchange:     0.2000 Hartree-Fock + 0.0800 Slater + 0.7200 B88
 Correlation:  0.1900 VWN1RPA + 0.8100 LYP
 Using SG-1 standard quadrature grid
 SCF converges when DIIS error is below 1.0E-08
 using 4 threads for integral computing
 -------------------------------------------------------
 OpenMP Integral computing Module                
 Release: version 1.0, May 2013, Q-Chem Inc. Pittsburgh 
 -------------------------------------------------------
 -------------------------------------------------------
 OpenMP BLAS3 based DFT computing Module                
 Release: version 1.0, May 2013, Q-Chem Inc. Pittsburgh 
 -------------------------------------------------------
 ---------------------------------------
  Cycle       Energy         DIIS Error
 ---------------------------------------
    1    -238.0380970364      1.30E-01
    2    -232.6252840694      1.01E-01
    3    -251.0557753188      1.06E-01
    4    -279.7525581689      6.31E-02
    5    -282.0267796821      4.62E-02
    6    -285.9938849664      1.81E-02
    7    -286.4622370458      1.44E-02
    8    -286.8141296080      4.52E-03
    9    -286.8514747541      1.13E-03
   10    -286.8535154826      4.01E-04
   11    -286.8538693117      8.75E-05
   12    -286.8538893220      4.27E-05
   13    -286.8538955057      9.35E-06
   14    -286.8538970681      4.87E-06
   15    -286.8538976041      1.44E-06
   16    -286.8538979626      3.84E-07
   17    -286.8538981550      2.81E-07
   18    -286.8538982432      1.23E-07
   19    -286.8538983207      6.48E-08
   20    -286.8538983455      2.69E-08
   21    -286.8538983490      9.76E-09 Convergence criterion met
 ---------------------------------------
 <S^2> = 0.7533
 SCF time:  CPU 55.01 s  wall 34.35 s
 SCF   energy in the final basis set = -286.85389835
 Total energy in the final basis set = -286.85389835
 
 --------------------------------------------------------------
 
                    Orbital Energies (a.u.)
 --------------------------------------------------------------
 
 Alpha MOs
 -- Occupied --
-14.323 -10.230 -10.223 -10.221 -10.218 -10.207 -10.196  -0.933
 -0.869  -0.763  -0.668  -0.640  -0.571  -0.532  -0.493  -0.483
 -0.450  -0.426  -0.377  -0.373  -0.359  -0.300  -0.255  -0.228
 -0.216
 -- Virtual --
 -0.035   0.048   0.086   0.133   0.136   0.152   0.156   0.174
  0.186   0.227   0.244   0.286   0.297   0.325   0.394   0.436
  0.505   0.509   0.532   0.550   0.556   0.581   0.591   0.603
  0.617   0.626   0.645   0.663   0.670   0.712   0.752   0.803
  0.833   0.844   0.864   0.870   0.880   0.896   0.906   0.928
  0.942   1.003   1.076   1.094   1.108   1.169   1.208   1.328
  1.354   1.425   1.490   1.520   1.543   1.565   1.606   1.704
  1.728   1.774   1.819   1.830   1.897   1.911   1.948   2.024
  2.033   2.054   2.141   2.200   2.220   2.244   2.287   2.338
  2.436   2.472   2.505   2.529   2.543   2.576   2.630   2.672
  2.725   2.800   2.835   3.011   3.225   4.024   4.109   4.137
  4.277   4.321   4.394   4.607
 
 Beta MOs
 -- Occupied --
-14.323 -10.230 -10.224 -10.221 -10.208 -10.203 -10.195  -0.931
 -0.859  -0.761  -0.660  -0.638  -0.556  -0.527  -0.490  -0.473
 -0.446  -0.423  -0.374  -0.372  -0.351  -0.292  -0.250  -0.222
 -- Virtual --
 -0.070  -0.032   0.051   0.092   0.135   0.137   0.155   0.162
  0.179   0.188   0.232   0.246   0.291   0.311   0.328   0.397
  0.438   0.512   0.534   0.542   0.555   0.563   0.587   0.594
  0.609   0.622   0.636   0.647   0.668   0.672   0.718   0.765
  0.806   0.835   0.846   0.865   0.872   0.885   0.902   0.909
  0.930   0.945   1.016   1.078   1.100   1.113   1.175   1.210
  1.331   1.356   1.430   1.498   1.524   1.546   1.568   1.613
  1.709   1.734   1.794   1.825   1.832   1.913   1.932   1.960
  2.028   2.038   2.063   2.153   2.209   2.231   2.253   2.293
  2.347   2.440   2.477   2.515   2.535   2.545   2.586   2.634
  2.673   2.731   2.810   2.846   3.011   3.226   4.024   4.114
  4.138   4.302   4.324   4.399   4.608
 --------------------------------------------------------------
 
          Ground-State Mulliken Net Atomic Charges

     Atom                 Charge (a.u.)    Spin (a.u.)
  --------------------------------------------------------
      1 C                    -0.006063      -0.018211
      2 C                    -0.090540       0.047828
      3 C                    -0.172402      -0.020007
      4 C                    -0.194155      -0.018927
      5 C                     0.086882       0.015316
      6 N                    -0.392923       0.004718
      7 H                     0.137940       0.000837
      8 H                     0.140572       0.003036
      9 H                     0.154112       0.016515
     10 H                     0.155449       0.024784
     11 H                     0.144888       0.005656
     12 C                    -0.121754       0.962118
     13 H                     0.157993      -0.023664
  --------------------------------------------------------
  Sum of atomic charges =     0.000000
  Sum of spin   charges =     1.000000

 -----------------------------------------------------------------
                    Cartesian Multipole Moments
 -----------------------------------------------------------------
    Charge (ESU x 10^10)
                -0.0000
    Dipole Moment (Debye)
         X      -1.9604      Y      -2.0218      Z      -0.2128
       Tot       2.8242
    Quadrupole Moments (Debye-Ang)
        XX     -37.0629     XY      -3.0994     YY     -41.4359
        XZ      -0.4948     YZ       0.3618     ZZ     -42.3096
    Octopole Moments (Debye-Ang^2)
       XXX     -13.3922    XXY     -10.4973    XYY     -13.9267
       YYY     -27.9788    XXZ      -1.2491    XYZ       3.3167
       YYZ      -1.9889    XZZ      -8.0420    YZZ      -8.3398
       ZZZ      -2.2039
    Hexadecapole Moments (Debye-Ang^3)
      XXXX    -319.6291   XXXY     -19.8780   XXYY    -114.9160
      XYYY     -41.2604   YYYY    -336.5673   XXXZ      33.3269
      XXYZ       4.2158   XYYZ      13.7564   YYYZ      22.0879
      XXZZ     -75.7909   XYZZ      -2.8162   YYZZ     -73.8420
      XZZZ      35.5436   YZZZ      15.5860   ZZZZ    -111.3340
 -----------------------------------------------------------------
 Calculating analytic gradient of the SCF energy
 Gradient of SCF Energy
            1           2           3           4           5           6
    1   0.0176028  -0.0075898   0.0006226   0.0012717  -0.0132569   0.0108978
    2   0.0225627  -0.0267009   0.0046881  -0.0036218   0.0041583  -0.0028017
    3   0.0018597  -0.0026155   0.0018690  -0.0000987  -0.0008461  -0.0003635
            7           8           9          10          11          12
    1  -0.0083405  -0.0042192  -0.0004133   0.0002063   0.0014592   0.0000752
    2  -0.0015064   0.0064051  -0.0016395   0.0003648  -0.0020636   0.0001429
    3  -0.0002864   0.0029845  -0.0013636   0.0005371   0.0011193  -0.0021229
           13
    1   0.0016841
    2   0.0000120
    3  -0.0006730
 Max gradient component =       2.670E-02
 RMS gradient           =       7.375E-03
 Gradient time:  CPU 7.90 s  wall 3.08 s
 FSM gradient convergence criteria satisfied
done with opt_step_by_gradient, Reactant, iter1
-Optimizing new product side node
 Using BFGS, step: 2 E_tol 0.0035406
 max_steps 6, node_spacing 0.0804041, sigma 0.7000000
 ----------------------------------------------------------------
             Standard Nuclear Orientation (Angstroms)
    I     Atom           X                Y                Z
 ----------------------------------------------------------------
    1      C       1.5824156766     0.4202669511    -0.1622397185
    2      C       0.8332010701    -0.8250154171     0.0923292551
    3      C      -0.5453448032    -0.9823683155    -0.5160731127
    4      C      -1.1179102178     0.3326922954     0.0013323208
    5      C      -0.3567815379     1.5744553307    -0.2694219188
    6      N       0.9705573446     1.5930596787    -0.3389535796
    7      H       2.6693536409     0.4058836241    -0.2121656162
    8      H       1.4132139538    -1.7387454834     0.2109815659
    9      H      -0.9829651706    -1.7773580611    -1.1039902898
   10      H      -2.2035928861     0.4116055242     0.0228452743
   11      H      -0.8845497608     2.5137009228    -0.4251321719
   12      C      -0.4993136642    -0.7062964450     0.9160636054
   13      H      -0.8802600074    -1.2241700085     1.7852040755
 ----------------------------------------------------------------
 Nuclear Repulsion Energy =   276.6257116464 hartrees
 There are       25 alpha and       24 beta electrons

                       Distance Matrix (Angstroms)
             C (  1)   C (  2)   C (  3)   C (  4)   C (  5)   N (  6)
   C (  2)  1.475417
   C (  3)  2.572926  1.515025
   C (  4)  2.706693  2.270551  1.524770
   C (  5)  2.259231  2.702662  2.575605  1.481418
   N (  6)  1.334557  2.460073  2.993687  2.462929  1.329289
   H (  7)  1.088179  2.231431  3.514810  3.793983  3.244431  2.076384
   H (  8)  2.197557  1.088759  2.221861  3.277407  3.786947  3.405774
   H (  9)  3.506798  2.374152  1.081280  2.385846  3.510451  3.970044
   H ( 10)  3.790540  3.279661  2.232349  1.088759  2.201897  3.406165
   H ( 11)  3.246151  3.790180  3.513663  2.234531  1.088562  2.072783
   C ( 12)  2.601054  1.571060  1.459229  1.516210  2.574397  3.003769
   H ( 13)  3.544218  2.441536  2.338058  2.379600  3.511100  3.984263
             H (  7)   H (  8)   H (  9)   H ( 10)   H ( 11)   C ( 12)
   H (  8)  2.521185
   H (  9)  4.347566  2.733554
   H ( 10)  4.878614  4.211971  2.747954
   H ( 11)  4.137448  4.875209  4.345540  2.521778
   C ( 12)  3.542640  2.284919  2.337030  2.225334  3.509358
   H ( 13)  4.387063  2.828955  2.943469  2.744609  4.342497  1.081073

 
 Applying Cartesian multipole field
    Component          Value
    ---------          -----
     (2,0,0)        1.00000E-11
     (0,2,0)        2.00000E-11
     (0,0,2)       -3.00000E-11
 Nucleus-field energy     =     0.0000000050 hartrees
 Requested basis set is 6-31G(d)
 There are 40 shells and 117 basis functions
 A cutoff of  1.0D-14 yielded    808 shell pairs
 There are      7080 function pairs
 Smallest overlap matrix eigenvalue = 1.60E-03
 Guess MOs from core Hamiltonian diagonalization
 Mixing HOMO and LUMO in initial guess
 Adding  50% of the LUMO to the HOMO
 An unrestricted hybrid HF-DFT SCF calculation will be
 performed using Pulay DIIS extrapolation
 Exchange:     0.2000 Hartree-Fock + 0.0800 Slater + 0.7200 B88
 Correlation:  0.1900 VWN1RPA + 0.8100 LYP
 Using SG-1 standard quadrature grid
 SCF converges when DIIS error is below 1.0E-08
 using 4 threads for integral computing
 -------------------------------------------------------
 OpenMP Integral computing Module                
 Release: version 1.0, May 2013, Q-Chem Inc. Pittsburgh 
 -------------------------------------------------------
 -------------------------------------------------------
 OpenMP BLAS3 based DFT computing Module                
 Release: version 1.0, May 2013, Q-Chem Inc. Pittsburgh 
 -------------------------------------------------------
 ---------------------------------------
  Cycle       Energy         DIIS Error
 ---------------------------------------
    1    -240.6825803983      1.29E-01
    2    -241.6508829365      1.02E-01
    3    -281.0270593539      4.79E-02
    4    -283.3589581466      4.28E-02
    5    -286.4504494800      1.38E-02
    6    -286.7157047019      9.12E-03
    7    -286.8441985404      2.72E-03
    8    -286.8557548175      7.88E-04
    9    -286.8570031815      2.28E-04
   10    -286.8572539521      6.20E-05
   11    -286.8573333643      3.58E-05
   12    -286.8573638988      9.76E-06
   13    -286.8573731648      6.18E-06
   14    -286.8573772261      3.13E-06
   15    -286.8573773845      9.72E-07
   16    -286.8573773886      4.27E-07
   17    -286.8573773893      5.10E-08
   18    -286.8573773894      1.53E-08
   19    -286.8573773894      8.69E-09 Convergence criterion met
 ---------------------------------------
 <S^2> = 0.7735
 SCF time:  CPU 49.98 s  wall 38.64 s
 SCF   energy in the final basis set = -286.85737739
 Total energy in the final basis set = -286.85737739
 
 --------------------------------------------------------------
 
                    Orbital Energies (a.u.)
 --------------------------------------------------------------
 
 Alpha MOs
 -- Occupied --
-14.317 -10.218 -10.217 -10.216 -10.215 -10.215 -10.215  -0.956
 -0.894  -0.751  -0.642  -0.637  -0.587  -0.544  -0.482  -0.472
 -0.465  -0.409  -0.394  -0.365  -0.336  -0.301  -0.295  -0.228
 -0.172
 -- Virtual --
  0.015   0.089   0.114   0.140   0.142   0.152   0.158   0.165
  0.191   0.210   0.230   0.273   0.292   0.303   0.323   0.390
  0.524   0.530   0.540   0.541   0.557   0.588   0.589   0.593
  0.614   0.618   0.631   0.655   0.672   0.733   0.793   0.803
  0.815   0.838   0.854   0.856   0.883   0.890   0.923   0.938
  0.956   0.982   1.142   1.157   1.167   1.189   1.254   1.368
  1.414   1.459   1.488   1.500   1.582   1.607   1.637   1.679
  1.742   1.746   1.833   1.874   1.881   1.911   1.990   2.023
  2.040   2.121   2.158   2.198   2.244   2.279   2.357   2.460
  2.475   2.484   2.524   2.578   2.584   2.605   2.624   2.686
  2.729   2.764   2.799   2.990   3.155   4.018   4.114   4.174
  4.375   4.447   4.460   4.551
 
 Beta MOs
 -- Occupied --
-14.320 -10.219 -10.217 -10.215 -10.214 -10.207 -10.207  -0.952
 -0.891  -0.739  -0.632  -0.630  -0.582  -0.541  -0.476  -0.466
 -0.463  -0.406  -0.377  -0.362  -0.321  -0.298  -0.292  -0.229
 -- Virtual --
 -0.064   0.033   0.091   0.121   0.142   0.144   0.159   0.165
  0.169   0.202   0.213   0.233   0.277   0.301   0.307   0.331
  0.394   0.526   0.537   0.548   0.558   0.564   0.591   0.596
  0.603   0.621   0.638   0.652   0.659   0.678   0.738   0.796
  0.804   0.818   0.842   0.847   0.858   0.884   0.898   0.928
  0.942   0.960   0.991   1.145   1.158   1.170   1.190   1.253
  1.384   1.421   1.459   1.497   1.515   1.583   1.623   1.651
  1.686   1.750   1.755   1.838   1.884   1.889   1.913   1.995
  2.028   2.053   2.129   2.163   2.220   2.254   2.289   2.372
  2.469   2.479   2.496   2.539   2.582   2.586   2.613   2.626
  2.690   2.732   2.768   2.805   2.993   3.159   4.014   4.129
  4.184   4.379   4.453   4.470   4.553
 --------------------------------------------------------------
 
          Ground-State Mulliken Net Atomic Charges

     Atom                 Charge (a.u.)    Spin (a.u.)
  --------------------------------------------------------
      1 C                     0.076345       0.598093
      2 C                    -0.221026      -0.057999
      3 C                    -0.085800       0.093096
      4 C                    -0.219240      -0.051953
      5 C                     0.077545       0.585714
      6 N                    -0.395495      -0.203782
      7 H                     0.136263      -0.032180
      8 H                     0.143498       0.000772
      9 H                     0.153892      -0.004238
     10 H                     0.142984       0.000519
     11 H                     0.135299      -0.031492
     12 C                    -0.099619       0.108328
     13 H                     0.155354      -0.004878
  --------------------------------------------------------
  Sum of atomic charges =     0.000000
  Sum of spin   charges =     1.000000

 -----------------------------------------------------------------
                    Cartesian Multipole Moments
 -----------------------------------------------------------------
    Charge (ESU x 10^10)
                 0.0000
    Dipole Moment (Debye)
         X      -1.5454      Y      -2.5247      Z       0.4684
       Tot       2.9970
    Quadrupole Moments (Debye-Ang)
        XX     -37.7294     XY      -3.6583     YY     -41.7401
        XZ       0.3575     YZ       0.2851     ZZ     -41.4660
    Octopole Moments (Debye-Ang^2)
       XXX     -11.0709    XXY     -10.7096    XYY     -13.6835
       YYY     -30.3538    XXZ       1.7227    XYZ       1.5339
       YYZ       2.1116    XZZ      -6.8765    YZZ     -10.5681
       ZZZ       6.4149
    Hexadecapole Moments (Debye-Ang^3)
      XXXX    -273.2970   XXXY     -26.3000   XXYY    -110.1124
      XYYY     -42.9284   YYYY    -340.5429   XXXZ       9.6274
      XXYZ       8.9228   XYYZ       9.0781   YYYZ      27.0450
      XXZZ     -68.5117   XYZZ      -4.0708   YYZZ     -71.4698
      XZZZ       8.1706   YZZZ      21.7404   ZZZZ     -99.6520
 -----------------------------------------------------------------
 Calculating analytic gradient of the SCF energy
 Gradient of SCF Energy
            1           2           3           4           5           6
    1   0.0003679   0.0151691   0.0009121  -0.0011383   0.0004783  -0.0011439
    2  -0.0028622   0.0004821  -0.0013594   0.0016292  -0.0008864   0.0011076
    3   0.0005503  -0.0083111   0.0002916   0.0005063   0.0002670   0.0003976
            7           8           9          10          11          12
    1   0.0000273   0.0011330   0.0003060  -0.0000983  -0.0000770  -0.0142348
    2   0.0000504  -0.0001254  -0.0005017   0.0001262  -0.0000346   0.0020901
    3  -0.0004895  -0.0019765   0.0008904  -0.0001506  -0.0000262   0.0083005
           13
    1  -0.0017013
    2   0.0002841
    3  -0.0002499
 Max gradient component =       1.517E-02
 RMS gradient           =       3.937E-03
 Gradient time:  CPU 7.63 s  wall 2.92 s
 ----------------------------------------------------------------
             Standard Nuclear Orientation (Angstroms)
    I     Atom           X                Y                Z
 ----------------------------------------------------------------
    1      C       1.5836023448     0.4258678099    -0.1648266032
    2      C       0.8082010701    -0.8268368759     0.1035515848
    3      C      -0.5448939691    -0.9809894166    -0.5114019546
    4      C      -1.1162340087     0.3299938412     0.0015589937
    5      C      -0.3570103279     1.5759492792    -0.2678875854
    6      N       0.9728613578     1.5912245247    -0.3374912943
    7      H       2.6711999840     0.4078687900    -0.2135231173
    8      H       1.4181722757    -1.7393398699     0.2027692096
    9      H      -0.9815258724    -1.7796800419    -1.0979353397
   10      H      -2.2041905087     0.4122773530     0.0174843740
   11      H      -0.8838656812     2.5133417810    -0.4234850435
   12      C      -0.4772518747    -0.7087882819     0.9043331029
   13      H      -0.8910411460    -1.2231783376     1.7876332563
 ----------------------------------------------------------------
 Nuclear Repulsion Energy =   277.3498994658 hartrees
 There are       25 alpha and       24 beta electrons

                       Distance Matrix (Angstroms)
             C (  1)   C (  2)   C (  3)   C (  4)   C (  5)   N (  6)
   C (  2)  1.497512
   C (  3)  2.574851  1.494255
   C (  4)  2.706657  2.247690  1.519288
   C (  5)  2.258160  2.696121  2.575371  1.483721
   N (  6)  1.326979  2.463464  2.991674  2.463732  1.331780
   H (  7)  1.088836  2.257388  3.515810  3.794335  3.246140  2.073657
   H (  8)  2.202412  1.102076  2.222333  3.278085  3.789978  3.403358
   H (  9)  3.509276  2.356821  1.082855  2.382805  3.512726  3.970000
   H ( 10)  3.792202  3.258422  2.230287  1.091180  2.201737  3.407284
   H ( 11)  3.242353  3.781223  3.511835  2.236440  1.086504  2.074881
   C ( 12)  2.584118  1.519071  1.443251  1.517355  2.570717  2.989150
   H ( 13)  3.557431  2.425003  2.337528  2.377628  3.513612  3.988878
             H (  7)   H (  8)   H (  9)   H ( 10)   H ( 11)   C ( 12)
   H (  8)  2.520691
   H (  9)  4.348559  2.729837
   H ( 10)  4.880862  4.217262  2.746588
   H ( 11)  4.137100  4.876154  4.346775  2.520354
   C ( 12)  3.522680  2.268669  2.325979  2.241786  3.508640
   H ( 13)  4.399375  2.847926  2.940134  2.744541  4.341737  1.102741

 
 Applying Cartesian multipole field
    Component          Value
    ---------          -----
     (2,0,0)        1.00000E-11
     (0,2,0)        2.00000E-11
     (0,0,2)       -3.00000E-11
 Nucleus-field energy     =     0.0000000050 hartrees
 Requested basis set is 6-31G(d)
 There are 40 shells and 117 basis functions
 A cutoff of  1.0D-14 yielded    808 shell pairs
 There are      7080 function pairs
 Smallest overlap matrix eigenvalue = 1.56E-03
 Guess MOs from core Hamiltonian diagonalization
 Mixing HOMO and LUMO in initial guess
 Adding  50% of the LUMO to the HOMO
 An unrestricted hybrid HF-DFT SCF calculation will be
 performed using Pulay DIIS extrapolation
 Exchange:     0.2000 Hartree-Fock + 0.0800 Slater + 0.7200 B88
 Correlation:  0.1900 VWN1RPA + 0.8100 LYP
 Using SG-1 standard quadrature grid
 SCF converges when DIIS error is below 1.0E-08
 using 4 threads for integral computing
 -------------------------------------------------------
 OpenMP Integral computing Module                
 Release: version 1.0, May 2013, Q-Chem Inc. Pittsburgh 
 -------------------------------------------------------
 -------------------------------------------------------
 OpenMP BLAS3 based DFT computing Module                
 Release: version 1.0, May 2013, Q-Chem Inc. Pittsburgh 
 -------------------------------------------------------
 ---------------------------------------
  Cycle       Energy         DIIS Error
 ---------------------------------------
    1    -239.9538882231      1.30E-01
    2    -241.5098919873      1.02E-01
    3    -279.8465924845      5.27E-02
    4    -282.1023501571      4.41E-02
    5    -283.0773893029      3.85E-02
    6    -286.3406686572      1.80E-02
    7    -286.8278388450      3.92E-03
    8    -286.8438308530      2.49E-03
    9    -286.8543355909      1.10E-03
   10    -286.8569156332      1.55E-04
   11    -286.8569938317      8.69E-05
   12    -286.8570203512      2.09E-05
   13    -286.8570280562      9.50E-06
   14    -286.8570306661      4.95E-06
   15    -286.8570311886      1.69E-06
   16    -286.8570312265      7.57E-07
   17    -286.8570312286      2.26E-07
   18    -286.8570312288      5.28E-08
   19    -286.8570312288      1.17E-08
   20    -286.8570312288      1.94E-09 Convergence criterion met
 ---------------------------------------
 <S^2> = 0.7736
 SCF time:  CPU 52.47 s  wall 32.99 s
 SCF   energy in the final basis set = -286.85703123
 Total energy in the final basis set = -286.85703123
 
 --------------------------------------------------------------
 
                    Orbital Energies (a.u.)
 --------------------------------------------------------------
 
 Alpha MOs
 -- Occupied --
-14.316 -10.217 -10.216 -10.216 -10.215 -10.215 -10.213  -0.963
 -0.899  -0.749  -0.644  -0.634  -0.586  -0.544  -0.483  -0.472
 -0.462  -0.407  -0.394  -0.368  -0.337  -0.301  -0.298  -0.226
 -0.173
 -- Virtual --
  0.017   0.086   0.117   0.138   0.143   0.153   0.158   0.165
  0.200   0.212   0.233   0.275   0.290   0.303   0.319   0.386
  0.525   0.531   0.543   0.544   0.567   0.588   0.591   0.602
  0.613   0.617   0.632   0.657   0.674   0.736   0.785   0.797
  0.810   0.835   0.852   0.854   0.883   0.888   0.922   0.936
  0.951   0.985   1.146   1.159   1.174   1.194   1.255   1.371
  1.412   1.453   1.493   1.502   1.576   1.615   1.650   1.675
  1.730   1.742   1.860   1.871   1.886   1.919   1.990   2.027
  2.045   2.134   2.163   2.206   2.255   2.290   2.358   2.467
  2.473   2.482   2.529   2.580   2.600   2.610   2.623   2.690
  2.731   2.783   2.808   2.988   3.153   4.018   4.112   4.177
  4.377   4.453   4.465   4.552
 
 Beta MOs
 -- Occupied --
-14.320 -10.218 -10.216 -10.214 -10.212 -10.207 -10.207  -0.959
 -0.896  -0.737  -0.632  -0.629  -0.581  -0.542  -0.477  -0.467
 -0.460  -0.403  -0.376  -0.365  -0.323  -0.300  -0.294  -0.226
 -- Virtual --
 -0.064   0.037   0.087   0.124   0.141   0.144   0.161   0.164
  0.169   0.212   0.215   0.236   0.278   0.299   0.306   0.327
  0.391   0.529   0.535   0.551   0.568   0.570   0.591   0.597
  0.609   0.619   0.639   0.652   0.660   0.680   0.741   0.789
  0.799   0.812   0.840   0.847   0.854   0.884   0.896   0.927
  0.941   0.954   0.994   1.148   1.160   1.176   1.195   1.255
  1.388   1.419   1.453   1.501   1.517   1.577   1.631   1.663
  1.682   1.737   1.753   1.866   1.879   1.895   1.923   1.996
  2.032   2.058   2.143   2.168   2.227   2.264   2.301   2.375
  2.474   2.479   2.494   2.545   2.585   2.602   2.618   2.625
  2.693   2.734   2.788   2.814   2.990   3.157   4.014   4.128
  4.188   4.380   4.459   4.476   4.553
 --------------------------------------------------------------
 
          Ground-State Mulliken Net Atomic Charges

     Atom                 Charge (a.u.)    Spin (a.u.)
  --------------------------------------------------------
      1 C                     0.074339       0.596459
[...]

     Atom                 Charge (a.u.)    Spin (a.u.)
  --------------------------------------------------------
      1 C                     0.058956       0.538854
      2 C                    -0.187313      -0.177310
      3 C                    -0.072464       0.054509
      4 C                    -0.215893      -0.034141
      5 C                     0.087837       0.418498
      6 N                    -0.388781      -0.161959
      7 H                     0.139036      -0.029815
      8 H                     0.148406       0.009658
      9 H                     0.152215      -0.003256
     10 H                     0.145097       0.007635
     11 H                     0.137271      -0.021847
     12 C                    -0.162218       0.410503
     13 H                     0.157853      -0.011328
  --------------------------------------------------------
  Sum of atomic charges =    -0.000000
  Sum of spin   charges =     1.000000

 -----------------------------------------------------------------
                    Cartesian Multipole Moments
 -----------------------------------------------------------------
    Charge (ESU x 10^10)
                -0.0000
    Dipole Moment (Debye)
         X      -1.5826      Y      -2.4173      Z      -0.0780
       Tot       2.8903
    Quadrupole Moments (Debye-Ang)
        XX     -37.2561     XY      -3.5444     YY     -41.3457
        XZ      -0.2336     YZ       0.4952     ZZ     -42.2876
    Octopole Moments (Debye-Ang^2)
       XXX     -11.5325    XXY     -10.8231    XYY     -13.5769
       YYY     -29.7301    XXZ       0.9178    XYZ       2.5032
       YYZ       0.7375    XZZ      -7.7448    YZZ      -9.4327
       ZZZ       3.0563
    Hexadecapole Moments (Debye-Ang^3)
      XXXX    -282.8749   XXXY     -25.1592   XXYY    -110.1633
      XYYY     -43.1306   YYYY    -339.5876   XXXZ      17.5114
      XXYZ       7.3201   XYYZ       9.9847   YYYZ      26.7195
      XXZZ     -70.1282   XYZZ      -3.5434   YYZZ     -72.8531
      XZZZ      15.2581   YZZZ      20.2125   ZZZZ    -103.3658
 -----------------------------------------------------------------
 Calculating analytic gradient of the SCF energy
 Gradient of SCF Energy
            1           2           3           4           5           6
    1  -0.0038000   0.0023873   0.0019170   0.0109018   0.0078275  -0.0082928
    2   0.0035181   0.0051722  -0.0006853  -0.0025632   0.0039444  -0.0059752
    3  -0.0006031  -0.0057181   0.0060899   0.0022576   0.0003799   0.0034261
            7           8           9          10          11          12
    1   0.0059920   0.0074070   0.0027604  -0.0079379   0.0009604  -0.0102836
    2   0.0009889  -0.0046845  -0.0018472   0.0014068  -0.0022066   0.0015886
    3  -0.0037187  -0.0089267   0.0060503  -0.0047506   0.0012435   0.0046269
           13
    1  -0.0098391
    2   0.0013431
    3  -0.0003569
 Max gradient component =       1.090E-02
 RMS gradient           =       5.153E-03
 Gradient time:  CPU 7.52 s  wall 3.64 s
 ----------------------------------------------------------------
             Standard Nuclear Orientation (Angstroms)
    I     Atom           X                Y                Z
 ----------------------------------------------------------------
    1      C       1.6043008295     0.4118355539    -0.1960072731
    2      C       0.9222579773    -0.8354116057    -0.0598604494
    3      C      -0.5018886684    -1.0074486894    -0.3907337640
    4      C      -1.1054225791     0.3305462157     0.0329371323
    5      C      -0.3360611948     1.5708098583    -0.2352725356
    6      N       0.9610504947     1.5939891311    -0.3127415704
    7      H       2.6993036553     0.4414789026    -0.2135545668
    8      H       1.5448062360    -1.7413250974    -0.0446367068
    9      H      -0.9417640884    -1.8335679993    -0.9329716647
   10      H      -2.1979667658     0.4108735564    -0.0947642467
   11      H      -0.8761329877     2.5018913561    -0.3826308667
   12      C      -0.6124503906    -0.6810517273     1.0193377526
   13      H      -1.1705499738    -1.1705345684     1.8122087857
 ----------------------------------------------------------------
 Nuclear Repulsion Energy =   274.5890531125 hartrees
 There are       25 alpha and       24 beta electrons

                       Distance Matrix (Angstroms)
             C (  1)   C (  2)   C (  3)   C (  4)   C (  5)   N (  6)
   C (  2)  1.428056
   C (  3)  2.547218  1.472164
   C (  4)  2.720593  2.340845  1.527737
   C (  5)  2.260480  2.721036  2.588259  1.483950
   N (  6)  1.350883  2.442835  2.985591  2.446649  1.299630
   H (  7)  1.095545  2.193619  3.518297  3.814316  3.238719  2.087976
   H (  8)  2.159295  1.099308  2.201663  3.364875  3.813691  3.396612
   H (  9)  3.473816  2.287623  1.081659  2.375532  3.527527  3.969073
   H ( 10)  3.803615  3.360096  2.230676  1.102911  2.198155  3.380335
   H ( 11)  3.248956  3.804732  3.529248  2.222613  1.086418  2.050467
   C ( 12)  2.754170  1.882505  1.451572  1.496442  2.592551  3.070204
   H ( 13)  3.773145  2.827861  2.307956  2.328796  3.521863  4.086775
             H (  7)   H (  8)   H (  9)   H ( 10)   H ( 11)   C ( 12)
   H (  8)  2.475082
   H (  9)  4.353249  2.642098
   H ( 10)  4.898807  4.317733  2.705209
   H ( 11)  4.130089  4.896945  4.370743  2.490475
   C ( 12)  3.707804  2.628684  2.290907  2.224272  3.488004
   H ( 13)  4.655972  3.338688  2.833368  2.681974  4.288440  1.086146

 
 Applying Cartesian multipole field
    Component          Value
    ---------          -----
     (2,0,0)        1.00000E-11
     (0,2,0)        2.00000E-11
     (0,0,2)       -3.00000E-11
 Nucleus-field energy     =     0.0000000050 hartrees
 Requested basis set is 6-31G(d)
 There are 40 shells and 117 basis functions
 A cutoff of  1.0D-14 yielded    808 shell pairs
 There are      7080 function pairs
 Smallest overlap matrix eigenvalue = 1.51E-03
 Guess MOs from core Hamiltonian diagonalization
 Mixing HOMO and LUMO in initial guess
 Adding  50% of the LUMO to the HOMO
 An unrestricted hybrid HF-DFT SCF calculation will be
 performed using Pulay DIIS extrapolation
 Exchange:     0.2000 Hartree-Fock + 0.0800 Slater + 0.7200 B88
 Correlation:  0.1900 VWN1RPA + 0.8100 LYP
 Using SG-1 standard quadrature grid
 SCF converges when DIIS error is below 1.0E-08
 using 4 threads for integral computing
 -------------------------------------------------------
 OpenMP Integral computing Module                
 Release: version 1.0, May 2013, Q-Chem Inc. Pittsburgh 
 -------------------------------------------------------
 -------------------------------------------------------
 OpenMP BLAS3 based DFT computing Module                
 Release: version 1.0, May 2013, Q-Chem Inc. Pittsburgh 
 -------------------------------------------------------
 ---------------------------------------
  Cycle       Energy         DIIS Error
 ---------------------------------------
    1    -239.6677340511      1.30E-01
    2    -235.9246914065      1.02E-01
    3    -263.2576277928      9.79E-02
    4    -267.1717437790      9.84E-02
    5    -280.3818975596      5.04E-02
    6    -286.3252593099      1.59E-02
    7    -286.2524343448      1.62E-02
    8    -286.8080222520      3.60E-03
    9    -286.8210334501      2.41E-03
   10    -286.8299603251      4.70E-04
   11    -286.8305177107      1.72E-04
   12    -286.8306465501      8.40E-05
   13    -286.8307000131      1.82E-05
   14    -286.8307157758      9.79E-06
   15    -286.8307222771      4.48E-06
   16    -286.8307254275      2.40E-06
   17    -286.8307264628      1.58E-06
   18    -286.8307267421      3.17E-07
   19    -286.8307267663      1.58E-07
   20    -286.8307267676      4.25E-08
   21    -286.8307267677      1.93E-08
   22    -286.8307267677      9.79E-09 Convergence criterion met
 ---------------------------------------
 <S^2> = 0.7878
 SCF time:  CPU 57.50 s  wall 35.33 s
 SCF   energy in the final basis set = -286.83072677
 Total energy in the final basis set = -286.83072677
 
 --------------------------------------------------------------
 
                    Orbital Energies (a.u.)
 --------------------------------------------------------------
 
 Alpha MOs
 -- Occupied --
-14.319 -10.228 -10.220 -10.217 -10.216 -10.215 -10.215  -0.950
 -0.889  -0.757  -0.651  -0.640  -0.578  -0.542  -0.482  -0.479
 -0.462  -0.418  -0.391  -0.369  -0.340  -0.308  -0.271  -0.235
 -0.169
 -- Virtual --
 -0.016   0.072   0.088   0.131   0.141   0.151   0.158   0.166
  0.174   0.216   0.231   0.272   0.295   0.320   0.345   0.400
  0.517   0.525   0.531   0.545   0.564   0.581   0.588   0.597
  0.618   0.622   0.651   0.664   0.681   0.725   0.793   0.804
  0.821   0.834   0.852   0.858   0.883   0.887   0.909   0.929
  0.957   0.987   1.123   1.149   1.170   1.187   1.231   1.337
  1.418   1.435   1.468   1.509   1.547   1.587   1.634   1.650
  1.740   1.767   1.811   1.854   1.876   1.929   1.980   2.057
  2.075   2.112   2.150   2.195   2.263   2.281   2.352   2.396
  2.445   2.484   2.517   2.543   2.581   2.586   2.648   2.675
  2.708   2.771   2.807   3.008   3.201   4.027   4.116   4.158
  4.350   4.408   4.436   4.559
 
 Beta MOs
 -- Occupied --
-14.322 -10.230 -10.216 -10.214 -10.214 -10.210 -10.208  -0.946
 -0.885  -0.749  -0.645  -0.633  -0.568  -0.538  -0.477  -0.473
 -0.460  -0.415  -0.378  -0.363  -0.332  -0.301  -0.260  -0.229
 -- Virtual --
 -0.070  -0.002   0.086   0.095   0.134   0.145   0.156   0.163
  0.171   0.180   0.220   0.234   0.278   0.301   0.325   0.351
  0.403   0.528   0.531   0.541   0.560   0.571   0.586   0.593
  0.603   0.629   0.645   0.655   0.667   0.687   0.729   0.795
  0.806   0.826   0.838   0.850   0.858   0.886   0.889   0.914
  0.933   0.962   0.993   1.126   1.153   1.172   1.192   1.233
  1.346   1.425   1.444   1.473   1.516   1.561   1.592   1.646
  1.657   1.747   1.775   1.827   1.862   1.883   1.938   1.989
  2.060   2.082   2.118   2.165   2.206   2.274   2.293   2.364
  2.405   2.453   2.490   2.525   2.554   2.584   2.595   2.652
  2.678   2.712   2.774   2.816   3.010   3.205   4.025   4.127
  4.168   4.362   4.413   4.444   4.561
 --------------------------------------------------------------
 
          Ground-State Mulliken Net Atomic Charges

     Atom                 Charge (a.u.)    Spin (a.u.)
  --------------------------------------------------------
      1 C                     0.057782       0.530004
      2 C                    -0.184440      -0.184831
      3 C                    -0.074242       0.052319
      4 C                    -0.215238      -0.033414
      5 C                     0.088529       0.405282
      6 N                    -0.389017      -0.158261
      7 H                     0.139072      -0.029344
      8 H                     0.148555       0.010254
      9 H                     0.152145      -0.003133
     10 H                     0.145283       0.008436
     11 H                     0.137461      -0.021032
     12 C                    -0.163462       0.435559
     13 H                     0.157572      -0.011838
  --------------------------------------------------------
  Sum of atomic charges =     0.000000
  Sum of spin   charges =     1.000000

 -----------------------------------------------------------------
                    Cartesian Multipole Moments
 -----------------------------------------------------------------
    Charge (ESU x 10^10)
                 0.0000
    Dipole Moment (Debye)
         X      -1.5854      Y      -2.4062      Z      -0.0844
       Tot       2.8828
    Quadrupole Moments (Debye-Ang)
        XX     -37.2649     XY      -3.5471     YY     -41.3237
        XZ      -0.2175     YZ       0.4914     ZZ     -42.2935
    Octopole Moments (Debye-Ang^2)
       XXX     -11.5300    XXY     -10.7874    XYY     -13.5572
       YYY     -29.6909    XXZ       0.9183    XYZ       2.4915
       YYZ       0.7535    XZZ      -7.7456    YZZ      -9.4249
       ZZZ       3.0537
    Hexadecapole Moments (Debye-Ang^3)
      XXXX    -283.2835   XXXY     -25.0514   XXYY    -110.1769
      XYYY     -43.1086   YYYY    -339.4437   XXXZ      17.8138
      XXYZ       7.2798   XYYZ      10.0847   YYYZ      26.6490
      XXZZ     -70.2371   XYZZ      -3.5238   YYZZ     -72.8385
      XZZZ      15.5620   YZZZ      20.1446   ZZZZ    -103.4838
 -----------------------------------------------------------------
 Calculating analytic gradient of the SCF energy
 Gradient of SCF Energy
            1           2           3           4           5           6
    1  -0.0038039   0.0013632   0.0015930   0.0110089   0.0077326  -0.0081068
    2   0.0039282   0.0050370  -0.0006061  -0.0026341   0.0040297  -0.0060872
    3  -0.0004671  -0.0041380   0.0053521   0.0019422   0.0003021   0.0034577
            7           8           9          10          11          12
    1   0.0058021   0.0068085   0.0025524  -0.0078622   0.0009707  -0.0090665
    2   0.0009142  -0.0044852  -0.0019944   0.0013296  -0.0022060   0.0013510
    3  -0.0039451  -0.0084063   0.0058111  -0.0045417   0.0013252   0.0041440
           13
    1  -0.0089921
    2   0.0014232
    3  -0.0008362
 Max gradient component =       1.101E-02
 RMS gradient           =       4.901E-03
 Gradient time:  CPU 7.98 s  wall 3.93 s
 E1 = -286.8310741, E2 = -286.8307268, Emax = -286.8308929
 Iteration 5, Curvature = -0.4721517
 Curvature, final (in Hartree/Bohr^2) = -0.1322160
 ----------------------------------------------------------------
             Standard Nuclear Orientation (Angstroms)
    I     Atom           X                Y                Z
 ----------------------------------------------------------------
    1      C       1.6041001713     0.4124601055    -0.1959801189
    2      C       0.9203244669    -0.8355582367    -0.0564339379
    3      C      -0.5028087141    -1.0071786346    -0.3922306455
    4      C      -1.1052996143     0.3304174311     0.0323992583
    5      C      -0.3362619147     1.5708174677    -0.2353610001
    6      N       0.9614482169     1.5940005767    -0.3126539607
    7      H       2.6992889997     0.4414080412    -0.2139272908
    8      H       1.5440040730    -1.7412304212    -0.0438515339
    9      H      -0.9421645054    -1.8338821053    -0.9334326489
   10      H      -2.1979696549     0.4107982313    -0.0944797290
   11      H      -0.8761602931     2.5019908624    -0.3825426840
   12      C      -0.6098811495    -0.6814948502     1.0183102516
   13      H      -1.1691334947    -1.1704608475     1.8114963040
 ----------------------------------------------------------------
 Nuclear Repulsion Energy =   274.6201602983 hartrees
 There are       25 alpha and       24 beta electrons
 Requested basis set is 6-31G(d)
 There are 40 shells and 117 basis functions
 Geometry Optimization Parameters
   NAtoms,    NIC,     NZ,  NCons,   NDum,   NFix, NCnnct, MaxDiis
       13     127       0       0       0       0       0       0


** GEOMETRY OPTIMIZATION IN DELOCALIZED INTERNAL COORDINATES **
   Searching for a Minimum

   Optimization Cycle:   1

                       Coordinates (Angstroms)
     ATOM                X               Y               Z
      1  C         1.6041001713    0.4124601055   -0.1959801189
      2  C         0.9203244669   -0.8355582367   -0.0564339379
      3  C        -0.5028087141   -1.0071786346   -0.3922306455
      4  C        -1.1052996143    0.3304174311    0.0323992583
      5  C        -0.3362619147    1.5708174677   -0.2353610001
      6  N         0.9614482169    1.5940005767   -0.3126539607
      7  H         2.6992889997    0.4414080412   -0.2139272908
      8  H         1.5440040730   -1.7412304212   -0.0438515339
      9  H        -0.9421645054   -1.8338821053   -0.9334326489
     10  H        -2.1979696549    0.4107982313   -0.0944797290
     11  H        -0.8761602931    2.5019908624   -0.3825426840
     12  C        -0.6098811495   -0.6814948502    1.0183102516
     13  H        -1.1691334947   -1.1704608475    1.8114963040
   Point Group: c1    Number of degrees of freedom:    33


   Energy is   -286.830726768


 Attempting to Generate Delocalized Internal Coordinates

 33 Hessian modes will be used to form the next step
  Hessian Eigenvalues:
     0.014585    0.015027    0.017819    0.019319    0.019342    0.020211
     0.021622    0.022182    0.031075    0.047886    0.069060    0.081431
     0.087346    0.096908    0.115735    0.131117    0.159995    0.160000
     0.178842    0.183085    0.235204    0.255091    0.305567    0.325025
     0.333586    0.337135    0.341601    0.351926    0.352335    0.358287
     0.393371    0.512635    0.630693

 Minimum Search - Taking Simple RFO Step
 Searching for Lamda that Minimizes Along All modes
 Value Taken    Lamda =  -0.00792890
 Calculated Step too Large.  Step scaled by  0.718007
 Step Taken.  Stepsize is  0.300000

                             Maximum     Tolerance    Cnvgd?
         Gradient           0.012958      0.000300      NO
         Displacement       0.153727      0.001200      NO
         Energy change     *********      0.000001      NO


 New Cartesian Coordinates Obtained by Inverse Iteration

 Displacement from previous Coordinates is:  0.303151
 ----------------------------------------------------------------
             Standard Nuclear Orientation (Angstroms)
    I     Atom           X                Y                Z
 ----------------------------------------------------------------
    1      C       1.5953338844     0.4067361017    -0.1897943789
    2      C       0.9086320669    -0.8397409949    -0.0649906087
    3      C      -0.5126109957    -0.9956759066    -0.4192020483
    4      C      -1.1069925506     0.3330125840     0.0367531990
    5      C      -0.3433821655     1.5702450987    -0.2598141450
    6      N       0.9595827628     1.5926281024    -0.3386283302
    7      H       2.6835607586     0.4311459777    -0.1477095139
    8      H       1.5213434727    -1.7402807548     0.0056334112
    9      H      -0.9667137477    -1.8040614407    -0.9805469258
   10      H      -2.1949569365     0.4108182279    -0.0421480633
   11      H      -0.8847285105     2.5024367666    -0.4149514210
   12      C      -0.5791075294    -0.6885768809     1.0010056585
   13      H      -1.0904739228    -1.1865992606     1.8157054302
 ----------------------------------------------------------------
 Nuclear Repulsion Energy =   275.0231131447 hartrees
 There are       25 alpha and       24 beta electrons

































 Eigenvalues after right structure
 -0.1724984 -0.0000000 -0.0000000 -0.0000000 0.0000000 0.0000000 0.0000031 0.0160312 0.0231824 0.0341767 0.0490261 0.0540865 0.0655877 0.0698006 0.0722902 0.0825437 0.0958944 0.1116941 0.1166653 0.1426503 0.1633142 0.2040343 0.2407586 0.2779386 0.2930027 0.3433101 0.4043064 0.4802637 0.5532487 0.6951141 0.8477842 0.9743202 1.0907370 1.1057854 1.1592567 1.3228726 1.3926277 1.5688035 1.7780490
Archival summary:
1\1\c8-73\JobtypUnspecified\ProcedureUnspecified\6-31G*\166(2)\hpark21\TueMar119:40:332022TueMar119:40:332022\0\\#,JobtypUnspecified,ProcedureUnspecified,6-31G*,\\0,2\N\C,1,1.30554\H,2,1.08908,1,118.217\C,1,1.35376,2,116.554,3,-177.611,0\H,4,1.08931,1,116.986,2,-173.652,0\C,4,1.42858,1,123.243,2,5.20786,0\H,6,1.0915,4,117.11,1,177.338,0\C,6,1.47299,4,122.355,1,15.6859,0\H,8,1.08388,6,127.426,4,135.888,0\C,8,1.45455,6,77.6998,4,-92.5739,0\H,10,1.08317,8,131.216,6,-129.116,0\C,2,1.48385,1,122.681,3,-179.726,0\H,12,1.09359,2,115.991,1,-172.856,0\\\@

 Total job time:  3497.79s(wall), 4693.07s(cpu) 
 Tue Mar  1 19:40:33 2022

        *************************************************************
        *                                                           *
        *  Thank you very much for using Q-Chem.  Have a nice day.  *
        *                                                           *
        *************************************************************


