
Running Job 1 of 1 qcirc.in
qchem qcirc.in_45938.0 ./qcirc.d/ 1
/home/leeping/opt/qchem/5.0.2-openmp/exe/qcprog.exe_s qcirc.in_45938.0 ./qcirc.d/
Check license passed

                  Welcome to Q-Chem
     A Quantum Leap Into The Future Of Chemistry


 Q-Chem 5.0, Q-Chem, Inc., Pleasanton, CA (2017)

 Yihan Shao,  Zhengting Gan,  E. Epifanovsky,  A. T. B. Gilbert,  M. Wormit,  
 J. Kussmann,  A. W. Lange,  A. Behn,  Jia Deng,  Xintian Feng,  D. Ghosh,  
 M. Goldey,  P. R. Horn,  L. D. Jacobson,  I. Kaliman,  T. Kus,  A. Landau,  
 Jie Liu,  E. I. Proynov,  R. M. Richard,  R. P. Steele,  E. J. Sundstrom,  
 H. L. Woodcock III,  P. M. Zimmerman,  D. Zuev,  B. Albrecht,  E. Alguire,  
 S. A. Baeppler,  D. Barton,  Z. Benda,  Y. A. Bernard,  E. J. Berquist,  
 K. B. Bravaya,  H. Burton,  D. Casanova,  Chun-Min Chang,  Yunqing Chen,  
 A. Chien,  K. D. Closser,  M. P. Coons,  S. Dasgupta,  A. L. Dempwolff,  
 M. Diedenhofen,  Hainam Do,  R. G. Edgar,  Po-Tung Fang,  S. Fatehi,  
 Qingguo Feng,  J. Fosso-Tande,  Qinghui Ge,  A. Ghysels,  G. Gidofalvi,  
 J. Gomes,  J. Gonthier,  A. Gunina,  M. W. D. Hanson-Heine,  
 P. H. P. Harbach,  A. W. Hauser,  J. E. Herr,  E. G. Hohenstein,  
 Z. C. Holden,  Kerwin Hui,  T.-C. Jagau,  Hyunjun Ji,  B. Kaduk,  
 K. Khistyaev,  Jaehoon Kim,  P. Klunzinger,  K. Koh,  D. Kosenkov,  
 L. Koulias,  T. Kowalczyk,  C. M. Krauter,  A. Kunitsa,  Ka Un Lao,  
 A. Laurent,  K. V. Lawler,  Joonho Lee,  D. Lefrancois,  S. Lehtola,  
 D. S. Levine,  Yi-Pei Li,  You-Sheng Lin,  Fenglai Liu,  E. Livshits,  
 A. Luenser,  P. Manohar,  E. Mansoor,  S. F. Manzer,  Shan-Ping Mao,  
 Yuezhi Mao,  N. Mardirossian,  A. V. Marenich,  T. Markovich,  
 L. A. Martinez-Martinez,  S. A. Maurer,  N. J. Mayhall,  S. C. McKenzie,  
 J.-M. Mewes,  A. F. Morrison,  J. W. Mullinax,  K. Nanda,  
 T. S. Nguyen-Beck,  R. Olivares-Amaya,  J. A. Parkhill,  T. M. Perrine,  
 F. Plasser,  S. Prager,  A. Prociuk,  E. Ramos,  D. R. Rehn,  F. Rob,  
 M. Schneider,  N. Sergueev,  S. M. Sharada,  S. Sharma,  D. W. Small,  
 T. Stauch,  T. Stein,  Yu-Chuan Su,  A. J. W. Thom,  A. Tkatchenko,  
 T. Tsuchimochi,  L. Vogt,  O. Vydrov,  M. A. Watson,  J. Wenzel,  
 M. de Wergifosse,  T. A. Wesolowski,  A. White,  J. Witte,  A. Yamada,  
 Jun Yang,  K. Yao,  S. Yeganeh,  S. R. Yost,  Zhi-Qiang You,  A. Zech,  
 Igor Ying Zhang,  Xing Zhang,  Yan Zhao,  Ying Zhu,  B. R. Brooks,  
 G. K. L. Chan,  C. J. Cramer,  M. S. Gordon,  W. J. Hehre,  A. Klamt,  
 M. W. Schmidt,  C. D. Sherrill,  D. G. Truhlar,  A. Aspuru-Guzik,  R. Baer,  
 A. T. Bell,  N. A. Besley,  Jeng-Da Chai,  R. A. DiStasio Jr.,  A. Dreuw,  
 B. D. Dunietz,  T. R. Furlani,  Chao-Ping Hsu,  Yousung Jung,  Jing Kong,  
 D. S. Lambrecht,  WanZhen Liang,  C. Ochsenfeld,  V. A. Rassolov,  
 L. V. Slipchenko,  J. E. Subotnik,  T. Van Voorhis,  J. M. Herbert,  
 A. I. Krylov,  P. M. W. Gill,  M. Head-Gordon

 Contributors to earlier versions of Q-Chem not listed above: 
 R. D. Adamson,  B. Austin,  J. Baker,  G. J. O. Beran,  K. Brandhorst,  
 S. T. Brown,  E. F. C. Byrd,  A. K. Chakraborty,  C.-L. Cheng,  
 Siu Hung Chien,  D. M. Chipman,  D. L. Crittenden,  H. Dachsel,  
 R. J. Doerksen,  A. D. Dutoi,  L. Fusti-Molnar,  W. A. Goddard III,  
 A. Golubeva-Zadorozhnaya,  S. R. Gwaltney,  G. Hawkins,  A. Heyden,  
 S. Hirata,  G. Kedziora,  F. J. Keil,  C. Kelley,  Jihan Kim,  R. A. King,  
 R. Z. Khaliullin,  P. P. Korambath,  W. Kurlancheek,  A. M. Lee,  M. S. Lee,  
 S. V. Levchenko,  Ching Yeh Lin,  D. Liotard,  R. C. Lochan,  I. Lotan,  
 P. E. Maslen,  N. Nair,  D. P. O'Neill,  D. Neuhauser,  E. Neuscamman,  
 C. M. Oana,  R. Olson,  B. Peters,  R. Peverati,  P. A. Pieniazek,  
 Y. M. Rhee,  J. Ritchie,  M. A. Rohrdanz,  E. Rosta,  N. J. Russ,  
 H. F. Schaefer III,  N. E. Schultz,  N. Shenvi,  A. C. Simmonett,  A. Sodt,  
 D. Stuck,  K. S. Thanthiriwatte,  V. Vanovschi,  Tao Wang,  A. Warshel,  
 C. F. Williams,  Q. Wu,  X. Xu,  W. Zhang

 Please cite Q-Chem as follows:
 Y. Shao et al., Mol. Phys. 113, 184-215 (2015)
 DOI: 10.1080/00268976.2014.952696

 Q-Chem 5.0.2 for Intel X86 EM64T Linux

 Parts of Q-Chem use Armadillo 5.200.1 (Boston Tea Smuggler).
 http://arma.sourceforge.net/

 Q-Chem begins on Tue Mar  1 20:42:21 2022  

Host: 
0

     Scratch files written to ./qcirc.d//
 Dec517 15110_ 26548  26544 5633   
Processing $rem in /home/leeping/opt/qchem/5.0.2-openmp/config/preferences.
 MEM_STATIC 2000
 MEM_TOTAL  8000
 SYMMETRY   OFF
 SYM_IGNORE TRUE 

Checking the input file for inconsistencies... 	...done.

--------------------------------------------------------------
User input:
--------------------------------------------------------------
$molecule
0 2
C        1.5984347897    0.3885287601   -0.1739450571
C        0.9424011772   -0.8446051493   -0.1757696699
C       -0.5066546816   -0.9919532158   -0.4031800304
C       -1.1200555247    0.3449233748    0.0855975749
C       -0.3459791143    1.5639288277   -0.2760550508
N        0.9495447869    1.5831455464   -0.3611205073
H        2.6661205843    0.4391808047    0.0133393687
H        1.5248361562   -1.7547741179   -0.0538157379
H       -0.9973499013   -1.7339315185   -1.0258078735
H       -2.2037119529    0.4310588253    0.0006652124
H       -0.8907344675    2.4711123322   -0.5366950965
C       -0.6326716826   -0.6962835615    1.0151240085
H       -0.9946935826   -1.2082432875    1.8929751225
$end

$rem
method                b3lyp
basis                 6-31+g(d,p)
unrestricted          true
symmetry              off
sym_ignore            true
incdft                false
incfock               0
scf_convergence       8
thresh                14
jobtype               rpath
scf_guess             core
scf_guess_mix         5
scf_algorithm         diis
max_scf_cycles        100
rpath_direction       1
rpath_tol_displacement 1000
rpath_max_cycles      50
geom_opt_max_cycles   300
geom_opt_hessian      read
$end

--------------------------------------------------------------
 ----------------------------------------------------------------
             Standard Nuclear Orientation (Angstroms)
    I     Atom           X                Y                Z
 ----------------------------------------------------------------
    1      C       1.5984347897     0.3885287601    -0.1739450571
    2      C       0.9424011772    -0.8446051493    -0.1757696699
    3      C      -0.5066546816    -0.9919532158    -0.4031800304
    4      C      -1.1200555247     0.3449233748     0.0855975749
    5      C      -0.3459791143     1.5639288277    -0.2760550508
    6      N       0.9495447869     1.5831455464    -0.3611205073
    7      H       2.6661205843     0.4391808047     0.0133393687
    8      H       1.5248361562    -1.7547741179    -0.0538157379
    9      H      -0.9973499013    -1.7339315185    -1.0258078735
   10      H      -2.2037119529     0.4310588253     0.0006652124
   11      H      -0.8907344675     2.4711123322    -0.5366950965
   12      C      -0.6326716826    -0.6962835615     1.0151240085
   13      H      -0.9946935826    -1.2082432875     1.8929751225
 ----------------------------------------------------------------
 Nuclear Repulsion Energy =   273.9150671200 hartrees
 There are       25 alpha and       24 beta electrons
 Requested basis set is 6-31+G(d,p)
 There are 53 shells and 163 basis functions

 Total QAlloc Memory Limit   8000 MB
 Mega-Array Size      1956 MB
 MEM_STATIC part      2000 MB
 Starting direction for rxn path = 1

                       Distance Matrix (Angstroms)
             C (  1)   C (  2)   C (  3)   C (  4)   C (  5)   N (  6)
   C (  2)  1.396783
   C (  3)  2.527782  1.474174
   C (  4)  2.731200  2.395207  1.549969
   C (  5)  2.274365  2.733316  2.564081  1.488610
   N (  6)  1.372298  2.434826  2.958618  2.452753  1.298456
   H (  7)  1.085170  2.157563  3.505444  3.788038  3.228243  2.096547
   H (  8)  2.147928  1.087433  2.197932  3.379884  3.816167  3.401045
   H (  9)  3.459567  2.296976  1.085808  2.360491  3.444168  3.903231
   H ( 10)  3.806392  3.399482  2.251235  1.090387  2.193431  3.376569
   H ( 11)  3.265686  3.805869  3.486856  2.227222  1.089804  2.050839
   C ( 12)  2.751098  1.980172  1.454265  1.478403  2.618758  3.097298
   H ( 13)  3.680510  2.857319  2.357391  2.386348  3.579170  4.080792
             H (  7)   H (  8)   H (  9)   H ( 10)   H ( 11)   C ( 12)
   H (  8)  2.473960
   H (  9)  4.384434  2.703077
   H ( 10)  4.869856  4.322373  2.682562
   H ( 11)  4.133098  4.891449  4.234736  2.484851
   C ( 12)  3.629722  2.630185  2.318428  2.183620  3.536543
   H ( 13)  4.432674  3.230591  2.965746  2.780265  4.410415  1.078789

 
 A cutoff of  1.0D-14 yielded   1389 shell pairs
 There are     13465 function pairs
 
 -------------------------------------------------------
 OpenMP Integral Computing Module                       
 Release: version 1.0, May 2013, Q-Chem Inc. Pittsburgh 
 -------------------------------------------------------
 Integral Job Info:
 Integral job number is                      11
 Integral operator is                         1
 short-range coefficients                     0
 long-range coefficients              100000000
 Omega coefficients                           0
 if combine SR and LR in K                    0
 Integral screening is                        0
 Integral computing path is                   2
 max size of driver memory is            800000
 size of driver memory is                593474
 size of scratch memory is              2361544
 max col of scratch BK array               1296
 max len of scratch array in speh3          155
 max len of scratch index in speh4           18
 max int batch size is                      520
 min int batch size is                       52
 fixed nKL is                                52
 max L of basis functions is                  2
 order of int derivative is                   0
 number of shells is                         53
 number of basis is                         163
 number of cartesian basis is               163
 number of contracted shell pairs          1389
 number of primitive shell pairs           4745
 maxK2 (contraction) of shell pair           36
 max number of K2 of shell pair               1
 max number of CS2 of shell pair            126
 max number of PS2 of shell pair            678
 mem total for path MDJ                  535308
 -------------------------------------------------------
 Smallest overlap matrix eigenvalue = 4.28E-05

 Scale SEOQF with 1.000000e-01/1.000000e-01/1.000000e-01

 Standard Electronic Orientation quadrupole field applied
 Nucleus-field energy     =     0.0000000049 hartrees
 Guess MOs from core Hamiltonian diagonalization
 Mixing HOMO and LUMO in initial guess
 Adding  50% of the LUMO to the HOMO
 An unrestricted hybrid HF-DFT SCF calculation will be
 performed using Pulay DIIS extrapolation
 Exchange:     0.2000 Hartree-Fock + 0.0800 Slater + 0.7200 B88
 Correlation:  0.1900 VWN1RPA + 0.8100 LYP
 Using SG-1 standard quadrature grid
 SCF converges when DIIS error is below 1.0E-08
 using 4 threads for integral computing
 -------------------------------------------------------
 OpenMP Integral computing Module                
 Release: version 1.0, May 2013, Q-Chem Inc. Pittsburgh 
 -------------------------------------------------------
 -------------------------------------------------------
 OpenMP BLAS3 based DFT computing Module                
 Release: version 1.0, May 2013, Q-Chem Inc. Pittsburgh 
 -------------------------------------------------------
 ---------------------------------------
  Cycle       Energy         DIIS Error
 ---------------------------------------
    1    -239.5367839272      9.46E-02
    2    -218.6314963716      6.88E-02
    3    -259.7243448790      7.31E-02
    4    -266.4538813300      7.17E-02
    5    -278.1204248921      4.16E-02
    6    -285.2522574748      1.98E-02
    7    -285.5816931715      1.68E-02
    8    -286.6730337200      6.57E-03
    9    -286.7359178845      5.64E-03
   10    -286.8500419233      1.23E-03
   11    -286.8536186234      8.39E-04
   12    -286.8559433643      1.29E-04
   13    -286.8560984810      5.91E-05
   14    -286.8561471390      2.89E-05
   15    -286.8561724822      1.24E-05
   16    -286.8561835665      5.45E-06
   17    -286.8561840438      2.78E-06
   18    -286.8561842170      1.19E-06
   19    -286.8561843398      1.85E-07
   20    -286.8561843427      4.95E-08
   21    -286.8561843432      2.37E-08
   22    -286.8561843434      7.16E-09 Convergence criterion met
 ---------------------------------------
 <S^2> = 0.7877
 SCF time:  CPU 111.66 s  wall 64.13 s
 SCF   energy in the final basis set = -286.85618434
 Total energy in the final basis set = -286.85618434
 
 --------------------------------------------------------------
 
                    Orbital Energies (a.u.)
 --------------------------------------------------------------
 
 Alpha MOs
 -- Occupied --
-14.335 -10.233 -10.229 -10.229 -10.227 -10.226 -10.221  -0.957
 -0.894  -0.769  -0.661  -0.650  -0.590  -0.546  -0.494  -0.491
 -0.473  -0.434  -0.390  -0.380  -0.355  -0.311  -0.277  -0.259
 -0.175
 -- Virtual --
 -0.041  -0.000   0.016   0.021   0.026   0.043   0.048   0.056
  0.065   0.076   0.081   0.087   0.097   0.104   0.116   0.118
  0.122   0.127   0.143   0.148   0.160   0.174   0.177   0.184
  0.191   0.197   0.205   0.213   0.224   0.238   0.252   0.258
  0.265   0.270   0.292   0.295   0.308   0.319   0.325   0.341
  0.352   0.375   0.470   0.496   0.616   0.638   0.650   0.672
  0.674   0.708   0.720   0.738   0.747   0.760   0.779   0.802
  0.839   0.856   0.872   0.905   0.936   0.945   0.961   0.983
  1.005   1.012   1.040   1.074   1.087   1.125   1.135   1.149
  1.170   1.204   1.289   1.325   1.363   1.382   1.450   1.494
  1.521   1.563   1.603   1.648   1.676   1.746   1.804   1.809
  1.854   1.878   1.943   2.000   2.016   2.054   2.062   2.112
  2.131   2.172   2.198   2.262   2.280   2.319   2.351   2.399
  2.424   2.449   2.452   2.467   2.484   2.495   2.526   2.545
  2.589   2.597   2.629   2.642   2.658   2.708   2.787   2.815
  2.879   2.935   2.993   3.169   3.180   3.282   3.293   3.377
  3.510   3.587   3.697   4.180   4.321   4.388   4.528   4.604
  4.661   4.730
 
 Beta MOs
 -- Occupied --
-14.337 -10.231 -10.229 -10.228 -10.228 -10.216 -10.215  -0.953
 -0.889  -0.763  -0.655  -0.644  -0.577  -0.542  -0.488  -0.486
 -0.470  -0.431  -0.380  -0.376  -0.349  -0.306  -0.264  -0.248
 -- Virtual --
 -0.079  -0.028   0.000   0.016   0.022   0.029   0.044   0.050
  0.058   0.066   0.076   0.087   0.091   0.099   0.109   0.116
  0.119   0.123   0.130   0.143   0.149   0.162   0.175   0.179
  0.186   0.194   0.200   0.207   0.214   0.226   0.241   0.251
  0.261   0.268   0.272   0.295   0.297   0.310   0.321   0.328
  0.346   0.357   0.379   0.473   0.499   0.619   0.644   0.666
  0.675   0.689   0.712   0.736   0.742   0.753   0.764   0.784
  0.807   0.844   0.861   0.875   0.908   0.939   0.947   0.964
  0.984   1.007   1.011   1.043   1.076   1.090   1.130   1.140
  1.153   1.176   1.206   1.297   1.331   1.372   1.385   1.455
  1.504   1.530   1.568   1.612   1.651   1.682   1.755   1.811
  1.816   1.858   1.892   1.948   2.004   2.019   2.057   2.070
  2.127   2.137   2.181   2.206   2.266   2.286   2.321   2.357
  2.404   2.431   2.452   2.457   2.471   2.486   2.501   2.533
  2.548   2.594   2.602   2.633   2.648   2.662   2.714   2.790
  2.825   2.882   2.940   2.997   3.171   3.181   3.285   3.293
  3.379   3.512   3.594   3.700   4.178   4.328   4.394   4.533
  4.618   4.670   4.732
 --------------------------------------------------------------
 
          Ground-State Mulliken Net Atomic Charges

     Atom                 Charge (a.u.)    Spin (a.u.)
  --------------------------------------------------------
      1 C                    -0.194174       0.427710
      2 C                    -0.084048      -0.193784
      3 C                     0.052016      -0.001418
      4 C                    -0.135710      -0.048242
      5 C                    -0.038468       0.277282
      6 N                    -0.192590      -0.095530
      7 H                     0.126859      -0.023052
      8 H                     0.140477       0.010885
      9 H                     0.139504       0.000527
     10 H                     0.137576       0.019271
     11 H                     0.124898      -0.013498
     12 C                    -0.219754       0.661949
     13 H                     0.143415      -0.022099
  --------------------------------------------------------
  Sum of atomic charges =    -0.000000
  Sum of spin   charges =     1.000000

 -----------------------------------------------------------------
                    Cartesian Multipole Moments
 -----------------------------------------------------------------
    Charge (ESU x 10^10)
                -0.0000
    Dipole Moment (Debye)
         X      -1.8157      Y      -2.4644      Z       0.2356
       Tot       3.0701
    Quadrupole Moments (Debye-Ang)
        XX     -38.8901     XY      -4.0598     YY     -42.8305
        XZ       0.8457     YZ       0.4956     ZZ     -43.2586
    Octopole Moments (Debye-Ang^2)
       XXX     -12.0851    XXY     -10.3637    XYY     -14.1204
       YYY     -31.1311    XXZ       3.0431    XYZ       2.7359
       YYZ       1.7805    XZZ      -8.8110    YZZ     -10.6663
       ZZZ       6.6961
    Hexadecapole Moments (Debye-Ang^3)
      XXXX    -299.3631   XXXY     -25.4376   XXYY    -116.3955
      XYYY     -46.5945   YYYY    -357.3433   XXXZ      25.4504
      XXYZ       9.6001   XYYZ      13.0617   YYYZ      27.1597
      XXZZ     -78.6438   XYZZ      -3.5246   YYZZ     -77.4040
      XZZZ      18.0543   YZZZ      21.3069   ZZZZ    -117.7783
 -----------------------------------------------------------------
 Calculating analytic gradient of the SCF energy
 Gradient of SCF Energy
            1           2           3           4           5           6
    1  -0.0000029   0.0000052   0.0000047  -0.0000025  -0.0000118  -0.0000111
    2   0.0000091   0.0000042  -0.0000085  -0.0000073  -0.0000062   0.0000013
    3  -0.0000101   0.0000096   0.0000144  -0.0000017  -0.0000200  -0.0000243
            7           8           9          10          11          12
    1  -0.0000028   0.0000118   0.0000087  -0.0000031  -0.0000184   0.0000089
    2   0.0000183   0.0000096  -0.0000207  -0.0000150  -0.0000133   0.0000097
    3  -0.0000136   0.0000194   0.0000263   0.0000005  -0.0000309   0.0000116
           13
    1   0.0000133
    2   0.0000189
    3   0.0000188
 Max gradient component =       3.093E-05
 RMS gradient           =       1.361E-05
 Gradient time:  CPU 17.34 s  wall 6.82 s
rPathMan2.  file_steps = 951
 ------------------------------------------------------------------------
 Reaction path following.  The coordinates are cartesian              
 Step   1 E=    -286.856184 |G|=  0.000085 S_lin= 0.0000 S_tot= 0.0000
 ------------------------------------------------------------------------
 IRC -- neg. force constant =  -0.117775822853777     
 IRC -- max trans/rot const =   1.924159907427846E-004
 In first_irc_step: ISign =            1
 ----------------------------------------------------------------
             Standard Nuclear Orientation (Angstroms)
    I     Atom           X                Y                Z
 ----------------------------------------------------------------
    1      C       1.5962352326     0.3985948479    -0.1742306354
    2      C       0.9150967560    -0.8458491131    -0.1308631020
    3      C      -0.5211847243    -0.9903920144    -0.4221582627
    4      C      -1.1160268418     0.3427642875     0.0790969610
    5      C      -0.3484634813     1.5643934214    -0.2796094666
    6      N       0.9544511899     1.5829908051    -0.3580609436
    7      H       2.6654078288     0.4384482870     0.0109019703
    8      H       1.5124818979    -1.7530903617    -0.0409847343
    9      H      -1.0045138210    -1.7384356394    -1.0351868889
   10      H      -2.2012060623     0.4279215541     0.0083848096
   11      H      -0.8910477766     2.4725145670    -0.5368177586
   12      C      -0.5939566718    -0.7006445114     1.0010282265
   13      H      -0.9777869391    -1.2071285095     1.8798120886
 ----------------------------------------------------------------
 Nuclear Repulsion Energy =   274.4789932735 hartrees
 There are       25 alpha and       24 beta electrons

                       Distance Matrix (Angstroms)
             C (  1)   C (  2)   C (  3)   C (  4)   C (  5)   N (  6)
   C (  2)  1.419321
   C (  3)  2.544449  1.472634
   C (  4)  2.724639  2.362699  1.543502
   C (  5)  2.269811  2.725432  2.564582  1.486675
   N (  6)  1.359586  2.439760  2.967138  2.452784  1.305407
   H (  7)  1.085814  2.175570  3.519019  3.783260  3.230413  2.091288
   H (  8)  2.157433  1.089970  2.205176  3.363939  3.811267  3.397260
   H (  9)  3.474484  2.302046  1.081194  2.363357  3.451084  3.915088
   H ( 10)  3.801943  3.369455  2.240413  1.090810  2.192525  3.380331
   H ( 11)  3.258710  3.799802  3.484490  2.228408  1.088686  2.056471
   C ( 12)  2.717812  1.891958  1.454204  1.487016  2.613560  3.075659
   H ( 13)  3.663745  2.785022  2.356805  2.379885  3.569381  4.065266
             H (  7)   H (  8)   H (  9)   H ( 10)   H ( 11)   C ( 12)
   H (  8)  2.476847
   H (  9)  4.393342  2.706274
   H ( 10)  4.866626  4.307056  2.685930
   H ( 11)  4.133497  4.886568  4.241857  2.488799
   C ( 12)  3.591843  2.574979  2.322012  2.200512  3.538668
   H ( 13)  4.412892  3.192017  2.963144  2.769907  4.403112  1.084487

 
 Applying Cartesian multipole field
    Component          Value
    ---------          -----
     (2,0,0)        1.00000E-11
     (0,2,0)        2.00000E-11
     (0,0,2)       -3.00000E-11
 Nucleus-field energy     =     0.0000000049 hartrees
 Requested basis set is 6-31+G(d,p)
 There are 53 shells and 163 basis functions
 A cutoff of  1.0D-14 yielded   1389 shell pairs
 There are     13465 function pairs
 Smallest overlap matrix eigenvalue = 4.53E-05
 Guess MOs from core Hamiltonian diagonalization
 Mixing HOMO and LUMO in initial guess
 Adding  50% of the LUMO to the HOMO
 An unrestricted hybrid HF-DFT SCF calculation will be
 performed using Pulay DIIS extrapolation
 Exchange:     0.2000 Hartree-Fock + 0.0800 Slater + 0.7200 B88
 Correlation:  0.1900 VWN1RPA + 0.8100 LYP
 Using SG-1 standard quadrature grid
 SCF converges when DIIS error is below 1.0E-08
 using 4 threads for integral computing
 -------------------------------------------------------
 OpenMP Integral computing Module                
 Release: version 1.0, May 2013, Q-Chem Inc. Pittsburgh 
 -------------------------------------------------------
 -------------------------------------------------------
 OpenMP BLAS3 based DFT computing Module                
 Release: version 1.0, May 2013, Q-Chem Inc. Pittsburgh 
 -------------------------------------------------------
 ---------------------------------------
  Cycle       Energy         DIIS Error
 ---------------------------------------
    1    -239.5962292625      9.46E-02
    2    -218.2101369436      6.86E-02
    3    -260.4045617351      7.34E-02
    4    -265.9964286582      7.34E-02
    5    -279.9918889879      3.81E-02
    6    -285.5038270240      1.83E-02
    7    -285.7069183993      1.60E-02
    8    -286.7623698013      4.94E-03
    9    -286.8042410470      3.83E-03
   10    -286.8513279474      1.22E-03
   11    -286.8561416927      6.35E-04
   12    -286.8575050430      1.14E-04
   13    -286.8575759472      5.62E-05
   14    -286.8575992595      2.14E-05
   15    -286.8576082556      1.03E-05
   16    -286.8576147660      4.06E-06
   17    -286.8576159982      1.94E-06
   18    -286.8576161370      7.81E-07
   19    -286.8576162256      1.87E-07
   20    -286.8576162313      5.63E-08
   21    -286.8576162315      3.15E-08
   22    -286.8576162315      5.54E-09 Convergence criterion met
 ---------------------------------------
 <S^2> = 0.7836
 SCF time:  CPU 111.73 s  wall 65.83 s
 SCF   energy in the final basis set = -286.85761623
 Total energy in the final basis set = -286.85761623
 
 --------------------------------------------------------------
 
                    Orbital Energies (a.u.)
 --------------------------------------------------------------
 
 Alpha MOs
 -- Occupied --
-14.334 -10.234 -10.230 -10.230 -10.228 -10.227 -10.222  -0.959
 -0.897  -0.767  -0.659  -0.650  -0.591  -0.548  -0.491  -0.490
 -0.474  -0.432  -0.392  -0.380  -0.353  -0.313  -0.281  -0.255
 -0.173
 -- Virtual --
 -0.033  -0.001   0.016   0.022   0.027   0.043   0.050   0.058
  0.064   0.077   0.085   0.087   0.097   0.103   0.116   0.119
  0.121   0.126   0.142   0.148   0.160   0.174   0.176   0.183
  0.192   0.196   0.206   0.213   0.224   0.237   0.252   0.260
  0.265   0.270   0.296   0.297   0.310   0.318   0.323   0.338
  0.349   0.365   0.469   0.490   0.621   0.637   0.648   0.668
  0.674   0.709   0.719   0.737   0.746   0.760   0.778   0.801
  0.838   0.850   0.871   0.903   0.937   0.943   0.961   0.982
  1.008   1.015   1.038   1.080   1.101   1.125   1.138   1.148
  1.181   1.198   1.303   1.324   1.358   1.384   1.457   1.498
  1.523   1.572   1.614   1.636   1.682   1.746   1.790   1.810
  1.860   1.875   1.942   1.992   2.021   2.047   2.071   2.113
  2.142   2.175   2.206   2.273   2.280   2.327   2.349   2.396
  2.426   2.440   2.448   2.466   2.483   2.509   2.527   2.546
  2.582   2.596   2.624   2.642   2.664   2.711   2.787   2.807
  2.885   2.923   2.994   3.165   3.171   3.271   3.291   3.386
  3.501   3.586   3.693   4.178   4.319   4.385   4.541   4.594
  4.677   4.729
 
 Beta MOs
 -- Occupied --
-14.336 -10.236 -10.228 -10.227 -10.224 -10.223 -10.215  -0.955
 -0.893  -0.759  -0.653  -0.643  -0.581  -0.544  -0.486  -0.485
 -0.471  -0.428  -0.380  -0.376  -0.346  -0.307  -0.268  -0.248
 -- Virtual --
 -0.080  -0.022  -0.000   0.016   0.022   0.030   0.044   0.051
  0.061   0.065   0.077   0.087   0.093   0.100   0.109   0.116
  0.120   0.123   0.130   0.143   0.149   0.162   0.175   0.177
  0.185   0.194   0.200   0.207   0.215   0.226   0.240   0.251
  0.264   0.268   0.272   0.297   0.300   0.312   0.320   0.328
  0.342   0.354   0.369   0.473   0.493   0.624   0.643   0.664
  0.671   0.685   0.714   0.740   0.744   0.752   0.765   0.783
  0.805   0.842   0.857   0.874   0.908   0.940   0.945   0.964
  0.984   1.009   1.013   1.040   1.081   1.105   1.132   1.143
  1.151   1.185   1.200   1.310   1.331   1.369   1.386   1.463
  1.508   1.533   1.577   1.622   1.640   1.689   1.753   1.796
  1.817   1.865   1.887   1.948   1.995   2.026   2.051   2.076
  2.126   2.148   2.184   2.214   2.279   2.283   2.328   2.356
  2.400   2.433   2.444   2.452   2.471   2.486   2.516   2.534
  2.550   2.587   2.601   2.630   2.648   2.670   2.717   2.789
  2.815   2.887   2.927   2.998   3.168   3.173   3.273   3.292
  3.388   3.504   3.591   3.695   4.176   4.327   4.392   4.546
  4.605   4.685   4.733
 --------------------------------------------------------------
 
          Ground-State Mulliken Net Atomic Charges

     Atom                 Charge (a.u.)    Spin (a.u.)
  --------------------------------------------------------
      1 C                    -0.177011       0.516947
      2 C                    -0.104002      -0.182317
      3 C                     0.070897       0.024264
      4 C                    -0.158523      -0.046276
      5 C                    -0.056016       0.379321
      6 N                    -0.197547      -0.127214
      7 H                     0.126460      -0.027823
      8 H                     0.139268       0.009194
      9 H                     0.138899      -0.001848
     10 H                     0.136267       0.012215
     11 H                     0.123947      -0.019560
     12 C                    -0.187301       0.479475
     13 H                     0.144663      -0.016378
  --------------------------------------------------------
  Sum of atomic charges =    -0.000000
  Sum of spin   charges =     1.000000

 -----------------------------------------------------------------
                    Cartesian Multipole Moments
 -----------------------------------------------------------------
    Charge (ESU x 10^10)
                -0.0000
    Dipole Moment (Debye)
         X      -1.7918      Y      -2.6041      Z       0.2437
       Tot       3.1704
    Quadrupole Moments (Debye-Ang)
        XX     -38.7659     XY      -4.0851     YY     -43.0156
        XZ       0.6703     YZ       0.5275     ZZ     -43.1899
    Octopole Moments (Debye-Ang^2)
       XXX     -12.2571    XXY     -10.8397    XYY     -14.2098
       YYY     -31.6931    XXZ       2.9885    XYZ       2.8372
       YYZ       1.5511    XZZ      -8.7770    YZZ     -10.8323
       ZZZ       6.6126
    Hexadecapole Moments (Debye-Ang^3)
      XXXX    -295.6637   XXXY     -26.5429   XXYY    -116.0842
      XYYY     -46.9206   YYYY    -358.8131   XXXZ      22.7565
      XXYZ       9.8331   XYYZ      12.1321   YYYZ      27.5423
      XXZZ     -77.4757   XYZZ      -3.7171   YYZZ     -77.4438
      XZZZ      15.5637   YZZZ      21.9372   ZZZZ    -116.4428
 -----------------------------------------------------------------
 Calculating analytic gradient of the SCF energy
 Gradient of SCF Energy
            1           2           3           4           5           6
    1   0.0004486   0.0072093   0.0027496  -0.0004701   0.0012563  -0.0019712
    2  -0.0025488   0.0009102  -0.0007179   0.0003026   0.0000428   0.0000174
    3   0.0000945  -0.0110755   0.0039047   0.0017545   0.0005177  -0.0006319
            7           8           9          10          11          12
    1   0.0000785   0.0029084   0.0015857  -0.0006319   0.0000699  -0.0094650
    2   0.0001082  -0.0005746   0.0010469   0.0005633  -0.0003136   0.0014212
    3   0.0007165  -0.0026294   0.0019289  -0.0016725   0.0000080   0.0041303
           13
    1  -0.0037681
    2  -0.0002577
    3   0.0029544
 Max gradient component =       1.108E-02
 RMS gradient           =       3.096E-03
 Gradient time:  CPU 17.38 s  wall 6.59 s
rPathMan2.  file_steps = 951
 IRC --- Status = 2.  Assess steepest descent step
 IRC --- Previous SD length =   0.150000
 IRC --- Point 1 E =     -286.856184 |G| =   0.000085 G.D1 =   0.000001
 IRC --- Point 2 E =     -286.857616 |G| =   0.019336 G.D1 =  -0.019210
 IRC --- Angle(G1/G2) =    6.53 Deg.  Curvature =  -0.1281
 IRC --- Corrector step required
 IRC --- equal length displacement: B_eq =   0.017084
 IRC --- chosen bisector length  : B_len =   0.015000
 ----------------------------------------------------------------
             Standard Nuclear Orientation (Angstroms)
    I     Atom           X                Y                Z
 ----------------------------------------------------------------
    1      C       1.5965495634     0.3989438261    -0.1743204200
    2      C       0.9130849801    -0.8480376359    -0.1303706172
    3      C      -0.5183378282    -0.9891752466    -0.4195694391
    4      C      -1.1178695102     0.3435694723     0.0784805332
    5      C      -0.3508106199     1.5638311035    -0.2783546700
    6      N       0.9572484525     1.5830638430    -0.3584695629
    7      H       2.6657508681     0.4387013809     0.0104596110
    8      H       1.5128459814    -1.7524976608    -0.0427728958
    9      H      -1.0039395231    -1.7382545784    -1.0339045567
   10      H      -2.2011284783     0.4286457580     0.0076352935
   11      H      -0.8910247238     2.4724137960    -0.5367389173
   12      C      -0.5938331796    -0.7019381757     0.9985172507
   13      H      -0.9790493955    -1.2071782615     1.8807206542
 ----------------------------------------------------------------
 Nuclear Repulsion Energy =   274.4912292191 hartrees
 There are       25 alpha and       24 beta electrons

                       Distance Matrix (Angstroms)
             C (  1)   C (  2)   C (  3)   C (  4)   C (  5)   N (  6)
   C (  2)  1.422680
   C (  3)  2.541608  1.467149
   C (  4)  2.726728  2.363963  1.543924
   C (  5)  2.271563  2.726984  2.562391  1.484840
   N (  6)  1.358218  2.442178  2.966058  2.456295  1.310651
   H (  7)  1.085779  2.178846  3.515989  3.785427  3.232487  2.089176
   H (  8)  2.157084  1.088777  2.202350  3.365838  3.811398  3.396222
   H (  9)  3.474053  2.298661  1.083668  2.363128  3.449812  3.915818
   H ( 10)  3.802151  3.368574  2.241541  1.088902  2.189546  3.382611
   H ( 11)  3.258627  3.800703  3.483565  2.227539  1.088171  2.058844
   C ( 12)  2.717585  1.888527  1.448853  1.488008  2.612120  3.077093
   H ( 13)  3.665588  2.784536  2.356080  2.381629  3.568583  4.068006
             H (  7)   H (  8)   H (  9)   H ( 10)   H ( 11)   C ( 12)
   H (  8)  2.476565
   H (  9)  4.392774  2.704950
   H ( 10)  4.866891  4.307381  2.685800
   H ( 11)  4.133529  4.885947  4.241421  2.487911
   C ( 12)  3.591964  2.574113  2.317947  2.200787  3.538622
   H ( 13)  4.414903  3.194799  2.962719  2.770893  4.403550  1.087172

 
 Applying Cartesian multipole field
    Component          Value
    ---------          -----
     (2,0,0)        1.00000E-11
     (0,2,0)        2.00000E-11
     (0,0,2)       -3.00000E-11
 Nucleus-field energy     =     0.0000000049 hartrees
 Requested basis set is 6-31+G(d,p)
 There are 53 shells and 163 basis functions
 A cutoff of  1.0D-14 yielded   1389 shell pairs
 There are     13465 function pairs
 Smallest overlap matrix eigenvalue = 4.49E-05
 Guess MOs from core Hamiltonian diagonalization
 Mixing HOMO and LUMO in initial guess
 Adding  50% of the LUMO to the HOMO
 An unrestricted hybrid HF-DFT SCF calculation will be
 performed using Pulay DIIS extrapolation
 Exchange:     0.2000 Hartree-Fock + 0.0800 Slater + 0.7200 B88
 Correlation:  0.1900 VWN1RPA + 0.8100 LYP
 Using SG-1 standard quadrature grid
 SCF converges when DIIS error is below 1.0E-08
 using 4 threads for integral computing
 -------------------------------------------------------
 OpenMP Integral computing Module                
 Release: version 1.0, May 2013, Q-Chem Inc. Pittsburgh 
 -------------------------------------------------------
 -------------------------------------------------------
 OpenMP BLAS3 based DFT computing Module                
 Release: version 1.0, May 2013, Q-Chem Inc. Pittsburgh 
 -------------------------------------------------------
 ---------------------------------------
  Cycle       Energy         DIIS Error
 ---------------------------------------
    1    -239.9353335780      9.45E-02
    2    -218.1992378821      6.82E-02
    3    -261.1049854923      7.30E-02
    4    -263.8099561944      7.77E-02
    5    -280.7103812921      3.61E-02
    6    -285.4782750888      1.88E-02
    7    -285.7251462249      1.60E-02
    8    -286.7443040374      5.41E-03
    9    -286.7964635069      4.04E-03
   10    -286.8505694793      1.28E-03
   11    -286.8560409287      6.38E-04
   12    -286.8573762817      1.21E-04
   13    -286.8574771584      5.90E-05
   14    -286.8575180782      2.25E-05
   15    -286.8575381273      1.14E-05
   16    -286.8575508576      4.25E-06
   17    -286.8575515544      2.19E-06
   18    -286.8575517427      9.23E-07
   19    -286.8575518184      2.68E-07
   20    -286.8575518226      5.03E-08
   21    -286.8575518229      2.85E-08
   22    -286.8575518230      6.12E-09 Convergence criterion met
 ---------------------------------------
 <S^2> = 0.7839
 SCF time:  CPU 111.44 s  wall 79.10 s
 SCF   energy in the final basis set = -286.85755182
 Total energy in the final basis set = -286.85755182
 
 --------------------------------------------------------------
 
                    Orbital Energies (a.u.)
 --------------------------------------------------------------
 
 Alpha MOs
 -- Occupied --
-14.334 -10.234 -10.230 -10.230 -10.228 -10.227 -10.222  -0.959
 -0.898  -0.767  -0.660  -0.650  -0.591  -0.548  -0.491  -0.491
 -0.473  -0.432  -0.392  -0.380  -0.354  -0.313  -0.281  -0.255
 -0.172
 -- Virtual --
 -0.034  -0.001   0.016   0.021   0.027   0.043   0.050   0.058
  0.064   0.077   0.085   0.087   0.097   0.103   0.116   0.119
  0.121   0.126   0.142   0.148   0.159   0.174   0.176   0.183
  0.192   0.196   0.206   0.213   0.224   0.237   0.252   0.260
  0.265   0.270   0.296   0.297   0.311   0.318   0.323   0.338
  0.349   0.364   0.469   0.489   0.620   0.636   0.648   0.667
  0.674   0.709   0.719   0.738   0.746   0.760   0.778   0.801
  0.838   0.850   0.870   0.904   0.937   0.943   0.962   0.982
  1.008   1.015   1.038   1.080   1.101   1.124   1.138   1.148
  1.181   1.197   1.303   1.324   1.358   1.384   1.456   1.499
  1.522   1.572   1.614   1.636   1.684   1.749   1.788   1.811
  1.859   1.876   1.943   1.992   2.021   2.046   2.070   2.114
  2.141   2.176   2.205   2.274   2.282   2.328   2.351   2.397
  2.425   2.440   2.448   2.466   2.482   2.510   2.526   2.545
  2.582   2.596   2.623   2.641   2.664   2.711   2.786   2.806
  2.885   2.923   2.993   3.164   3.171   3.266   3.293   3.386
  3.501   3.585   3.694   4.177   4.318   4.384   4.542   4.593
  4.679   4.729
 
 Beta MOs
 -- Occupied --
-14.336 -10.236 -10.227 -10.227 -10.224 -10.223 -10.215  -0.954
 -0.894  -0.759  -0.653  -0.643  -0.580  -0.544  -0.487  -0.484
 -0.471  -0.429  -0.380  -0.376  -0.347  -0.306  -0.268  -0.247
 -- Virtual --
 -0.080  -0.022  -0.000   0.016   0.022   0.030   0.044   0.051
  0.061   0.065   0.077   0.087   0.093   0.100   0.109   0.116
  0.120   0.123   0.130   0.143   0.149   0.162   0.175   0.178
  0.185   0.194   0.199   0.208   0.215   0.226   0.240   0.251
  0.264   0.268   0.272   0.298   0.300   0.313   0.321   0.328
  0.342   0.354   0.368   0.473   0.492   0.624   0.642   0.664
  0.670   0.685   0.714   0.740   0.744   0.752   0.765   0.783
  0.805   0.842   0.856   0.873   0.908   0.940   0.945   0.964
  0.983   1.008   1.013   1.040   1.081   1.105   1.131   1.143
  1.151   1.185   1.199   1.310   1.331   1.369   1.386   1.462
  1.509   1.533   1.577   1.622   1.641   1.691   1.757   1.793
  1.818   1.864   1.888   1.949   1.994   2.026   2.050   2.075
  2.127   2.147   2.185   2.213   2.280   2.285   2.329   2.357
  2.400   2.433   2.443   2.452   2.470   2.485   2.516   2.533
  2.550   2.586   2.602   2.630   2.647   2.669   2.717   2.789
  2.814   2.887   2.926   2.997   3.167   3.173   3.268   3.294
  3.388   3.503   3.589   3.696   4.175   4.327   4.391   4.547
  4.604   4.688   4.733
 --------------------------------------------------------------
 
          Ground-State Mulliken Net Atomic Charges

     Atom                 Charge (a.u.)    Spin (a.u.)
  --------------------------------------------------------
      1 C                    -0.175536       0.516205
      2 C                    -0.106411      -0.180572
      3 C                     0.075553       0.025159
      4 C                    -0.158587      -0.046523
      5 C                    -0.059938       0.389346
      6 N                    -0.197699      -0.130287
      7 H                     0.126357      -0.027822
      8 H                     0.139405       0.009198
      9 H                     0.138986      -0.001903
     10 H                     0.136537       0.012060
     11 H                     0.124154      -0.020130
     12 C                    -0.187970       0.471610
     13 H                     0.145149      -0.016341
  --------------------------------------------------------
  Sum of atomic charges =     0.000000
  Sum of spin   charges =     1.000000

 -----------------------------------------------------------------
                    Cartesian Multipole Moments
 -----------------------------------------------------------------
    Charge (ESU x 10^10)
                 0.0000
    Dipole Moment (Debye)
         X      -1.7958      Y      -2.6213      Z       0.2470
       Tot       3.1870
    Quadrupole Moments (Debye-Ang)
        XX     -38.7431     XY      -4.1177     YY     -43.0450
        XZ       0.6538     YZ       0.5206     ZZ     -43.1988
    Octopole Moments (Debye-Ang^2)
       XXX     -12.3211    XXY     -10.8647    XYY     -14.2257
       YYY     -31.7408    XXZ       2.9967    XYZ       2.8713
       YYZ       1.5484    XZZ      -8.7776    YZZ     -10.8477
       ZZZ       6.6318
    Hexadecapole Moments (Debye-Ang^3)
      XXXX    -295.6348   XXXY     -26.6684   XXYY    -116.1538
      XYYY     -47.0365   YYYY    -359.0993   XXXZ      22.7471
      XXYZ       9.8392   XYYZ      12.1102   YYYZ      27.5061
      XXZZ     -77.4481   XYZZ      -3.7336   YYZZ     -77.5125
      XZZZ      15.5355   YZZZ      21.9674   ZZZZ    -116.2300
 -----------------------------------------------------------------
 Calculating analytic gradient of the SCF energy
 Gradient of SCF Energy
            1           2           3           4           5           6
    1   0.0011003   0.0042420   0.0072440  -0.0028195  -0.0033282   0.0025958
    2  -0.0017244  -0.0024029   0.0024039   0.0005532  -0.0005668   0.0004163
    3   0.0002165  -0.0121710   0.0088564   0.0012139   0.0012306  -0.0013043
            7           8           9          10          11          12
    1  -0.0000183   0.0028265   0.0008392   0.0005150   0.0002187  -0.0088287
    2   0.0003575   0.0003036  -0.0000610   0.0008189  -0.0004622   0.0012706
    3   0.0007901  -0.0028430   0.0012042  -0.0015232   0.0000072  -0.0001917
           13
    1  -0.0045868
    2  -0.0009067
    3   0.0045144
 Max gradient component =       1.217E-02
 RMS gradient           =       3.539E-03
 Gradient time:  CPU 17.26 s  wall 9.32 s
rPathMan2.  file_steps = 951
 IRC --- Status = 3.  Assess initial corrector step
 IRC --- bisector search: b =  0.000000 E =     -286.857616 G.B =  -0.001101
 IRC --- bisector search: b =  0.015000 E =     -286.857552 G.B =   0.009685
 IRC --- performed gradient/energy interpolation
 IRC --- bisector search:  estimate b(min) =   1.530705088683626E-003
 ----------------------------------------------------------------
             Standard Nuclear Orientation (Angstroms)
    I     Atom           X                Y                Z
 ----------------------------------------------------------------
    1      C       1.5962673091     0.3986304601    -0.1742397977
    2      C       0.9148914603    -0.8460724453    -0.1308128454
    3      C      -0.5208942071    -0.9902678469    -0.4218940810
    4      C      -1.1162148806     0.3428464542     0.0790340564
    5      C      -0.3487029997     1.5643360386    -0.2794814183
    6      N       0.9547366421     1.5829982584    -0.3581026420
    7      H       2.6654428349     0.4384741144     0.0108568289
    8      H       1.5125190515    -1.7530298784    -0.0411672108
    9      H      -1.0044552156    -1.7384171626    -1.0350560307
   10      H      -2.2011981451     0.4279954570     0.0083083237
   11      H      -0.8910454242     2.4725042836    -0.5368097131
   12      C      -0.5939440698    -0.7007765260     1.0007719890
   13      H      -0.9779157690    -1.2071335865     1.8799048050
 ----------------------------------------------------------------
 Nuclear Repulsion Energy =   274.4801911333 hartrees
 There are       25 alpha and       24 beta electrons

                       Distance Matrix (Angstroms)
             C (  1)   C (  2)   C (  3)   C (  4)   C (  5)   N (  6)
   C (  2)  1.419663
   C (  3)  2.544159  1.472074
   C (  4)  2.724852  2.362828  1.543544
   C (  5)  2.269990  2.725590  2.564358  1.486487
   N (  6)  1.359446  2.440007  2.967028  2.453142  1.305942
   H (  7)  1.085811  2.175904  3.518710  3.783481  3.230625  2.091072
   H (  8)  2.157398  1.089847  2.204887  3.364133  3.811280  3.397154
   H (  9)  3.474440  2.301701  1.081446  2.363333  3.450954  3.915163
   H ( 10)  3.801964  3.369365  2.240528  1.090615  2.192221  3.380564
   H ( 11)  3.258701  3.799894  3.484395  2.228319  1.088633  2.056713
   C ( 12)  2.717788  1.891608  1.453658  1.487117  2.613413  3.075806
   H ( 13)  3.663933  2.784972  2.356730  2.380063  3.569300  4.065545
             H (  7)   H (  8)   H (  9)   H ( 10)   H ( 11)   C ( 12)
   H (  8)  2.476818
   H (  9)  4.393284  2.706139
   H ( 10)  4.866653  4.307089  2.685916
   H ( 11)  4.133500  4.886504  4.241812  2.488709
   C ( 12)  3.591856  2.574891  2.321597  2.200540  3.538663
   H ( 13)  4.413097  3.192301  2.963100  2.770007  4.403157  1.084761

 
 Applying Cartesian multipole field
    Component          Value
    ---------          -----
     (2,0,0)        1.00000E-11
     (0,2,0)        2.00000E-11
     (0,0,2)       -3.00000E-11
 Nucleus-field energy     =     0.0000000049 hartrees
 Requested basis set is 6-31+G(d,p)
 There are 53 shells and 163 basis functions
 A cutoff of  1.0D-14 yielded   1389 shell pairs
 There are     13465 function pairs
 Smallest overlap matrix eigenvalue = 4.53E-05
 Guess MOs from core Hamiltonian diagonalization
 Mixing HOMO and LUMO in initial guess
 Adding  50% of the LUMO to the HOMO
 An unrestricted hybrid HF-DFT SCF calculation will be
 performed using Pulay DIIS extrapolation
 Exchange:     0.2000 Hartree-Fock + 0.0800 Slater + 0.7200 B88
 Correlation:  0.1900 VWN1RPA + 0.8100 LYP
 Using SG-1 standard quadrature grid
 SCF converges when DIIS error is below 1.0E-08
 using 4 threads for integral computing
 -------------------------------------------------------
 OpenMP Integral computing Module                
 Release: version 1.0, May 2013, Q-Chem Inc. Pittsburgh 
 -------------------------------------------------------
 -------------------------------------------------------
 OpenMP BLAS3 based DFT computing Module                
 Release: version 1.0, May 2013, Q-Chem Inc. Pittsburgh 
 -------------------------------------------------------
 ---------------------------------------
  Cycle       Energy         DIIS Error
 ---------------------------------------
    1    -239.5982960299      9.46E-02
    2    -218.2131470971      6.86E-02
    3    -260.4354573630      7.34E-02
    4    -265.9631872452      7.35E-02
    5    -280.0053873118      3.80E-02
    6    -285.5076817064      1.83E-02
    7    -285.7103330596      1.60E-02
    8    -286.7630102607      4.92E-03
    9    -286.8049491982      3.81E-03
   10    -286.8513811441      1.22E-03
   11    -286.8561495788      6.33E-04
   12    -286.8575065586      1.14E-04
   13    -286.8575769615      5.62E-05
   14    -286.8576001765      2.13E-05
   15    -286.8576091235      1.03E-05
   16    -286.8576156009      4.05E-06
   17    -286.8576168403      1.94E-06
   18    -286.8576169793      7.80E-07
   19    -286.8576170676      1.87E-07
   20    -286.8576170733      5.62E-08
   21    -286.8576170735      3.15E-08
   22    -286.8576170735      5.54E-09 Convergence criterion met
 ---------------------------------------
 <S^2> = 0.7836
 SCF time:  CPU 111.98 s  wall 63.63 s
 SCF   energy in the final basis set = -286.85761707
 Total energy in the final basis set = -286.85761707
 
 --------------------------------------------------------------
 
                    Orbital Energies (a.u.)
 --------------------------------------------------------------
 
 Alpha MOs
 -- Occupied --
-14.334 -10.234 -10.230 -10.230 -10.228 -10.227 -10.222  -0.959
 -0.897  -0.767  -0.659  -0.650  -0.591  -0.548  -0.491  -0.490
 -0.474  -0.432  -0.392  -0.380  -0.353  -0.313  -0.281  -0.255
 -0.173
 -- Virtual --
 -0.033  -0.001   0.016   0.022   0.027   0.043   0.050   0.058
  0.064   0.077   0.085   0.087   0.097   0.103   0.116   0.119
  0.121   0.126   0.142   0.148   0.160   0.174   0.176   0.183
  0.192   0.196   0.206   0.213   0.224   0.237   0.252   0.260
  0.265   0.270   0.296   0.297   0.310   0.318   0.323   0.338
  0.349   0.365   0.469   0.490   0.621   0.637   0.648   0.668
  0.674   0.709   0.719   0.737   0.746   0.760   0.778   0.801
  0.838   0.850   0.871   0.903   0.937   0.943   0.961   0.982
  1.008   1.015   1.038   1.080   1.101   1.125   1.138   1.148
  1.181   1.198   1.303   1.324   1.358   1.384   1.457   1.498
  1.523   1.572   1.614   1.636   1.682   1.746   1.790   1.810
  1.860   1.875   1.942   1.992   2.021   2.047   2.071   2.113
  2.142   2.176   2.206   2.273   2.280   2.327   2.349   2.396
  2.426   2.440   2.448   2.466   2.483   2.509   2.527   2.546
  2.582   2.596   2.624   2.641   2.664   2.711   2.787   2.807
  2.885   2.923   2.994   3.165   3.171   3.270   3.291   3.386
  3.501   3.586   3.693   4.178   4.319   4.385   4.541   4.593
  4.678   4.729
 
 Beta MOs
 -- Occupied --
-14.336 -10.236 -10.228 -10.227 -10.224 -10.223 -10.215  -0.955
 -0.893  -0.759  -0.653  -0.643  -0.581  -0.544  -0.486  -0.485
 -0.471  -0.428  -0.380  -0.376  -0.346  -0.307  -0.268  -0.248
 -- Virtual --
 -0.080  -0.022  -0.000   0.016   0.022   0.030   0.044   0.051
  0.061   0.065   0.077   0.087   0.093   0.100   0.109   0.116
  0.120   0.123   0.130   0.143   0.149   0.162   0.175   0.177
  0.185   0.194   0.200   0.207   0.215   0.226   0.240   0.251
  0.264   0.268   0.272   0.297   0.300   0.312   0.321   0.328
  0.342   0.354   0.369   0.473   0.493   0.624   0.643   0.664
  0.671   0.685   0.714   0.740   0.744   0.752   0.765   0.783
  0.805   0.842   0.857   0.874   0.908   0.940   0.945   0.964
  0.983   1.009   1.013   1.040   1.081   1.105   1.132   1.143
  1.151   1.185   1.200   1.310   1.331   1.369   1.386   1.463
  1.509   1.533   1.577   1.622   1.640   1.689   1.754   1.795
  1.817   1.865   1.887   1.949   1.995   2.026   2.051   2.076
  2.127   2.148   2.184   2.214   2.279   2.284   2.329   2.356
  2.400   2.433   2.444   2.452   2.471   2.486   2.516   2.534
  2.550   2.587   2.601   2.630   2.648   2.670   2.717   2.789
  2.815   2.887   2.927   2.998   3.168   3.173   3.272   3.292
  3.388   3.504   3.591   3.695   4.176   4.327   4.392   4.546
  4.605   4.686   4.733
 --------------------------------------------------------------
 
          Ground-State Mulliken Net Atomic Charges

     Atom                 Charge (a.u.)    Spin (a.u.)
  --------------------------------------------------------
      1 C                    -0.176861       0.516881
      2 C                    -0.104246      -0.182143
      3 C                     0.071372       0.024354
      4 C                    -0.158534      -0.046300
      5 C                    -0.056415       0.380342
      6 N                    -0.197564      -0.127530
      7 H                     0.126449      -0.027823
      8 H                     0.139282       0.009194
      9 H                     0.138909      -0.001853
     10 H                     0.136295       0.012199
     11 H                     0.123968      -0.019618
     12 C                    -0.187369       0.478672
     13 H                     0.144713      -0.016375
  --------------------------------------------------------
  Sum of atomic charges =    -0.000000
  Sum of spin   charges =     1.000000

 -----------------------------------------------------------------
                    Cartesian Multipole Moments
 -----------------------------------------------------------------
    Charge (ESU x 10^10)
                -0.0000
    Dipole Moment (Debye)
         X      -1.7922      Y      -2.6059      Z       0.2440
       Tot       3.1721
    Quadrupole Moments (Debye-Ang)
        XX     -38.7636     XY      -4.0885     YY     -43.0186
        XZ       0.6686     YZ       0.5269     ZZ     -43.1908
    Octopole Moments (Debye-Ang^2)
       XXX     -12.2637    XXY     -10.8422    XYY     -14.2115
       YYY     -31.6980    XXZ       2.9894    XYZ       2.8407
       YYZ       1.5508    XZZ      -8.7771    YZZ     -10.8339
       ZZZ       6.6145
    Hexadecapole Moments (Debye-Ang^3)
      XXXX    -295.6606   XXXY     -26.5558   XXYY    -116.0912
      XYYY     -46.9325   YYYY    -358.8422   XXXZ      22.7556
      XXYZ       9.8337   XYYZ      12.1299   YYYZ      27.5386
      XXZZ     -77.4729   XYZZ      -3.7188   YYZZ     -77.4508
      XZZZ      15.5609   YZZZ      21.9404   ZZZZ    -116.4211
 -----------------------------------------------------------------
 Calculating analytic gradient of the SCF energy
 Gradient of SCF Energy
            1           2           3           4           5           6
    1   0.0005158   0.0069105   0.0032048  -0.0007096   0.0007800  -0.0014963
    2  -0.0024629   0.0005707  -0.0003992   0.0003277  -0.0000189   0.0000578
    3   0.0001070  -0.0111867   0.0044058   0.0016992   0.0005909  -0.0007009
            7           8           9          10          11          12
    1   0.0000687   0.0029001   0.0015091  -0.0005156   0.0000851  -0.0094005
    2   0.0001337  -0.0004847   0.0009329   0.0005894  -0.0003288   0.0014075
    3   0.0007239  -0.0026514   0.0018541  -0.0016574   0.0000079   0.0036932
           13
    1  -0.0038520
    2  -0.0003249
    3   0.0031143
 Max gradient component =       1.119E-02
 RMS gradient           =       3.086E-03
 Gradient time:  CPU 17.39 s  wall 5.38 s
rPathMan2.  file_steps = 951
 IRC --- Status = 4.  Checking bisector search.
 IRC --- Bisector search finished successfully.
 ------------------------------------------------------------------------
 Reaction path following.  The coordinates are cartesian              
 Step   2 E=    -286.857617 |G|=  0.019275 S_lin= 0.1499 S_tot= 0.1499
 ------------------------------------------------------------------------
  IRC -- SD step length =   0.150000000000000     
 ----------------------------------------------------------------
             Standard Nuclear Orientation (Angstroms)
    I     Atom           X                Y                Z
 ----------------------------------------------------------------
    1      C       1.5941431084     0.4087732747    -0.1746806052
    2      C       0.8864328624    -0.8484225227    -0.0847438382
    3      C      -0.5340922867    -0.9886239166    -0.4400379276
    4      C      -1.1132926934     0.3414970965     0.0720363991
    5      C      -0.3519151905     1.5644139730    -0.2819149157
    6      N       0.9608987227     1.5827604279    -0.3552163910
    7      H       2.6651601203     0.4379237010     0.0078755550
    8      H       1.5005757774    -1.7510336081    -0.0302484068
    9      H      -1.0106698436    -1.7422590698    -1.0426914618
   10      H      -2.1990746547     0.4255683647     0.0151336133
   11      H      -0.8913957164     2.4738583745    -0.5368421074
   12      C      -0.5552311797    -0.7065727640     0.9855627349
   13      H      -0.9620524392    -1.2057957102     1.8670796154
 ----------------------------------------------------------------
 Nuclear Repulsion Energy =   275.0144866911 hartrees
 There are       25 alpha and       24 beta electrons

                       Distance Matrix (Angstroms)
             C (  1)   C (  2)   C (  3)   C (  4)   C (  5)   N (  6)
   C (  2)  1.445505
   C (  3)  2.559789  1.470980
   C (  4)  2.719486  2.332250  1.538478
   C (  5)  2.265866  2.719221  2.564409  1.483409
   N (  6)  1.346045  2.447315  2.975603  2.454699  1.314987
   H (  7)  1.086855  2.197074  3.531413  3.780228  3.233528  2.084945
   H (  8)  2.166652  1.093091  2.211124  3.349844  3.806212  3.392792
   H (  9)  3.487898  2.305560  1.076236  2.365415  3.456418  3.926253
   H ( 10)  3.798001  3.339668  2.231432  1.090517  2.190252  3.385511
   H ( 11)  3.251713  3.795078  3.482215  2.228662  1.087711  2.063501
   C ( 12)  2.685139  1.801131  1.453388  1.498137  2.608681  3.055714
   H ( 13)  3.648253  2.711868  2.356503  2.374693  3.558723  4.051220
             H (  7)   H (  8)   H (  9)   H ( 10)   H ( 11)   C ( 12)
   H (  8)  2.479767
   H (  9)  4.400979  2.707669
   H ( 10)  4.864256  4.292676  2.689010
   H ( 11)  4.134107  4.881381  4.248030  2.492026
   C ( 12)  3.554809  2.519745  2.322474  2.219391  3.542014
   H ( 13)  4.394898  3.156212  2.959210  2.760666  4.395871  1.091696

 
 Applying Cartesian multipole field
    Component          Value
    ---------          -----
     (2,0,0)        1.00000E-11
     (0,2,0)        2.00000E-11
     (0,0,2)       -3.00000E-11
 Nucleus-field energy     =     0.0000000049 hartrees
 Requested basis set is 6-31+G(d,p)
 There are 53 shells and 163 basis functions
 A cutoff of  1.0D-14 yielded   1390 shell pairs
 There are     13466 function pairs
 Smallest overlap matrix eigenvalue = 4.74E-05
 Guess MOs from core Hamiltonian diagonalization
 Mixing HOMO and LUMO in initial guess
 Adding  50% of the LUMO to the HOMO
 An unrestricted hybrid HF-DFT SCF calculation will be
 performed using Pulay DIIS extrapolation
 Exchange:     0.2000 Hartree-Fock + 0.0800 Slater + 0.7200 B88
 Correlation:  0.1900 VWN1RPA + 0.8100 LYP
 Using SG-1 standard quadrature grid
 SCF converges when DIIS error is below 1.0E-08
 using 4 threads for integral computing
 -------------------------------------------------------
 OpenMP Integral computing Module                
 Release: version 1.0, May 2013, Q-Chem Inc. Pittsburgh 
 -------------------------------------------------------
 -------------------------------------------------------
 OpenMP BLAS3 based DFT computing Module                
 Release: version 1.0, May 2013, Q-Chem Inc. Pittsburgh 
 -------------------------------------------------------
 ---------------------------------------
  Cycle       Energy         DIIS Error
 ---------------------------------------
    1    -240.0536260722      9.44E-02
    2    -217.8234471214      6.78E-02
    3    -261.9232366938      7.27E-02
    4    -262.1559530724      8.04E-02
    5    -280.8438800368      3.62E-02
    6    -285.3529353938      1.99E-02
    7    -285.8624969370      1.53E-02
    8    -286.7443995176      5.60E-03
    9    -286.8039804081      4.01E-03
   10    -286.8548863339      1.28E-03
   11    -286.8603711069      5.99E-04
   12    -286.8615468318      1.19E-04
   13    -286.8616165499      6.09E-05
   14    -286.8616434108      1.69E-05
   15    -286.8616534907      8.36E-06
   16    -286.8616593767      2.96E-06
   17    -286.8616600131      1.38E-06
   18    -286.8616601430      4.97E-07
   19    -286.8616601889      2.02E-07
   20    -286.8616601950      3.99E-08
   21    -286.8616601952      2.18E-08
   22    -286.8616601952      3.73E-09 Convergence criterion met
 ---------------------------------------
 <S^2> = 0.7756
 SCF time:  CPU 111.76 s  wall 60.12 s
 SCF   energy in the final basis set = -286.86166020
 Total energy in the final basis set = -286.86166020
 
 --------------------------------------------------------------
 
                    Orbital Energies (a.u.)
 --------------------------------------------------------------
 
 Alpha MOs
 -- Occupied --
-14.333 -10.236 -10.232 -10.227 -10.227 -10.226 -10.224  -0.961
 -0.900  -0.764  -0.657  -0.649  -0.592  -0.550  -0.490  -0.488
 -0.473  -0.429  -0.394  -0.379  -0.350  -0.315  -0.287  -0.251
 -0.173
 -- Virtual --
 -0.025  -0.001   0.016   0.022   0.028   0.043   0.051   0.060
  0.064   0.077   0.087   0.091   0.097   0.104   0.116   0.120
  0.121   0.125   0.142   0.148   0.159   0.174   0.175   0.182
  0.192   0.195   0.207   0.215   0.224   0.236   0.251   0.261
  0.265   0.270   0.298   0.300   0.313   0.317   0.322   0.335
  0.346   0.357   0.468   0.482   0.625   0.637   0.646   0.664
  0.675   0.710   0.719   0.738   0.746   0.759   0.778   0.798
  0.832   0.847   0.867   0.902   0.937   0.942   0.961   0.981
  1.011   1.016   1.038   1.081   1.116   1.123   1.142   1.147
  1.187   1.196   1.318   1.326   1.355   1.389   1.461   1.502
  1.526   1.578   1.612   1.643   1.690   1.746   1.776   1.815
  1.860   1.878   1.942   1.981   2.023   2.038   2.078   2.116
  2.152   2.177   2.213   2.273   2.295   2.331   2.351   2.389
  2.417   2.433   2.448   2.469   2.482   2.521   2.531   2.548
  2.573   2.594   2.617   2.646   2.664   2.710   2.789   2.814
  2.890   2.912   2.993   3.156   3.164   3.260   3.292   3.395
  3.492   3.583   3.687   4.176   4.315   4.380   4.557   4.587
  4.691   4.729
 
 Beta MOs
 -- Occupied --
-14.335 -10.237 -10.228 -10.227 -10.226 -10.220 -10.216  -0.957
 -0.897  -0.755  -0.650  -0.641  -0.584  -0.546  -0.485  -0.482
 -0.470  -0.425  -0.380  -0.375  -0.342  -0.307  -0.277  -0.246
 -- Virtual --
 -0.080  -0.015  -0.001   0.016   0.023   0.032   0.044   0.051
  0.062   0.064   0.077   0.087   0.095   0.105   0.109   0.116
  0.119   0.125   0.130   0.143   0.148   0.162   0.175   0.177
  0.184   0.195   0.199   0.208   0.217   0.226   0.239   0.250
  0.265   0.268   0.272   0.299   0.303   0.314   0.320   0.328
  0.338   0.351   0.361   0.472   0.486   0.629   0.644   0.662
  0.667   0.683   0.717   0.742   0.746   0.751   0.763   0.782
  0.801   0.836   0.854   0.870   0.906   0.940   0.944   0.963
  0.982   1.010   1.015   1.039   1.081   1.122   1.132   1.147
  1.149   1.189   1.199   1.327   1.332   1.366   1.392   1.469
  1.511   1.536   1.584   1.617   1.651   1.697   1.753   1.779
  1.821   1.870   1.883   1.949   1.984   2.028   2.043   2.081
  2.126   2.158   2.187   2.222   2.278   2.298   2.334   2.356
  2.393   2.424   2.437   2.451   2.475   2.485   2.529   2.538
  2.552   2.577   2.601   2.624   2.652   2.670   2.717   2.790
  2.820   2.892   2.915   2.996   3.158   3.166   3.261   3.294
  3.397   3.495   3.586   3.689   4.174   4.326   4.387   4.561
  4.596   4.699   4.733
 --------------------------------------------------------------
 
          Ground-State Mulliken Net Atomic Charges

     Atom                 Charge (a.u.)    Spin (a.u.)
  --------------------------------------------------------
      1 C                    -0.154916       0.564880
      2 C                    -0.125195      -0.133832
      3 C                     0.071640       0.043595
      4 C                    -0.173787      -0.045017
      5 C                    -0.074273       0.469920
      6 N                    -0.201926      -0.152035
      7 H                     0.125889      -0.030570
      8 H                     0.136836       0.005921
      9 H                     0.138756      -0.003199
     10 H                     0.134922       0.006478
     11 H                     0.123480      -0.024837
     12 C                    -0.147030       0.310057
     13 H                     0.145605      -0.011361
  --------------------------------------------------------
  Sum of atomic charges =     0.000000
  Sum of spin   charges =     1.000000

 -----------------------------------------------------------------
                    Cartesian Multipole Moments
 -----------------------------------------------------------------
    Charge (ESU x 10^10)
                 0.0000
    Dipole Moment (Debye)
         X      -1.7679      Y      -2.6955      Z       0.2775
       Tot       3.2354
    Quadrupole Moments (Debye-Ang)
        XX     -38.6568     XY      -4.0794     YY     -43.2019
        XZ       0.5721     YZ       0.5426     ZZ     -43.0912
    Octopole Moments (Debye-Ang^2)
       XXX     -12.3846    XXY     -11.2162    XYY     -14.3848
       YYY     -32.0692    XXZ       2.9336    XYZ       2.8787
       YYZ       1.3699    XZZ      -8.6722    YZZ     -10.9509
       ZZZ       6.6179
    Hexadecapole Moments (Debye-Ang^3)
      XXXX    -292.2220   XXXY     -27.4600   XXYY    -115.9554
      XYYY     -47.2288   YYYY    -360.3745   XXXZ      20.3252
      XXYZ      10.0564   XYYZ      11.3753   YYYZ      27.9157
      XXZZ     -76.3462   XYZZ      -3.9067   YYZZ     -77.5067
      XZZZ      13.4461   YZZZ      22.4939   ZZZZ    -115.0411
 -----------------------------------------------------------------
 Calculating analytic gradient of the SCF energy
 Gradient of SCF Energy
            1           2           3           4           5           6
    1   0.0016386   0.0098704   0.0055740  -0.0015039   0.0005416  -0.0013701
    2  -0.0013075  -0.0007693  -0.0018331   0.0013006  -0.0001949  -0.0011584
    3  -0.0007711  -0.0197867   0.0074525   0.0030831   0.0011586  -0.0009087
            7           8           9          10          11          12
    1   0.0001991   0.0059367   0.0031157  -0.0008620   0.0001230  -0.0157091
    2   0.0002541  -0.0011192   0.0026443   0.0009915  -0.0005212   0.0026245
    3   0.0017463  -0.0049659   0.0037948  -0.0031827  -0.0000090   0.0058388
           13
    1  -0.0075540
    2  -0.0009114
    3   0.0065500
 Max gradient component =       1.979E-02
 RMS gradient           =       5.310E-03
 Gradient time:  CPU 17.40 s  wall 6.50 s
rPathMan2.  file_steps = 951
 IRC --- Status = 2.  Assess steepest descent step
 IRC --- Previous SD length =   0.150000
 IRC --- Point 1 E =     -286.857617 |G| =   0.019275 G.D1 =  -0.019275
 IRC --- Point 2 E =     -286.861660 |G| =   0.033163 G.D1 =  -0.032719
 IRC --- Angle(G1/G2) =    9.39 Deg.  Curvature =  -0.0896
 IRC --- Corrector step required
 IRC --- equal length displacement: B_eq =   0.024543
 IRC --- chosen bisector length  : B_len =   0.015000
 ----------------------------------------------------------------
             Standard Nuclear Orientation (Angstroms)
    I     Atom           X                Y                Z
 ----------------------------------------------------------------
    1      C       1.5930442998     0.4044868438    -0.1732831513
    2      C       0.8893868701    -0.8458607509    -0.0839546280
    3      C      -0.5341799473    -0.9869470879    -0.4398509293
    4      C      -1.1128786912     0.3404191714     0.0718029648
    5      C      -0.3507442506     1.5646515139    -0.2821225802
    6      N       0.9591369124     1.5846003709    -0.3556510857
    7      H       2.6650416804     0.4378883854     0.0071429749
    8      H       1.4991905388    -1.7506164214    -0.0296571837
    9      H      -1.0114294627    -1.7437792541    -1.0435761398
   10      H      -2.1991115151     0.4256013509     0.0156180644
   11      H      -0.8913616090     2.4737932245    -0.5368091300
   12      C      -0.5559110866    -0.7068695909     0.9863168570
   13      H      -0.9606971522    -1.2052801349     1.8653362309
 ----------------------------------------------------------------
 Nuclear Repulsion Energy =   275.0491828917 hartrees
 There are       25 alpha and       24 beta electrons

                       Distance Matrix (Angstroms)
             C (  1)   C (  2)   C (  3)   C (  4)   C (  5)   N (  6)
   C (  2)  1.437527
   C (  3)  2.555823  1.474147
   C (  4)  2.717755  2.332507  1.535768
   C (  5)  2.266306  2.718044  2.563042  1.484876
   N (  6)  1.351948  2.446595  2.974885  2.454374  1.312095
   H (  7)  1.087588  2.193003  3.530578  3.779731  3.232373  2.087266
   H (  8)  2.161922  1.092425  2.210440  3.347481  3.804865  3.394348
   H (  9)  3.486508  2.310895  1.079373  2.366061  3.458617  3.928675
   H ( 10)  3.796917  3.341460  2.230413  1.091015  2.191471  3.384620
   H ( 11)  3.253683  3.794238  3.480475  2.229521  1.087966  2.061026
   C ( 12)  2.682871  1.803798  1.453572  1.497786  2.609759  3.057300
   H ( 13)  3.642652  2.711407  2.354458  2.372574  3.557547  4.049936
             H (  7)   H (  8)   H (  9)   H ( 10)   H ( 11)   C ( 12)
   H (  8)  2.479943
   H (  9)  4.402286  2.707636
   H ( 10)  4.864176  4.291318  2.690482
   H ( 11)  4.133860  4.880326  4.249605  2.492083
   C ( 12)  3.555811  2.518939  2.324466  2.219201  3.542465
   H ( 13)  4.393048  3.152688  2.958771  2.759511  4.394393  1.088549

 
 Applying Cartesian multipole field
    Component          Value
    ---------          -----
     (2,0,0)        1.00000E-11
     (0,2,0)        2.00000E-11
     (0,0,2)       -3.00000E-11
 Nucleus-field energy     =     0.0000000049 hartrees
 Requested basis set is 6-31+G(d,p)
 There are 53 shells and 163 basis functions
 A cutoff of  1.0D-14 yielded   1390 shell pairs
 There are     13466 function pairs
 Smallest overlap matrix eigenvalue = 4.72E-05
 Guess MOs from core Hamiltonian diagonalization
 Mixing HOMO and LUMO in initial guess
 Adding  50% of the LUMO to the HOMO
 An unrestricted hybrid HF-DFT SCF calculation will be
 performed using Pulay DIIS extrapolation
 Exchange:     0.2000 Hartree-Fock + 0.0800 Slater + 0.7200 B88
 Correlation:  0.1900 VWN1RPA + 0.8100 LYP
 Using SG-1 standard quadrature grid
 SCF converges when DIIS error is below 1.0E-08
 using 4 threads for integral computing
 -------------------------------------------------------
 OpenMP Integral computing Module                
 Release: version 1.0, May 2013, Q-Chem Inc. Pittsburgh 
 -------------------------------------------------------
 -------------------------------------------------------
 OpenMP BLAS3 based DFT computing Module                
 Release: version 1.0, May 2013, Q-Chem Inc. Pittsburgh 
 -------------------------------------------------------
 ---------------------------------------
  Cycle       Energy         DIIS Error
 ---------------------------------------
    1    -240.0511962551      9.43E-02
    2    -217.7879795080      6.78E-02
    3    -261.9009936046      7.26E-02
    4    -262.2081778081      8.03E-02
    5    -280.8850859585      3.60E-02
    6    -285.3762563425      1.98E-02
    7    -285.8710411234      1.52E-02
    8    -286.7503225790      5.47E-03
    9    -286.8092059680      3.85E-03
   10    -286.8551143763      1.25E-03
   11    -286.8603819591      5.85E-04
   12    -286.8615189697      1.17E-04
   13    -286.8615865426      6.19E-05
   14    -286.8616134758      1.68E-05
   15    -286.8616232242      8.36E-06
   16    -286.8616289964      2.96E-06
   17    -286.8616296058      1.38E-06
   18    -286.8616297247      5.05E-07
   19    -286.8616297682      1.99E-07
   20    -286.8616297736      3.92E-08
   21    -286.8616297738      2.12E-08
   22    -286.8616297738      3.68E-09 Convergence criterion met
 ---------------------------------------
 <S^2> = 0.7758
 SCF time:  CPU 111.63 s  wall 58.62 s
 SCF   energy in the final basis set = -286.86162977
 Total energy in the final basis set = -286.86162977
 
 --------------------------------------------------------------
 
                    Orbital Energies (a.u.)
 --------------------------------------------------------------
 
 Alpha MOs
 -- Occupied --
-14.333 -10.235 -10.232 -10.227 -10.227 -10.226 -10.223  -0.961
 -0.900  -0.765  -0.657  -0.649  -0.592  -0.550  -0.490  -0.488
 -0.473  -0.429  -0.395  -0.379  -0.350  -0.315  -0.287  -0.252
 -0.173
 -- Virtual --
 -0.025  -0.001   0.016   0.022   0.028   0.043   0.051   0.060
  0.064   0.077   0.087   0.091   0.097   0.104   0.116   0.120
  0.121   0.125   0.143   0.148   0.160   0.174   0.175   0.182
  0.192   0.195   0.207   0.215   0.224   0.236   0.251   0.260
  0.265   0.270   0.298   0.300   0.312   0.317   0.322   0.336
  0.347   0.358   0.467   0.483   0.624   0.637   0.646   0.665
  0.675   0.710   0.719   0.737   0.746   0.759   0.778   0.798
  0.833   0.847   0.867   0.902   0.936   0.942   0.961   0.981
  1.010   1.016   1.039   1.081   1.115   1.123   1.142   1.147
  1.187   1.195   1.318   1.327   1.355   1.388   1.461   1.502
  1.526   1.578   1.612   1.644   1.689   1.746   1.778   1.814
  1.862   1.878   1.942   1.980   2.023   2.038   2.078   2.114
  2.153   2.178   2.212   2.273   2.294   2.331   2.351   2.389
  2.418   2.432   2.448   2.469   2.482   2.522   2.530   2.548
  2.574   2.596   2.619   2.645   2.663   2.711   2.789   2.815
  2.888   2.912   2.992   3.156   3.163   3.260   3.292   3.395
  3.494   3.582   3.685   4.175   4.316   4.381   4.557   4.588
  4.690   4.729
 
 Beta MOs
 -- Occupied --
-14.335 -10.237 -10.227 -10.227 -10.226 -10.221 -10.216  -0.957
 -0.897  -0.755  -0.650  -0.641  -0.584  -0.546  -0.485  -0.482
 -0.471  -0.425  -0.381  -0.375  -0.342  -0.307  -0.277  -0.246
 -- Virtual --
 -0.080  -0.015  -0.001   0.016   0.023   0.031   0.044   0.051
  0.062   0.064   0.077   0.087   0.095   0.105   0.109   0.116
  0.119   0.125   0.130   0.143   0.148   0.162   0.175   0.176
  0.184   0.195   0.199   0.208   0.216   0.226   0.239   0.250
  0.265   0.268   0.272   0.299   0.303   0.314   0.320   0.328
  0.339   0.352   0.362   0.471   0.487   0.628   0.643   0.662
  0.668   0.683   0.717   0.742   0.746   0.751   0.764   0.782
  0.801   0.837   0.854   0.870   0.906   0.940   0.944   0.962
  0.982   1.010   1.015   1.040   1.081   1.121   1.132   1.146
  1.149   1.190   1.199   1.327   1.332   1.367   1.392   1.468
  1.511   1.536   1.584   1.617   1.651   1.697   1.753   1.781
  1.820   1.872   1.884   1.949   1.983   2.029   2.043   2.081
  2.125   2.159   2.188   2.221   2.278   2.297   2.334   2.356
  2.392   2.425   2.436   2.452   2.476   2.485   2.530   2.537
  2.553   2.578   2.603   2.626   2.651   2.670   2.718   2.790
  2.821   2.890   2.915   2.996   3.159   3.166   3.261   3.293
  3.397   3.497   3.586   3.688   4.173   4.327   4.389   4.561
  4.596   4.698   4.733
 --------------------------------------------------------------
 
          Ground-State Mulliken Net Atomic Charges

     Atom                 Charge (a.u.)    Spin (a.u.)
  --------------------------------------------------------
      1 C                    -0.159810       0.569365
      2 C                    -0.122873      -0.137413
      3 C                     0.072699       0.041704
      4 C                    -0.174232      -0.044098
      5 C                    -0.071141       0.456862
      6 N                    -0.202204      -0.150843
      7 H                     0.126106      -0.030774
      8 H                     0.137050       0.005990
      9 H                     0.139205      -0.003036
     10 H                     0.134888       0.006549
     11 H                     0.123325      -0.024186
     12 C                    -0.148158       0.321423
     13 H                     0.145144      -0.011545
  --------------------------------------------------------
  Sum of atomic charges =     0.000000
  Sum of spin   charges =     1.000000

 -----------------------------------------------------------------
                    Cartesian Multipole Moments
 -----------------------------------------------------------------
    Charge (ESU x 10^10)
                 0.0000
    Dipole Moment (Debye)
         X      -1.7772      Y      -2.6936      Z       0.2807
       Tot       3.2392
    Quadrupole Moments (Debye-Ang)
        XX     -38.6793     XY      -4.0873     YY     -43.1873
        XZ       0.5860     YZ       0.5458     ZZ     -43.0937
    Octopole Moments (Debye-Ang^2)
       XXX     -12.4141    XXY     -11.2071    XYY     -14.4009
       YYY     -32.1075    XXZ       2.9209    XYZ       2.8713
       YYZ       1.3892    XZZ      -8.6853    YZZ     -10.9443
       ZZZ       6.6019
    Hexadecapole Moments (Debye-Ang^3)
      XXXX    -292.2516   XXXY     -27.3637   XXYY    -115.9124
      XYYY     -47.2098   YYYY    -360.1796   XXXZ      20.2821
      XXYZ      10.0677   XYYZ      11.3898   YYYZ      27.9876
      XXZZ     -76.3758   XYZZ      -3.9232   YYZZ     -77.4644
      XZZZ      13.4581   YZZZ      22.5000   ZZZZ    -115.0458
 -----------------------------------------------------------------
 Calculating analytic gradient of the SCF energy
 Gradient of SCF Energy
            1           2           3           4           5           6
    1  -0.0001424   0.0130390   0.0048496  -0.0008124   0.0020785  -0.0037521
    2  -0.0074020   0.0026674   0.0000880   0.0002172  -0.0001176   0.0017976
    3  -0.0002530  -0.0185279   0.0078145   0.0030160   0.0009156  -0.0010831
            7           8           9          10          11          12
    1   0.0008069   0.0054333   0.0020015  -0.0011696   0.0001928  -0.0158784
    2   0.0004757  -0.0009667   0.0011147   0.0010029  -0.0004808   0.0016579
    3   0.0016678  -0.0049909   0.0026207  -0.0031358  -0.0001043   0.0072016
           13
    1  -0.0066468
    2  -0.0000545
    3   0.0048587
 Max gradient component =       1.853E-02
 RMS gradient           =       5.434E-03
 Gradient time:  CPU 17.38 s  wall 5.43 s
rPathMan2.  file_steps = 951
 IRC --- Status = 3.  Assess initial corrector step
 IRC --- bisector search: b =  0.000000 E =     -286.861660 G.B =  -0.002713
 IRC --- bisector search: b =  0.015000 E =     -286.861630 G.B =   0.006783
 IRC --- performed gradient/energy interpolation
 IRC --- bisector search:  estimate b(min) =   4.291729302100494E-003
 ----------------------------------------------------------------
             Standard Nuclear Orientation (Angstroms)
    I     Atom           X                Y                Z
 ----------------------------------------------------------------
    1      C       1.5938287225     0.4075468613    -0.1742807723
    2      C       0.8872780491    -0.8476895606    -0.0845180331
    3      C      -0.5341173677    -0.9881441503    -0.4399844245
    4      C      -1.1131742411     0.3411886857     0.0719696100
    5      C      -0.3515801667     1.5644819371    -0.2819743317
    6      N       0.9603946419     1.5832868637    -0.3553407638
    7      H       2.6651262329     0.4379135967     0.0076659526
    8      H       1.5001794394    -1.7509142446    -0.0300792489
    9      H      -1.0108871822    -1.7426940178    -1.0429445817
   10      H      -2.1990852010     0.4255778026     0.0152722222
   11      H      -0.8913859577     2.4738397341    -0.5368326721
   12      C      -0.5554257115    -0.7066576907     0.9857785007
   13      H      -0.9616646709    -1.2056481962     1.8665808065
 ----------------------------------------------------------------
 Nuclear Repulsion Energy =   275.0242518341 hartrees
 There are       25 alpha and       24 beta electrons

                       Distance Matrix (Angstroms)
             C (  1)   C (  2)   C (  3)   C (  4)   C (  5)   N (  6)
   C (  2)  1.443222
   C (  3)  2.558653  1.471886
   C (  4)  2.718990  2.332323  1.537703
   C (  5)  2.265990  2.718884  2.564018  1.483829
   N (  6)  1.347734  2.447108  2.975397  2.454606  1.314159
   H (  7)  1.087063  2.195909  3.531174  3.780085  3.233197  2.085609
   H (  8)  2.165299  1.092898  2.210928  3.349168  3.805827  3.393237
   H (  9)  3.487500  2.307086  1.077133  2.365600  3.457047  3.926945
   H ( 10)  3.797690  3.340181  2.231140  1.090660  2.190601  3.385256
   H ( 11)  3.252276  3.794837  3.481717  2.228908  1.087784  2.062793
   C ( 12)  2.684490  1.801893  1.453440  1.498036  2.608989  3.056167
   H ( 13)  3.646651  2.711736  2.355918  2.374087  3.558386  4.050853
             H (  7)   H (  8)   H (  9)   H ( 10)   H ( 11)   C ( 12)
   H (  8)  2.479817
   H (  9)  4.401353  2.707659
   H ( 10)  4.864233  4.292288  2.689431
   H ( 11)  4.134036  4.881079  4.248481  2.492042
   C ( 12)  3.555095  2.519514  2.323044  2.219337  3.542143
   H ( 13)  4.394368  3.155204  2.959084  2.760335  4.395448  1.090795

 
 Applying Cartesian multipole field
    Component          Value
    ---------          -----
     (2,0,0)        1.00000E-11
     (0,2,0)        2.00000E-11
     (0,0,2)       -3.00000E-11
 Nucleus-field energy     =     0.0000000049 hartrees
 Requested basis set is 6-31+G(d,p)
 There are 53 shells and 163 basis functions
 A cutoff of  1.0D-14 yielded   1390 shell pairs
 There are     13466 function pairs
 Smallest overlap matrix eigenvalue = 4.73E-05
 Guess MOs from core Hamiltonian diagonalization
 Mixing HOMO and LUMO in initial guess
 Adding  50% of the LUMO to the HOMO
 An unrestricted hybrid HF-DFT SCF calculation will be
 performed using Pulay DIIS extrapolation
 Exchange:     0.2000 Hartree-Fock + 0.0800 Slater + 0.7200 B88
 Correlation:  0.1900 VWN1RPA + 0.8100 LYP
 Using SG-1 standard quadrature grid
 SCF converges when DIIS error is below 1.0E-08
 using 4 threads for integral computing
 -------------------------------------------------------
 OpenMP Integral computing Module                
[...]
 
 Alpha MOs
 -- Occupied --
-14.337 -10.240 -10.235 -10.232 -10.230 -10.217 -10.206  -0.946
 -0.878  -0.776  -0.677  -0.651  -0.579  -0.540  -0.499  -0.492
 -0.460  -0.435  -0.387  -0.381  -0.370  -0.309  -0.268  -0.241
 -0.228
 -- Virtual --
 -0.048  -0.002   0.015   0.022   0.026   0.032   0.047   0.050
  0.068   0.073   0.075   0.092   0.099   0.113   0.115   0.121
  0.124   0.129   0.138   0.148   0.168   0.175   0.180   0.186
  0.193   0.198   0.202   0.212   0.225   0.233   0.253   0.262
  0.268   0.283   0.288   0.300   0.309   0.320   0.329   0.335
  0.353   0.385   0.463   0.505   0.592   0.628   0.649   0.667
  0.681   0.708   0.713   0.727   0.737   0.750   0.770   0.778
  0.824   0.835   0.883   0.897   0.926   0.935   0.950   0.985
  0.993   1.017   1.063   1.089   1.098   1.106   1.132   1.149
  1.182   1.205   1.239   1.311   1.351   1.374   1.438   1.474
  1.499   1.524   1.557   1.650   1.689   1.759   1.799   1.806
  1.864   1.880   1.901   1.960   1.983   2.008   2.078   2.089
  2.128   2.147   2.187   2.229   2.269   2.290   2.370   2.389
  2.404   2.417   2.436   2.455   2.476   2.507   2.520   2.526
  2.559   2.593   2.625   2.667   2.694   2.718   2.741   2.811
  2.867   2.933   3.014   3.178   3.215   3.277   3.291   3.366
  3.442   3.563   3.707   4.195   4.303   4.338   4.475   4.501
  4.577   4.734
 
 Beta MOs
 -- Occupied --
-14.337 -10.239 -10.235 -10.232 -10.217 -10.216 -10.205  -0.944
 -0.868  -0.774  -0.670  -0.649  -0.565  -0.535  -0.497  -0.483
 -0.456  -0.432  -0.386  -0.379  -0.362  -0.300  -0.263  -0.236
 -- Virtual --
 -0.090  -0.046   0.001   0.015   0.023   0.027   0.034   0.048
  0.050   0.072   0.074   0.078   0.093   0.099   0.113   0.115
  0.123   0.125   0.129   0.138   0.149   0.168   0.176   0.183
  0.189   0.194   0.200   0.206   0.213   0.228   0.235   0.257
  0.262   0.270   0.284   0.292   0.302   0.311   0.325   0.335
  0.340   0.360   0.392   0.465   0.506   0.598   0.633   0.665
  0.675   0.693   0.711   0.715   0.731   0.742   0.751   0.778
  0.791   0.829   0.840   0.886   0.900   0.927   0.937   0.952
  0.988   0.997   1.017   1.071   1.091   1.100   1.112   1.137
  1.151   1.185   1.209   1.244   1.315   1.354   1.377   1.447
  1.479   1.500   1.528   1.563   1.656   1.695   1.774   1.803
  1.816   1.883   1.889   1.905   1.968   1.987   2.014   2.085
  2.099   2.129   2.165   2.192   2.232   2.272   2.295   2.371
  2.392   2.407   2.420   2.439   2.459   2.480   2.509   2.523
  2.532   2.562   2.607   2.628   2.669   2.702   2.725   2.747
  2.818   2.874   2.938   3.018   3.180   3.216   3.282   3.292
  3.369   3.446   3.573   3.709   4.195   4.308   4.339   4.495
  4.511   4.579   4.735
 --------------------------------------------------------------
 
          Ground-State Mulliken Net Atomic Charges

     Atom                 Charge (a.u.)    Spin (a.u.)
  --------------------------------------------------------
      1 C                    -0.252404      -0.037369
      2 C                     0.077637       0.051799
      3 C                    -0.145009      -0.029715
      4 C                    -0.018456       0.029818
      5 C                    -0.052022      -0.051596
      6 N                    -0.181947       0.017945
      7 H                     0.124808       0.000892
      8 H                     0.133209       0.002928
      9 H                     0.144321       0.016377
     10 H                     0.144274       0.023756
     11 H                     0.128362       0.005015
     12 C                    -0.251397       0.991961
     13 H                     0.148624      -0.021809
  --------------------------------------------------------
  Sum of atomic charges =     0.000000
  Sum of spin   charges =     1.000000

 -----------------------------------------------------------------
                    Cartesian Multipole Moments
 -----------------------------------------------------------------
    Charge (ESU x 10^10)
                 0.0000
    Dipole Moment (Debye)
         X      -2.2059      Y      -2.2105      Z      -0.2164
       Tot       3.1303
    Quadrupole Moments (Debye-Ang)
        XX     -38.0862     XY      -3.3129     YY     -42.9240
        XZ      -0.6636     YZ       0.4401     ZZ     -43.8739
    Octopole Moments (Debye-Ang^2)
       XXX     -14.7569    XXY     -11.1369    XYY     -15.5688
       YYY     -30.3947    XXZ      -1.4340    XYZ       3.7843
       YYZ      -2.4192    XZZ      -9.1266    YZZ      -8.8463
       ZZZ      -2.7270
    Hexadecapole Moments (Debye-Ang^3)
      XXXX    -333.2566   XXXY     -20.0939   XXYY    -121.5150
      XYYY     -44.5903   YYYY    -355.0234   XXXZ      34.8646
      XXYZ       4.7784   XYYZ      14.5974   YYYZ      23.0594
      XXZZ     -81.4563   XYZZ      -2.8088   YYZZ     -79.3208
      XZZZ      37.7035   YZZZ      15.9151   ZZZZ    -127.3942
 -----------------------------------------------------------------
 Calculating analytic gradient of the SCF energy
 Gradient of SCF Energy
            1           2           3           4           5           6
    1  -0.0010081  -0.0001816  -0.0003245   0.0001427  -0.0011176   0.0012676
    2   0.0004377   0.0010889  -0.0004882  -0.0001069  -0.0001176  -0.0001411
    3   0.0001590   0.0003333  -0.0007801   0.0003200   0.0000102  -0.0001568
            7           8           9          10          11          12
    1   0.0004352   0.0005644   0.0000253  -0.0001031   0.0001923   0.0001542
    2  -0.0000133  -0.0009747   0.0001730   0.0000016  -0.0002786   0.0006771
    3   0.0002194  -0.0002327  -0.0001427   0.0000829  -0.0001783   0.0001407
           13
    1  -0.0000467
    2  -0.0002579
    3   0.0002252
 Max gradient component =       1.268E-03
 RMS gradient           =       4.793E-04
 Gradient time:  CPU 16.63 s  wall 4.31 s
rPathMan2.  file_steps = 952
 IRC --- Status = 3.  Assess initial corrector step
 IRC --- bisector search: b =  0.000000 E =     -286.876495 G.B =  -0.000638
 IRC --- bisector search: b =  0.005169 E =     -286.876490 G.B =   0.002368
 IRC --- performed gradient/energy interpolation
 IRC --- bisector search:  estimate b(min) =   1.096069125754020E-003
 ----------------------------------------------------------------
             Standard Nuclear Orientation (Angstroms)
    I     Atom           X                Y                Z
 ----------------------------------------------------------------
    1      C       1.6756163492     0.3741623496    -0.2333383158
    2      C       1.1015054039    -0.8503657307    -0.3104011113
    3      C      -0.3349695371    -1.0631059305    -0.0764820054
    4      C      -1.1536129488     0.3482322845     0.1004407423
    5      C      -0.3202320625     1.5361511003    -0.1508132195
    6      N       0.9684509840     1.5758546144    -0.2117664380
    7      H       2.7511024289     0.4878074313    -0.3296727490
    8      H       1.7059667862    -1.7187481500    -0.5596731491
    9      H      -0.8100379492    -1.8930352683    -0.6021791247
   10      H      -2.1805555833     0.4250505270    -0.2615359548
   11      H      -0.8545501568     2.4636167711    -0.3653133680
   12      C      -0.9130091336    -0.6056844812     1.1837897375
   13      H      -1.6461879896    -1.0878478877     1.8182572192
 ----------------------------------------------------------------
 Nuclear Repulsion Energy =   269.0134387081 hartrees
 There are       25 alpha and       24 beta electrons

                       Distance Matrix (Angstroms)
             C (  1)   C (  2)   C (  3)   C (  4)   C (  5)   N (  6)
   C (  2)  1.354626
   C (  3)  2.476449  1.470863
   C (  4)  2.848968  2.586694  1.641144
   C (  5)  2.310939  2.782493  2.600361  1.472686
   N (  6)  1.394494  2.431867  2.946408  2.471373  1.290735
   H (  7)  1.085756  2.124206  3.463131  3.930812  3.250248  2.091792
   H (  8)  2.118417  1.087013  2.197444  3.589618  3.855777  3.394021
   H (  9)  3.384480  2.196882  1.091252  2.373815  3.493274  3.917734
   H ( 10)  3.856611  3.521505  2.378033  1.091577  2.169702  3.353069
   H ( 11)  3.284049  3.848590  3.576473  2.186599  1.091650  2.033478
   C ( 12)  3.109555  2.520068  1.460017  1.463384  2.592298  3.201028
   H ( 13)  4.169041  3.483878  2.304331  2.292564  3.538470  4.248840
             H (  7)   H (  8)   H (  9)   H ( 10)   H ( 11)   C ( 12)
   H (  8)  2.452365
   H (  9)  4.292364  2.522392
   H ( 10)  4.932528  4.448574  2.714384
   H ( 11)  4.111669  4.907769  4.363313  2.434094
   C ( 12)  4.112421  3.337306  2.203987  2.181297  3.438568
   H ( 13)  5.141250  4.158068  2.684397  2.626776  4.243533  1.082858

 
 Applying Cartesian multipole field
    Component          Value
    ---------          -----
     (2,0,0)        1.00000E-11
     (0,2,0)        2.00000E-11
     (0,0,2)       -3.00000E-11
 Nucleus-field energy     =     0.0000000051 hartrees
 Requested basis set is 6-31+G(d,p)
 There are 53 shells and 163 basis functions
 A cutoff of  1.0D-14 yielded   1381 shell pairs
 There are     13441 function pairs
 Smallest overlap matrix eigenvalue = 2.91E-05
 Guess MOs from core Hamiltonian diagonalization
 Mixing HOMO and LUMO in initial guess
 Adding  50% of the LUMO to the HOMO
 An unrestricted hybrid HF-DFT SCF calculation will be
 performed using Pulay DIIS extrapolation
 Exchange:     0.2000 Hartree-Fock + 0.0800 Slater + 0.7200 B88
 Correlation:  0.1900 VWN1RPA + 0.8100 LYP
 Using SG-1 standard quadrature grid
 SCF converges when DIIS error is below 1.0E-08
 using 4 threads for integral computing
 -------------------------------------------------------
 OpenMP Integral computing Module                
 Release: version 1.0, May 2013, Q-Chem Inc. Pittsburgh 
 -------------------------------------------------------
 -------------------------------------------------------
 OpenMP BLAS3 based DFT computing Module                
 Release: version 1.0, May 2013, Q-Chem Inc. Pittsburgh 
 -------------------------------------------------------
 ---------------------------------------
  Cycle       Energy         DIIS Error
 ---------------------------------------
    1    -237.7674428173      9.40E-02
    2    -218.8374076509      7.18E-02
    3    -250.8632064709      7.77E-02
    4    -276.4055541257      5.37E-02
    5    -279.6543667784      4.31E-02
    6    -284.5424716105      2.14E-02
    7    -286.2934069491      1.27E-02
    8    -286.6867197566      7.25E-03
    9    -286.8615844404      2.01E-03
   10    -286.8731301404      9.21E-04
   11    -286.8761526392      3.08E-04
   12    -286.8764322907      1.28E-04
   13    -286.8764917204      1.32E-05
   14    -286.8764941945      6.18E-06
   15    -286.8764949079      2.85E-06
   16    -286.8764950955      5.24E-07
   17    -286.8764952064      1.48E-07
   18    -286.8764952315      5.57E-08
   19    -286.8764952371      2.25E-08
   20    -286.8764952393      1.46E-08
   21    -286.8764952400      8.31E-09 Convergence criterion met
 ---------------------------------------
 <S^2> = 0.7535
 SCF time:  CPU 105.64 s  wall 42.13 s
 SCF   energy in the final basis set = -286.87649524
 Total energy in the final basis set = -286.87649524
 
 --------------------------------------------------------------
 
                    Orbital Energies (a.u.)
 --------------------------------------------------------------
 
 Alpha MOs
 -- Occupied --
-14.337 -10.240 -10.235 -10.232 -10.230 -10.217 -10.206  -0.946
 -0.878  -0.776  -0.677  -0.651  -0.579  -0.540  -0.500  -0.492
 -0.460  -0.435  -0.387  -0.381  -0.370  -0.309  -0.267  -0.241
 -0.228
 -- Virtual --
 -0.048  -0.001   0.015   0.022   0.026   0.032   0.047   0.050
  0.068   0.073   0.075   0.092   0.099   0.113   0.115   0.121
  0.124   0.129   0.138   0.148   0.168   0.175   0.180   0.186
  0.193   0.198   0.202   0.212   0.225   0.233   0.253   0.262
  0.268   0.283   0.288   0.300   0.309   0.321   0.329   0.335
  0.353   0.386   0.463   0.505   0.592   0.628   0.649   0.667
  0.681   0.708   0.713   0.727   0.737   0.750   0.770   0.778
  0.824   0.835   0.883   0.898   0.926   0.935   0.950   0.985
  0.993   1.017   1.063   1.089   1.098   1.106   1.132   1.149
  1.182   1.205   1.239   1.311   1.351   1.374   1.438   1.474
  1.499   1.524   1.557   1.650   1.689   1.759   1.799   1.806
  1.864   1.880   1.902   1.960   1.983   2.008   2.077   2.089
  2.128   2.147   2.187   2.230   2.269   2.290   2.370   2.390
  2.405   2.416   2.437   2.455   2.476   2.506   2.520   2.527
  2.559   2.594   2.625   2.667   2.694   2.718   2.741   2.811
  2.867   2.934   3.014   3.179   3.216   3.277   3.293   3.367
  3.443   3.564   3.709   4.195   4.303   4.338   4.475   4.501
  4.577   4.734
 
 Beta MOs
 -- Occupied --
-14.337 -10.239 -10.235 -10.232 -10.218 -10.216 -10.205  -0.944
 -0.869  -0.774  -0.669  -0.649  -0.565  -0.535  -0.497  -0.483
 -0.456  -0.432  -0.386  -0.379  -0.362  -0.300  -0.263  -0.236
 -- Virtual --
 -0.090  -0.045   0.001   0.015   0.023   0.027   0.034   0.048
  0.050   0.071   0.074   0.078   0.093   0.099   0.113   0.116
  0.123   0.125   0.129   0.138   0.149   0.168   0.175   0.183
  0.189   0.194   0.200   0.206   0.213   0.228   0.235   0.257
  0.262   0.270   0.284   0.292   0.302   0.311   0.325   0.335
  0.340   0.360   0.393   0.465   0.506   0.598   0.632   0.665
  0.675   0.693   0.711   0.715   0.731   0.742   0.751   0.778
  0.791   0.829   0.840   0.886   0.900   0.927   0.938   0.952
  0.988   0.997   1.017   1.071   1.091   1.100   1.112   1.137
  1.151   1.185   1.209   1.244   1.315   1.354   1.377   1.447
  1.479   1.500   1.528   1.563   1.656   1.694   1.774   1.803
  1.816   1.883   1.889   1.906   1.968   1.987   2.014   2.084
  2.100   2.129   2.165   2.192   2.233   2.272   2.295   2.372
  2.393   2.407   2.420   2.439   2.459   2.480   2.509   2.523
  2.533   2.563   2.608   2.628   2.670   2.702   2.725   2.747
  2.818   2.874   2.939   3.018   3.180   3.217   3.282   3.294
  3.369   3.446   3.573   3.710   4.195   4.308   4.339   4.495
  4.512   4.579   4.735
 --------------------------------------------------------------
 
          Ground-State Mulliken Net Atomic Charges

     Atom                 Charge (a.u.)    Spin (a.u.)
  --------------------------------------------------------
      1 C                    -0.252055      -0.037249
      2 C                     0.077292       0.051706
      3 C                    -0.144196      -0.029788
      4 C                    -0.018990       0.029729
      5 C                    -0.051758      -0.051482
      6 N                    -0.182058       0.017931
      7 H                     0.124882       0.000894
      8 H                     0.133092       0.002908
      9 H                     0.144265       0.016537
     10 H                     0.144236       0.023685
     11 H                     0.128281       0.005033
     12 C                    -0.251570       0.991989
     13 H                     0.148579      -0.021892
  --------------------------------------------------------
  Sum of atomic charges =     0.000000
  Sum of spin   charges =     1.000000

 -----------------------------------------------------------------
                    Cartesian Multipole Moments
 -----------------------------------------------------------------
    Charge (ESU x 10^10)
                 0.0000
    Dipole Moment (Debye)
         X      -2.2009      Y      -2.2103      Z      -0.2157
       Tot       3.1266
    Quadrupole Moments (Debye-Ang)
        XX     -38.0771     XY      -3.3133     YY     -42.9246
        XZ      -0.6646     YZ       0.4384     ZZ     -43.8711
    Octopole Moments (Debye-Ang^2)
       XXX     -14.7285    XXY     -11.1261    XYY     -15.5606
       YYY     -30.3713    XXZ      -1.4301    XYZ       3.7852
       YYZ      -2.4134    XZZ      -9.1259    YZZ      -8.8395
       ZZZ      -2.7207
    Hexadecapole Moments (Debye-Ang^3)
      XXXX    -333.1308   XXXY     -20.0695   XXYY    -121.5090
      XYYY     -44.5710   YYYY    -355.0562   XXXZ      34.8432
      XXYZ       4.7855   XYYZ      14.5966   YYYZ      23.0668
      XXZZ     -81.4420   XYZZ      -2.8059   YYZZ     -79.3143
      XZZZ      37.6833   YZZZ      15.9343   ZZZZ    -127.3572
 -----------------------------------------------------------------
 Calculating analytic gradient of the SCF energy
 Gradient of SCF Energy
            1           2           3           4           5           6
    1  -0.0000437   0.0000911  -0.0000965  -0.0000390  -0.0000815   0.0000572
    2  -0.0000048   0.0000403   0.0000363   0.0000192   0.0000056   0.0001572
    3   0.0001063  -0.0000005  -0.0000936   0.0000840  -0.0000229  -0.0000958
            7           8           9          10          11          12
    1  -0.0000206   0.0000427  -0.0001089  -0.0001209   0.0000428   0.0001069
    2  -0.0000131  -0.0000634  -0.0000118   0.0000172  -0.0001349   0.0000023
    3   0.0002804   0.0000186  -0.0002712   0.0001319  -0.0002427   0.0000606
           13
    1   0.0001705
    2  -0.0000501
    3   0.0000450
 Max gradient component =       2.804E-04
 RMS gradient           =       1.046E-04
 Gradient time:  CPU 16.73 s  wall 4.41 s
rPathMan2.  file_steps = 952
 IRC --- Status = 4.  Checking bisector search.
 IRC --- Bisector search finished successfully.
 ------------------------------------------------------------------------
 Reaction path following.  The coordinates are cartesian              
 Step  45 E=    -286.876495 |G|=  0.000653 S_lin= 2.3546 S_tot= 2.6856
 ------------------------------------------------------------------------
  IRC -- convergence criterion reached.
 ----------------------------------------------------------------
             Standard Nuclear Orientation (Angstroms)
    I     Atom           X                Y                Z
 ----------------------------------------------------------------
    1      C       1.5984347897     0.3885287601    -0.1739450571
    2      C       0.9424011772    -0.8446051493    -0.1757696699
    3      C      -0.5066546816    -0.9919532158    -0.4031800304
    4      C      -1.1200555247     0.3449233748     0.0855975749
    5      C      -0.3459791143     1.5639288277    -0.2760550508
    6      N       0.9495447869     1.5831455464    -0.3611205073
    7      H       2.6661205843     0.4391808047     0.0133393687
    8      H       1.5248361562    -1.7547741179    -0.0538157379
    9      H      -0.9973499013    -1.7339315185    -1.0258078735
   10      H      -2.2037119529     0.4310588253     0.0006652124
   11      H      -0.8907344675     2.4711123322    -0.5366950965
   12      C      -0.6326716826    -0.6962835615     1.0151240085
   13      H      -0.9946935826    -1.2082432875     1.8929751225
 ----------------------------------------------------------------
 Nuclear Repulsion Energy =   273.9150671200 hartrees
 There are       25 alpha and       24 beta electrons
 Here is where we should summarize the reaction path
Archival summary:
1\1\c8-73\JobtypUnspecified\ProcedureUnspecified\6-31+G**\166(2)\hpark21\WedMar201:07:242022WedMar201:07:242022\0\\#,JobtypUnspecified,ProcedureUnspecified,6-31+G**,\\0,2\N\C,1,1.29846\H,2,1.0898,1,118.083\C,1,1.3723,2,116.741,3,-172.868,0\H,4,1.08517,1,116.624,2,-164.524,0\C,4,1.39678,1,123.111,2,13.4882,0\H,6,1.08743,4,119.158,1,177.999,0\C,6,1.47417,4,123.375,1,1.17383,0\H,8,1.08581,6,126.94,4,136.69,0\C,8,1.45427,6,85.0899,4,-83.5836,0\H,10,1.07879,8,136.57,6,-117.279,0\C,10,1.4784,8,63.8046,6,110.485,0\H,12,1.09039,10,115.61,8,105.558,0\\\@

 Total job time:  15902.56s(wall), 33785.24s(cpu) 
 Wed Mar  2 01:07:24 2022

        *************************************************************
        *                                                           *
        *  Thank you very much for using Q-Chem.  Have a nice day.  *
        *                                                           *
        *************************************************************


