
Running Job 1 of 1 qcts2.in
qchem qcts2.in_44584.0 ./qcts2.d/ 1
/home/leeping/opt/qchem/5.0.2-openmp/exe/qcprog.exe_s qcts2.in_44584.0 ./qcts2.d/
Check license passed

                  Welcome to Q-Chem
     A Quantum Leap Into The Future Of Chemistry


 Q-Chem 5.0, Q-Chem, Inc., Pleasanton, CA (2017)

 Yihan Shao,  Zhengting Gan,  E. Epifanovsky,  A. T. B. Gilbert,  M. Wormit,  
 J. Kussmann,  A. W. Lange,  A. Behn,  Jia Deng,  Xintian Feng,  D. Ghosh,  
 M. Goldey,  P. R. Horn,  L. D. Jacobson,  I. Kaliman,  T. Kus,  A. Landau,  
 Jie Liu,  E. I. Proynov,  R. M. Richard,  R. P. Steele,  E. J. Sundstrom,  
 H. L. Woodcock III,  P. M. Zimmerman,  D. Zuev,  B. Albrecht,  E. Alguire,  
 S. A. Baeppler,  D. Barton,  Z. Benda,  Y. A. Bernard,  E. J. Berquist,  
 K. B. Bravaya,  H. Burton,  D. Casanova,  Chun-Min Chang,  Yunqing Chen,  
 A. Chien,  K. D. Closser,  M. P. Coons,  S. Dasgupta,  A. L. Dempwolff,  
 M. Diedenhofen,  Hainam Do,  R. G. Edgar,  Po-Tung Fang,  S. Fatehi,  
 Qingguo Feng,  J. Fosso-Tande,  Qinghui Ge,  A. Ghysels,  G. Gidofalvi,  
 J. Gomes,  J. Gonthier,  A. Gunina,  M. W. D. Hanson-Heine,  
 P. H. P. Harbach,  A. W. Hauser,  J. E. Herr,  E. G. Hohenstein,  
 Z. C. Holden,  Kerwin Hui,  T.-C. Jagau,  Hyunjun Ji,  B. Kaduk,  
 K. Khistyaev,  Jaehoon Kim,  P. Klunzinger,  K. Koh,  D. Kosenkov,  
 L. Koulias,  T. Kowalczyk,  C. M. Krauter,  A. Kunitsa,  Ka Un Lao,  
 A. Laurent,  K. V. Lawler,  Joonho Lee,  D. Lefrancois,  S. Lehtola,  
 D. S. Levine,  Yi-Pei Li,  You-Sheng Lin,  Fenglai Liu,  E. Livshits,  
 A. Luenser,  P. Manohar,  E. Mansoor,  S. F. Manzer,  Shan-Ping Mao,  
 Yuezhi Mao,  N. Mardirossian,  A. V. Marenich,  T. Markovich,  
 L. A. Martinez-Martinez,  S. A. Maurer,  N. J. Mayhall,  S. C. McKenzie,  
 J.-M. Mewes,  A. F. Morrison,  J. W. Mullinax,  K. Nanda,  
 T. S. Nguyen-Beck,  R. Olivares-Amaya,  J. A. Parkhill,  T. M. Perrine,  
 F. Plasser,  S. Prager,  A. Prociuk,  E. Ramos,  D. R. Rehn,  F. Rob,  
 M. Schneider,  N. Sergueev,  S. M. Sharada,  S. Sharma,  D. W. Small,  
 T. Stauch,  T. Stein,  Yu-Chuan Su,  A. J. W. Thom,  A. Tkatchenko,  
 T. Tsuchimochi,  L. Vogt,  O. Vydrov,  M. A. Watson,  J. Wenzel,  
 M. de Wergifosse,  T. A. Wesolowski,  A. White,  J. Witte,  A. Yamada,  
 Jun Yang,  K. Yao,  S. Yeganeh,  S. R. Yost,  Zhi-Qiang You,  A. Zech,  
 Igor Ying Zhang,  Xing Zhang,  Yan Zhao,  Ying Zhu,  B. R. Brooks,  
 G. K. L. Chan,  C. J. Cramer,  M. S. Gordon,  W. J. Hehre,  A. Klamt,  
 M. W. Schmidt,  C. D. Sherrill,  D. G. Truhlar,  A. Aspuru-Guzik,  R. Baer,  
 A. T. Bell,  N. A. Besley,  Jeng-Da Chai,  R. A. DiStasio Jr.,  A. Dreuw,  
 B. D. Dunietz,  T. R. Furlani,  Chao-Ping Hsu,  Yousung Jung,  Jing Kong,  
 D. S. Lambrecht,  WanZhen Liang,  C. Ochsenfeld,  V. A. Rassolov,  
 L. V. Slipchenko,  J. E. Subotnik,  T. Van Voorhis,  J. M. Herbert,  
 A. I. Krylov,  P. M. W. Gill,  M. Head-Gordon

 Contributors to earlier versions of Q-Chem not listed above: 
 R. D. Adamson,  B. Austin,  J. Baker,  G. J. O. Beran,  K. Brandhorst,  
 S. T. Brown,  E. F. C. Byrd,  A. K. Chakraborty,  C.-L. Cheng,  
 Siu Hung Chien,  D. M. Chipman,  D. L. Crittenden,  H. Dachsel,  
 R. J. Doerksen,  A. D. Dutoi,  L. Fusti-Molnar,  W. A. Goddard III,  
 A. Golubeva-Zadorozhnaya,  S. R. Gwaltney,  G. Hawkins,  A. Heyden,  
 S. Hirata,  G. Kedziora,  F. J. Keil,  C. Kelley,  Jihan Kim,  R. A. King,  
 R. Z. Khaliullin,  P. P. Korambath,  W. Kurlancheek,  A. M. Lee,  M. S. Lee,  
 S. V. Levchenko,  Ching Yeh Lin,  D. Liotard,  R. C. Lochan,  I. Lotan,  
 P. E. Maslen,  N. Nair,  D. P. O'Neill,  D. Neuhauser,  E. Neuscamman,  
 C. M. Oana,  R. Olson,  B. Peters,  R. Peverati,  P. A. Pieniazek,  
 Y. M. Rhee,  J. Ritchie,  M. A. Rohrdanz,  E. Rosta,  N. J. Russ,  
 H. F. Schaefer III,  N. E. Schultz,  N. Shenvi,  A. C. Simmonett,  A. Sodt,  
 D. Stuck,  K. S. Thanthiriwatte,  V. Vanovschi,  Tao Wang,  A. Warshel,  
 C. F. Williams,  Q. Wu,  X. Xu,  W. Zhang

 Please cite Q-Chem as follows:
 Y. Shao et al., Mol. Phys. 113, 184-215 (2015)
 DOI: 10.1080/00268976.2014.952696

 Q-Chem 5.0.2 for Intel X86 EM64T Linux

 Parts of Q-Chem use Armadillo 5.200.1 (Boston Tea Smuggler).
 http://arma.sourceforge.net/

 Q-Chem begins on Tue Mar  1 20:30:51 2022  

Host: 
0

     Scratch files written to ./qcts2.d//
 Dec517 15110_ 26548  26544 5633   
Processing $rem in /home/leeping/opt/qchem/5.0.2-openmp/config/preferences.
 MEM_STATIC 2000
 MEM_TOTAL  8000
 SYMMETRY   OFF
 SYM_IGNORE TRUE 

Checking the input file for inconsistencies... 	...done.

--------------------------------------------------------------
User input:
--------------------------------------------------------------
$molecule
0 2
C        1.5984347897    0.3885287601   -0.1739450571
C        0.9424011772   -0.8446051493   -0.1757696699
C       -0.5066546816   -0.9919532158   -0.4031800304
C       -1.1200555247    0.3449233748    0.0855975749
C       -0.3459791143    1.5639288277   -0.2760550508
N        0.9495447869    1.5831455464   -0.3611205073
H        2.6661205843    0.4391808047    0.0133393687
H        1.5248361562   -1.7547741179   -0.0538157379
H       -0.9973499013   -1.7339315185   -1.0258078735
H       -2.2037119529    0.4310588253    0.0006652124
H       -0.8907344675    2.4711123322   -0.5366950965
C       -0.6326716826   -0.6962835615    1.0151240085
H       -0.9946935826   -1.2082432875    1.8929751225
$end

$rem
method                b3lyp
basis                 6-31+g(d,p)
unrestricted          true
symmetry              off
sym_ignore            true
incdft                false
incfock               0
scf_convergence       8
thresh                14
jobtype               freq
scf_guess             read
scf_algorithm         diis
max_scf_cycles        100
$end

--------------------------------------------------------------
 ----------------------------------------------------------------
             Standard Nuclear Orientation (Angstroms)
    I     Atom           X                Y                Z
 ----------------------------------------------------------------
    1      C       1.5984347897     0.3885287601    -0.1739450571
    2      C       0.9424011772    -0.8446051493    -0.1757696699
    3      C      -0.5066546816    -0.9919532158    -0.4031800304
    4      C      -1.1200555247     0.3449233748     0.0855975749
    5      C      -0.3459791143     1.5639288277    -0.2760550508
    6      N       0.9495447869     1.5831455464    -0.3611205073
    7      H       2.6661205843     0.4391808047     0.0133393687
    8      H       1.5248361562    -1.7547741179    -0.0538157379
    9      H      -0.9973499013    -1.7339315185    -1.0258078735
   10      H      -2.2037119529     0.4310588253     0.0006652124
   11      H      -0.8907344675     2.4711123322    -0.5366950965
   12      C      -0.6326716826    -0.6962835615     1.0151240085
   13      H      -0.9946935826    -1.2082432875     1.8929751225
 ----------------------------------------------------------------
 Nuclear Repulsion Energy =   273.9150671200 hartrees
 There are       25 alpha and       24 beta electrons
 Requested basis set is 6-31+G(d,p)
 There are 53 shells and 163 basis functions

 Total QAlloc Memory Limit   8000 MB
 Mega-Array Size      1956 MB
 MEM_STATIC part      2000 MB

                       Distance Matrix (Angstroms)
             C (  1)   C (  2)   C (  3)   C (  4)   C (  5)   N (  6)
   C (  2)  1.396783
   C (  3)  2.527782  1.474174
   C (  4)  2.731200  2.395207  1.549969
   C (  5)  2.274365  2.733316  2.564081  1.488610
   N (  6)  1.372298  2.434826  2.958618  2.452753  1.298456
   H (  7)  1.085170  2.157563  3.505444  3.788038  3.228243  2.096547
   H (  8)  2.147928  1.087433  2.197932  3.379884  3.816167  3.401045
   H (  9)  3.459567  2.296976  1.085808  2.360491  3.444168  3.903231
   H ( 10)  3.806392  3.399482  2.251235  1.090387  2.193431  3.376569
   H ( 11)  3.265686  3.805869  3.486856  2.227222  1.089804  2.050839
   C ( 12)  2.751098  1.980172  1.454265  1.478403  2.618758  3.097298
   H ( 13)  3.680510  2.857319  2.357391  2.386348  3.579170  4.080792
             H (  7)   H (  8)   H (  9)   H ( 10)   H ( 11)   C ( 12)
   H (  8)  2.473960
   H (  9)  4.384434  2.703077
   H ( 10)  4.869856  4.322373  2.682562
   H ( 11)  4.133098  4.891449  4.234736  2.484851
   C ( 12)  3.629722  2.630185  2.318428  2.183620  3.536543
   H ( 13)  4.432674  3.230591  2.965746  2.780265  4.410415  1.078789

 
 A cutoff of  1.0D-14 yielded   1389 shell pairs
 There are     13465 function pairs
 Smallest overlap matrix eigenvalue = 4.28E-05
 Guess MOs from SCF MO coefficient file
 Reading MOs from coefficient file
 Reading MOs from coefficient file
 An unrestricted hybrid HF-DFT SCF calculation will be
 performed using Pulay DIIS extrapolation
 Exchange:     0.2000 Hartree-Fock + 0.0800 Slater + 0.7200 B88
 Correlation:  0.1900 VWN1RPA + 0.8100 LYP
 Using SG-1 standard quadrature grid
 SCF converges when DIIS error is below 1.0E-08
Using Q-Chem read-in guess as SCF_GUESS READ specified.

 -------------------------------------------------------
 OpenMP BLAS3 based DFT computing Module                
 -------------------------------------------------------
 ---------------------------------------
  Cycle       Energy         DIIS Error
 ---------------------------------------
    1    -286.8561843435      6.54E-10
    2    -286.8561843435      9.71E-10 Convergence criterion met
 ---------------------------------------
 <S^2> = 0.7877
 SCF time:  CPU 6.93 s  wall 19.59 s
 SCF   energy in the final basis set = -286.85618434
 Total energy in the final basis set = -286.85618434
 
 --------------------------------------------------------------
 
                    Orbital Energies (a.u.)
 --------------------------------------------------------------
 
 Alpha MOs
 -- Occupied --
-14.335 -10.233 -10.229 -10.229 -10.227 -10.226 -10.221  -0.957
 -0.894  -0.769  -0.661  -0.650  -0.590  -0.546  -0.494  -0.491
 -0.473  -0.434  -0.390  -0.380  -0.355  -0.311  -0.277  -0.259
 -0.175
 -- Virtual --
 -0.041  -0.000   0.016   0.021   0.026   0.043   0.048   0.056
  0.065   0.076   0.081   0.087   0.097   0.104   0.116   0.118
  0.122   0.127   0.143   0.148   0.160   0.174   0.177   0.184
  0.191   0.197   0.205   0.213   0.224   0.238   0.252   0.258
  0.265   0.270   0.292   0.295   0.308   0.319   0.325   0.341
  0.352   0.375   0.470   0.496   0.616   0.638   0.650   0.672
  0.674   0.708   0.720   0.738   0.747   0.760   0.779   0.802
  0.839   0.856   0.872   0.905   0.936   0.945   0.961   0.983
  1.005   1.012   1.040   1.074   1.087   1.125   1.135   1.149
  1.170   1.204   1.289   1.325   1.363   1.382   1.450   1.494
  1.521   1.563   1.603   1.648   1.676   1.746   1.804   1.809
  1.854   1.878   1.943   2.000   2.016   2.054   2.062   2.112
  2.131   2.172   2.198   2.262   2.280   2.319   2.351   2.399
  2.424   2.449   2.452   2.467   2.484   2.495   2.526   2.545
  2.589   2.597   2.629   2.642   2.658   2.708   2.787   2.815
  2.879   2.935   2.993   3.169   3.180   3.282   3.293   3.377
  3.510   3.587   3.697   4.180   4.321   4.388   4.528   4.604
  4.661   4.730
 
 Beta MOs
 -- Occupied --
-14.337 -10.231 -10.229 -10.228 -10.228 -10.216 -10.215  -0.953
 -0.889  -0.763  -0.655  -0.644  -0.577  -0.542  -0.488  -0.486
 -0.470  -0.431  -0.380  -0.376  -0.349  -0.306  -0.264  -0.248
 -- Virtual --
 -0.079  -0.028   0.000   0.016   0.022   0.029   0.044   0.050
  0.058   0.066   0.076   0.087   0.091   0.099   0.109   0.116
  0.119   0.123   0.130   0.143   0.149   0.162   0.175   0.179
  0.186   0.194   0.200   0.207   0.214   0.226   0.241   0.251
  0.261   0.268   0.272   0.295   0.297   0.310   0.321   0.328
  0.346   0.357   0.379   0.473   0.499   0.619   0.644   0.666
  0.675   0.689   0.712   0.736   0.742   0.753   0.764   0.784
  0.807   0.844   0.861   0.875   0.908   0.939   0.947   0.964
  0.984   1.007   1.011   1.043   1.076   1.090   1.130   1.140
  1.153   1.176   1.206   1.297   1.331   1.372   1.385   1.455
  1.504   1.530   1.568   1.612   1.651   1.682   1.755   1.811
  1.816   1.858   1.892   1.948   2.004   2.019   2.057   2.070
  2.127   2.137   2.181   2.206   2.266   2.286   2.321   2.357
  2.404   2.431   2.452   2.457   2.471   2.486   2.501   2.533
  2.548   2.594   2.602   2.633   2.648   2.662   2.714   2.790
  2.825   2.882   2.940   2.997   3.171   3.181   3.285   3.293
  3.379   3.512   3.594   3.700   4.178   4.328   4.394   4.533
  4.618   4.670   4.732
 --------------------------------------------------------------
 
          Ground-State Mulliken Net Atomic Charges

     Atom                 Charge (a.u.)    Spin (a.u.)
  --------------------------------------------------------
      1 C                    -0.194174       0.427718
      2 C                    -0.084048      -0.193793
      3 C                     0.052016      -0.001416
      4 C                    -0.135710      -0.048246
      5 C                    -0.038468       0.277299
      6 N                    -0.192590      -0.095544
      7 H                     0.126859      -0.023053
      8 H                     0.140477       0.010886
      9 H                     0.139504       0.000527
     10 H                     0.137576       0.019271
     11 H                     0.124898      -0.013500
     12 C                    -0.219754       0.661949
     13 H                     0.143415      -0.022099
  --------------------------------------------------------
  Sum of atomic charges =    -0.000000
  Sum of spin   charges =     1.000000

 -----------------------------------------------------------------
                    Cartesian Multipole Moments
 -----------------------------------------------------------------
    Charge (ESU x 10^10)
                -0.0000
    Dipole Moment (Debye)
         X      -1.8157      Y      -2.4644      Z       0.2356
       Tot       3.0701
    Quadrupole Moments (Debye-Ang)
        XX     -38.8901     XY      -4.0598     YY     -42.8305
        XZ       0.8457     YZ       0.4956     ZZ     -43.2586
    Octopole Moments (Debye-Ang^2)
       XXX     -12.0851    XXY     -10.3637    XYY     -14.1204
       YYY     -31.1311    XXZ       3.0431    XYZ       2.7359
       YYZ       1.7805    XZZ      -8.8110    YZZ     -10.6663
       ZZZ       6.6961
    Hexadecapole Moments (Debye-Ang^3)
      XXXX    -299.3631   XXXY     -25.4376   XXYY    -116.3955
      XYYY     -46.5945   YYYY    -357.3434   XXXZ      25.4504
      XXYZ       9.6001   XYYZ      13.0617   YYYZ      27.1597
      XXZZ     -78.6437   XYZZ      -3.5246   YYZZ     -77.4040
      XZZZ      18.0543   YZZZ      21.3069   ZZZZ    -117.7783
 -----------------------------------------------------------------
 Calculating MO derivatives via CPSCF
   1         3          39      0.287536    0.061432
   2         3          39      0.037978    0.006946
   3         3          39      0.004881    0.000757
   4         3          39      0.000648    0.000111
   5        28          14      0.000048    0.000009
   6        42           0      0.000000    0.000000    Roots Converged
 Time for AOints: 19.6 s (CPU) 23.6 s (wall)
 ------------------------------------------------------------------------------
                     AOints        : Timing summary (seconds)
 ------------------------------------------------------------------------------
     job step          cpu (% of tot)      sys (% of tot)     wall (% of tot)
 ------------------------------------------------------------------------------
  cpscf_lag         0.1159E+03 (28.5)   0.4200E-04 (38.9)   0.1309E+03 (28.8)
  iterzp            0.2703E+03 (66.5)   0.6300E-04 (58.3)   0.2999E+03 (65.9)
  make_fx           0.0000E+00 ( 0.0)   0.0000E+00 ( 0.0)   0.0000E+00 ( 0.0)
  AOints            0.1958E+02 ( 4.8)   0.1000E-05 ( 0.9)   0.2362E+02 ( 5.2)
 ------------------------------------------------------------------------------
   Grand Totals     0.4061E+03          0.1080E-03          0.4548E+03
 ------------------------------------------------------------------------------
 Calculating analytic Hessian of the SCF energy
 Polarizability Matrix (a.u.)
            1           2           3
    1 -82.9293631  -0.7096601   5.9060161
    2  -0.7096601 -81.2594353   6.5922754
    3   5.9060161   6.5922754 -57.8758467
 
 Direct stationary perturbation theory relativistic correction:
 
 rels  =       0.069362506575
 relv  =      -0.338933862800
 rel2e =       0.156690713291
 E_rel =      -0.112880642935
 
 Hessian of the SCF Energy
            1           2           3           4           5           6
    1   0.7119535   0.0272447   0.0880998  -0.1512138  -0.1109674  -0.0293411
    2   0.0272447   0.5403429  -0.0135025  -0.0188143  -0.2552733  -0.0757955
    3   0.0880998  -0.0135025   0.1353977  -0.0289638  -0.0082735  -0.0352597
    4  -0.1512138  -0.0188143  -0.0289638   0.4990890  -0.0546649   0.1487716
    5  -0.1109674  -0.2552733  -0.0082735  -0.0546649   0.6895585   0.0149479
    6  -0.0293411  -0.0757955  -0.0352597   0.1487716   0.0149479   0.0558956
    7  -0.0160242   0.0031252  -0.0103688  -0.2697405  -0.0293317  -0.0070699
    8  -0.0262620   0.0143382  -0.0123374  -0.0274161  -0.0915153  -0.0048642
    9   0.0070458   0.0330047   0.0012920  -0.0899679  -0.0396934  -0.0097257
   10   0.0023131  -0.0141094   0.0007172  -0.0139675   0.0501395  -0.0090315
   11   0.0056509  -0.0115815  -0.0048176   0.0069045  -0.0013150  -0.0010765
   12  -0.0027985  -0.0039828  -0.0085604   0.0065251  -0.0027024   0.0145365
   13  -0.0664789   0.0916491  -0.0091155  -0.0315702  -0.0311681   0.0270496
   14   0.0448857  -0.0144068   0.0019092   0.0076688   0.0012584   0.0006840
   15  -0.0071263   0.0047897   0.0060424  -0.0003297   0.0017527  -0.0020579
   16  -0.1307606   0.0223367  -0.0101204   0.0552932   0.0377485  -0.0373546
   17   0.0694749  -0.2067633   0.0242081  -0.0215900  -0.0724837   0.0292255
   18  -0.0177835   0.0069307  -0.0618070   0.0142895   0.0104863   0.0014510
   19  -0.3289405  -0.0233446  -0.0515974  -0.0095678   0.0012717  -0.0032895
   20  -0.0248137  -0.0550464   0.0012848  -0.0277645   0.0011249  -0.0060817
   21  -0.0536077   0.0023429  -0.0385410  -0.0016952   0.0001431   0.0055333
   22   0.0121875  -0.0131994   0.0003291  -0.1332991   0.1279479  -0.0143654
   23   0.0188112  -0.0164842   0.0032177   0.1242843  -0.2566447   0.0283065
   24  -0.0002880  -0.0018908   0.0023791  -0.0231809   0.0296457  -0.0440908
   25  -0.0019296   0.0043459  -0.0031913  -0.0081485  -0.0214632  -0.0097571
   26   0.0003633  -0.0028848  -0.0001585   0.0021014   0.0033937  -0.0013638
   27   0.0020348   0.0027005   0.0001229  -0.0015188   0.0041653   0.0035730
   28   0.0009713  -0.0003330   0.0002370   0.0007785   0.0012133  -0.0008128
   29   0.0007619   0.0000265   0.0005993  -0.0010014  -0.0074911   0.0032559
   30   0.0000853  -0.0002379   0.0007847  -0.0001452  -0.0040346  -0.0009858
   31  -0.0035113  -0.0002040   0.0002394  -0.0010092   0.0001761  -0.0002778
   32  -0.0010862   0.0053648   0.0031588  -0.0017660   0.0001220  -0.0003975
   33   0.0026761   0.0055496   0.0111129  -0.0028154  -0.0010196  -0.0013959
   34  -0.0272666  -0.0681097   0.0221457   0.0525011   0.0250924  -0.0589899
   35  -0.0058116  -0.0003085   0.0030336   0.0192121  -0.0076909   0.0132668
   36   0.0106536   0.0385271  -0.0145064  -0.0164348  -0.0033418   0.0139867
   37  -0.0013000  -0.0105871   0.0015891   0.0108547   0.0040059  -0.0055316
   38   0.0017483   0.0026763   0.0016780  -0.0071538  -0.0030437  -0.0001073
   39   0.0003498   0.0015643   0.0015428  -0.0045344  -0.0020757  -0.0014602
            7           8           9          10          11          12
    1  -0.0160242  -0.0262620   0.0070458   0.0023131   0.0056509  -0.0027985
    2   0.0031252   0.0143382   0.0330047  -0.0141094  -0.0115815  -0.0039828
    3  -0.0103688  -0.0123374   0.0012920   0.0007172  -0.0048176  -0.0085604
    4  -0.2697405  -0.0274161  -0.0899679  -0.0139675   0.0069045   0.0065251
    5  -0.0293317  -0.0915153  -0.0396934   0.0501395  -0.0013150  -0.0027024
    6  -0.0070699  -0.0048642  -0.0097257  -0.0090315  -0.0010765   0.0145365
    7   0.4672189   0.0986625   0.0772218  -0.0760970   0.0293075  -0.0194548
    8   0.0986625   0.4438170   0.2323895   0.0246122  -0.1145518  -0.0219432
    9   0.0772218   0.2323895   0.4662945   0.0154764  -0.0808581  -0.0282259
   10  -0.0760970   0.0246122   0.0154764   0.6407735  -0.0288014   0.0252678
   11   0.0293075  -0.1145518  -0.0808581  -0.0288014   0.4744646  -0.1057463
   12  -0.0194548  -0.0219432  -0.0282259   0.0252678  -0.1057463   0.2159787
   13   0.0049020  -0.0064467  -0.0048436  -0.1219036  -0.0311761   0.0083686
   14   0.0015698  -0.0390763   0.0132763  -0.0598898  -0.1536442   0.0323295
   15  -0.0107102  -0.0103980  -0.0030257   0.0171859   0.0359112  -0.0690180
   16   0.0033627   0.0128142   0.0104342  -0.0410923  -0.0352700   0.0090633
   17   0.0039900  -0.0016735  -0.0137237  -0.0232076   0.0058911   0.0150370
   18   0.0031813   0.0061940   0.0011533   0.0120804   0.0039309   0.0155594
   19   0.0018854  -0.0015653  -0.0005996   0.0002751  -0.0002348   0.0003314
   20  -0.0003810  -0.0042433  -0.0000009   0.0002646   0.0005334  -0.0000104
   21  -0.0023659  -0.0004152   0.0051644   0.0006802   0.0025453  -0.0009596
   22  -0.0173720   0.0245991   0.0008234  -0.0071435  -0.0016613  -0.0024988
   23  -0.0029954   0.0060759   0.0003836  -0.0015254   0.0014413   0.0002118
   24   0.0042980   0.0059673  -0.0025253   0.0028651   0.0048337   0.0023986
   25  -0.1100879  -0.0923598  -0.0747821   0.0062951   0.0071443   0.0090691
   26  -0.0907821  -0.1800498  -0.1200645  -0.0114002  -0.0100135  -0.0100632
   27  -0.0757411  -0.1188449  -0.1297487   0.0046923   0.0060826  -0.0033275
   28  -0.0035415  -0.0011254  -0.0027002  -0.3218836   0.0165764  -0.0164455
   29   0.0179991   0.0013432   0.0071100   0.0163903  -0.0510832   0.0012057
   30   0.0205619   0.0013442   0.0025762  -0.0258085   0.0034835  -0.0362168
   31   0.0006672  -0.0021580   0.0001570   0.0087135  -0.0119158   0.0058137
   32   0.0005633  -0.0027635   0.0003042   0.0114188  -0.0118957   0.0080522
   33   0.0042743  -0.0003091  -0.0013590  -0.0050271   0.0049578   0.0080310
   34   0.0164875  -0.0039752   0.0630644  -0.0780720   0.0356735  -0.0135418
   35  -0.0408568  -0.0404029  -0.0172477   0.0477662  -0.1219681   0.0803682
   36   0.0081739  -0.0887159  -0.2896874  -0.0390303   0.1324326  -0.1073978
   37  -0.0016606   0.0006206  -0.0013297   0.0017892   0.0078021  -0.0096995
   38   0.0091296   0.0087021  -0.0148801  -0.0116577  -0.0062775   0.0072439
   39   0.0079997   0.0119329  -0.0121827  -0.0000679  -0.0016791  -0.0027980
           13          14          15          16          17          18
    1  -0.0664789   0.0448857  -0.0071263  -0.1307606   0.0694749  -0.0177835
    2   0.0916491  -0.0144068   0.0047897   0.0223367  -0.2067633   0.0069307
    3  -0.0091155   0.0019092   0.0060424  -0.0101204   0.0242081  -0.0618070
    4  -0.0315702   0.0076688  -0.0003297   0.0552932  -0.0215900   0.0142895
    5  -0.0311681   0.0012584   0.0017527   0.0377485  -0.0724837   0.0104863
    6   0.0270496   0.0006840  -0.0020579  -0.0373546   0.0292255   0.0014510
    7   0.0049020   0.0015698  -0.0107102   0.0033627   0.0039900   0.0031813
    8  -0.0064467  -0.0390763  -0.0103980   0.0128142  -0.0016735   0.0061940
    9  -0.0048436   0.0132763  -0.0030257   0.0104342  -0.0137237   0.0011533
   10  -0.1219036  -0.0598898   0.0171859  -0.0410923  -0.0232076   0.0120804
   11  -0.0311761  -0.1536442   0.0359112  -0.0352700   0.0058911   0.0039309
   12   0.0083686   0.0323295  -0.0690180   0.0090633   0.0150370   0.0155594
   13   0.7585429  -0.0912512  -0.0127699  -0.4487893  -0.0155059   0.0370962
   14  -0.0912512   0.5738175  -0.1220269  -0.0146643  -0.0973698   0.0146861
   15  -0.0127699  -0.1220269   0.1799462   0.0365675   0.0067050  -0.0624720
   16  -0.4487893  -0.0146643   0.0365675   0.6402680  -0.0610159  -0.0308805
   17  -0.0155059  -0.0973698   0.0067050  -0.0610159   0.3754209  -0.0430782
   18   0.0370962   0.0146861  -0.0624720  -0.0308805  -0.0430782   0.0935915
   19   0.0026932   0.0021422  -0.0018676  -0.0160871   0.0071619  -0.0020322
   20   0.0027706  -0.0047575   0.0017296   0.0347141  -0.0017098   0.0051860
   21  -0.0048880  -0.0010749   0.0047520   0.0009031   0.0000634  -0.0018590
   22  -0.0007628  -0.0012023  -0.0000913  -0.0001347  -0.0028207  -0.0012117
   23  -0.0025193   0.0000507  -0.0002435  -0.0025666  -0.0041514   0.0006727
   24  -0.0014470  -0.0010189   0.0007337  -0.0021106  -0.0010855   0.0067337
   25  -0.0014729  -0.0014996   0.0008901   0.0012863  -0.0001489  -0.0001672
   26   0.0020967   0.0018211  -0.0026575  -0.0024560  -0.0001602   0.0010500
   27  -0.0026501  -0.0005219   0.0025440   0.0021112  -0.0009562  -0.0001301
   28  -0.0127800   0.0049343  -0.0012711  -0.0012098  -0.0038360   0.0003138
   29  -0.0272975   0.0072525  -0.0026553  -0.0025548  -0.0043111   0.0024245
   30   0.0085360  -0.0020387   0.0001133  -0.0005665   0.0031060   0.0005787
   31  -0.1100417   0.1040585  -0.0315123  -0.0290924   0.0297203  -0.0068902
   32   0.1074331  -0.2523424   0.0627615   0.0052723   0.0044542  -0.0034100
   33  -0.0308033   0.0648976  -0.0528885   0.0000159  -0.0077757  -0.0034527
   34   0.0247847   0.0063034   0.0104542  -0.0265576   0.0139229  -0.0063853
   35   0.0004685  -0.0249237   0.0214278   0.0056819   0.0049741  -0.0045623
   36  -0.0143840   0.0013707  -0.0060838   0.0216697  -0.0108578   0.0108471
   37   0.0028765  -0.0030553   0.0005806  -0.0064862   0.0038550  -0.0016106
   38   0.0009467   0.0023205   0.0029037  -0.0000400  -0.0021173  -0.0005107
   39  -0.0001491  -0.0024722   0.0014142   0.0002679  -0.0008679  -0.0001939
           19          20          21          22          23          24
    1  -0.3289405  -0.0248137  -0.0536077   0.0121875   0.0188112  -0.0002880
    2  -0.0233446  -0.0550464   0.0023429  -0.0131994  -0.0164842  -0.0018908
    3  -0.0515974   0.0012848  -0.0385410   0.0003291   0.0032177   0.0023791
    4  -0.0095678  -0.0277645  -0.0016952  -0.1332991   0.1242843  -0.0231809
    5   0.0012717   0.0011249   0.0001431   0.1279479  -0.2566447   0.0296457
    6  -0.0032895  -0.0060817   0.0055333  -0.0143654   0.0283065  -0.0440908
    7   0.0018854  -0.0003810  -0.0023659  -0.0173720  -0.0029954   0.0042980
    8  -0.0015653  -0.0042433  -0.0004152   0.0245991   0.0060759   0.0059673
    9  -0.0005996  -0.0000009   0.0051644   0.0008234   0.0003836  -0.0025253
   10   0.0002751   0.0002646   0.0006802  -0.0071435  -0.0015254   0.0028651
   11  -0.0002348   0.0005334   0.0025453  -0.0016613   0.0014413   0.0048337
   12   0.0003314  -0.0000104  -0.0009596  -0.0024988   0.0002118   0.0023986
   13   0.0026932   0.0027706  -0.0048880  -0.0007628  -0.0025193  -0.0014470
   14   0.0021422  -0.0047575  -0.0010749  -0.0012023   0.0000507  -0.0010189
   15  -0.0018676   0.0017296   0.0047520  -0.0000913  -0.0002435   0.0007337
   16  -0.0160871   0.0347141   0.0009031  -0.0001347  -0.0025666  -0.0021106
   17   0.0071619  -0.0017098   0.0000634  -0.0028207  -0.0041514  -0.0010855
   18  -0.0020322   0.0051860  -0.0018590  -0.0012117   0.0006727   0.0067337
   19   0.3510428   0.0149900   0.0578986   0.0004145  -0.0003008   0.0005035
   20   0.0149900   0.0633805  -0.0016420   0.0003956   0.0006381  -0.0001939
   21   0.0578986  -0.0016420   0.0297445   0.0007396  -0.0005155  -0.0029545
   22   0.0004145   0.0003956   0.0007396   0.1418824  -0.1347349   0.0210108
   23  -0.0003008   0.0006381  -0.0005155  -0.1347349   0.2678145  -0.0303394
   24   0.0005035  -0.0001939  -0.0029545   0.0210108  -0.0303394   0.0296962
   25  -0.0004279  -0.0009475   0.0008179   0.0006271   0.0006293   0.0004756
   26   0.0000056   0.0000134  -0.0003300  -0.0003572   0.0001609   0.0000738
   27   0.0003167   0.0004578  -0.0000574  -0.0003530  -0.0003601  -0.0000792
   28  -0.0000133   0.0000316  -0.0001639  -0.0001073  -0.0004658   0.0002582
   29   0.0000021   0.0001905  -0.0004011   0.0017351   0.0003615  -0.0012005
   30   0.0000355  -0.0000101  -0.0000256   0.0012414   0.0002146   0.0005200
   31  -0.0005622   0.0011084   0.0000733   0.0002677   0.0002926  -0.0001735
   32  -0.0001112  -0.0001112   0.0000252   0.0001429   0.0000484  -0.0004703
   33   0.0000930  -0.0005779   0.0005106   0.0002705   0.0001813  -0.0015017
   34  -0.0004856  -0.0002881   0.0010366   0.0035524   0.0007425  -0.0017778
   35   0.0000341  -0.0001685  -0.0006374  -0.0009938   0.0006821  -0.0040730
   36   0.0002337  -0.0002145  -0.0014308  -0.0062589  -0.0016943   0.0093774
   37  -0.0002265  -0.0000801   0.0005713  -0.0001121   0.0003484  -0.0004333
   38  -0.0000510   0.0001559  -0.0001039   0.0001490   0.0000070  -0.0002484
   39  -0.0000262   0.0000730   0.0001232   0.0003642  -0.0000355  -0.0006873
           25          26          27          28          29          30
    1  -0.0019296   0.0003633   0.0020348   0.0009713   0.0007619   0.0000853
    2   0.0043459  -0.0028848   0.0027005  -0.0003330   0.0000265  -0.0002379
    3  -0.0031913  -0.0001585   0.0001229   0.0002370   0.0005993   0.0007847
    4  -0.0081485   0.0021014  -0.0015188   0.0007785  -0.0010014  -0.0001452
    5  -0.0214632   0.0033937   0.0041653   0.0012133  -0.0074911  -0.0040346
    6  -0.0097571  -0.0013638   0.0035730  -0.0008128   0.0032559  -0.0009858
    7  -0.1100879  -0.0907821  -0.0757411  -0.0035415   0.0179991   0.0205619
    8  -0.0923598  -0.1800498  -0.1188449  -0.0011254   0.0013432   0.0013442
    9  -0.0747821  -0.1200645  -0.1297487  -0.0027002   0.0071100   0.0025762
   10   0.0062951  -0.0114002   0.0046923  -0.3218836   0.0163903  -0.0258085
   11   0.0071443  -0.0100135   0.0060826   0.0165764  -0.0510832   0.0034835
   12   0.0090691  -0.0100632  -0.0033275  -0.0164455   0.0012057  -0.0362168
   13  -0.0014729   0.0020967  -0.0026501  -0.0127800  -0.0272975   0.0085360
   14  -0.0014996   0.0018211  -0.0005219   0.0049343   0.0072525  -0.0020387
   15   0.0008901  -0.0026575   0.0025440  -0.0012711  -0.0026553   0.0001133
   16   0.0012863  -0.0024560   0.0021112  -0.0012098  -0.0025548  -0.0005665
   17  -0.0001489  -0.0001602  -0.0009562  -0.0038360  -0.0043111   0.0031060
   18  -0.0001672   0.0010500  -0.0001301   0.0003138   0.0024245   0.0005787
   19  -0.0004279   0.0000056   0.0003167  -0.0000133   0.0000021   0.0000355
   20  -0.0009475   0.0000134   0.0004578   0.0000316   0.0001905  -0.0000101
   21   0.0008179  -0.0003300  -0.0000574  -0.0001639  -0.0004011  -0.0000256
   22   0.0006271  -0.0003572  -0.0003530  -0.0001073   0.0017351   0.0012414
   23   0.0006293   0.0001609  -0.0003601  -0.0004658   0.0003615   0.0002146
   24   0.0004756   0.0000738  -0.0000792   0.0002582  -0.0012005   0.0005200
   25   0.1091419   0.0974328   0.0794837   0.0003005  -0.0003149  -0.0009435
   26   0.0974328   0.1828934   0.1291423   0.0001744   0.0009922   0.0009877
   27   0.0794837   0.1291423   0.1375907  -0.0001589  -0.0006534  -0.0003784
   28   0.0003005   0.0001744  -0.0001589   0.3427957  -0.0225849   0.0222223
   29  -0.0003149   0.0009922  -0.0006534  -0.0225849   0.0567451  -0.0081520
   30  -0.0009435   0.0009877  -0.0003784   0.0222223  -0.0081520   0.0361652
   31   0.0001548  -0.0001485   0.0001530   0.0005697   0.0006785  -0.0000519
   32   0.0001435  -0.0003374   0.0002288  -0.0003201   0.0004404  -0.0000350
   33  -0.0000832   0.0000328  -0.0003250   0.0003630  -0.0001544  -0.0004436
   34   0.0028460   0.0028869  -0.0085535  -0.0067192   0.0161511  -0.0259425
   35   0.0076065   0.0034332  -0.0228551   0.0054697  -0.0047170   0.0066249
   36  -0.0017083   0.0039709  -0.0120162  -0.0020891  -0.0017452  -0.0028575
   37   0.0014151   0.0000829   0.0001838   0.0008389   0.0000353   0.0007759
   38  -0.0005683   0.0007378   0.0014143   0.0002655   0.0002507  -0.0012526
   39  -0.0001037  -0.0006200   0.0022318   0.0002471   0.0003665   0.0001695
           31          32          33          34          35          36
    1  -0.0035113  -0.0010862   0.0026761  -0.0272666  -0.0058116   0.0106536
    2  -0.0002040   0.0053648   0.0055496  -0.0681097  -0.0003085   0.0385271
    3   0.0002394   0.0031588   0.0111129   0.0221457   0.0030336  -0.0145064
    4  -0.0010092  -0.0017660  -0.0028154   0.0525011   0.0192121  -0.0164348
    5   0.0001761   0.0001220  -0.0010196   0.0250924  -0.0076909  -0.0033418
    6  -0.0002778  -0.0003975  -0.0013959  -0.0589899   0.0132668   0.0139867
    7   0.0006672   0.0005633   0.0042743   0.0164875  -0.0408568   0.0081739
    8  -0.0021580  -0.0027635  -0.0003091  -0.0039752  -0.0404029  -0.0887159
    9   0.0001570   0.0003042  -0.0013590   0.0630644  -0.0172477  -0.2896874
   10   0.0087135   0.0114188  -0.0050271  -0.0780720   0.0477662  -0.0390303
   11  -0.0119158  -0.0118957   0.0049578   0.0356735  -0.1219681   0.1324326
   12   0.0058137   0.0080522   0.0080310  -0.0135418   0.0803682  -0.1073978
   13  -0.1100417   0.1074331  -0.0308033   0.0247847   0.0004685  -0.0143840
   14   0.1040585  -0.2523424   0.0648976   0.0063034  -0.0249237   0.0013707
   15  -0.0315123   0.0627615  -0.0528885   0.0104542   0.0214278  -0.0060838
   16  -0.0290924   0.0052723   0.0000159  -0.0265576   0.0056819   0.0216697
   17   0.0297203   0.0044542  -0.0077757   0.0139229   0.0049741  -0.0108578
   18  -0.0068902  -0.0034100  -0.0034527  -0.0063853  -0.0045623   0.0108471
   19  -0.0005622  -0.0001112   0.0000930  -0.0004856   0.0000341   0.0002337
   20   0.0011084  -0.0001112  -0.0005779  -0.0002881  -0.0001685  -0.0002145
   21   0.0000733   0.0000252   0.0005106   0.0010366  -0.0006374  -0.0014308
   22   0.0002677   0.0001429   0.0002705   0.0035524  -0.0009938  -0.0062589
   23   0.0002926   0.0000484   0.0001813   0.0007425   0.0006821  -0.0016943
   24  -0.0001735  -0.0004703  -0.0015017  -0.0017778  -0.0040730   0.0093774
   25   0.0001548   0.0001435  -0.0000832   0.0028460   0.0076065  -0.0017083
   26  -0.0001485  -0.0003374   0.0000328   0.0028869   0.0034332   0.0039709
   27   0.0001530   0.0002288  -0.0003250  -0.0085535  -0.0228551  -0.0120162
   28   0.0005697  -0.0003201   0.0003630  -0.0067192   0.0054697  -0.0020891
   29   0.0006785   0.0004404  -0.0001544   0.0161511  -0.0047170  -0.0017452
   30  -0.0000519  -0.0000350  -0.0004436  -0.0259425   0.0066249  -0.0028575
   31   0.1347973  -0.1198909   0.0326751  -0.0011711  -0.0014287  -0.0001430
   32  -0.1198909   0.2586441  -0.0693951  -0.0018938  -0.0010407  -0.0005611
   33   0.0326751  -0.0693951   0.0409128  -0.0010568   0.0037782   0.0010810
   34  -0.0011711  -0.0018938  -0.0010568   0.0960975   0.0159043  -0.0758001
   35  -0.0014287  -0.0010407   0.0037782   0.0159043   0.3007452  -0.2095766
   36  -0.0001430  -0.0005611   0.0010810  -0.0758001  -0.2095766   0.6441597
   37   0.0002177   0.0000944  -0.0005822  -0.0559970  -0.0530524   0.1151175
   38  -0.0002885  -0.0005831  -0.0001655  -0.0424101  -0.1086145   0.1404059
   39  -0.0000628  -0.0002617  -0.0002818   0.0953466   0.1304526  -0.2454721
           37          38          39
    1  -0.0013000   0.0017483   0.0003498
    2  -0.0105871   0.0026763   0.0015643
    3   0.0015891   0.0016780   0.0015428
    4   0.0108547  -0.0071538  -0.0045344
    5   0.0040059  -0.0030437  -0.0020757
    6  -0.0055316  -0.0001073  -0.0014602
    7  -0.0016606   0.0091296   0.0079997
    8   0.0006206   0.0087021   0.0119329
    9  -0.0013297  -0.0148801  -0.0121827
   10   0.0017892  -0.0116577  -0.0000679
   11   0.0078021  -0.0062775  -0.0016791
   12  -0.0096995   0.0072439  -0.0027980
   13   0.0028765   0.0009467  -0.0001491
   14  -0.0030553   0.0023205  -0.0024722
   15   0.0005806   0.0029037   0.0014142
   16  -0.0064862  -0.0000400   0.0002679
   17   0.0038550  -0.0021173  -0.0008679
   18  -0.0016106  -0.0005107  -0.0001939
   19  -0.0002265  -0.0000510  -0.0000262
   20  -0.0000801   0.0001559   0.0000730
   21   0.0005713  -0.0001039   0.0001232
   22  -0.0001121   0.0001490   0.0003642
   23   0.0003484   0.0000070  -0.0000355
   24  -0.0004333  -0.0002484  -0.0006873
   25   0.0014151  -0.0005683  -0.0001037
   26   0.0000829   0.0007378  -0.0006200
   27   0.0001838   0.0014143   0.0022318
   28   0.0008389   0.0002655   0.0002471
   29   0.0000353   0.0002507   0.0003665
   30   0.0007759  -0.0012526   0.0001695
   31   0.0002177  -0.0002885  -0.0000628
   32   0.0000944  -0.0005831  -0.0002617
   33  -0.0005822  -0.0001655  -0.0002818
   34  -0.0559970  -0.0424101   0.0953466
   35  -0.0530524  -0.1086145   0.1304526
   36   0.1151175   0.1404059  -0.2454721
   37   0.0477905   0.0499303  -0.0996312
   38   0.0499303   0.1057858  -0.1363772
   39  -0.0996312  -0.1363772   0.2575945
 Gradient time:  CPU 535.17 s  wall 596.85 s
 **********************************************************************
 **                                                                  **
 **                       VIBRATIONAL ANALYSIS                       **
 **                       --------------------                       **
 **                                                                  **
 **        VIBRATIONAL FREQUENCIES (CM**-1) AND NORMAL MODES         **
 **     FORCE CONSTANTS (mDYN/ANGSTROM) AND REDUCED MASSES (AMU)     **
 **                  INFRARED INTENSITIES (KM/MOL)                   **
 **                                                                  **
 **********************************************************************
 

 Mode:                 1                      2                      3
 Frequency:      -615.86                 313.01                 325.39
 Force Cnst:      1.0884                 0.1504                 0.1858
 Red. Mass:       4.8706                 2.6061                 2.9791
 IR Active:          YES                    YES                    YES
 IR Intens:       21.384                  2.334                  2.629
 Raman Active:       YES                    YES                    YES
               X      Y      Z        X      Y      Z        X      Y      Z
 C         -0.016  0.076 -0.023   -0.022 -0.001  0.214   -0.041 -0.031  0.029
 C         -0.231 -0.015  0.341   -0.019  0.004 -0.122   -0.021 -0.049 -0.156
 C         -0.134  0.004 -0.166   -0.030  0.094 -0.054   -0.035 -0.103  0.046
 C          0.024 -0.016 -0.027    0.012  0.035  0.149   -0.024 -0.020 -0.136
 C         -0.025  0.007 -0.018   -0.021 -0.042 -0.157   -0.028 -0.002 -0.063
 N          0.038 -0.010  0.012   -0.019 -0.044 -0.027   -0.005  0.010  0.225
 H          0.000 -0.021 -0.074   -0.068  0.008  0.465   -0.041 -0.084  0.044
 H         -0.240 -0.017  0.379   -0.048 -0.035 -0.285    0.022 -0.035 -0.232
 H         -0.130  0.012 -0.158   -0.107  0.123 -0.022   -0.102 -0.244  0.266
 H          0.008 -0.039  0.206    0.002  0.035  0.293   -0.031 -0.074 -0.091
 H         -0.001  0.028  0.033   -0.035 -0.176 -0.589    0.013  0.032 -0.028
 C          0.319 -0.037 -0.148    0.128 -0.019  0.025    0.116  0.193 -0.005
 H          0.589 -0.065 -0.048   -0.048 -0.186 -0.141    0.601  0.393  0.302
 TransDip   0.028 -0.136  0.052   -0.008  0.004 -0.048    0.007 -0.045  0.024

 Mode:                 4                      5                      6
 Frequency:       460.03                 528.97                 570.85
 Force Cnst:      0.1825                 0.9357                 0.6265
 Red. Mass:       1.4639                 5.6758                 3.2632
 IR Active:          YES                    YES                    YES
 IR Intens:       41.836                  4.948                  9.072
 Raman Active:       YES                    YES                    YES
               X      Y      Z        X      Y      Z        X      Y      Z
 C          0.005  0.019  0.043   -0.048  0.132 -0.052    0.188  0.025 -0.129
 C          0.016  0.016 -0.008   -0.151  0.122 -0.039    0.012  0.110  0.058
 C          0.004 -0.029  0.000   -0.176 -0.217  0.108    0.007  0.126 -0.006
 C         -0.013  0.030  0.074    0.130 -0.067  0.004   -0.164  0.002  0.068
 C          0.021  0.006 -0.008    0.141 -0.048 -0.173   -0.023 -0.173 -0.095
 N          0.022  0.006 -0.053    0.177  0.275  0.105    0.018 -0.085  0.177
 H         -0.001  0.017  0.081   -0.009 -0.129 -0.204    0.276 -0.005 -0.612
 H          0.029  0.030  0.046    0.023  0.221 -0.142   -0.096  0.015 -0.131
 H          0.000  0.107 -0.168   -0.135 -0.200  0.051    0.098  0.118 -0.066
 H         -0.007  0.066 -0.040    0.143  0.169  0.158   -0.158 -0.004  0.001
 H          0.008 -0.025 -0.088   -0.023 -0.199 -0.351    0.043 -0.236 -0.446
 C         -0.131 -0.076 -0.061   -0.069 -0.226  0.068   -0.062  0.025  0.004
 H          0.830  0.126  0.434   -0.408 -0.064  0.031    0.076 -0.094 -0.012
 TransDip   0.062 -0.001  0.198   -0.031 -0.015 -0.062    0.016 -0.035 -0.088

 Mode:                 7                      8                      9
 Frequency:       674.82                 747.56                 770.06
 Force Cnst:      0.8919                 0.6939                 0.6191
 Red. Mass:       3.3241                 2.1075                 1.7719
 IR Active:          YES                    YES                    YES
 IR Intens:        9.753                 25.542                 25.161
 Raman Active:       YES                    YES                    YES
               X      Y      Z        X      Y      Z        X      Y      Z
 C          0.140  0.054  0.062   -0.044 -0.017  0.082    0.015 -0.030 -0.156
 C         -0.061  0.186 -0.098   -0.061  0.009  0.017    0.027 -0.032 -0.007
 C         -0.112  0.023  0.001   -0.006  0.165  0.040   -0.016  0.100  0.018
 C         -0.156 -0.129 -0.085    0.068 -0.102 -0.133    0.053 -0.031 -0.009
 C          0.085 -0.160  0.110    0.007  0.002 -0.008   -0.019 -0.028 -0.106
 N          0.074 -0.012 -0.127    0.005  0.014 -0.039   -0.024  0.025  0.081
 H          0.047  0.027  0.601    0.038 -0.093 -0.377   -0.140  0.103  0.703
 H         -0.186  0.146  0.167   -0.079 -0.062 -0.458   -0.074 -0.044  0.365
 H         -0.024 -0.212  0.212   -0.009  0.317 -0.135   -0.126  0.353 -0.198
 H         -0.145  0.035 -0.008    0.082 -0.254 -0.436    0.054 -0.061 -0.041
 H          0.081 -0.061  0.463   -0.022  0.013  0.095   -0.041  0.056  0.227
 C          0.030  0.048  0.037    0.007 -0.047  0.145   -0.006 -0.046  0.065
 H          0.078 -0.037  0.007    0.258 -0.226  0.144    0.023  0.054  0.138
 TransDip  -0.006  0.007  0.100    0.044 -0.030 -0.153   -0.039  0.115  0.105

 Mode:                10                     11                     12
 Frequency:       810.55                 841.07                 899.86
 Force Cnst:      0.5579                 0.7100                 0.8257
 Red. Mass:       1.4412                 1.7034                 1.7307
 IR Active:          YES                    YES                    YES
 IR Intens:        5.748                  6.093                  6.597
 Raman Active:       YES                    YES                    YES
               X      Y      Z        X      Y      Z        X      Y      Z
 C          0.002  0.026  0.035    0.056  0.004  0.092   -0.088 -0.009  0.068
 C         -0.006  0.022  0.004    0.060  0.018 -0.007    0.035 -0.061 -0.064
 C         -0.026 -0.015 -0.044   -0.055 -0.004  0.043    0.019  0.044 -0.038
 C          0.106 -0.020 -0.001   -0.027  0.050 -0.025    0.005 -0.007  0.060
 C         -0.011 -0.119  0.057   -0.036  0.026 -0.158    0.021 -0.132 -0.037
 N         -0.032 -0.019 -0.015   -0.023 -0.044  0.006    0.025  0.095 -0.002
 H          0.029  0.028 -0.119    0.124  0.061 -0.297    0.003 -0.117 -0.439
 H          0.019  0.023 -0.111    0.002 -0.026 -0.054    0.019  0.027  0.683
 H         -0.047  0.280 -0.382    0.027 -0.005 -0.025   -0.206  0.102  0.078
 H          0.101  0.054  0.154   -0.053  0.086  0.359    0.024  0.073 -0.113
 H         -0.109 -0.186  0.041    0.083  0.354  0.728   -0.114 -0.125  0.282
 C         -0.004  0.053 -0.019    0.020 -0.091 -0.018   -0.006  0.077 -0.017
 H         -0.277  0.696  0.243   -0.078  0.117  0.067    0.096 -0.211 -0.149
 TransDip  -0.004  0.076  0.010    0.023  0.042  0.063   -0.026 -0.069  0.037

 Mode:                13                     14                     15
 Frequency:       913.99                 958.85                 974.11
 Force Cnst:      0.9245                 0.9041                 1.8661
 Red. Mass:       1.8784                 1.6690                 3.3378
 IR Active:          YES                    YES                    YES
 IR Intens:        9.104                  7.949                  8.366
 Raman Active:       YES                    YES                    YES
               X      Y      Z        X      Y      Z        X      Y      Z
 C          0.089  0.010  0.046   -0.085 -0.065 -0.003    0.048 -0.070  0.011
 C          0.073 -0.022 -0.082   -0.066  0.096 -0.056    0.090 -0.187  0.065
 C         -0.113 -0.003  0.065    0.079  0.065 -0.058   -0.010  0.065 -0.094
 C         -0.029 -0.014 -0.092    0.010 -0.077 -0.001   -0.204 -0.121  0.025
 C         -0.026  0.108  0.076    0.019  0.069 -0.017    0.002  0.046 -0.003
 N         -0.026 -0.018 -0.005    0.011 -0.044  0.021    0.086  0.248 -0.047
 H          0.140  0.085 -0.239   -0.060 -0.239 -0.134    0.048 -0.059  0.021
 H         -0.066 -0.019  0.622   -0.131  0.130  0.435   -0.097 -0.365 -0.302
 H         -0.267  0.232 -0.105    0.568 -0.259 -0.054    0.111 -0.053 -0.052
 H         -0.040 -0.086 -0.027   -0.015 -0.050  0.360   -0.253 -0.240  0.427
 H          0.040 -0.020 -0.525    0.091  0.086 -0.112   -0.078 -0.015 -0.081
 C          0.059 -0.084  0.009   -0.005 -0.027  0.053    0.006  0.005  0.031
 H         -0.080  0.105  0.072   -0.023  0.219  0.193   -0.121  0.405  0.217
 TransDip   0.051  0.061 -0.055    0.012  0.065  0.062   -0.073 -0.042  0.039

 Mode:                16                     17                     18
 Frequency:       983.20                1039.13                1057.68
 Force Cnst:      0.9801                 0.8482                 2.3187
 Red. Mass:       1.7208                 1.3332                 3.5179
 IR Active:          YES                    YES                    YES
 IR Intens:       17.696                  0.618                  2.746
 Raman Active:       YES                    YES                    YES
               X      Y      Z        X      Y      Z        X      Y      Z
 C          0.061  0.005 -0.001   -0.054 -0.002 -0.013    0.159  0.038  0.025
 C          0.036 -0.034  0.023    0.032 -0.010  0.013   -0.062  0.006 -0.020
 C         -0.053  0.100 -0.059    0.011 -0.036  0.055   -0.026 -0.150 -0.145
 C          0.145 -0.027 -0.072   -0.031  0.011 -0.116    0.095 -0.185  0.104
 C         -0.020 -0.017  0.026    0.018 -0.032  0.031   -0.042  0.155 -0.062
 N         -0.064  0.010  0.007    0.009  0.002 -0.001    0.001 -0.034  0.004
 H          0.059  0.166 -0.023   -0.063  0.000  0.030    0.183  0.082 -0.076
 H         -0.120 -0.139 -0.015    0.113  0.033 -0.051    0.007  0.053  0.077
 H         -0.100 -0.394  0.569    0.107  0.275 -0.391   -0.291  0.163 -0.322
 H          0.139  0.293  0.419   -0.062  0.324  0.628    0.054 -0.437  0.232
 H         -0.184 -0.150 -0.091    0.021 -0.066 -0.084   -0.000  0.236  0.114
 C         -0.092 -0.011 -0.000   -0.010  0.052  0.033   -0.128  0.201  0.103
 H          0.162 -0.094  0.045    0.174 -0.379 -0.141    0.082 -0.394 -0.153
 TransDip  -0.019 -0.047  0.125   -0.022 -0.000 -0.011    0.014  0.051 -0.001

 Mode:                19                     20                     21
 Frequency:      1097.81                1176.89                1223.37
 Force Cnst:      1.2167                 1.3493                 1.3484
 Red. Mass:       1.7135                 1.6534                 1.5292
 IR Active:          YES                    YES                    YES
 IR Intens:        8.482                 20.892                  0.284
 Raman Active:       YES                    YES                    YES
               X      Y      Z        X      Y      Z        X      Y      Z
 C         -0.129  0.067 -0.026   -0.025  0.076 -0.003   -0.061  0.121 -0.002
 C          0.086  0.011  0.041    0.035 -0.080 -0.014   -0.039 -0.051 -0.038
 C         -0.034  0.054 -0.070   -0.086 -0.026 -0.107    0.059  0.016  0.081
 C         -0.042 -0.070 -0.004   -0.027  0.013  0.023    0.011 -0.025  0.005
 C          0.066  0.009 -0.003    0.048 -0.008 -0.006    0.045 -0.027  0.006
 N          0.050 -0.088  0.014   -0.014 -0.029  0.012    0.042 -0.038  0.004
 H         -0.132  0.109 -0.027   -0.030  0.502 -0.075   -0.073  0.536 -0.059
 H          0.567  0.309 -0.068    0.005 -0.100  0.042   -0.530 -0.357  0.018
 H         -0.467  0.051  0.277    0.395 -0.242 -0.252    0.031  0.064  0.060
 H         -0.064 -0.164  0.153    0.035  0.467 -0.359   -0.027 -0.354  0.190
 H          0.299  0.125 -0.063    0.158  0.058 -0.004    0.252  0.079 -0.018
 C         -0.019 -0.015  0.015    0.024  0.004  0.138   -0.032  0.011 -0.068
 H         -0.044  0.126  0.087   -0.006 -0.043  0.120   -0.031  0.032 -0.069
 TransDip  -0.002  0.092  0.017    0.089  0.075 -0.089   -0.010 -0.010  0.010

 Mode:                22                     23                     24
 Frequency:      1296.19                1370.40                1385.47
 Force Cnst:      1.4995                 2.5497                 2.1383
 Red. Mass:       1.5148                 2.3043                 1.8907
 IR Active:          YES                    YES                    YES
 IR Intens:        2.309                  2.648                 10.034
 Raman Active:       YES                    YES                    YES
               X      Y      Z        X      Y      Z        X      Y      Z
 C          0.003  0.018  0.002   -0.021 -0.118  0.002    0.050  0.090 -0.001
 C         -0.035  0.030  0.005    0.090  0.086  0.047   -0.040 -0.073 -0.020
 C          0.162 -0.054 -0.058   -0.092  0.004  0.049    0.022 -0.014 -0.063
 C         -0.050 -0.039 -0.015    0.046 -0.114  0.061    0.033  0.144 -0.047
 C         -0.005  0.019 -0.008    0.075 -0.035 -0.003   -0.072 -0.115  0.036
 N         -0.027  0.002  0.001   -0.153  0.087 -0.002   -0.037  0.046 -0.017
 H          0.013 -0.126 -0.027   -0.032 -0.062 -0.020    0.073 -0.438  0.072
 H         -0.351 -0.170 -0.025   -0.157 -0.084 -0.095    0.088  0.010  0.075
 H         -0.520  0.213  0.167    0.075  0.006 -0.083    0.032 -0.107  0.025
 H         -0.002  0.605 -0.044    0.087  0.136 -0.110   -0.015 -0.373  0.126
 H          0.173  0.127 -0.028    0.784  0.346 -0.165    0.662  0.270 -0.099
 C          0.019 -0.039  0.059    0.011  0.050 -0.101   -0.022 -0.028  0.090
 H         -0.056  0.095  0.121    0.066 -0.036 -0.152    0.016 -0.061  0.106
 TransDip  -0.000  0.044 -0.021    0.029  0.042 -0.011    0.015 -0.098  0.021

 Mode:                25                     26                     27
 Frequency:      1422.43                1460.98                1586.37
 Force Cnst:      2.2893                 3.0649                 7.5371
 Red. Mass:       1.9204                 2.4371                 5.0833
 IR Active:          YES                    YES                    YES
 IR Intens:        1.649                  5.327                 22.631
 Raman Active:       YES                    YES                    YES
               X      Y      Z        X      Y      Z        X      Y      Z
 C          0.048 -0.178  0.021   -0.089 -0.067 -0.013    0.064  0.163 -0.002
 C         -0.125  0.022 -0.005    0.170  0.158  0.046   -0.083 -0.125 -0.006
 C          0.077 -0.022 -0.034   -0.049 -0.093 -0.119    0.038  0.014  0.018
 C         -0.019  0.078 -0.031   -0.003  0.138 -0.030   -0.073  0.003 -0.005
 C          0.063 -0.034  0.003    0.078 -0.011  0.002    0.431  0.066 -0.049
 N         -0.061  0.071 -0.001   -0.018 -0.011  0.010   -0.314 -0.024  0.022
 H          0.013  0.813 -0.102   -0.104 -0.049 -0.029    0.097 -0.534  0.015
 H          0.257  0.282  0.048   -0.563 -0.308 -0.039    0.144  0.003  0.024
 H         -0.150  0.048  0.064   -0.222 -0.080 -0.046    0.040  0.049 -0.013
 H         -0.050 -0.200  0.115   -0.061 -0.510  0.044   -0.103 -0.212  0.108
 H          0.097 -0.018 -0.021   -0.239 -0.195  0.036   -0.344 -0.341  0.150
 C          0.012 -0.028  0.032    0.010 -0.007  0.098    0.003 -0.011 -0.008
 H          0.016  0.009  0.067    0.046 -0.120  0.080   -0.015  0.044  0.019
 TransDip  -0.013  0.013  0.037   -0.063 -0.005 -0.039    0.110  0.105  0.002

 Mode:                28                     29                     30
 Frequency:      3128.73                3152.90                3177.26
 Force Cnst:      6.2641                 6.3838                 6.4861
 Red. Mass:       1.0861                 1.0900                 1.0905
 IR Active:          YES                    YES                    YES
 IR Intens:        9.558                 31.857                 14.173
 Raman Active:       YES                    YES                    YES
               X      Y      Z        X      Y      Z        X      Y      Z
 C         -0.000  0.001 -0.000    0.002  0.002  0.000    0.009 -0.001  0.001
 C          0.001 -0.003  0.000   -0.000 -0.000  0.000   -0.015  0.031 -0.004
 C          0.003  0.002  0.001   -0.002 -0.002 -0.002   -0.036 -0.054 -0.045
 C         -0.080  0.006 -0.005    0.027 -0.000  0.001   -0.005  0.002 -0.001
 C          0.013 -0.020  0.006    0.040 -0.069  0.020   -0.001  0.002 -0.000
 N          0.001 -0.001 -0.000    0.000 -0.001  0.000    0.000 -0.000 -0.000
 H          0.001 -0.000 -0.000   -0.040 -0.002 -0.007   -0.110 -0.004 -0.019
 H         -0.012  0.019 -0.002   -0.001  0.000  0.000    0.214 -0.341  0.045
 H         -0.024 -0.032 -0.030    0.017  0.022  0.021    0.408  0.615  0.513
 H          0.941 -0.075  0.071   -0.300  0.018 -0.020    0.061 -0.007  0.002
 H         -0.154  0.253 -0.072   -0.469  0.792 -0.228    0.008 -0.014  0.003
 C         -0.000  0.001 -0.001   -0.000 -0.000  0.001    0.001  0.002 -0.002
 H         -0.003 -0.006  0.015    0.005  0.005 -0.011   -0.019 -0.028  0.055
 TransDip  -0.098 -0.011 -0.007    0.127 -0.125  0.032   -0.081 -0.051 -0.073

 Mode:                31                     32                     33
 Frequency:      3184.05                3206.60                3274.65
 Force Cnst:      6.5048                 6.6215                 6.9358
 Red. Mass:       1.0890                 1.0930                 1.0978
 IR Active:          YES                    YES                    YES
 IR Intens:       10.460                 18.402                  0.611
 Raman Active:       YES                    YES                    YES
               X      Y      Z        X      Y      Z        X      Y      Z
 C         -0.029 -0.000 -0.005   -0.079 -0.007 -0.013   -0.001 -0.000  0.000
 C          0.038 -0.060  0.008   -0.016  0.030 -0.003   -0.001  0.001 -0.000
 C         -0.017 -0.025 -0.021    0.003  0.003  0.003    0.003  0.006  0.008
 C         -0.000  0.001  0.000    0.001 -0.000 -0.000    0.004 -0.004  0.002
 C          0.001  0.000 -0.000    0.003 -0.003  0.001    0.000 -0.001  0.000
 N         -0.001  0.001  0.000   -0.000  0.000  0.000    0.000  0.000 -0.000
 H          0.364  0.016  0.063    0.904  0.049  0.158    0.012  0.001  0.002
 H         -0.444  0.692 -0.094    0.199 -0.320  0.042    0.009 -0.010 -0.002
 H          0.190  0.282  0.234   -0.027 -0.037 -0.030   -0.029 -0.048 -0.036
 H         -0.000 -0.002 -0.002   -0.007 -0.000  0.000   -0.021  0.004 -0.001
 H          0.000 -0.000 -0.000   -0.019  0.030 -0.010   -0.004  0.007 -0.002
 C          0.000  0.002 -0.001    0.000 -0.001  0.001    0.026  0.042 -0.075
 H         -0.010 -0.018  0.031    0.007  0.010 -0.018   -0.324 -0.472  0.812
 TransDip  -0.012 -0.092 -0.046   -0.125  0.057 -0.008   -0.014 -0.016  0.013

 STANDARD THERMODYNAMIC QUANTITIES AT   298.15 K  AND     1.00 ATM

   This Molecule has  1 Imaginary Frequencies
   Zero point vibrational energy:       62.920 kcal/mol

   Atom    1 Element C  Has Mass   12.00000
   Atom    2 Element C  Has Mass   12.00000
   Atom    3 Element C  Has Mass   12.00000
   Atom    4 Element C  Has Mass   12.00000
   Atom    5 Element C  Has Mass   12.00000
   Atom    6 Element N  Has Mass   14.00307
   Atom    7 Element H  Has Mass    1.00783
   Atom    8 Element H  Has Mass    1.00783
   Atom    9 Element H  Has Mass    1.00783
   Atom   10 Element H  Has Mass    1.00783
   Atom   11 Element H  Has Mass    1.00783
   Atom   12 Element C  Has Mass   12.00000
   Atom   13 Element H  Has Mass    1.00783
   Molecular Mass:    92.050050 amu
   Principal axes and moments of inertia in amu*Bohr^2:
                             1           2           3
    Eigenvalues --      360.03763   492.28728   727.73963
          X               0.57974     0.79814     0.16396
          Y               0.78357    -0.60129     0.15643
          Z              -0.22344    -0.03778     0.97398
   Rotational Symmetry Number is   1
   The Molecule is an Asymmetric Top
   Translational Enthalpy:        0.889 kcal/mol
   Rotational Enthalpy:           0.889 kcal/mol
   Vibrational Enthalpy:         64.344 kcal/mol
   gas constant (RT):             0.592 kcal/mol
   Translational Entropy:        39.471  cal/mol.K
   Rotational Entropy:           26.358  cal/mol.K
   Vibrational Entropy:           6.679  cal/mol.K

   Total Enthalpy:               66.714 kcal/mol
   Total Entropy:                72.508  cal/mol.K
Archival summary:
1\1\c8-73\FREQ\ProcedureUnspecified\6-31+G**\166(2)\hpark21\TueMar120:41:152022TueMar120:41:152022\0\\#,FREQ,ProcedureUnspecified,6-31+G**,\\0,2\N\C,1,1.29846\H,2,1.0898,1,118.083\C,1,1.3723,2,116.741,3,-172.868,0\H,4,1.08517,1,116.624,2,-164.524,0\C,4,1.39678,1,123.111,2,13.4882,0\H,6,1.08743,4,119.158,1,177.999,0\C,6,1.47417,4,123.375,1,1.17383,0\H,8,1.08581,6,126.94,4,136.69,0\C,8,1.45427,6,85.0899,4,-83.5836,0\H,10,1.07879,8,136.57,6,-117.279,0\C,10,1.4784,8,63.8046,6,110.485,0\H,12,1.09039,10,115.61,8,105.558,0\\\@

 Total job time:  624.71s(wall), 542.35s(cpu) 
 Tue Mar  1 20:41:15 2022

        *************************************************************
        *                                                           *
        *  Thank you very much for using Q-Chem.  Have a nice day.  *
        *                                                           *
        *************************************************************


