13   
From optimize.out: Frame 2 / 3, Energy=    -286.8549693703
C        1.6724632058    0.3311160337   -0.3250581421
C        1.0799246500   -0.8827735733   -0.3043633466
C       -0.3513940272   -1.0536564506   -0.0024302983
C       -1.1382218189    0.3660142204    0.1145343891
C       -0.2937296476    1.5327570016   -0.2046341556
N        0.9889836982    1.5484623459   -0.3224042151
H        2.7439088975    0.4214526934   -0.4842405892
H        1.6596517633   -1.7760802000   -0.5235045788
H       -0.8555977654   -1.9047507362   -0.4640319070
H       -2.1712900106    0.4414158576   -0.2307127162
H       -0.8220975223    2.4664347263   -0.4127188969
C       -0.8868972542   -0.5249655330    1.2503662136
H       -1.6257041688   -0.9654263854    1.9091982433
13   
From optimize.out: Frame 1 / 3, Energy=    -286.8549634740
C        1.6719244300    0.3314353749   -0.3263684304
C        1.0804919954   -0.8827368243   -0.3028906980
C       -0.3507527567   -1.0539018818   -0.0009283149
C       -1.1374459887    0.3655191549    0.1144997203
C       -0.2933788804    1.5329140740   -0.2044643277
N        0.9893830326    1.5494008634   -0.3207906253
H        2.7422075792    0.4208289921   -0.4904210171
H        1.6607263659   -1.7761400112   -0.5208781153
H       -0.8552749424   -1.9042885575   -0.4636294932
H       -2.1694564510    0.4405403106   -0.2337429960
H       -0.8217658925    2.4674880807   -0.4096236613
C       -0.8881700081   -0.5252253241    1.2509821549
H       -1.6284884833   -0.9658342518    1.9082558041
13   
From optimize.out: Frame 45 / 46, Energy=    -286.8549634740
C        1.6719244300    0.3314353749   -0.3263684304
C        1.0804919954   -0.8827368243   -0.3028906980
C       -0.3507527567   -1.0539018818   -0.0009283149
C       -1.1374459887    0.3655191549    0.1144997203
C       -0.2933788804    1.5329140740   -0.2044643277
N        0.9893830326    1.5494008634   -0.3207906253
H        2.7422075792    0.4208289921   -0.4904210171
H        1.6607263659   -1.7761400112   -0.5208781153
H       -0.8552749424   -1.9042885575   -0.4636294932
H       -2.1694564510    0.4405403106   -0.2337429960
H       -0.8217658925    2.4674880807   -0.4096236613
C       -0.8881700081   -0.5252253241    1.2509821549
H       -1.6284884833   -0.9658342518    1.9082558041
13   
From optimize.out: Frame 44 / 46, Energy=    -286.8549599020
C        1.6703713361    0.3292816963   -0.3318700191
C        1.0774863686   -0.8825873028   -0.3091388441
C       -0.3420801879   -1.0587624809    0.0174513391
C       -1.1546551535    0.3588069311    0.0879929480
C       -0.2932335270    1.5284740908   -0.1864814104
N        0.9913833581    1.5424401276   -0.2780023437
H        2.7375171795    0.4228795614   -0.5095414402
H        1.6530384458   -1.7638842277   -0.5752905270
H       -0.8359847037   -1.9377188483   -0.4024568201
H       -2.1721455411    0.4152399429   -0.3102957538
H       -0.7999300751    2.4794881448   -0.3669711396
C       -0.9026932236   -0.4992803414    1.2459868877
H       -1.6290742762   -0.9343772936    1.9186171233
13   
From optimize.out: Frame 43 / 46, Energy=    -286.8549523897
C        1.6847563716    0.3296748224   -0.2826777709
C        1.0771312808   -0.8750607971   -0.2985733501
C       -0.3462736046   -1.0352924168    0.0237886544
C       -1.1702486184    0.3634059179    0.0605415939
C       -0.2962968402    1.5266758184   -0.1884990205
N        0.9927936900    1.5459481577   -0.2160974950
H        2.7415761359    0.3887465019   -0.5482981462
H        1.6269522093   -1.7600050695   -0.5994729270
H       -0.8178803874   -1.9429839741   -0.3693899991
H       -2.1851575365    0.4493878650   -0.3385993157
H       -0.8234347246    2.4597796460   -0.3961902406
C       -0.9093485997   -0.4771770015    1.2354762656
H       -1.5745693761   -0.9730994702    1.9179917513
13   
From optimize.out: Frame 42 / 46, Energy=    -286.8549403722
C        1.6794538263    0.3346697013   -0.2664584906
C        1.0695577042   -0.8711531066   -0.3177707217
C       -0.3467420653   -1.0326544634   -0.0062649339
C       -1.1750481103    0.3575848033    0.0417972998
C       -0.2914582339    1.5225899269   -0.2031743972
N        0.9948058361    1.5527435533   -0.1745338013
H        2.7397638706    0.3794056862   -0.5401067290
H        1.6091934734   -1.7831777033   -0.5809180702
H       -0.7928255107   -1.9327704738   -0.3892826898
H       -2.2112950679    0.4704853523   -0.3257815831
H       -0.8386283976    2.4486176897   -0.4192026831
C       -0.8885946492   -0.4750973373    1.2217029155
H       -1.5481826756   -0.9712436287    1.9599938847
13   
From optimize.out: Frame 41 / 46, Energy=    -286.8549243670
C        1.6739786952    0.3323885911   -0.2965804184
C        1.0595984894   -0.8715037834   -0.3332088728
C       -0.3492235257   -1.0083217538   -0.0009365051
C       -1.1887541258    0.3597340065    0.0249334967
C       -0.2924291883    1.5098343842   -0.2222339441
N        0.9963458592    1.5474688489   -0.2087189503
H        2.7367191583    0.3820636316   -0.5155801130
H        1.5925772934   -1.7957837099   -0.4881949485
H       -0.8043332690   -1.9062859602   -0.4056289470
H       -2.2318347405    0.4875175691   -0.3200642550
H       -0.8288444594    2.4441557801   -0.3833362900
C       -0.9071966338   -0.4459682484    1.2259659019
H       -1.4566035529   -1.0352993558    1.9235838455
13   
From optimize.out: Frame 40 / 46, Energy=    -286.8549042142
C        1.6733345738    0.3327046911   -0.3401720936
C        1.0508447236   -0.8664361881   -0.3456341269
C       -0.3568951569   -0.9900252301   -0.0010314344
C       -1.2084738183    0.3667350753    0.0091980993
C       -0.2841719614    1.4986710394   -0.2391817771
N        0.9978231958    1.5449101224   -0.2610933816
H        2.7385431465    0.3942268702   -0.5000837116
H        1.5883182358   -1.8059775859   -0.3904895885
H       -0.8176993049   -1.8844069072   -0.4188064218
H       -2.2455087122    0.4970524405   -0.3132047677
H       -0.8032041196    2.4493983986   -0.3403490800
C       -0.9292260485   -0.4197704465    1.2359975088
H       -1.4036847538   -1.1170822795    1.9048507753
13   
From optimize.out: Frame 38 / 46, Energy=    -286.8548603203
C        1.6808223130    0.3306596505   -0.3698015869
C        1.0680815516   -0.8618711133   -0.3122273758
C       -0.3509546856   -0.9863801244    0.0325552332
C       -1.2306508420    0.3773093138   -0.0108017031
C       -0.2746452884    1.4996007290   -0.2341892381
N        0.9932072352    1.5358678430   -0.3076102326
H        2.7536661858    0.4111125396   -0.5383339800
H        1.6085040453   -1.8084301951   -0.3576446985
H       -0.8336417865   -1.9140458535   -0.4331126939
H       -2.2600216096    0.5154627300   -0.3382083735
H       -0.7761126579    2.4734843394   -0.2914043850
C       -0.9688365618   -0.3889670108    1.2590669582
H       -1.4094178992   -1.1838028482    1.9017120760
13   
From optimize.out: Frame 37 / 46, Energy=    -286.8548366883
C        1.6777257196    0.3229837965   -0.3638690908
C        1.0697537952   -0.8747469742   -0.2818789779
C       -0.3251506271   -0.9518857291    0.0128620502
C       -1.2152580035    0.3577288503    0.0001826333
C       -0.2826177669    1.4889390613   -0.2292640597
N        0.9758225304    1.5170988607   -0.3465677791
H        2.7489378230    0.4120114230   -0.5275396070
H        1.6121646536   -1.8104481408   -0.3927699374
H       -0.8344650429   -1.8556186723   -0.3683046526
H       -2.2305486222    0.5285096684   -0.3465330998
H       -0.7780288315    2.4685514286   -0.2876288644
C       -1.0428948210   -0.3861991842    1.2598258769
H       -1.3754408067   -1.2169243882    1.8714855082
13   
From optimize.out: Frame 36 / 46, Energy=    -286.8547896838
C        1.6769415285    0.3293999714   -0.3830445089
C        1.0471568445   -0.8611834280   -0.2719294458
C       -0.3721879572   -0.9319946732    0.0015037628
C       -1.1993257301    0.3563430768    0.0201231328
C       -0.2718906396    1.5010005552   -0.2497879874
N        0.9845257508    1.5272589610   -0.3917925376
H        2.7552813473    0.4045167138   -0.5016257898
H        1.5956780299   -1.7978659597   -0.3189366416
H       -0.8797298820   -1.8387409718   -0.3616224307
H       -2.2234652550    0.5098053935   -0.3139723749
H       -0.7796865614    2.4721532257   -0.2899564179
C       -1.0028310630   -0.3890251741    1.2747062386
H       -1.3304664125   -1.2816676906    1.7863350003
13   
From optimize.out: Frame 35 / 46, Energy=    -286.8546950526
C        1.6756368954    0.3285769207   -0.3845577961
C        1.0463640637   -0.8635231341   -0.2585124776
C       -0.3859135837   -0.9451988497   -0.0339889819
C       -1.1787152454    0.3527342224    0.0344032999
C       -0.2712606252    1.5242835095   -0.2400783033
N        0.9871156013    1.5316660504   -0.4152558514
H        2.7531570336    0.4010442642   -0.5067398460
H        1.6079097108   -1.7917511783   -0.3223963803
H       -0.8927629003   -1.8684940122   -0.3283010828
H       -2.2029679356    0.5044330564   -0.3093352058
H       -0.7846072194    2.4887919336   -0.2853073613
C       -1.0212468905   -0.3552024519    1.3220552032
H       -1.3327089047   -1.3073603310    1.7280147835
13   
From optimize.out: Frame 34 / 46, Energy=    -286.8545722417
C        1.6712018915    0.3265247897   -0.3681893129
C        1.0321148870   -0.8689164722   -0.2687605636
C       -0.4128021908   -0.9436280474   -0.1203661586
C       -1.1392663407    0.3328074231    0.0592503607
C       -0.2741533569    1.5430195380   -0.2335181784
N        0.9941701807    1.5399942181   -0.4200680191
H        2.7510320731    0.3979544656   -0.4619036541
H        1.6023365915   -1.7905491449   -0.3474391880
H       -0.9221751898   -1.8765345920   -0.3391027174
H       -2.1634163362    0.4512004360   -0.3140013421
H       -0.8045907704    2.4925378012   -0.3144325577
C       -1.0276331412   -0.3038272112    1.4004551754
H       -1.3068182979   -1.3005832039    1.7280761558
13   
From optimize.out: Frame 33 / 46, Energy=    -286.8544185059
C        1.6651999931    0.3202404932   -0.3368936796
C        1.0302653288   -0.8761864299   -0.2503379475
C       -0.4136059832   -0.9541144733   -0.1690671704
C       -1.0998023221    0.3135632786    0.0733692908
C       -0.2827650454    1.5636921720   -0.2216777476
N        0.9935773172    1.5424644291   -0.4233521041
H        2.7431483186    0.3887367684   -0.4397051074
H        1.6059596333   -1.7809721740   -0.4280008367
H       -0.9354308575   -1.8870780088   -0.3102268825
H       -2.1179814841    0.4280228129   -0.3271433217
H       -0.8235067664    2.5004688477   -0.3419873873
C       -1.0676805902   -0.2650061839    1.4514517616
H       -1.2973775420   -1.2938315320    1.7235711324
13   
From optimize.out: Frame 32 / 46, Energy=    -286.8542042816
C        1.6631354672    0.3268482087   -0.3461315697
C        1.0263863898   -0.8669784664   -0.2491758272
C       -0.4076238500   -0.9557231459   -0.1627200231
C       -1.0811124304    0.3183588789    0.0676501596
C       -0.2729248401    1.5754934798   -0.2249975453
N        0.9988605855    1.5562217883   -0.4347181487
H        2.7404783926    0.3844293740   -0.4592567475
H        1.6043848141   -1.7694880526   -0.4333322050
H       -0.9192651881   -1.9061908038   -0.1883976451
H       -2.1028420923    0.4864763777   -0.3044392296
H       -0.8258199008    2.5064376744   -0.3426020234
C       -1.0960514289   -0.3100818068    1.4207601229
H       -1.3276059186   -1.3458035062    1.6573606820
13   
From optimize.out: Frame 31 / 46, Energy=    -286.8539353649
C        1.6719479197    0.3324994094   -0.3523955572
C        1.0343105259   -0.8722845577   -0.2967589907
C       -0.3856389631   -0.9613345368   -0.2049463342
C       -1.0787734617    0.3047349973    0.0686006016
C       -0.2697316173    1.5633624352   -0.2209277248
N        1.0017928993    1.5560029418   -0.4194803554
H        2.7510576577    0.3949267706   -0.4427448233
H        1.6162849223   -1.7734723900   -0.4743354332
H       -0.8923720328   -1.9166224281   -0.1751930575
H       -2.0978120567    0.4855967540   -0.3071812182
H       -0.8265911558    2.4926059434   -0.3394064549
C       -1.1343046389   -0.2991481844    1.4305043713
H       -1.3901699986   -1.3068671546    1.7342649766
13   
From optimize.out: Frame 30 / 46, Energy=    -286.8532412382
C        1.6811925033    0.3362251476   -0.3539170244
C        1.0438280246   -0.8806154908   -0.3464321205
C       -0.3632449425   -0.9680904088   -0.2524171445
C       -1.0804476291    0.2875242661    0.0708561004
C       -0.2698906602    1.5467969892   -0.2155301685
N        1.0028945649    1.5514270627   -0.3987509171
H        2.7620170964    0.4060703325   -0.4181088282
H        1.6295988181   -1.7798744176   -0.5204416171
H       -0.8679986738   -1.9251643449   -0.1997574292
H       -2.0962503901    0.4670976261   -0.3154072677
H       -0.8281595691    2.4755575782   -0.3357773368
C       -1.1659998720   -0.2732797861    1.4492176218
H       -1.4475392706   -1.2436745541    1.8364661319
13   
From optimize.out: Frame 29 / 46, Energy=    -286.8522590141
C        1.6869190389    0.3359506105   -0.3458423339
C        1.0520976441   -0.8898430056   -0.3806883369
C       -0.3465425109   -0.9758023066   -0.2917433394
C       -1.0845125566    0.2697527762    0.0733302182
C       -0.2749508571    1.5300189121   -0.2101608883
N        1.0007891584    1.5426918769   -0.3765014754
H        2.7683559635    0.4125582103   -0.3898611018
H        1.6405615405   -1.7853910844   -0.5634250473
H       -0.8538234188   -1.9329862286   -0.2655674146
H       -2.0984213400    0.4329423643   -0.3256142267
H       -0.8321866238    2.4593656725   -0.3327356680
C       -1.1786280016   -0.2365090378    1.4716602081
H       -1.4796580366   -1.1627487598    1.9371494059
13   
From optimize.out: Frame 27 / 46, Energy=    -286.8495777652
C        1.6909816121    0.3352875561   -0.3360872178
C        1.0588573815   -0.8985257201   -0.4143591415
C       -0.3316679540   -0.9839034584   -0.3299862353
C       -1.0889581371    0.2515535992    0.0751321546
C       -0.2803913033    1.5122200350   -0.2064390658
N        0.9978197099    1.5336038573   -0.3536664483
H        2.7729344640    0.4180312345   -0.3584312380
H        1.6504184416   -1.7906752586   -0.6030855935
H       -0.8408780519   -1.9411681998   -0.3363570088
H       -2.1023266202    0.3993276833   -0.3320766194
H       -0.8365476355    2.4423498025   -0.3303517114
C       -1.1856624918   -0.1991461689    1.4922918170
H       -1.5045794151   -1.0789549621    2.0334163084
13   
From optimize.out: Frame 26 / 46, Energy=    -286.8476463981
C        1.6900322848    0.3334543167   -0.3212728118
C        1.0610720474   -0.9055682478   -0.4462673921
C       -0.3222957727   -0.9931766624   -0.3649649353
C       -1.0945494265    0.2320666862    0.0749111059
C       -0.2869764802    1.4913469774   -0.2076783080
N        0.9922470518    1.5234532605   -0.3290688864
H        2.7722091100    0.4204477901   -0.3174209038
H        1.6569472428   -1.7952600785   -0.6327401370
H       -0.8316330653   -1.9504347039   -0.4221410406
H       -2.1114528247    0.3673415268   -0.3272588654
H       -0.8419135667    2.4228527269   -0.3299473290
C       -1.1758527693   -0.1600001591    1.5074689916
H       -1.5078338314   -0.9865234329    2.1163805118
13   
From optimize.out: Frame 25 / 46, Energy=    -286.8424396834
C        1.6895550413    0.3291035463   -0.3023507288
C        1.0628498343   -0.9130412469   -0.4735568040
C       -0.3158525674   -1.0016089971   -0.3922722115
C       -1.0985530476    0.2130485054    0.0778192717
C       -0.2961237812    1.4733530784   -0.2078280290
N        0.9876410947    1.5132115125   -0.3023964036
H        2.7714094650    0.4190570903   -0.2736098778
H        1.6616098813   -1.7985304416   -0.6686980382
H       -0.8305782244   -1.9497113274   -0.5092813378
H       -2.1176125795    0.3266452268   -0.3251312247
H       -0.8517685213    2.4032931101   -0.3377968049
C       -1.1618697003   -0.1165492292    1.5251626558
H       -1.5007068950   -0.8982708274    2.1899395327
13   
From optimize.out: Frame 24 / 46, Energy=    -286.8371158843
C        1.6896075232    0.3219274480   -0.2788189310
C        1.0641376526   -0.9209976728   -0.4956626531
C       -0.3126959881   -1.0090977592   -0.4109696816
C       -1.1007746104    0.1945564112    0.0842395635
C       -0.3081462063    1.4585904558   -0.2067547403
N        0.9841199943    1.5028676072   -0.2733954061
H        2.7705260265    0.4133938092   -0.2266561293
H        1.6641780541   -1.8003259974   -0.7117302198
H       -0.8387141980   -1.9377770302   -0.5979432854
H       -2.1204433455    0.2761737456   -0.3260220800
H       -0.8666614740    2.3836633730   -0.3549089859
C       -1.1432028851   -0.0682667744    1.5456802523
H       -1.4819305434   -0.8147076158    2.2529422967
13   
From optimize.out: Frame 23 / 46, Energy=    -286.8298358374
C        1.6806424973    0.3135773035   -0.2570872696
C        1.0612904433   -0.9304489486   -0.5050519886
C       -0.3137618750   -1.0207011686   -0.4319436485
C       -1.1083483042    0.1799230626    0.0875468884
C       -0.3200729564    1.4431377171   -0.2087392041
N        0.9747064778    1.4899870009   -0.2511772737
H        2.7604285061    0.4089014258   -0.1830786468
H        1.6667882078   -1.8053734401   -0.7247962809
H       -0.8418244039   -1.9297122000   -0.6996290247
H       -2.1329220578    0.2406640358   -0.3132930253
H       -0.8744056971    2.3693222696   -0.3666355939
C       -1.1101331227   -0.0230963441    1.5549639777
H       -1.4423877151   -0.7361807137    2.2989210899
13   
From optimize.out: Frame 22 / 46, Energy=    -286.8271578630
C        1.6639720280    0.3042240118   -0.2368937884
C        1.0549101014   -0.9411774441   -0.5035751575
C       -0.3184360267   -1.0358203962   -0.4548626582
C       -1.1204953369    0.1685870788    0.0881943887
C       -0.3319180523    1.4270952717   -0.2133365960
N        0.9602577431    1.4749388021   -0.2347551076
H        2.7424576010    0.4054095465   -0.1423862390
H        1.6694347888   -1.8131994883   -0.7122566569
H       -0.8406406820   -1.9249536954   -0.8124433007
H       -2.1536442693    0.2179392309   -0.2889256464
H       -0.8760411934    2.3595001620   -0.3737606169
C       -1.0647563361    0.0194146471    1.5546483719
H       -1.3851003657   -0.6619577269    2.3303530070
13   
From optimize.out: Frame 21 / 46, Energy=    -286.8252089152
C        1.6502354117    0.2925999786   -0.1974548424
C        1.0463103900   -0.9457317261   -0.5057151080
C       -0.3278210889   -1.0391433058   -0.4686746137
C       -1.1204744453    0.1521360453    0.0985825135
C       -0.3414174548    1.4101091658   -0.2222179458
N        0.9514194314    1.4633398471   -0.2167759104
H        2.7278940523    0.3948920965   -0.0930110008
H        1.6655656449   -1.8093821960   -0.7349280445
H       -0.8576510356   -1.8845435177   -0.9065248050
H       -2.1553427749    0.1655941190   -0.2721444480
H       -0.8833965706    2.3396401262   -0.4047558254
C       -1.0254333991    0.0607702941    1.5616845198
H       -1.3298881611   -0.6002809269    2.3619355107
13   
From optimize.out: Frame 20 / 46, Energy=    -286.8224850763
C        1.6370700698    0.2800838121   -0.1629977781
C        1.0397054082   -0.9529705309   -0.5063940380
C       -0.3351044232   -1.0440508719   -0.4832116310
C       -1.1248705540    0.1379125451    0.1085136649
C       -0.3531170476    1.3944162661   -0.2295069002
N        0.9413746394    1.4502514031   -0.1991449852
H        2.7135643395    0.3843370730   -0.0467431045
H        1.6648093000   -1.8092980385   -0.7494745452
H       -0.8729751181   -1.8425287825   -1.0012715892
H       -2.1613689461    0.1149701093   -0.2546000638
H       -0.8903576388    2.3231097891   -0.4314182521
C       -0.9857011817    0.1031267856    1.5663495947
H       -1.2730288473   -0.5393595595    2.3898996276
13   
From optimize.out: Frame 19 / 46, Energy=    -286.8152770673
C        1.6267387876    0.2630640752   -0.1546569815
C        1.0433886469   -0.9741518054   -0.4994782342
C       -0.3314740428   -1.0574390181   -0.5017452796
C       -1.1522698911    0.1352572036    0.1158027686
C       -0.3761598080    1.3853781468   -0.2285066772
N        0.9249749670    1.4294248759   -0.1833461541
H        2.7003247871    0.3738024567   -0.0166627100
H        1.6802029606   -1.8286943858   -0.7213140291
H       -0.8790952124   -1.7933841370   -1.1000030234
H       -2.1901505097    0.0740733240   -0.2329164318
H       -0.8951203803    2.3239489961   -0.4351489948
C       -0.9436882589    0.1506454512    1.5586466166
H       -1.2076720460   -0.4819251831    2.3993291304
13   
From optimize.out: Frame 18 / 46, Energy=    -286.8076921593
C        1.6057013133    0.2498620959   -0.1293490905
C        1.0307855466   -0.9837385513   -0.4899758047
C       -0.3423262455   -1.0623240462   -0.5172550047
C       -1.1669518297    0.1337102562    0.1254764427
C       -0.3895287830    1.3752012853   -0.2382890070
N        0.9114121538    1.4173561033   -0.1778127307
H        2.6767255504    0.3573642646    0.0286457105
H        1.6778564878   -1.8345289961   -0.7012266552
H       -0.8933374363   -1.7348220873   -1.1835671650
H       -2.2018134490    0.0221131757   -0.2114441640
H       -0.8926923390    2.3205387910   -0.4543599286
C       -0.8905960060    0.1849169883    1.5489240784
H       -1.1252349635   -0.4456492795    2.4002333189
13   
From optimize.out: Frame 17 / 46, Energy=    -286.8023044781
C        1.5884974528    0.2366764013   -0.1057568282
C        1.0196117251   -0.9916523869   -0.4791543533
C       -0.3491770390   -1.0566704389   -0.5313181459
C       -1.1857514198    0.1309654636    0.1334867948
C       -0.4033482981    1.3634551896   -0.2508596885
N        0.8985416417    1.4060278297   -0.1742510773
H        2.6566434802    0.3391686933    0.0726179749
H        1.6742364236   -1.8416015240   -0.6755529609
H       -0.9165443183   -1.6616119608   -1.2491420458
H       -2.2167625918   -0.0279580813   -0.1883238101
H       -0.8905327592    2.3155794517   -0.4745158897
C       -0.8363890524    0.2118996038    1.5331275247
H       -1.0390252446   -0.4242782410    2.3896425054
13   
From optimize.out: Frame 15 / 46, Energy=    -286.7939594609
C        1.5777981383    0.2231030593   -0.0877970397
C        1.0126609667   -0.9997386732   -0.4670843768
C       -0.3487116744   -1.0408234335   -0.5435163607
C       -1.2116489717    0.1274315685    0.1383570048
C       -0.4194307213    1.3513650794   -0.2647551127
N        0.8861927719    1.3949600417   -0.1710350194
H        2.6425793340    0.3197678062    0.1116596870
H        1.6720145180   -1.8525982704   -0.6410108224
H       -0.9502535848   -1.5739469454   -1.2922051184
H       -2.2380460669   -0.0732734336   -0.1641124944
H       -0.8900454471    2.3108503471   -0.4923054276
C       -0.7825204991    0.2320841853    1.5092889392
H       -0.9505887636   -0.4191813314    2.3645161413
13   
From optimize.out: Frame 14 / 46, Energy=    -286.7901283509
C        1.5507089373    0.2180861002   -0.0791654288
C        0.9869550210   -1.0178628673   -0.4564550437
C       -0.3674297745   -1.0974375290   -0.5408613439
C       -1.2166120259    0.1551492269    0.1279016442
C       -0.4332428932    1.3871875439   -0.2643894083
N        0.8771730207    1.4100728202   -0.1540892789
H        2.6120541948    0.3028399400    0.1377696947
H        1.6671345996   -1.8586573346   -0.6073996643
H       -0.9841037343   -1.5914985136   -1.2967352123
H       -2.2246180850   -0.1107594738   -0.1753965041
H       -0.8903166818    2.3537001084   -0.4837332588
C       -0.7236065944    0.2692179169    1.4759999412
H       -0.8540959844   -0.4200379382    2.3165538630
13   
From optimize.out: Frame 13 / 46, Energy=    -286.7871011210
C        1.5308136733    0.2137402950   -0.0677587540
C        0.9636059761   -1.0276711876   -0.4388081154
C       -0.3818328041   -1.1051828471   -0.5371526537
C       -1.2210116981    0.1662304835    0.1181276049
C       -0.4434453183    1.4007347836   -0.2752812710
N        0.8684102636    1.4156008008   -0.1469141946
H        2.5878303273    0.2921848394    0.1671975960
H        1.6467889757   -1.8703965961   -0.5644284953
H       -1.0272245642   -1.5548166570   -1.2912743304
H       -2.2174988956   -0.1446338564   -0.1738060681
H       -0.8925432316    2.3717365650   -0.4851603036
C       -0.6608430364    0.2832071905    1.4347756110
H       -0.7530496678   -0.4407338136    2.2604833743
13   
From optimize.out: Frame 12 / 46, Energy=    -286.7842167838
C        1.5135173780    0.2099047063   -0.0547195098
C        0.9402204559   -1.0335753337   -0.4200605693
C       -0.3954578380   -1.0938395708   -0.5408111858
C       -1.2229461864    0.1691197884    0.1119097424
C       -0.4517693952    1.4042392049   -0.2899142538
N        0.8605264212    1.4177453113   -0.1445970165
H        2.5652697343    0.2831965579    0.2002273877
H        1.6187890811   -1.8837661684   -0.5180984332
H       -1.0670945604   -1.5013342060   -1.2933038406
H       -2.2109926548   -0.1777096932   -0.1636746889
H       -0.8969833617    2.3773189416   -0.4923051326
C       -0.5990720121    0.2907924604    1.3958344890
H       -0.6540070620   -0.4620919987    2.2095130114
13   
From optimize.out: Frame 11 / 46, Energy=    -286.7795320067
C        1.4961511735    0.2078750200   -0.0374432764
C        0.9108011516   -1.0334695492   -0.4110948140
C       -0.4144119778   -1.0732704440   -0.5969300681
C       -1.2095753290    0.1574031925    0.1280960159
C       -0.4562427548    1.3944550729   -0.3022286414
N        0.8579617368    1.4205208055   -0.1511748254
H        2.5384981149    0.2700881186    0.2494924985
H        1.5769501592   -1.8942263246   -0.4720156202
H       -1.0621903561   -1.4672890093   -1.3705677382
H       -2.1931446749   -0.2142488892   -0.1273350040
H       -0.9116089045    2.3595202218   -0.5136024653
C       -0.5534749583    0.3118575585    1.3918324417
H       -0.5797133808   -0.4392157734    2.2129714969
13   
From optimize.out: Frame 10 / 46, Energy=    -286.7734539290
C        1.4787849528    0.2058455222   -0.0201670684
C        0.8813816318   -1.0333636764   -0.4021289412
C       -0.4333660729   -1.0527025752   -0.6530492856
C       -1.1962045382    0.1456871681    0.1442825589
C       -0.4607158572    1.3846707037   -0.3145430765
N        0.8553973522    1.4232959675   -0.1577529624
H        2.5117263533    0.2569805105    0.2987578143
H        1.5351107125   -1.9046856109   -0.4259323111
H       -1.0572860583   -1.4332456887   -1.4478321526
H       -2.1752969923   -0.2507869253   -0.0909943987
H       -0.9262340163    2.3417211466   -0.5348998700
C       -0.5078777553    0.3329227281    1.3878299649
H       -0.5054197121   -0.4163392701    2.2164297283
13   
From optimize.out: Frame 9 / 46, Energy=    -286.7649103197
C        1.4614187164    0.2038162162   -0.0028908857
C        0.8519618852   -1.0332577063   -0.3931629422
C       -0.4523201209   -1.0321359860   -0.7091688418
C       -1.1828338195    0.1339717309    0.1604693763
C       -0.4651886924    1.3748860952   -0.3268575657
N        0.8528332850    1.4260707843   -0.1643314405
H        2.4849544429    0.2438737520    0.3480233413
H        1.4932707132   -1.9151439973   -0.3798484842
H       -1.0523816599   -1.3992042914   -1.5250970917
H       -2.1574496320   -0.2873237680   -0.0546528512
H       -0.9408586807    2.3239217179   -0.5561973572
C       -0.4622803883    0.3539879579    1.3838270448
H       -0.4311260490   -0.3934625056    2.2198876979
13   
From optimize.out: Frame 8 / 46, Energy=    -286.7540980745
C        1.4540353383    0.2091149603    0.0064066888
C        0.8152320940   -1.0236931258   -0.3785163240
C       -0.4887038602   -1.0108734226   -0.7259286767
C       -1.1552435960    0.1186459214    0.1556902066
C       -0.4659060792    1.3743949447   -0.3329523745
N        0.8566233038    1.4376793999   -0.1584840939
H        2.4716193945    0.2371118239    0.3735067686
H        1.4402826463   -1.9147807900   -0.3366075020
H       -1.0903830124   -1.3661032088   -1.5393343205
H       -2.1132743203   -0.3407905157   -0.0540400838
H       -0.9581634355    2.3132816613   -0.5607306781
C       -0.4151838755    0.3652189846    1.3625391635
H       -0.3509345977   -0.3992066333    2.1884512259
13   
From optimize.out: Frame 7 / 46, Energy=    -286.7388763401
C        1.4502565360    0.2170598641    0.0128240033
C        0.7758623231   -1.0107130039   -0.3618190960
C       -0.5313808843   -0.9893596081   -0.7284775864
C       -1.1225183287    0.1020162117    0.1433406662
C       -0.4652669662    1.3772595510   -0.3368021545
N        0.8627075048    1.4524780815   -0.1481495851
H        2.4631355394    0.2326411306    0.3904040954
H        1.3832677732   -1.9105096377   -0.2943934805
H       -1.1438768619   -1.3333416794   -1.5308150114
H       -2.0595913251   -0.4003709908   -0.0663277556
H       -0.9764355588    2.3052267724   -0.5592125835
C       -0.3675461494    0.3728989721    1.3350109100
H       -0.2686136021   -0.4152856635    2.1444175782
13   
From optimize.out: Frame 6 / 46, Energy=    -286.7236406419
C        1.4490272135    0.2225266838    0.0156112272
C        0.7486308142   -1.0050795759   -0.3478382946
C       -0.5625384444   -0.9840210429   -0.7273123412
C       -1.1039700376    0.0963910997    0.1323879820
C       -0.4671362065    1.3853656519   -0.3385853023
N        0.8673710002    1.4636942758   -0.1403984054
H        2.4586571211    0.2307482452    0.3993962135
H        1.3456555008   -1.9087704176   -0.2596602215
H       -1.1842201031   -1.3220231678   -1.5171726921
H       -2.0269557136   -0.4362169358   -0.0761010819
H       -0.9894400564    2.3069929821   -0.5527480214
C       -0.3305645360    0.3807611774    1.3097069127
H       -0.2045165522   -0.4303689760    2.1027140249
13   