13   
From optimize.out: Frame 2 / 3, Energy=    -286.8549693703
C        1.6724632058    0.3311160337   -0.3250581421
C        1.0799246500   -0.8827735733   -0.3043633466
C       -0.3513940272   -1.0536564506   -0.0024302983
C       -1.1382218189    0.3660142204    0.1145343891
C       -0.2937296476    1.5327570016   -0.2046341556
N        0.9889836982    1.5484623459   -0.3224042151
H        2.7439088975    0.4214526934   -0.4842405892
H        1.6596517633   -1.7760802000   -0.5235045788
H       -0.8555977654   -1.9047507362   -0.4640319070
H       -2.1712900106    0.4414158576   -0.2307127162
H       -0.8220975223    2.4664347263   -0.4127188969
C       -0.8868972542   -0.5249655330    1.2503662136
H       -1.6257041688   -0.9654263854    1.9091982433
13   
From optimize.out: Frame 1 / 3, Energy=    -286.8549634740
C        1.6722099577    0.3293319437   -0.3255825179
C        1.0774409831   -0.8816253034   -0.3077884167
C       -0.3426161689   -1.0557626575    0.0182613423
C       -1.1566482303    0.3593947500    0.0844842565
C       -0.2936250640    1.5282442448   -0.1867392910
N        0.9915636195    1.5428885060   -0.2700899830
H        2.7380359745    0.4185168485   -0.5144951238
H        1.6497042367   -1.7633884136   -0.5783813975
H       -0.8336707027   -1.9383918098   -0.3982303884
H       -2.1738086677    0.4196045554   -0.3139133702
H       -0.8029343190    2.4769691054   -0.3707057754
C       -0.9035438797   -0.4964552057    1.2446434738
H       -1.6221077390   -0.9393265639    1.9185371914
13   
From optimize.out: Frame 45 / 46, Energy=    -286.8549634740
C        1.6822718201    0.3320152143   -0.2750780927
C        1.0735826187   -0.8732298163   -0.3075684377
C       -0.3464931057   -1.0340563819    0.0097067965
C       -1.1724974601    0.3606783864    0.0517587995
C       -0.2940296711    1.5247613401   -0.1953752899
N        0.9937364977    1.5491321967   -0.1966224818
H        2.7407269839    0.3843697853   -0.5444599898
H        1.6186312064   -1.7708627992   -0.5907788950
H       -0.8061407172   -1.9381983539   -0.3787108842
H       -2.1974044935    0.4592732675   -0.3325934608
H       -0.8305538461    2.4545496188   -0.4069729113
C       -0.8996241642   -0.4762025576    1.2290226482
H       -1.5622056689   -0.9722299003    1.9376721990
13   
From optimize.out: Frame 44 / 46, Energy=    -286.8549599020
C        1.6756391753    0.3330803989   -0.2874451373
C        1.0626188879   -0.8713974313   -0.3285268402
C       -0.3484709564   -1.0157012994   -0.0025524937
C       -1.1845974096    0.3590822031    0.0300478965
C       -0.2921347204    1.5137028440   -0.2164536263
N        0.9958788060    1.5490685443   -0.1983513887
H        2.7376425488    0.3812575385   -0.5230184659
H        1.5976165948   -1.7919606009   -0.5163157175
H       -0.8008432332   -1.9143180980   -0.4006715069
H       -2.2256055349    0.4823520933   -0.3217981878
H       -0.8318117006    2.4455089736   -0.3942137339
C       -0.9015550840   -0.4548024245    1.2246730371
H       -1.4843773736   -1.0158727417    1.9346261647
13   
From optimize.out: Frame 43 / 46, Energy=    -286.8549523897
C        1.6735118149    0.3326177107   -0.3281770905
C        1.0532534736   -0.8678306246   -0.3422151034
C       -0.3547841750   -0.9950598349   -0.0010053130
C       -1.2030476039    0.3648086102    0.0135279660
C       -0.2864440801    1.5017428268   -0.2345182879
N        0.9974166811    1.5456142002   -0.2466816514
H        2.7380412446    0.3908799448   -0.5043478143
H        1.5894901891   -1.8031725647   -0.4173749075
H       -0.8140214091   -1.8904273069   -0.4151804118
H       -2.2417460825    0.4944287557   -0.3150922743
H       -0.8102595024    2.4479558015   -0.3521777540
C       -0.9231642742   -0.4269792246    1.2332371387
H       -1.4182462763   -1.0945782941    1.9100055034
13   
From optimize.out: Frame 42 / 46, Energy=    -286.8549403722
C        1.6797823774    0.3309436762   -0.3656864908
C        1.0656876125   -0.8625051343   -0.3168670768
C       -0.3517797287   -0.9868863754    0.0278905445
C       -1.2275707832    0.3758407093   -0.0080240279
C       -0.2759684016    1.4994716089   -0.2348826276
N        0.9938483235    1.5371236811   -0.3011497337
H        2.7515658205    0.4087673712   -0.5330215865
H        1.6057005365   -1.8080895642   -0.3622063654
H       -0.8314276128   -1.9099294446   -0.4311257654
H       -2.2580059840    0.5129058146   -0.3347357445
H       -0.7798752591    2.4701391604   -0.2982020754
C       -0.9633352505   -0.3932451500    1.2558629547
H       -1.4086216506   -1.1745363534    1.9021479947
13   
From optimize.out: Frame 41 / 46, Energy=    -286.8549243670
C        1.6777184069    0.3230436281   -0.3640479039
C        1.0695430759   -0.8746204925   -0.2817861973
C       -0.3255892560   -0.9517002425    0.0127561328
C       -1.2151094331    0.3577159278    0.0003685808
C       -0.2825177351    1.4890515362   -0.2294554478
N        0.9759036890    1.5171936048   -0.3469895055
H        2.7489969772    0.4119415340   -0.5272979575
H        1.6120109138   -1.8103308104   -0.3920814329
H       -0.8348871430   -1.8554612857   -0.3682423400
H       -2.2304825689    0.5283352487   -0.3462294671
H       -0.7780442900    2.4685850158   -0.2876505691
C       -1.0425212216   -0.3862255369    1.2599646381
H       -1.3750214150   -1.2175281273    1.8706914694
13   
From optimize.out: Frame 38 / 46, Energy=    -286.8548603203
C        1.6769220767    0.3293876999   -0.3830670716
C        1.0471450243   -0.8612183125   -0.2717294020
C       -0.3723926031   -0.9321915443    0.0009745743
C       -1.1990184326    0.3562892696    0.0203360467
C       -0.2718812462    1.5013476985   -0.2496432183
N        0.9845643648    1.5273246697   -0.3921423700
H        2.7552496742    0.4044649404   -0.5017020391
H        1.5958604014   -1.7977747897   -0.3189882255
H       -0.8799242012   -1.8391845826   -0.3611256172
H       -2.2231596448    0.5097252932   -0.3139032358
H       -0.7797599272    2.4724013049   -0.2898871015
C       -1.0031056386   -0.3885208853    1.2754122005
H       -1.3304998476   -1.2820507618    1.7854654596
13   
From optimize.out: Frame 37 / 46, Energy=    -286.8548366883
C        1.6740366967    0.3278364891   -0.3786518655
C        1.0412228024   -0.8654691104   -0.2622101010
C       -0.3956152920   -0.9446320868   -0.0651548273
C       -1.1644816422    0.3455444118    0.0433683956
C       -0.2723043550    1.5310436768   -0.2377113373
N        0.9896609720    1.5346709458   -0.4169921350
H        2.7523903243    0.3999294305   -0.4905624497
H        1.6058988674   -1.7913174713   -0.3314321036
H       -0.9033751812   -1.8713951427   -0.3321984326
H       -2.1886972790    0.4852261353   -0.3110187996
H       -0.7918175067    2.4901434842   -0.2958160559
C       -1.0235511207   -0.3366656941    1.3503427845
H       -1.3233672860   -1.3049150682    1.7280369273
13   
From optimize.out: Frame 36 / 46, Energy=    -286.8547896838
C        1.6685297499    0.3237269200   -0.3542559943
C        1.0312914340   -0.8721531741   -0.2605585190
C       -0.4131600521   -0.9482967726   -0.1420486313
C       -1.1216963258    0.3242396209    0.0655363352
C       -0.2779874190    1.5522233267   -0.2282466284
N        0.9939062284    1.5410939957   -0.4215301465
H        2.7475220990    0.3938505988   -0.4520205046
H        1.6039496279   -1.7862853236   -0.3833065279
H       -0.9280768260   -1.8812286905   -0.3262467320
H       -2.1431880103    0.4408813859   -0.3198523625
H       -0.8130124757    2.4960688304   -0.3267004104
C       -1.0454629087   -0.2865434664    1.4231596746
H       -1.3026151217   -1.2975772511    1.7260704470
13   
From optimize.out: Frame 35 / 46, Energy=    -286.8546950526
C        1.6641246582    0.3236822069   -0.3417053536
C        1.0282449335   -0.8713903436   -0.2497326421
C       -0.4104901121   -0.9549523711   -0.1657611770
C       -1.0900674513    0.3160611288    0.0703904077
C       -0.2776396478    1.5698390351   -0.2234069070
N        0.9963291755    1.5496301268   -0.4292722548
H        2.7417576533    0.3864932065   -0.4498888309
H        1.6051393685   -1.7749905215   -0.4307777485
H       -0.9270107604   -1.8970331542   -0.2467705554
H       -2.1100959369    0.4584691048   -0.3153176030
H       -0.8247115923    2.5035777879   -0.3423075284
C       -1.0824579068   -0.2884844026    1.4354656264
H       -1.3131223812   -1.3209018040    1.6890845667
13   
From optimize.out: Frame 34 / 46, Energy=    -286.8545722417
C        1.6687898241    0.3304742034   -0.3501507484
C        1.0314707739   -0.8703830276   -0.2797067367
C       -0.3935176295   -0.9593235973   -0.1898138015
C       -1.0796116718    0.3096173521    0.0682599942
C       -0.2708759642    1.5677098059   -0.2223862157
N        1.0007420537    1.5560813692   -0.4249410836
H        2.7472663941    0.3911648460   -0.4486621584
H        1.6120203116   -1.7720445335   -0.4596412135
H       -0.9020096626   -1.9128840742   -0.1799251511
H       -2.0996146574    0.4859119824   -0.3061985789
H       -0.8263147632    2.4975627847   -0.3405516424
C       -1.1205959360   -0.3030664381    1.4270123505
H       -1.3677490728   -1.3208206731    1.7067049856
13   
From optimize.out: Frame 33 / 46, Energy=    -286.8544185059
C        1.6786906524    0.3352168554   -0.3535052715
C        1.0412523150   -0.8783609001   -0.3329891391
C       -0.3693054102   -0.9662620750   -0.2395701743
C       -1.0799945511    0.2921819863    0.0702456974
C       -0.2698476186    1.5512800766   -0.2169909029
N        1.0025964224    1.5526654275   -0.4043609009
H        2.7590511563    0.4030545633   -0.4247760389
H        1.6259956939   -1.7781418443   -0.5079639541
H       -0.8745948076   -1.9228526559   -0.1931096018
H       -2.0966730221    0.4721040236   -0.3131810615
H       -0.8277351112    2.4801713575   -0.3367594808
C       -1.1574222279   -0.2802805207    1.4441532765
H       -1.4320134912   -1.2607762942    1.8088075520
13   
From optimize.out: Frame 32 / 46, Energy=    -286.8542042816
C        1.6854150623    0.3360227130   -0.3479630132
C        1.0499257700   -0.8874195567   -0.3716915278
C       -0.3509291187   -0.9737769086   -0.2814149872
C       -1.0834449730    0.2744201539    0.0726804335
C       -0.2736218830    1.5344253870   -0.2115710379
N        1.0013421074    1.5449860240   -0.3823449105
H        2.7666911686    0.4108542802   -0.3972798838
H        1.6376823690   -1.7839422263   -0.5521361848
H       -0.8575463070   -1.9309319447   -0.2482835480
H       -2.0978511771    0.4419126594   -0.3229335436
H       -0.8311289868    2.4636181995   -0.3335345102
C       -1.1753114394   -0.2461662456    1.4657660468
H       -1.4712225923   -1.1840025350    1.9107066668
13   
From optimize.out: Frame 31 / 46, Energy=    -286.8539353649
C        1.6899450703    0.3354567306   -0.3385761787
C        1.0571326739   -0.8963103762   -0.4057682323
C       -0.3354631104   -0.9818364968   -0.3202287837
C       -1.0878238732    0.2561970130    0.0746724011
C       -0.2790032053    1.5167613145   -0.2073886671
N        0.9985773474    1.5359226125   -0.3594926722
H        2.7717662863    0.4166348244   -0.3664503842
H        1.6479035108   -1.7893270324   -0.5929664367
H       -0.8441809867   -1.9390806176   -0.3182954572
H       -2.1013302108    0.4079042729   -0.3304277776
H       -0.8354349489    2.4466913024   -0.3309599640
C       -1.1838676827   -0.2086790868    1.4870277824
H       -1.4982208709   -1.1003344604    2.0088543703
13   
From optimize.out: Frame 30 / 46, Energy=    -286.8532412382
C        1.6902717154    0.3339166795   -0.3250091656
C        1.0605134847   -0.9037920460   -0.4382197854
C       -0.3246595384   -0.9908378599   -0.3561429280
C       -1.0931392427    0.2369814969    0.0749668568
C       -0.2853156272    1.4966113887   -0.2073657577
N        0.9936525366    1.5260133511   -0.3352726581
H        2.7723920521    0.4198383086   -0.3277641546
H        1.6553006083   -1.7941037373   -0.6252609397
H       -0.8339647512   -1.9480975911   -0.4005053780
H       -2.1091510970    0.3754087821   -0.3284739552
H       -0.8405602207    2.4277701007   -0.3300493187
C       -1.1783268876   -0.1698732071    1.5036411437
H       -1.5070130323   -1.0098356664    2.0954560405
13   
From optimize.out: Frame 29 / 46, Energy=    -286.8522590141
C        1.6896701104    0.3301525685   -0.3069130667
C        1.0624211888   -0.9112394185   -0.4669770042
C       -0.3174061004   -0.9995758616   -0.3856881044
C       -1.0975877272    0.2176340136    0.0771180786
C       -0.2939182588    1.4776916202   -0.2077919295
N        0.9887516454    1.5156809190   -0.3088274545
H        2.7716022689    0.4193924044   -0.2841732340
H        1.6604856640   -1.7977419184   -0.6600281632
H       -0.8308325590   -1.9498857420   -0.4882707822
H       -2.1161273898    0.3364575857   -0.3256442240
H       -0.8493923753    2.4080091649   -0.3359042035
C       -1.1652411835   -0.1270257620    1.5208965043
H       -1.5024252836   -0.9195495738    2.1722035833
13   
From optimize.out: Frame 27 / 46, Energy=    -286.8495777652
C        1.6895950743    0.3236296451   -0.2844007607
C        1.0638321773   -0.9191103791   -0.4904190637
C       -0.3134447404   -1.0073213971   -0.4065345724
C       -1.1002476474    0.1989428045    0.0827166465
C       -0.3052944425    1.4620922046   -0.2070093284
N        0.9849552124    1.5053212199   -0.2802745503
H        2.7707355814    0.4147371605   -0.2377937326
H        1.6635688740   -1.7999000849   -0.7015228267
H       -0.8367843149   -1.9406078898   -0.5769123426
H       -2.1197718773    0.2881457680   -0.3258107658
H       -0.8631288104    2.3883196194   -0.3508499131
C       -1.1476307229   -0.0797195518    1.5408134023
H       -1.4863843636   -0.8345291195    2.2379978074
13   
From optimize.out: Frame 26 / 46, Energy=    -286.8476463981
C        1.6824486546    0.3152595825   -0.2614654834
C        1.0618640621   -0.9285448279   -0.5031603468
C       -0.3135471339   -1.0183634639   -0.4277180852
C       -1.1068224545    0.1828712002    0.0868805714
C       -0.3176701092    1.4462509348   -0.2083394000
N        0.9766029912    1.4925820187   -0.2556534954
H        2.7624628238    0.4098064930   -0.1918580739
H        1.6662623478   -1.8043565467   -0.7221639001
H       -0.8411977999   -1.9313369976   -0.6791426983
H       -2.1304080084    0.2478180724   -0.3158575104
H       -0.8728454913    2.3722115295   -0.3642730687
C       -1.1167955903   -0.0321966977    1.5530936129
H       -1.4503542922   -0.7520012974    2.2896578779
13   
From optimize.out: Frame 25 / 46, Energy=    -286.8424396834
C        1.6671732462    0.3060201176   -0.2407715280
C        1.0561353138   -0.9391172588   -0.5038587523
C       -0.3175384527   -1.0329170618   -0.4504615373
C       -1.1181627510    0.1707639196    0.0880700497
C       -0.3296434471    1.4301758909   -0.2124537622
N        0.9630323232    1.4778284969   -0.2379086443
H        2.7459085410    0.4060800896   -0.1502003727
H        1.6689265678   -1.8116966579   -0.7146646319
H       -0.8408679913   -1.9258674676   -0.7907796567
H       -2.1496649980    0.2223030588   -0.2936048966
H       -0.8757271303    2.3613862942   -0.3723924038
C       -1.0734700077    0.0112512921    1.5547089775
H       -1.3961012140   -0.6762107135    2.3243171587
13   
From optimize.out: Frame 23 / 46, Energy=    -286.8298358374
C        1.6528587862    0.2948198988   -0.2049867645
C        1.0479527350   -0.9448619641   -0.5053064272
C       -0.3260287601   -1.0385087073   -0.4660368512
C       -1.1204784351    0.1552778104    0.0965986231
C       -0.3396032896    1.4133531173   -0.2205218144
N        0.9531073436    1.4655549779   -0.2202095193
H        2.7306753516    0.3969006850   -0.1024405238
H        1.6663045615   -1.8101112101   -0.7305983363
H       -0.8544024534   -1.8922609225   -0.8885574241
H       -2.1550183998    0.1755908189   -0.2753492669
H       -0.8819918645    2.3434329315   -0.3988364609
C       -1.0329431662    0.0528723266    1.5603407791
H       -1.3404324090   -0.6120597624    2.3559039865
13   
From optimize.out: Frame 22 / 46, Energy=    -286.8271578630
C        1.6393426951    0.2822443756   -0.1689458193
C        1.0408455722   -0.9517209553   -0.5062768399
C       -0.3338471608   -1.0432037189   -0.4807022246
C       -1.1241116897    0.1403678316    0.1067993315
C       -0.3510974426    1.3971252031   -0.2282486676
N        0.9431085897    1.4525107541   -0.2021884677
H        2.7160379607    0.3861591003   -0.0547299531
H        1.6649398616   -1.8093125659   -0.7469635017
H       -0.8703298471   -1.8497814427   -0.9849162266
H       -2.1603286974    0.1237089181   -0.2576286074
H       -0.8891560065    2.3259632860   -0.4268157354
C       -0.9925598295    0.0958151308    1.5655443010
H       -1.2828440057   -0.5498759170    2.3850724108
13   
From optimize.out: Frame 21 / 46, Energy=    -286.8252089152
C        1.6284782986    0.2659297427   -0.1560613481
C        1.0427684882   -0.9705854465   -0.5006426702
C       -0.3320853016   -1.0551848132   -0.4986247100
C       -1.1476565771    0.1357042919    0.1145754789
C       -0.3722800248    1.3868999238   -0.2286750879
N        0.9277362323    1.4329315048   -0.1860062538
H        2.7025539729    0.3755762037   -0.0217274421
H        1.6776110807   -1.8254285608   -0.7260555052
H       -0.8780647525   -1.8016587780   -1.0833792963
H       -2.1853044659    0.0809592464   -0.2365673742
H       -0.8943184623    2.3238076962   -0.4345208378
C       -0.9507621090    0.1426445816    1.5599435917
H       -1.2186763795   -0.4915955926    2.3977414549
13   
From optimize.out: Frame 20 / 46, Energy=    -286.8224850763
C        1.6090602013    0.2519699521   -0.1333898023
C        1.0327977845   -0.9822079110   -0.4914929829
C       -0.3405935597   -1.0615440922   -0.5147786890
C       -1.1646076801    0.1339572451    0.1239319233
C       -0.3873942639    1.3768261447   -0.2367271394
N        0.9135776215    1.4192830292   -0.1786962088
H        2.6804934548    0.3599888213    0.0214116715
H        1.6782311307   -1.8335974298   -0.7044338481
H       -0.8910634925   -1.7441722289   -1.1702251361
H       -2.1999513193    0.0304092436   -0.2148724720
H       -0.8930800052    2.3210832716   -0.4512926700
C       -0.8990728282    0.1794451217    1.5504763996
H       -1.1383970437   -0.4514411675    2.4000889542
13   
From optimize.out: Frame 19 / 46, Energy=    -286.8152770673
C        1.5908576030    0.2384853104   -0.1089933857
C        1.0211446309   -0.9905667096   -0.4806389184
C       -0.3482371975   -1.0574460417   -0.5293888623
C       -1.1831723559    0.1313420141    0.1323878766
C       -0.4014524369    1.3650666041   -0.2491351513
N        0.9003073118    1.4075819244   -0.1747396907
H        2.6593984840    0.3416648936    0.0665855411
H        1.6747330503   -1.8406312634   -0.6790750643
H       -0.9133606301   -1.6716554564   -1.2401460086
H       -2.2147117601   -0.0210889435   -0.1914956278
H       -0.8908290260    2.3162598098   -0.4717507490
C       -0.8438255551    0.2081979331    1.5352946104
H       -1.0508521184   -0.4272100749    2.3910954299
13   
From optimize.out: Frame 18 / 46, Energy=    -286.8076921593
C        1.5790841904    0.2247345681   -0.0899557971
C        1.0134964443   -0.9987667058   -0.4685351818
C       -0.3487676110   -1.0427282354   -0.5420501416
C       -1.2085360993    0.1278563409    0.1377716080
C       -0.4174976223    1.3528183045   -0.2630848899
N        0.8876770997    1.3962903841   -0.1714215879
H        2.6442698372    0.3220997829    0.1069668933
H        1.6722815899   -1.8512764671   -0.6451627697
H       -0.9462017483   -1.5844842353   -1.2870289592
H       -2.2354878041   -0.0678265515   -0.1670226821
H       -0.8901040218    2.3114187830   -0.4901671343
C       -0.7889954716    0.2296580090    1.5121543249
H       -0.9612187833   -0.4197939773    2.3675363174
13   
From optimize.out: Frame 17 / 46, Energy=    -286.8023044781
C        1.5539018138    0.2186774255   -0.0801827961
C        0.9899848597   -1.0157266540   -0.4577078731
C       -0.3652235602   -1.0907646923   -0.5411742782
C       -1.2160270541    0.1518822771    0.1291339683
C       -0.4316149176    1.3829653188   -0.2644325122
N        0.8782361363    1.4082915482   -0.1560865935
H        2.6156520492    0.3048351479    0.1346922311
H        1.6677097725   -1.8579431812   -0.6113612532
H       -0.9801139767   -1.5894297929   -1.2962012715
H       -2.2262007779   -0.1063411708   -0.1740665111
H       -0.8902847126    2.3486496089   -0.4847436200
C       -0.7305504988    0.2648411389    1.4799235586
H       -0.8654691336   -0.4199369740    2.3222069508
13   
From optimize.out: Frame 15 / 46, Energy=    -286.7939594609
C        1.5322105326    0.2140454168   -0.0685596240
C        0.9652453276   -1.0269825391   -0.4400471177
C       -0.3808215581   -1.1046390433   -0.5374130432
C       -1.2207027943    0.1654524613    0.1188138465
C       -0.4427289994    1.3997836232   -0.2745165463
N        0.8690255024    1.4152126777   -0.1474179619
H        2.5895311007    0.2929329409    0.1651314441
H        1.6482174551   -1.8695723750   -0.5674455288
H       -1.0241970229   -1.5573921138   -1.2916577425
H       -2.2179987385   -0.1422555141   -0.1739177336
H       -0.8923869041    2.3704702137   -0.4850601099
C       -0.6652497063    0.2822249946    1.4376699978
H       -0.7601441949   -0.4392807428    2.2644201195
13   
From optimize.out: Frame 14 / 46, Energy=    -286.7901283509
C        1.5138375204    0.2099757003   -0.0549608571
C        0.9406533056   -1.0334660521   -0.4204075733
C       -0.3952056481   -1.0940495270   -0.5407434689
C       -1.2229103803    0.1690663094    0.1120248307
C       -0.4516153223    1.4041743405   -0.2896434074
N        0.8606723457    1.4177056179   -0.1446399059
H        2.5656873152    0.2833629247    0.1996160292
H        1.6193073398   -1.8835187069   -0.5189559705
H       -1.0663565945   -1.5023241290   -1.2932662758
H       -2.2111130808   -0.1770974824   -0.1638622137
H       -0.8969011780    2.3772156157   -0.4921728867
C       -0.6002153509    0.2906520624    1.3965552621
H       -0.6558402719   -0.4616966735    2.2104564375
13   
From optimize.out: Frame 13 / 46, Energy=    -286.7871011210
C        1.4964480513    0.2079097177   -0.0377386161
C        0.9113040789   -1.0334713576   -0.4112480849
C       -0.4140879541   -1.0736220762   -0.5959707078
C       -1.2098039058    0.1576034894    0.1278193092
C       -0.4561662821    1.3946223341   -0.3020181252
N        0.8580055805    1.4204733580   -0.1510623768
H        2.5389557796    0.2703122092    0.2486503044
H        1.5776654016   -1.8940475068   -0.4728034125
H       -1.0622741942   -1.4678710168   -1.3692469008
H       -2.1934497886   -0.2136242465   -0.1279562361
H       -0.9113588787    2.3598244935   -0.5132383844
C       -0.5542544464    0.3114974476    1.3919008572
H       -0.5809834419   -0.4396068458    2.2129123736
13   
From optimize.out: Frame 12 / 46, Energy=    -286.7842167838
C        1.4790722044    0.2058790917   -0.0204528311
C        0.8818682551   -1.0333654277   -0.4022772441
C       -0.4330525565   -1.0530427848   -0.6521210272
C       -1.1964257021    0.1458809609    0.1440148201
C       -0.4606418684    1.3848325453   -0.3143393856
N        0.8554397693    1.4232500640   -0.1576441545
H        2.5121691804    0.2571973212    0.2979429252
H        1.5358027716   -1.9045126056   -0.4266945672
H       -1.0573671794   -1.4338087934   -1.4465541352
H       -2.1755922078   -0.2501825559   -0.0915955024
H       -0.9259921048    2.3420155580   -0.5345475933
C       -0.5086319708    0.3325742927    1.3878961692
H       -0.5066485909   -0.4167176664    2.2163725263
13   
From optimize.out: Frame 11 / 46, Energy=    -286.7795320067
C        1.4616956563    0.2038485777   -0.0031663895
C        0.8524310428   -1.0332593962   -0.3933059233
C       -0.4520178601   -1.0324639621   -0.7082739015
C       -1.1830470428    0.1341585573    0.1602112446
C       -0.4651173640    1.3750421307   -0.3266611862
N        0.8528741742    1.4260265342   -0.1642265334
H        2.4853813754    0.2440827659    0.3472377024
H        1.4939379369   -1.9149772171   -0.3805833844
H       -1.0524598705   -1.3997471506   -1.5238649454
H       -2.1577342444   -0.2867411138   -0.0552323910
H       -0.9406254607    2.3242055660   -0.5558577255
C       -0.4630075309    0.3536520301    1.3838908795
H       -0.4323108123   -0.3938273220    2.2198325536
13   
From optimize.out: Frame 10 / 46, Energy=    -286.7734539290
C        1.4537862971    0.2096385677    0.0068296207
C        0.8126374366   -1.0228376733   -0.3774158963
C       -0.4915164814   -1.0094555587   -0.7260966621
C       -1.1530868434    0.1175499435    0.1548763124
C       -0.4658639586    1.3745837361   -0.3332060935
N        0.8570242819    1.4386547042   -0.1578030000
H        2.4710602676    0.2368171837    0.3746203838
H        1.4365250918   -1.9144993005   -0.3338253948
H       -1.0939085146   -1.3639440664   -1.5387728570
H       -2.1097363526   -0.3447171557   -0.0548499005
H       -0.9593676564    2.3127508053   -0.5606306284
C       -0.4120443201    0.3657251328    1.3607249191
H       -0.3455092479   -0.4002663187    2.1855491966
13   
From optimize.out: Frame 8 / 46, Energy=    -286.7540980745
C        1.4501427932    0.2175656802    0.0130818905
C        0.7733427343   -1.0101917724   -0.3605255257
C       -0.5342637300   -0.9888656586   -0.7283697724
C       -1.1208021526    0.1014957496    0.1423272717
C       -0.4654399172    1.3780095660   -0.3369671399
N        0.8631389936    1.4535158572   -0.1474324091
H        2.4627211748    0.2324659919    0.3912360890
H        1.3797877068   -1.9103487168   -0.2911797941
H       -1.1476096105   -1.3322944369   -1.5295527591
H       -2.0565717230   -0.4036876282   -0.0672320302
H       -0.9776387968    2.3053901905   -0.5586144515
C       -0.3641244346    0.3736264207    1.3326696637
H       -0.2626830381   -0.4166812433    2.1405589670
13   
From optimize.out: Frame 7 / 46, Energy=    -286.7388763401
C        1.4524112593    0.2207295056    0.0111540886
C        0.7572760689   -1.0141001069   -0.3470179430
C       -0.5561911444   -1.0063477380   -0.7213477961
C       -1.1186964401    0.1108851907    0.1306519137
C       -0.4715411057    1.3960354863   -0.3361155928
N        0.8668750411    1.4622528575   -0.1415556323
H        2.4630851434    0.2339422402    0.3907107409
H        1.3615418483   -1.9119506284   -0.2587190455
H       -1.1786411719   -1.3501401012   -1.5047427278
H       -2.0470384631   -0.4132372423   -0.0757553821
H       -0.9861037854    2.3222979464   -0.5430892815
C       -0.3335877699    0.3837792056    1.3041956246
H       -0.2093894805   -0.4341466157    2.0916310331
13   
From optimize.out: Frame 6 / 46, Energy=    -286.7236406419
C        1.4621087356    0.2155795335   -0.0016185337
C        0.7820503935   -1.0399499081   -0.3446672155
C       -0.5380018730   -1.0703285920   -0.7042561039
C       -1.1608972436    0.1524203054    0.1256774079
C       -0.4841639613    1.4266113959   -0.3290381694
N        0.8654538320    1.4581222446   -0.1448720740
H        2.4757742266    0.2430954183    0.3658214067
H        1.4070665968   -1.9210640885   -0.2560217413
H       -1.1626536707   -1.4307140988   -1.4691235541
H       -2.1045886940   -0.3473854255   -0.0747639334
H       -0.9765430526    2.3661562894   -0.5154106995
C       -0.3422514447    0.3924282323    1.2884022114
H       -0.2233538447   -0.4449713066    2.0598709986
13   
From optimize.out: Frame 5 / 46, Energy=    -286.7014704189
C        1.4718051195    0.2104304346   -0.0143898356
C        0.8068221725   -1.0657972339   -0.3423170608
C       -0.5198142089   -1.1343035207   -0.6871679726
C       -1.2030937166    0.1939512608    0.1207047295
C       -0.4967853254    1.4571837033   -0.3219612307
N        0.8640328782    1.4539920459   -0.1481888160
H        2.4884617145    0.2522484673    0.3409353078
H        1.4525865110   -1.9301768119   -0.2533240983
H       -1.1466672434   -1.5112813489   -1.4335103652
H       -2.1621329608   -0.2815405876   -0.0737703594
H       -0.9669829441    2.4100089500   -0.4877350773
C       -0.3509145834    0.4010774868    1.2726105371
H       -0.2373174131   -0.4557928459    2.0281142415
13   
From optimize.out: Frame 3 / 46, Energy=    -286.6251551194
C        1.4815003214    0.2052822466   -0.0271596902
C        0.8315911564   -1.0916418190   -0.3399674840
C       -0.5016283565   -1.1982718587   -0.6700834868
C       -1.2452854323    0.2354776402    0.1157338593
C       -0.5094050832    1.4877521255   -0.3148848579
N        0.8626121864    1.4498623050   -0.1515057961
H        2.5011475023    0.2614012622    0.3160526603
H        1.4981011454   -1.9392887001   -0.2506261646
H       -1.1306820946   -1.5918409805   -1.3979034070
H       -2.2196706851   -0.2157033732   -0.0727747833
H       -0.9574235804    2.4538555420   -0.4600626758
C       -0.3595770760    0.4097268306    1.2568207529
H       -0.2512800039   -0.4666112204    1.9963610732
13   
From optimize.out: Frame 2 / 46, Energy=    -286.6149492519
C        1.4910351127    0.2005652505   -0.0403793037
C        0.8555117196   -1.1167213040   -0.3364366875
C       -0.4842862720   -1.2606714195   -0.6497131143
C       -1.2865749951    0.2766931912    0.1094325704
C       -0.5215125517    1.5183393371   -0.3078687442
N        0.8613125465    1.4461536760   -0.1551554743
H        2.5138189424    0.2707480171    0.2898183102
H        1.5422544902   -1.9478910814   -0.2471640275
H       -1.1164944508   -1.6707372937   -1.3578493157
H       -2.2760213549   -0.1501045595   -0.0732208981
H       -0.9474954925    2.4973420253   -0.4312089841
C       -0.3673621988    0.4164359868    1.2389313780
H       -0.2641854958   -0.4801518258    1.9608142908
13   