13   
From optimize.out: Frame 45 / 46, Energy=    -286.8549634740
C        1.6719244309    0.3314353752   -0.3263684253
C        1.0804919964   -0.8827368240   -0.3028906952
C       -0.3507527566   -1.0539018818   -0.0009283164
C       -1.1374459891    0.3655191548    0.1144997171
C       -0.2933788800    1.5329140741   -0.2044643278
N        0.9893830334    1.5494008637   -0.3207906216
H        2.7422075806    0.4208289926   -0.4904210088
H        1.6607263676   -1.7761400108   -0.5208781112
H       -0.8552749409   -1.9042885573   -0.4636294966
H       -2.1694564504    0.4405403106   -0.2337430022
H       -0.8217658915    2.4674880809   -0.4096236625
C       -0.8881700118   -0.5252253247    1.2509821520
H       -1.6284884889   -0.9658342528    1.9082557988
13   
From optimize.out: Frame 44 / 46, Energy=    -286.8549599020
C        1.6703719598    0.3292897212   -0.3318589175
C        1.0774939047   -0.8825826257   -0.3091259300
C       -0.3420741302   -1.0587643897    0.0174542738
C       -1.1546579277    0.3588006408    0.0879821930
C       -0.2932410330    1.5284713962   -0.1864916933
N        0.9913764734    1.5424444647   -0.2780028317
H        2.7375186206    0.4228928935   -0.5095226326
H        1.6530531803   -1.7638775830   -0.5752685615
H       -0.8359702802   -1.9377258516   -0.4024530616
H       -2.1721455857    0.4152256098   -0.3103146215
H       -0.7999417561    2.4794815387   -0.3669903112
C       -0.9026998753   -0.4992790743    1.2459825764
H       -1.6290835505   -0.9343767406    1.9186095179
13   
From optimize.out: Frame 43 / 46, Energy=    -286.8549523897
C        1.6847566943    0.3296745407   -0.2826761763
C        1.0771320172   -0.8750613218   -0.2985691556
C       -0.3462733059   -1.0352924592    0.0237911557
C       -1.1702488279    0.3634057165    0.0605387541
C       -0.2962970476    1.5266751714   -0.1885039344
N        0.9927935182    1.5459478469   -0.2161005076
H        2.7415768428    0.3887457852   -0.5482951194
H        1.6269536888   -1.7600062962   -0.5994653101
H       -0.8178791981   -1.9429853187   -0.3693855600
H       -2.1851571676    0.4493861683   -0.3386039482
H       -0.8234349184    2.4597782212   -0.3961986835
C       -0.9093503217   -0.4771736830    1.2354762798
H       -1.5745719743   -0.9730943713    1.9179922053
13   
From optimize.out: Frame 42 / 46, Energy=    -286.8549403722
C        1.6794549878    0.3346692438   -0.2664517446
C        1.0695598905   -0.8711542409   -0.3177602531
C       -0.3467413817   -1.0326547178   -0.0062608415
C       -1.1750485511    0.3575843000    0.0417892113
C       -0.2914581476    1.5225885865   -0.2031845660
N        0.9948057558    1.5527431873   -0.1745375160
H        2.7397664134    0.3794043398   -0.5400947758
H        1.6091975905   -1.7831799952   -0.5808996300
H       -0.7928222864   -1.9327731899   -0.3892757713
H       -2.2112936865    0.4704821029   -0.3257956522
H       -0.8386277827    2.4486147743   -0.4192209420
C       -0.8886006427   -0.4750909431    1.2217010427
H       -1.5481921593   -0.9712334478    1.9599914385
13   
From optimize.out: Frame 41 / 46, Energy=    -286.8549243670
C        1.6739795857    0.3323813596   -0.2965834967
C        1.0595950203   -0.8715089600   -0.3332063648
C       -0.3492271467   -1.0083205039   -0.0009319950
C       -1.1887528088    0.3597383770    0.0249332286
C       -0.2924239947    1.5098345186   -0.2222398649
N        0.9963512017    1.5474644121   -0.2087263420
H        2.7367200035    0.3820516825   -0.5155844810
H        1.5925703478   -1.7957914385   -0.4881891773
H       -0.8043405271   -1.9062847433   -0.4056202734
H       -2.2318333170    0.4875242633   -0.3200639844
H       -0.8288360759    2.4441571767   -0.3833455117
C       -0.9071969831   -0.4459599414    1.2259686652
H       -1.4566053058   -1.0352862027    1.9235895974
13   
From optimize.out: Frame 40 / 46, Energy=    -286.8549042142
C        1.6733355959    0.3326910864   -0.3401803715
C        1.0508363172   -0.8664449193   -0.3456377977
C       -0.3569029250   -0.9900224329   -0.0010283632
C       -1.2084708995    0.3667445646    0.0092032152
C       -0.2841613252    1.4986729280   -0.2391825807
N        0.9978340924    1.5449019270   -0.2611002307
H        2.7385439051    0.3942046854   -0.5000970456
H        1.5883022527   -1.8059905955   -0.3904944316
H       -0.8177160350   -1.8844010901   -0.4187999306
H       -2.2455062754    0.4970696037   -0.3131949997
H       -0.8031865001    2.4494042133   -0.3403488132
C       -0.9292235748   -0.4197614041    1.2360024395
H       -1.4036846282   -1.1170685664    1.9048589097
13   
From optimize.out: Frame 38 / 46, Energy=    -286.8548603203
C        1.6808239397    0.3306418363   -0.3698101214
C        1.0680715694   -0.8618826603   -0.3122296486
C       -0.3509643554   -0.9863765360    0.0325597112
C       -1.2306471356    0.3773215294   -0.0107972747
C       -0.2746314182    1.4996027739   -0.2341924096
N        0.9932211359    1.5358570546   -0.3076192153
H        2.7536678548    0.4110835533   -0.5383475781
H        1.6084844387   -1.8084472538   -0.3576466210
H       -0.8336627835   -1.9140388299   -0.4331033176
H       -2.2600180014    0.5154842276   -0.3381997196
H       -0.7760893532    2.4734912067   -0.2914081624
C       -0.9688347675   -0.3889536687    1.2590724606
H       -1.4094211235   -1.1837832328    1.9017218967
13   
From optimize.out: Frame 37 / 46, Energy=    -286.8548366883
C        1.6777267738    0.3229593842   -0.3638858981
C        1.0697388873   -0.8747626716   -0.2818868404
C       -0.3251638102   -0.9518811500    0.0128676563
C       -1.2152530013    0.3577458376    0.0001932449
C       -0.2825991347    1.4889424061   -0.2292653046
N        0.9758404405    1.5170843052   -0.3465810656
H        2.7489385651    0.4119716052   -0.5275668361
H        1.6121356120   -1.8104717127   -0.3927804865
H       -0.8344944830   -1.8556079807   -0.3682918163
H       -2.2305445298    0.5285399317   -0.3465132843
H       -0.7779970613    2.4685615440   -0.2876279855
C       -1.0428882388   -0.3861812794    1.2598368142
H       -1.3754400197   -1.2169002196    1.8715018019
13   
From optimize.out: Frame 36 / 46, Energy=    -286.8547896838
C        1.6769384610    0.3293668477   -0.3830864193
C        1.0471301295   -0.8612037310   -0.2719680177
C       -0.3722088001   -0.9319863505    0.0015030811
C       -1.1993171956    0.3563697168    0.0201599871
C       -0.2718638182    1.5010095508   -0.2497631240
N        0.9845492866    1.5272414540   -0.3918016382
H        2.7552767280    0.4044608055   -0.5016962393
H        1.5956290434   -1.7978980070   -0.3190010625
H       -0.8797809472   -1.8387170549   -0.3616198086
H       -2.2234623936    0.5098588657   -0.3139058027
H       -0.7796390737    2.4721740664   -0.2899064155
C       -1.0028050117   -0.3890175207    1.2747290688
H       -1.3304464084   -1.2816586428    1.7863563908
13   
From optimize.out: Frame 35 / 46, Energy=    -286.8546950526
C        1.6756321630    0.3285422211   -0.3846080602
C        1.0463343956   -0.8635445046   -0.2585611712
C       -0.3859377977   -0.9451888730   -0.0339914861
C       -1.1787054875    0.3527624550    0.0344481127
C       -0.2712313577    1.5242940221   -0.2400446217
N        0.9871392370    1.5316486643   -0.4152637935
H        2.7531500173    0.4009852248   -0.5068246805
H        1.6078552507   -1.7917852296   -0.3224787327
H       -0.8928194285   -1.8684668893   -0.3283017244
H       -2.2029658740    0.5044918726   -0.3092539593
H       -0.7845558934    2.4888157167   -0.2852410322
C       -1.0212117102   -0.3551989174    1.3220833277
H       -1.3326835145   -1.3073557629    1.7280378212
13   
From optimize.out: Frame 34 / 46, Energy=    -286.8545722417
C        1.6711975278    0.3264951278   -0.3682354211
C        1.0320854998   -0.8689336798   -0.2688177774
C       -0.4128284724   -0.9436150475   -0.1203779345
C       -1.1392565189    0.3328327907    0.0592967020
C       -0.2741245104    1.5430322929   -0.2334677564
N        0.9941928294    1.5399819685   -0.4200593233
H        2.7510263218    0.3979017674   -0.4619833008
H        1.6022828111   -1.7905777330   -0.3475398646
H       -0.9222307291   -1.8765036665   -0.3391228104
H       -2.1634159673    0.4512600575   -0.3139181947
H       -0.8045421110    2.4925652792   -0.3143392305
C       -1.0275943473   -0.3038404884    1.4004807605
H       -1.3067923336   -1.3005986689    1.7280841512
13   
From optimize.out: Frame 33 / 46, Energy=    -286.8544185059
C        1.6651971246    0.3202119066   -0.3369350278
C        1.0302364698   -0.8762027029   -0.2503997512
C       -0.4136341657   -0.9540988505   -0.1690863868
C       -1.0997925016    0.3135871869    0.0734143031
C       -0.2827344750    1.5637064278   -0.2216161716
N        0.9936010621    1.5424548676   -0.4233312123
H        2.7431438730    0.3886857901   -0.4397779021
H        1.6059035053   -1.7809962659   -0.4281111736
H       -0.9354858410   -1.8870451081   -0.3102612133
H       -2.1179814588    0.4280846493   -0.3270625656
H       -0.8234574904    2.5005001306   -0.3418772938
C       -1.0676414956   -0.2650295097    1.4514762596
H       -1.2973546068   -1.2938585217    1.7235681355
13   
From optimize.out: Frame 32 / 46, Energy=    -286.8542042816
C        1.6631308199    0.3268064798   -0.3461932956
C        1.0263483523   -0.8670031274   -0.2492466889
C       -0.4076609488   -0.9557053266   -0.1627317424
C       -1.0810994906    0.3183908289    0.0677065607
C       -0.2728849599    1.5755089670   -0.2249374629
N        0.9988908101    1.5562036806   -0.4347135222
H        2.7404706759    0.3843572077   -0.4593631845
H        1.6043104264   -1.7695252566   -0.4334556744
H       -0.9193333083   -1.9061560939   -0.1884164353
H       -2.1028399115    0.4865518931   -0.3043335955
H       -0.8257557933    2.5064741676   -0.3424895440
C       -1.0959998959   -0.3100908771    1.4207978972
H       -1.3275767762   -1.3458125429    1.6573766878
13   
From optimize.out: Frame 31 / 46, Energy=    -286.8539353649
C        1.6719455747    0.3324655941   -0.3524385848
C        1.0342795483   -0.8723036285   -0.2968108954
C       -0.3856693898   -0.9613200222   -0.2049571612
C       -1.0787637053    0.3047605398    0.0686405448
C       -0.2696989834    1.5633744058   -0.2208828519
N        1.0018193111    1.5559875668   -0.4194743095
H        2.7510541366    0.3948679144   -0.4428191915
H        1.6162258632   -1.7735019426   -0.4744261696
H       -0.8924255993   -1.9165958569   -0.1752108886
H       -2.0978091708    0.4856567601   -0.3071060533
H       -0.8265387341    2.4926347086   -0.3393228555
C       -1.1342686809   -0.2991531920    1.4305318359
H       -1.3901501705   -1.3068728474    1.7342765806
13   
From optimize.out: Frame 30 / 46, Energy=    -286.8532412382
C        1.6811930992    0.3362041482   -0.3539341428
C        1.0438092485   -0.8806264152   -0.3464609231
C       -0.3632638471   -0.9680803844   -0.2524283845
C       -1.0804420697    0.2875403741    0.0708755036
C       -0.2698688203    1.5468049035   -0.2155007147
N        1.0029140017    1.5514176655   -0.3987385925
H        2.7620179420    0.4060331077   -0.4181393929
H        1.6295632986   -1.7798918127   -0.5204933408
H       -0.8680321825   -1.9251471214   -0.1997778123
H       -2.0962471785    0.4671364339   -0.3153711362
H       -0.8281244917    2.4755764323   -0.3357248413
C       -1.1659846537   -0.2732853043    1.4492288253
H       -1.4475343465   -1.2436820272    1.8364649523
13   
From optimize.out: Frame 29 / 46, Energy=    -286.8522590141
C        1.6869221525    0.3359449677   -0.3458326280
C        1.0520935778   -0.8898444290   -0.3806962474
C       -0.3465473753   -0.9757965392   -0.2917568511
C       -1.0845111883    0.2697582966    0.0733301480
C       -0.2749410775    1.5300232171   -0.2101423407
N        1.0007995497    1.5426907052   -0.3764786538
H        2.7683596747    0.4125466931   -0.3898469362
H        1.6405527357   -1.7853936875   -0.5634424357
H       -0.8538340619   -1.9329777758   -0.2655947198
H       -2.0984177146    0.4329589837   -0.3256154930
H       -0.8321709202    2.4593748493   -0.3327071125
C       -1.1786341534   -0.2365207188    1.4716534039
H       -1.4796711994   -1.1627645624    1.9371298662
13   
From optimize.out: Frame 27 / 46, Energy=    -286.8495777652
C        1.6909866889    0.3352972890   -0.3360519625
C        1.0588688518   -0.8985177955   -0.4143470139
C       -0.3316577532   -0.9839018141   -0.3300013905
C       -1.0889605688    0.2515485997    0.0751136465
C       -0.2803933733    1.5122207740   -0.2064308405
N        0.9978203623    1.5336109947   -0.3536336564
H        2.7729396380    0.4180454653   -0.3583746079
H        1.6504370544   -1.7906632905   -0.6030701921
H       -0.8408639272   -1.9411685207   -0.3363904657
H       -2.1023218735    0.3993223134   -0.3321131255
H       -0.8365510370    2.4423494446   -0.3303457438
C       -1.1856901576   -0.1991642717    1.4922674194
H       -1.5046139050   -1.0789791881    2.0333779330
13   
From optimize.out: Frame 26 / 46, Energy=    -286.8476463981
C        1.6900383964    0.3334796158   -0.3212143972
C        1.0610994828   -0.9055509117   -0.4462373365
C       -0.3222698387   -0.9931789561   -0.3649815942
C       -1.0945551393    0.2320510919    0.0748759338
C       -0.2869901869    1.4913442384   -0.2076790361
N        0.9922369534    1.5234689479   -0.3290267071
H        2.7722138883    0.4204880446   -0.3173258359
H        1.6569932188   -1.7952333877   -0.6326954659
H       -0.8315919724   -1.9504437076   -0.4221803912
H       -2.1114469797    0.3673142457   -0.3273271912
H       -0.8419360832    2.4228430330   -0.3299610572
C       -1.1759008922   -0.1600253849    1.5074287760
H       -1.5078908473   -0.9865568692    2.1163243027
13   
From optimize.out: Frame 25 / 46, Energy=    -286.8424396834
C        1.6895613934    0.3291437208   -0.3022714906
C        1.0628922681   -0.9130143283   -0.4735134612
C       -0.3158118380   -1.0016139007   -0.3922924830
C       -1.0985614523    0.2130230735    0.0777702307
C       -0.2961477718    1.4733475515   -0.2078330262
N        0.9876205242    1.5132357262   -0.3023424145
H        2.7714124548    0.4191216979   -0.2734806035
H        1.6616813807   -1.7984887743   -0.6686324333
H       -0.8305105801   -1.9497272555   -0.5093306724
H       -2.1176051239    0.3265989629   -0.3252262456
H       -0.8518077089    2.4032757030   -0.3378218325
C       -1.1619368513   -0.1165845067    1.5251088015
H       -1.5007866950   -0.8983176703    2.1898656306
13   
From optimize.out: Frame 24 / 46, Energy=    -286.8371158843
C        1.6896133099    0.3219816716   -0.2787212346
C        1.0641936674   -0.9209606631   -0.4956111560
C       -0.3126420260   -1.0091036628   -0.4109962398
C       -1.1007852929    0.1945219544    0.0841795246
C       -0.3081792635    1.4585828664   -0.2067590095
N        0.9840893186    1.5029001806   -0.2733267573
H        2.7705260830    0.4134806633   -0.2264969546
H        1.6642731177   -1.8002686852   -0.7116528993
H       -0.8386213063   -1.9377973696   -0.5980076558
H       -2.1204335010    0.2761117317   -0.3261386137
H       -0.8667145407    2.3836400053   -0.3549363390
C       -1.1432875363   -0.0683155819    1.5456154832
H       -1.4820320301   -0.8147731107    2.2528518519
13   
From optimize.out: Frame 23 / 46, Energy=    -286.8298358374
C        1.6806474263    0.3136439387   -0.2569737365
C        1.0613589119   -0.9304031923   -0.5049923979
C       -0.3136947644   -1.0207084591   -0.4319751632
C       -1.1083608785    0.1798799974    0.0874761639
C       -0.3201141237    1.4431277902   -0.2087447060
N        0.9746663080    1.4900267408   -0.2510973979
H        2.7604249576    0.4090083071   -0.1828933096
H        1.6669043337   -1.8053023120   -0.7247063827
H       -0.8417051946   -1.9297366884   -0.6997049042
H       -2.1329106621    0.2405863293   -0.3134302601
H       -0.8744717153    2.3692929670   -0.3666674987
C       -1.1102341717   -0.0231552200    1.5548909554
H       -1.4425104273   -0.7362601988    2.2988186375
13   
From optimize.out: Frame 22 / 46, Energy=    -286.8271578630
C        1.6639759330    0.3043015973   -0.2367666751
C        1.0549898584   -0.9411242030   -0.5035075726
C       -0.3183556250   -1.0358295062   -0.4548981911
C       -1.1205094706    0.1685356515    0.0881130744
C       -0.3319664134    1.4270827825   -0.2133448931
N        0.9602088157    1.4749846988   -0.2346668541
H        2.7424499278    0.4055345735   -0.1421778400
H        1.6695692840   -1.8131162030   -0.7121534135
H       -0.8404937057   -1.9249821995   -0.8125278239
H       -2.1536326018    0.2178456429   -0.2890831515
H       -0.8761195875    2.3594650293   -0.3737986487
C       -1.0648727072    0.0193489095    1.5545694842
H       -1.3852437076   -0.6620467736    2.3302425051
13   
From optimize.out: Frame 21 / 46, Energy=    -286.8252089152
C        1.6502369052    0.2926864832   -0.1973141037
C        1.0463990077   -0.9456692169   -0.5056486421
C       -0.3277308198   -1.0391502639   -0.4687223151
C       -1.1204901045    0.1520780244    0.0984940158
C       -0.3414698183    1.4100965627   -0.2222174622
N        0.9513639551    1.4633917904   -0.2166687115
H        2.7278818904    0.3950303932   -0.0927801429
H        1.6657161831   -1.8092841015   -0.7348283584
H       -0.8574827049   -1.8845681574   -0.9066328155
H       -2.1553288089    0.1654918065   -0.2723172376
H       -0.8834805041    2.3396040915   -0.4047809199
C       -1.0255640449    0.0606875721    1.5616019443
H       -1.3300511361   -0.6003949842    2.3618147487
13   
From optimize.out: Frame 20 / 46, Energy=    -286.8224850763
C        1.6370690851    0.2801788301   -0.1628442951
C        1.0398030249   -0.9528987120   -0.5063287515
C       -0.3350038310   -1.0440556118   -0.4832711356
C       -1.1248878069    0.1378473545    0.1084176077
C       -0.3531736315    1.3944033035   -0.2294985902
N        0.9413122671    1.4503090408   -0.1990200266
H        2.7135472603    0.3844882106   -0.0464909714
H        1.6649757962   -1.8091847867   -0.7493780734
H       -0.8727843931   -1.8425484647   -1.0014016302
H       -2.1613526523    0.1148580356   -0.2547889004
H       -0.8904475461    2.3230729142   -0.4314312557
C       -0.9858460905    0.1030277703    1.5662649108
H       -1.2732114821   -0.5394978844    2.3897711115
13   
From optimize.out: Frame 19 / 46, Energy=    -286.8152770673
C        1.6267373766    0.2631685480   -0.1544939991
C        1.0434953419   -0.9740711596   -0.4994126174
C       -0.3313620449   -1.0574421400   -0.5018126738
C       -1.1522890970    0.1351829884    0.1156982752
C       -0.3762226615    1.3853629869   -0.2284951112
N        0.9249051432    1.4294875265   -0.1832098942
H        2.7003035503    0.3739677008   -0.0163943077
H        1.6803827714   -1.8285673460   -0.7212172185
H       -0.8788816845   -1.7934002756   -1.1001473277
H       -2.1901329609    0.0739476924   -0.2331212756
H       -0.8952209067    2.3239092241   -0.4351546000
C       -0.9438450129    0.1505348104    1.5585623889
H       -1.2078698151   -0.4820805563    2.3991983611
13   
From optimize.out: Frame 18 / 46, Energy=    -286.8076921593
C        1.6056983003    0.2499709187   -0.1291761198
C        1.0308977597   -0.9836497519   -0.4899179974
C       -0.3422062499   -1.0623218901   -0.5173388269
C       -1.1669729906    0.1336297032    0.1253654053
C       -0.3895928903    1.3751874302   -0.2382641611
N        0.9113392615    1.4174227260   -0.1776552024
H        2.6766997713    0.3575343068    0.0289313009
H        1.6780443982   -1.8343889351   -0.7011434129
H       -0.8931074267   -1.7348242010   -1.1837376398
H       -2.2017936035    0.0219820448   -0.2116643768
H       -0.8927952614    2.3205027728   -0.4543416558
C       -0.8907634744    0.1847878896    1.5488431837
H       -1.1254475944   -0.4458330140    2.4000995030
13   
From optimize.out: Frame 17 / 46, Energy=    -286.8023044781
C        1.5884929464    0.2367870071   -0.1055767764
C        1.0197267783   -0.9915565367   -0.4791078719
C       -0.3490522666   -1.0566612385   -0.5314184184
C       -1.1857739320    0.1308796037    0.1333709794
C       -0.4034115808    1.3634438798   -0.2508193972
N        0.8984675624    1.4060973037   -0.1740723689
H        2.6566136290    0.3393385982    0.0729156733
H        1.6744277321   -1.8414508553   -0.6754895233
H       -0.9163049511   -1.6615966071   -1.2493380642
H       -2.2167410906   -0.0280921368   -0.1885568057
H       -0.8906351737    2.3155496897   -0.4744689069
C       -0.8365629174    0.2117520915    1.5330530431
H       -1.0392467359   -0.4244907995    2.3895084371
13   
From optimize.out: Frame 15 / 46, Energy=    -286.7939594609
C        1.5777927311    0.2232132393   -0.0876139719
C        1.0127758721   -0.9996372303   -0.4670523566
C       -0.3485860006   -1.0408056750   -0.5436309714
C       -1.2116719211    0.1273416501    0.1382387639
C       -0.4194915554    1.3513573315   -0.2646982717
N        0.8861191820    1.3950310240   -0.1708372387
H        2.6425465378    0.3199329912    0.1119622656
H        1.6722037723   -1.8524405143   -0.6409730562
H       -0.9500139452   -1.5739126880   -1.2924230287
H       -2.2380239321   -0.0734081307   -0.1643539785
H       -0.8901453002    2.3108287092   -0.4922264519
C       -0.7826948853    0.2319199060    1.5092237661
H       -0.9508105556   -0.4194206128    2.3643845299
13   
From optimize.out: Frame 14 / 46, Energy=    -286.7901283509
C        1.5507028442    0.2181943183   -0.0789863852
C        0.9870690068   -1.0177599039   -0.4564381567
C       -0.3673018167   -1.0974161964   -0.5409915246
C       -1.2166354379    0.1550588004    0.1277885541
C       -0.4333063619    1.3871813475   -0.2643178987
N        0.8770966102    1.4101432017   -0.1538800169
H        2.6120200559    0.3029994712    0.1380658642
H        1.6673193071   -1.8584971444   -0.6073828322
H       -0.9838650585   -1.5914541322   -1.2969707711
H       -2.2245926323   -0.1108904701   -0.1756363934
H       -0.8904207292    2.3536823763   -0.4836280141
C       -0.7237772142    0.2690466385    1.4759475150
H       -0.8543085734   -0.4202883068    2.3164300596
13   
From optimize.out: Frame 13 / 46, Energy=    -286.7871011210
C        1.5308066786    0.2138441070   -0.0675890187
C        0.9637144041   -1.0275690239   -0.4388092496
C       -0.3817098005   -1.1051572537   -0.5372927153
C       -1.2210338454    0.1661417242    0.1180235038
C       -0.4435076090    1.4007321040   -0.2751945421
N        0.8683344496    1.4156697629   -0.1466976469
H        2.5877953252    0.2923341548    0.1674781059
H        1.6469633891   -1.8702392341   -0.5644410382
H       -1.0269990804   -1.5547621040   -1.2915193485
H       -2.2174726499   -0.1447589675   -0.1740366112
H       -0.8926468366    2.3717247715   -0.4850273263
C       -0.6610015405    0.2830317769    1.4347372101
H       -0.7532428843   -0.4409918183    2.2603686769
13   
From optimize.out: Frame 12 / 46, Energy=    -286.7842167838
C        1.5135093705    0.2100039776   -0.0545598637
C        0.9403227802   -1.0334741786   -0.4200804080
C       -0.3953407513   -1.0938087380   -0.5409591316
C       -1.2229668645    0.1690326509    0.1118153801
C       -0.4518298523    1.4042408788   -0.2898119126
N        0.8604518537    1.4178133484   -0.1443734844
H        2.5652339086    0.2833348557    0.2004905495
H        1.6189529810   -1.8836129830   -0.5181432511
H       -1.0668835474   -1.5012679932   -1.2935547657
H       -2.2109666982   -0.1778298020   -0.1638947198
H       -0.8970855760    2.3773137482   -0.4921439389
C       -0.5992174389    0.2906126464    1.3958095149
H       -0.6541801654   -0.4623584113    2.2094060312
13   
From optimize.out: Frame 11 / 46, Energy=    -286.7795320067
C        1.4961412306    0.2079749987   -0.0372850498
C        0.9109042467   -1.0333644815   -0.4111305082
C       -0.4142896148   -1.0732290079   -0.5970894834
C       -1.2095969138    0.1573112272    0.1280051359
C       -0.4563047979    1.3944602703   -0.3021109720
N        0.8578844327    1.4205928890   -0.1509359878
H        2.5384583791    0.2702221251    0.2497515541
H        1.5771138064   -1.8940716978   -0.4720893605
H       -1.0619731995   -1.4672009609   -1.3708302514
H       -2.1931195004   -0.2143747050   -0.1275566438
H       -0.9117136864    2.3595203356   -0.5134159172
C       -0.5536200849    0.3116637347    1.3918181382
H       -0.5798842979   -0.4395047274    2.2128693457
13   
From optimize.out: Frame 10 / 46, Energy=    -286.7734539290
C        1.4787730906    0.2059460198   -0.0200102360
C        0.8814857132   -1.0332547845   -0.4021806084
C       -0.4332384782   -1.0526492779   -0.6532198353
C       -1.1962269631    0.1455898036    0.1441948917
C       -0.4607797435    1.3846796618   -0.3144100313
N        0.8553170118    1.4233724295   -0.1574984911
H        2.5116828496    0.2571093946    0.2990125587
H        1.5352746318   -1.9045304127   -0.4260354700
H       -1.0570628516   -1.4331339287   -1.4481057370
H       -2.1752723026   -0.2509196081   -0.0912185678
H       -0.9263417968    2.3417269230   -0.5346878954
C       -0.5080227309    0.3327148230    1.3878267616
H       -0.5055884303   -0.4166510435    2.2163326603
13   
From optimize.out: Frame 9 / 46, Energy=    -286.7649103197
C        1.4614049507    0.2039170409   -0.0027354222
C        0.8520671798   -1.0331450874   -0.3932307086
C       -0.4521873416   -1.0320695479   -0.7093501871
C       -1.1828570124    0.1338683799    0.1603846475
C       -0.4652546891    1.3748990534   -0.3267090907
N        0.8527495908    1.4261519700   -0.1640609945
H        2.4849073201    0.2439966641    0.3482735633
H        1.4934354572   -1.9149891276   -0.3799815794
H       -1.0521525037   -1.3990668965   -1.5253812226
H       -2.1574251048   -0.2874645112   -0.0548804917
H       -0.9409699072    2.3239335104   -0.5559598736
C       -0.4624253769    0.3537659113    1.3838353849
H       -0.4312925628   -0.3937973596    2.2197959748
13   
From optimize.out: Frame 8 / 46, Energy=    -286.7540980745
C        1.4540205024    0.2092139063    0.0065419656
C        0.8153295784   -1.0235810159   -0.3786095257
C       -0.4885823352   -1.0107994209   -0.7261135005
C       -1.1552629085    0.1185434806    0.1556249230
C       -0.4659766401    1.3744122519   -0.3327821439
N        0.8565358757    1.4377617176   -0.1582096289
H        2.4715763028    0.2372262869    0.3737191761
H        1.4404383529   -1.9146319344   -0.3367879040
H       -1.0901787408   -1.3659500141   -1.5396149237
H       -2.1132470171   -0.3409276943   -0.0542421549
H       -0.9582821740    2.3132988867   -0.5604566377
C       -0.4153066852    0.3649885612    1.3625634799
H       -0.3510641115   -0.3995550115    2.1883668747
13   
From optimize.out: Frame 7 / 46, Energy=    -286.7388763401
C        1.4502411692    0.2171561370    0.0129314797
C        0.7759490587   -1.0106029660   -0.3619404403
C       -0.5312771331   -0.9892799913   -0.7286613609
C       -1.1225324573    0.1019173647    0.1433003331
C       -0.4653433832    1.3772814477   -0.3366069840
N        0.8626164863    1.4525600563   -0.1478756105
H        2.4631001042    0.2327461360    0.3905650417
H        1.3834121158   -1.9103691127   -0.2946270533
H       -1.1437093956   -1.3331762312   -1.5310842117
H       -2.0595608347   -0.4005000751   -0.0664950079
H       -0.9765636906    2.3052493046   -0.5588958653
C       -0.3676386377    0.3726621581    1.3350515694
H       -0.2686934020   -0.4156442280    2.1443381101
13   
From optimize.out: Frame 6 / 46, Energy=    -286.7236406419
C        1.4490118015    0.2226210786    0.0156957050
C        0.7487095656   -1.0049722593   -0.3479788405
C       -0.5624485632   -0.9839390604   -0.7274927458
C       -1.1039808586    0.0962954510    0.1323673516
C       -0.4672177336    1.3853900527   -0.3383729053
N        0.8672776806    1.4637753846   -0.1401290314
H        2.4586284783    0.2308470863    0.3995154009
H        1.3457918156   -1.9086376366   -0.2599296555
H       -1.1840815080   -1.3218528842   -1.5174292146
H       -2.0269240010   -0.4363400530   -0.0762397985
H       -0.9895761856    2.3070176373   -0.5524013157
C       -0.3306332812    0.3805236617    1.3097585885
H       -0.2045572104   -0.4307284588    2.1026364613
13   
From optimize.out: Frame 5 / 46, Energy=    -286.7014704189
C        1.4587037977    0.2174759261    0.0029330160
C        0.7734694297   -1.0308098238   -0.3456132543
C       -0.5442660349   -1.0478897598   -0.7104066682
C       -1.1461565145    0.1378039371    0.1273945539
C       -0.4798320297    1.4159387626   -0.3313205899
N        0.8658595922    1.4596448741   -0.1434643147
H        2.4713082198    0.2400027531    0.3746497357
H        1.3912860882   -1.9177477759   -0.2571978207
H       -1.1680962983   -1.4024005886   -1.4818271830
H       -2.0844403840   -0.3705354395   -0.0752426941
H       -0.9800217479    2.3508355660   -0.5247756660
C       -0.3392956506    0.3891899592    1.2939691621
H       -0.2185184677   -0.4415083903    2.0709017233
13   
From optimize.out: Frame 3 / 46, Energy=    -286.6251551194
C        1.4683957938    0.2123307736   -0.0098296731
C        0.7982292937   -1.0566473884   -0.3432476681
C       -0.5260835066   -1.1118404593   -0.6933205907
C       -1.1883321704    0.1793124232    0.1224217562
C       -0.4924463259    1.4464874725   -0.3242682745
N        0.8644415039    1.4555143635   -0.1467995980
H        2.4839879614    0.2491584198    0.3497840705
H        1.4367803607   -1.9268579152   -0.2544659859
H       -1.1521110885   -1.4829482930   -1.4462251513
H       -2.1419567670   -0.3047308261   -0.0742455898
H       -0.9704673101    2.3946534946   -0.4971500163
C       -0.3479580199    0.3978562566    1.2781797357
H       -0.2324797251   -0.4522883218    2.0391669852
13   