
Running Job 1 of 1 qcirc.in
qchem qcirc.in_115800.0 ./qcirc.d/ 1
/home/leeping/opt/qchem/5.0.2-openmp/exe/qcprog.exe_s qcirc.in_115800.0 ./qcirc.d/
Check license passed

                  Welcome to Q-Chem
     A Quantum Leap Into The Future Of Chemistry


 Q-Chem 5.0, Q-Chem, Inc., Pleasanton, CA (2017)

 Yihan Shao,  Zhengting Gan,  E. Epifanovsky,  A. T. B. Gilbert,  M. Wormit,  
 J. Kussmann,  A. W. Lange,  A. Behn,  Jia Deng,  Xintian Feng,  D. Ghosh,  
 M. Goldey,  P. R. Horn,  L. D. Jacobson,  I. Kaliman,  T. Kus,  A. Landau,  
 Jie Liu,  E. I. Proynov,  R. M. Richard,  R. P. Steele,  E. J. Sundstrom,  
 H. L. Woodcock III,  P. M. Zimmerman,  D. Zuev,  B. Albrecht,  E. Alguire,  
 S. A. Baeppler,  D. Barton,  Z. Benda,  Y. A. Bernard,  E. J. Berquist,  
 K. B. Bravaya,  H. Burton,  D. Casanova,  Chun-Min Chang,  Yunqing Chen,  
 A. Chien,  K. D. Closser,  M. P. Coons,  S. Dasgupta,  A. L. Dempwolff,  
 M. Diedenhofen,  Hainam Do,  R. G. Edgar,  Po-Tung Fang,  S. Fatehi,  
 Qingguo Feng,  J. Fosso-Tande,  Qinghui Ge,  A. Ghysels,  G. Gidofalvi,  
 J. Gomes,  J. Gonthier,  A. Gunina,  M. W. D. Hanson-Heine,  
 P. H. P. Harbach,  A. W. Hauser,  J. E. Herr,  E. G. Hohenstein,  
 Z. C. Holden,  Kerwin Hui,  T.-C. Jagau,  Hyunjun Ji,  B. Kaduk,  
 K. Khistyaev,  Jaehoon Kim,  P. Klunzinger,  K. Koh,  D. Kosenkov,  
 L. Koulias,  T. Kowalczyk,  C. M. Krauter,  A. Kunitsa,  Ka Un Lao,  
 A. Laurent,  K. V. Lawler,  Joonho Lee,  D. Lefrancois,  S. Lehtola,  
 D. S. Levine,  Yi-Pei Li,  You-Sheng Lin,  Fenglai Liu,  E. Livshits,  
 A. Luenser,  P. Manohar,  E. Mansoor,  S. F. Manzer,  Shan-Ping Mao,  
 Yuezhi Mao,  N. Mardirossian,  A. V. Marenich,  T. Markovich,  
 L. A. Martinez-Martinez,  S. A. Maurer,  N. J. Mayhall,  S. C. McKenzie,  
 J.-M. Mewes,  A. F. Morrison,  J. W. Mullinax,  K. Nanda,  
 T. S. Nguyen-Beck,  R. Olivares-Amaya,  J. A. Parkhill,  T. M. Perrine,  
 F. Plasser,  S. Prager,  A. Prociuk,  E. Ramos,  D. R. Rehn,  F. Rob,  
 M. Schneider,  N. Sergueev,  S. M. Sharada,  S. Sharma,  D. W. Small,  
 T. Stauch,  T. Stein,  Yu-Chuan Su,  A. J. W. Thom,  A. Tkatchenko,  
 T. Tsuchimochi,  L. Vogt,  O. Vydrov,  M. A. Watson,  J. Wenzel,  
 M. de Wergifosse,  T. A. Wesolowski,  A. White,  J. Witte,  A. Yamada,  
 Jun Yang,  K. Yao,  S. Yeganeh,  S. R. Yost,  Zhi-Qiang You,  A. Zech,  
 Igor Ying Zhang,  Xing Zhang,  Yan Zhao,  Ying Zhu,  B. R. Brooks,  
 G. K. L. Chan,  C. J. Cramer,  M. S. Gordon,  W. J. Hehre,  A. Klamt,  
 M. W. Schmidt,  C. D. Sherrill,  D. G. Truhlar,  A. Aspuru-Guzik,  R. Baer,  
 A. T. Bell,  N. A. Besley,  Jeng-Da Chai,  R. A. DiStasio Jr.,  A. Dreuw,  
 B. D. Dunietz,  T. R. Furlani,  Chao-Ping Hsu,  Yousung Jung,  Jing Kong,  
 D. S. Lambrecht,  WanZhen Liang,  C. Ochsenfeld,  V. A. Rassolov,  
 L. V. Slipchenko,  J. E. Subotnik,  T. Van Voorhis,  J. M. Herbert,  
 A. I. Krylov,  P. M. W. Gill,  M. Head-Gordon

 Contributors to earlier versions of Q-Chem not listed above: 
 R. D. Adamson,  B. Austin,  J. Baker,  G. J. O. Beran,  K. Brandhorst,  
 S. T. Brown,  E. F. C. Byrd,  A. K. Chakraborty,  C.-L. Cheng,  
 Siu Hung Chien,  D. M. Chipman,  D. L. Crittenden,  H. Dachsel,  
 R. J. Doerksen,  A. D. Dutoi,  L. Fusti-Molnar,  W. A. Goddard III,  
 A. Golubeva-Zadorozhnaya,  S. R. Gwaltney,  G. Hawkins,  A. Heyden,  
 S. Hirata,  G. Kedziora,  F. J. Keil,  C. Kelley,  Jihan Kim,  R. A. King,  
 R. Z. Khaliullin,  P. P. Korambath,  W. Kurlancheek,  A. M. Lee,  M. S. Lee,  
 S. V. Levchenko,  Ching Yeh Lin,  D. Liotard,  R. C. Lochan,  I. Lotan,  
 P. E. Maslen,  N. Nair,  D. P. O'Neill,  D. Neuhauser,  E. Neuscamman,  
 C. M. Oana,  R. Olson,  B. Peters,  R. Peverati,  P. A. Pieniazek,  
 Y. M. Rhee,  J. Ritchie,  M. A. Rohrdanz,  E. Rosta,  N. J. Russ,  
 H. F. Schaefer III,  N. E. Schultz,  N. Shenvi,  A. C. Simmonett,  A. Sodt,  
 D. Stuck,  K. S. Thanthiriwatte,  V. Vanovschi,  Tao Wang,  A. Warshel,  
 C. F. Williams,  Q. Wu,  X. Xu,  W. Zhang

 Please cite Q-Chem as follows:
 Y. Shao et al., Mol. Phys. 113, 184-215 (2015)
 DOI: 10.1080/00268976.2014.952696

 Q-Chem 5.0.2 for Intel X86 EM64T Linux

 Parts of Q-Chem use Armadillo 5.200.1 (Boston Tea Smuggler).
 http://arma.sourceforge.net/

 Q-Chem begins on Wed Mar  2 08:35:16 2022  

Host: 
0

     Scratch files written to ./qcirc.d//
 Dec517 15110_ 26548  26544 5633   
Processing $rem in /home/leeping/opt/qchem/5.0.2-openmp/config/preferences.
 MEM_STATIC 2000
 MEM_TOTAL  8000
 SYMMETRY   OFF
 SYM_IGNORE TRUE 

Checking the input file for inconsistencies... 	...done.

--------------------------------------------------------------
User input:
--------------------------------------------------------------
$molecule
0 2
C        1.6445617029    0.3786580278   -0.2370173153
C        1.1281684884   -0.9184022163   -0.1225559896
C       -0.2413548069   -1.1284696510   -0.1954104097
C       -1.1790139847    0.0212084784   -0.2578746698
C       -0.4448083579    1.3265912322   -0.4128531363
N        0.8529826514    1.4837966561   -0.3755251412
H        2.7146509195    0.5612888433   -0.2231432765
H        1.8062071337   -1.7602026393   -0.0152822002
H       -0.6590923163   -2.1288577673   -0.1478199627
H       -2.0187033624   -0.0863661534   -0.9507864344
H       -1.0522621061    2.2274300884   -0.4890760491
C       -1.6599414823    0.0114337368    1.1959252804
H       -0.9903681340   -0.0204712476    2.0601764226
$end

$rem
method                b3lyp
basis                 6-31+g(d,p)
unrestricted          true
symmetry              off
sym_ignore            true
incdft                false
incfock               0
scf_convergence       8
thresh                14
jobtype               rpath
scf_guess             core
scf_guess_mix         5
scf_algorithm         diis
max_scf_cycles        100
rpath_direction       1
rpath_tol_displacement 1000
rpath_max_cycles      50
geom_opt_max_cycles   300
geom_opt_hessian      read
$end

--------------------------------------------------------------
 ----------------------------------------------------------------
             Standard Nuclear Orientation (Angstroms)
    I     Atom           X                Y                Z
 ----------------------------------------------------------------
    1      C       1.6445617029     0.3786580278    -0.2370173153
    2      C       1.1281684884    -0.9184022163    -0.1225559896
    3      C      -0.2413548069    -1.1284696510    -0.1954104097
    4      C      -1.1790139847     0.0212084784    -0.2578746698
    5      C      -0.4448083579     1.3265912322    -0.4128531363
    6      N       0.8529826514     1.4837966561    -0.3755251412
    7      H       2.7146509195     0.5612888433    -0.2231432765
    8      H       1.8062071337    -1.7602026393    -0.0152822002
    9      H      -0.6590923163    -2.1288577673    -0.1478199627
   10      H      -2.0187033624    -0.0863661534    -0.9507864344
   11      H      -1.0522621061     2.2274300884    -0.4890760491
   12      C      -1.6599414823     0.0114337368     1.1959252804
   13      H      -0.9903681340    -0.0204712476     2.0601764226
 ----------------------------------------------------------------
 Nuclear Repulsion Energy =   264.4387086643 hartrees
 There are       25 alpha and       24 beta electrons
 Requested basis set is 6-31+G(d,p)
 There are 53 shells and 163 basis functions

 Total QAlloc Memory Limit   8000 MB
 Mega-Array Size      1956 MB
 MEM_STATIC part      2000 MB
 Starting direction for rxn path = 1

                       Distance Matrix (Angstroms)
             C (  1)   C (  2)   C (  3)   C (  4)   C (  5)   N (  6)
   C (  2)  1.400760
   C (  3)  2.414507  1.387455
   C (  4)  2.846188  2.494849  1.484879
   C (  5)  2.301079  2.756542  2.473055  1.505689
   N (  6)  1.366424  2.431107  2.837948  2.506395  1.307811
   H (  7)  1.085651  2.171757  3.405000  3.931096  3.256357  2.083279
   H (  8)  2.156391  1.086219  2.150359  3.484799  3.841019  3.400286
   H (  9)  3.406232  2.158736  1.085148  2.214772  3.472217  3.922944
   H ( 10)  3.761014  3.358728  2.194434  1.093973  2.182422  3.323089
   H ( 11)  3.279383  3.845111  3.464949  2.221921  1.089183  2.048375
   C ( 12)  3.620486  3.221264  2.290760  1.531314  2.407147  3.309395
   H ( 13)  3.518417  3.171561  2.622280  2.326088  2.868464  3.404909
             H (  7)   H (  8)   H (  9)   H ( 10)   H ( 11)   C ( 12)
   H (  8)  2.501559
   H (  9)  4.315635  2.496232
   H ( 10)  4.832553  4.278649  2.581680
   H ( 11)  4.127515  4.929152  4.387286  2.549674
   C ( 12)  4.631755  4.076752  2.718124  2.178680  2.849411
   H ( 13)  4.390804  3.892946  3.070877  3.182407  3.399350  1.093744

 
 A cutoff of  1.0D-14 yielded   1388 shell pairs
 There are     13457 function pairs
 
 -------------------------------------------------------
 OpenMP Integral Computing Module                       
 Release: version 1.0, May 2013, Q-Chem Inc. Pittsburgh 
 -------------------------------------------------------
 Integral Job Info:
 Integral job number is                      11
 Integral operator is                         1
 short-range coefficients                     0
 long-range coefficients              100000000
 Omega coefficients                           0
 if combine SR and LR in K                    0
 Integral screening is                        0
 Integral computing path is                   2
 max size of driver memory is            800000
 size of driver memory is                593474
 size of scratch memory is              2361544
 max col of scratch BK array               1296
 max len of scratch array in speh3          155
 max len of scratch index in speh4           18
 max int batch size is                      520
 min int batch size is                       52
 fixed nKL is                                52
 max L of basis functions is                  2
 order of int derivative is                   0
 number of shells is                         53
 number of basis is                         163
 number of cartesian basis is               163
 number of contracted shell pairs          1388
 number of primitive shell pairs           4679
 maxK2 (contraction) of shell pair           36
 max number of K2 of shell pair               1
 max number of CS2 of shell pair            127
 max number of PS2 of shell pair            696
 mem total for path MDJ                  534060
 -------------------------------------------------------
 Smallest overlap matrix eigenvalue = 2.84E-05

 Scale SEOQF with 1.000000e-01/1.000000e-01/1.000000e-01

 Standard Electronic Orientation quadrupole field applied
 Nucleus-field energy     =     0.0000000045 hartrees
 Guess MOs from core Hamiltonian diagonalization
 Mixing HOMO and LUMO in initial guess
 Adding  50% of the LUMO to the HOMO
 An unrestricted hybrid HF-DFT SCF calculation will be
 performed using Pulay DIIS extrapolation
 Exchange:     0.2000 Hartree-Fock + 0.0800 Slater + 0.7200 B88
 Correlation:  0.1900 VWN1RPA + 0.8100 LYP
 Using SG-1 standard quadrature grid
 SCF converges when DIIS error is below 1.0E-08
 using 4 threads for integral computing
 -------------------------------------------------------
 OpenMP Integral computing Module                
 Release: version 1.0, May 2013, Q-Chem Inc. Pittsburgh 
 -------------------------------------------------------
 -------------------------------------------------------
 OpenMP BLAS3 based DFT computing Module                
 Release: version 1.0, May 2013, Q-Chem Inc. Pittsburgh 
 -------------------------------------------------------
 ---------------------------------------
  Cycle       Energy         DIIS Error
 ---------------------------------------
    1    -232.9486056797      9.83E-02
    2    -207.9050509044      7.56E-02
    3    -255.1884254713      7.37E-02
    4    -272.2058695467      5.74E-02
    5    -284.7479149054      2.32E-02
    6    -285.2146523794      1.77E-02
    7    -286.0269414271      1.18E-02
    8    -286.7613445649      3.27E-03
    9    -286.7785413526      2.68E-03
   10    -286.8073271514      5.54E-04
   11    -286.8079467338      5.47E-04
   12    -286.8101235905      9.95E-05
   13    -286.8111136911      7.84E-05
   14    -286.8120076067      9.40E-05
   15    -286.8125557128      9.53E-05
   16    -286.8135467196      1.01E-04
   17    -286.8124089080      1.17E-04
   18    -286.8133564938      1.11E-04
   19    -286.8138748181      1.23E-04
   20    -286.8123436916      1.21E-04
   21    -286.8115156867      1.22E-04
   22    -286.8113027384      1.01E-04
   23    -286.8100117461      8.44E-05
   24    -286.8093865825      5.04E-05
   25    -286.8092458810      1.56E-05
   26    -286.8091229436      2.41E-05
   27    -286.8091386049      1.65E-05
   28    -286.8091281323      1.89E-05
   29    -286.8091184635      1.80E-05
   30    -286.8091202636      1.78E-05
   31    -286.8091214809      2.59E-05
   32    -286.8091483921      3.49E-05
   33    -286.8091244128      1.97E-05
   34    -286.8089548324      1.81E-05
   35    -286.8088307867      1.40E-05
   36    -286.8088301451      5.53E-06
   37    -286.8088300234      1.15E-06
   38    -286.8088299968      5.26E-07
   39    -286.8088299884      4.18E-07
   40    -286.8088299909      8.01E-08
   41    -286.8088299905      1.50E-08
   42    -286.8088299905      1.75E-08
   43    -286.8088299905      4.37E-09 Convergence criterion met
 ---------------------------------------
 <S^2> = 0.8144
 SCF time:  CPU 220.89 s  wall 132.62 s
 SCF   energy in the final basis set = -286.80882999
 Total energy in the final basis set = -286.80882999
 
 --------------------------------------------------------------
 
                    Orbital Energies (a.u.)
 --------------------------------------------------------------
 
 Alpha MOs
 -- Occupied --
-14.357 -10.262 -10.248 -10.242 -10.242 -10.225 -10.222  -0.965
 -0.842  -0.796  -0.684  -0.646  -0.608  -0.543  -0.505  -0.497
 -0.449  -0.435  -0.423  -0.390  -0.384  -0.318  -0.280  -0.222
 -0.199
 -- Virtual --
 -0.115  -0.033  -0.001   0.019   0.026   0.031   0.045   0.046
  0.051   0.065   0.074   0.085   0.093   0.097   0.102   0.113
  0.120   0.122   0.137   0.143   0.149   0.162   0.172   0.175
  0.192   0.198   0.203   0.209   0.225   0.231   0.236   0.245
  0.253   0.268   0.276   0.293   0.302   0.313   0.316   0.322
  0.333   0.416   0.476   0.520   0.610   0.640   0.652   0.661
  0.671   0.700   0.706   0.712   0.731   0.748   0.762   0.784
  0.803   0.871   0.875   0.891   0.919   0.933   0.954   0.984
  1.016   1.029   1.040   1.055   1.079   1.100   1.115   1.128
  1.175   1.206   1.219   1.271   1.332   1.354   1.405   1.407
  1.441   1.522   1.567   1.594   1.680   1.709   1.725   1.770
  1.823   1.869   1.895   1.954   1.961   1.981   2.001   2.055
  2.096   2.117   2.147   2.168   2.240   2.298   2.319   2.350
  2.376   2.381   2.413   2.459   2.470   2.486   2.508   2.520
  2.525   2.565   2.599   2.635   2.647   2.695   2.707   2.769
  2.806   2.940   2.990   3.159   3.216   3.253   3.337   3.371
  3.409   3.441   3.743   4.177   4.301   4.322   4.420   4.444
  4.575   4.749
 
 Beta MOs
 -- Occupied --
-14.356 -10.260 -10.246 -10.242 -10.240 -10.222 -10.216  -0.961
 -0.837  -0.791  -0.677  -0.641  -0.590  -0.541  -0.502  -0.495
 -0.446  -0.429  -0.421  -0.388  -0.375  -0.306  -0.275  -0.211
 -- Virtual --
 -0.113  -0.088  -0.010  -0.001   0.019   0.028   0.034   0.046
  0.049   0.053   0.070   0.076   0.088   0.094   0.098   0.104
  0.114   0.122   0.126   0.139   0.143   0.150   0.164   0.172
  0.176   0.194   0.200   0.205   0.212   0.226   0.232   0.237
  0.247   0.259   0.269   0.279   0.295   0.304   0.315   0.317
  0.323   0.335   0.419   0.478   0.522   0.613   0.644   0.655
  0.667   0.684   0.705   0.710   0.720   0.749   0.754   0.772
  0.788   0.806   0.874   0.877   0.892   0.920   0.934   0.956
  0.988   1.019   1.032   1.046   1.059   1.082   1.102   1.119
  1.131   1.178   1.212   1.223   1.277   1.336   1.360   1.410
  1.411   1.447   1.530   1.586   1.604   1.688   1.716   1.733
  1.774   1.827   1.877   1.897   1.959   1.967   1.991   2.013
  2.066   2.100   2.122   2.156   2.172   2.245   2.301   2.327
  2.356   2.380   2.383   2.416   2.461   2.478   2.489   2.511
  2.528   2.530   2.568   2.603   2.642   2.650   2.696   2.709
  2.772   2.810   2.941   2.992   3.162   3.217   3.254   3.339
  3.372   3.410   3.442   3.744   4.181   4.304   4.337   4.427
  4.448   4.578   4.751
 --------------------------------------------------------------
 
          Ground-State Mulliken Net Atomic Charges

     Atom                 Charge (a.u.)    Spin (a.u.)
  --------------------------------------------------------
      1 C                    -0.230568       0.135938
      2 C                     0.136466      -0.019000
      3 C                    -0.379226       0.167737
      4 C                     0.258986      -0.129181
      5 C                    -0.158886       0.098274
      6 N                    -0.152416       0.054307
      7 H                     0.138144      -0.007665
      8 H                     0.138226       0.000086
      9 H                     0.155405      -0.008744
     10 H                     0.152590       0.009962
     11 H                     0.148220      -0.002227
     12 C                    -0.348800       0.740451
     13 H                     0.141859      -0.039936
  --------------------------------------------------------
  Sum of atomic charges =    -0.000000
  Sum of spin   charges =     1.000000

 -----------------------------------------------------------------
                    Cartesian Multipole Moments
 -----------------------------------------------------------------
    Charge (ESU x 10^10)
                -0.0000
    Dipole Moment (Debye)
         X       0.9837      Y      -1.7077      Z      -0.9150
       Tot       2.1728
    Quadrupole Moments (Debye-Ang)
        XX     -44.2159     XY      -3.8701     YY     -42.8354
        XZ       4.6257     YZ       0.6427     ZZ     -44.1190
    Octopole Moments (Debye-Ang^2)
       XXX      26.7727    XXY      -7.1295    XYY      -6.4866
       YYY     -29.3351    XXZ     -10.5163    XYZ       0.8984
       YYZ       0.5745    XZZ       1.5966    YZZ      -4.7511
       ZZZ       5.0855
    Hexadecapole Moments (Debye-Ang^3)
      XXXX    -444.9724   XXXY      -7.6413   XXYY    -123.3910
      XYYY     -27.9637   YYYY    -306.5112   XXXZ      73.1178
      XXYZ       6.4187   XYYZ      21.6306   YYYZ      18.9596
      XXZZ    -110.3371   XYZZ      -2.7662   YYZZ     -81.7042
      XZZZ      49.5014   YZZZ      17.4707   ZZZZ    -139.2021
 -----------------------------------------------------------------
 Calculating analytic gradient of the SCF energy
 Gradient of SCF Energy
            1           2           3           4           5           6
    1   0.0039323  -0.0179032   0.0224576  -0.0078347  -0.0066606   0.0071970
    2   0.0171327  -0.0147641  -0.0077458  -0.0099960   0.0069614  -0.0049102
    3   0.0001592  -0.0019358  -0.0118490   0.0193725   0.0012649  -0.0002233
            7           8           9          10          11          12
    1   0.0000185  -0.0001068   0.0002346   0.0002996  -0.0001156   0.0057305
    2   0.0002001  -0.0001976  -0.0003639  -0.0006188  -0.0002039   0.0174568
    3  -0.0001199   0.0001719   0.0003151  -0.0019260   0.0001901  -0.0066712
           13
    1  -0.0072494
    2  -0.0029506
    3   0.0012514
 Max gradient component =       2.246E-02
 RMS gradient           =       8.340E-03
 Gradient time:  CPU 17.10 s  wall 7.93 s
rPathMan2.  file_steps = 951
 ------------------------------------------------------------------------
 Reaction path following.  The coordinates are cartesian              
 Step   1 E=    -286.808830 |G|=  0.052083 S_lin= 0.0000 S_tot= 0.0000
 ------------------------------------------------------------------------
 IRC -- initial gradient exceeds tolerance:   1.000000000000000E-003
 IRC -- initial geometry is not a stationary point

 Q-Chem fatal error occurred in module 0, line   42:

 Bad initial gradient

