
Running Job 1 of 1 qcts2.in
qchem qcts2.in_110204.0 ./qcts2.d/ 1
/home/leeping/opt/qchem/5.0.2-openmp/exe/qcprog.exe_s qcts2.in_110204.0 ./qcts2.d/
Check license passed

                  Welcome to Q-Chem
     A Quantum Leap Into The Future Of Chemistry


 Q-Chem 5.0, Q-Chem, Inc., Pleasanton, CA (2017)

 Yihan Shao,  Zhengting Gan,  E. Epifanovsky,  A. T. B. Gilbert,  M. Wormit,  
 J. Kussmann,  A. W. Lange,  A. Behn,  Jia Deng,  Xintian Feng,  D. Ghosh,  
 M. Goldey,  P. R. Horn,  L. D. Jacobson,  I. Kaliman,  T. Kus,  A. Landau,  
 Jie Liu,  E. I. Proynov,  R. M. Richard,  R. P. Steele,  E. J. Sundstrom,  
 H. L. Woodcock III,  P. M. Zimmerman,  D. Zuev,  B. Albrecht,  E. Alguire,  
 S. A. Baeppler,  D. Barton,  Z. Benda,  Y. A. Bernard,  E. J. Berquist,  
 K. B. Bravaya,  H. Burton,  D. Casanova,  Chun-Min Chang,  Yunqing Chen,  
 A. Chien,  K. D. Closser,  M. P. Coons,  S. Dasgupta,  A. L. Dempwolff,  
 M. Diedenhofen,  Hainam Do,  R. G. Edgar,  Po-Tung Fang,  S. Fatehi,  
 Qingguo Feng,  J. Fosso-Tande,  Qinghui Ge,  A. Ghysels,  G. Gidofalvi,  
 J. Gomes,  J. Gonthier,  A. Gunina,  M. W. D. Hanson-Heine,  
 P. H. P. Harbach,  A. W. Hauser,  J. E. Herr,  E. G. Hohenstein,  
 Z. C. Holden,  Kerwin Hui,  T.-C. Jagau,  Hyunjun Ji,  B. Kaduk,  
 K. Khistyaev,  Jaehoon Kim,  P. Klunzinger,  K. Koh,  D. Kosenkov,  
 L. Koulias,  T. Kowalczyk,  C. M. Krauter,  A. Kunitsa,  Ka Un Lao,  
 A. Laurent,  K. V. Lawler,  Joonho Lee,  D. Lefrancois,  S. Lehtola,  
 D. S. Levine,  Yi-Pei Li,  You-Sheng Lin,  Fenglai Liu,  E. Livshits,  
 A. Luenser,  P. Manohar,  E. Mansoor,  S. F. Manzer,  Shan-Ping Mao,  
 Yuezhi Mao,  N. Mardirossian,  A. V. Marenich,  T. Markovich,  
 L. A. Martinez-Martinez,  S. A. Maurer,  N. J. Mayhall,  S. C. McKenzie,  
 J.-M. Mewes,  A. F. Morrison,  J. W. Mullinax,  K. Nanda,  
 T. S. Nguyen-Beck,  R. Olivares-Amaya,  J. A. Parkhill,  T. M. Perrine,  
 F. Plasser,  S. Prager,  A. Prociuk,  E. Ramos,  D. R. Rehn,  F. Rob,  
 M. Schneider,  N. Sergueev,  S. M. Sharada,  S. Sharma,  D. W. Small,  
 T. Stauch,  T. Stein,  Yu-Chuan Su,  A. J. W. Thom,  A. Tkatchenko,  
 T. Tsuchimochi,  L. Vogt,  O. Vydrov,  M. A. Watson,  J. Wenzel,  
 M. de Wergifosse,  T. A. Wesolowski,  A. White,  J. Witte,  A. Yamada,  
 Jun Yang,  K. Yao,  S. Yeganeh,  S. R. Yost,  Zhi-Qiang You,  A. Zech,  
 Igor Ying Zhang,  Xing Zhang,  Yan Zhao,  Ying Zhu,  B. R. Brooks,  
 G. K. L. Chan,  C. J. Cramer,  M. S. Gordon,  W. J. Hehre,  A. Klamt,  
 M. W. Schmidt,  C. D. Sherrill,  D. G. Truhlar,  A. Aspuru-Guzik,  R. Baer,  
 A. T. Bell,  N. A. Besley,  Jeng-Da Chai,  R. A. DiStasio Jr.,  A. Dreuw,  
 B. D. Dunietz,  T. R. Furlani,  Chao-Ping Hsu,  Yousung Jung,  Jing Kong,  
 D. S. Lambrecht,  WanZhen Liang,  C. Ochsenfeld,  V. A. Rassolov,  
 L. V. Slipchenko,  J. E. Subotnik,  T. Van Voorhis,  J. M. Herbert,  
 A. I. Krylov,  P. M. W. Gill,  M. Head-Gordon

 Contributors to earlier versions of Q-Chem not listed above: 
 R. D. Adamson,  B. Austin,  J. Baker,  G. J. O. Beran,  K. Brandhorst,  
 S. T. Brown,  E. F. C. Byrd,  A. K. Chakraborty,  C.-L. Cheng,  
 Siu Hung Chien,  D. M. Chipman,  D. L. Crittenden,  H. Dachsel,  
 R. J. Doerksen,  A. D. Dutoi,  L. Fusti-Molnar,  W. A. Goddard III,  
 A. Golubeva-Zadorozhnaya,  S. R. Gwaltney,  G. Hawkins,  A. Heyden,  
 S. Hirata,  G. Kedziora,  F. J. Keil,  C. Kelley,  Jihan Kim,  R. A. King,  
 R. Z. Khaliullin,  P. P. Korambath,  W. Kurlancheek,  A. M. Lee,  M. S. Lee,  
 S. V. Levchenko,  Ching Yeh Lin,  D. Liotard,  R. C. Lochan,  I. Lotan,  
 P. E. Maslen,  N. Nair,  D. P. O'Neill,  D. Neuhauser,  E. Neuscamman,  
 C. M. Oana,  R. Olson,  B. Peters,  R. Peverati,  P. A. Pieniazek,  
 Y. M. Rhee,  J. Ritchie,  M. A. Rohrdanz,  E. Rosta,  N. J. Russ,  
 H. F. Schaefer III,  N. E. Schultz,  N. Shenvi,  A. C. Simmonett,  A. Sodt,  
 D. Stuck,  K. S. Thanthiriwatte,  V. Vanovschi,  Tao Wang,  A. Warshel,  
 C. F. Williams,  Q. Wu,  X. Xu,  W. Zhang

 Please cite Q-Chem as follows:
 Y. Shao et al., Mol. Phys. 113, 184-215 (2015)
 DOI: 10.1080/00268976.2014.952696

 Q-Chem 5.0.2 for Intel X86 EM64T Linux

 Parts of Q-Chem use Armadillo 5.200.1 (Boston Tea Smuggler).
 http://arma.sourceforge.net/

 Q-Chem begins on Wed Mar  2 07:34:41 2022  

Host: 
0

     Scratch files written to ./qcts2.d//
 Dec517 15110_ 26548  26544 5633   
Processing $rem in /home/leeping/opt/qchem/5.0.2-openmp/config/preferences.
 MEM_STATIC 2000
 MEM_TOTAL  8000
 SYMMETRY   OFF
 SYM_IGNORE TRUE 

Checking the input file for inconsistencies... 	...done.

--------------------------------------------------------------
User input:
--------------------------------------------------------------
$molecule
0 2
C        1.6418631753    0.3549639225   -0.2201453280
C        1.1501458164   -0.9683493348   -0.1950754621
C       -0.2053729102   -1.1896057620   -0.2661849851
C       -1.1649306574   -0.0607535044   -0.2849640780
C       -0.4710200855    1.2382423959   -0.2493746477
N        0.8462160514    1.4293999360   -0.2052505822
H        2.7118184489    0.5472538718   -0.2348811098
H        1.8443437031   -1.8022409101   -0.1544614384
H       -0.6084413875   -2.1970190268   -0.2576315007
H       -2.0206126099   -0.1627740449   -0.9574407826
H       -1.0881245363    2.1333574678   -0.1973584732
C       -1.5647145067   -0.1057798159    1.2328902203
H       -1.1701441565    0.7509421930    1.8186352858
$end

$rem
method                b3lyp
basis                 6-31+g(d,p)
unrestricted          true
symmetry              off
sym_ignore            true
incdft                false
incfock               0
scf_convergence       8
thresh                14
jobtype               ts
scf_guess             read
scf_algorithm         diis_gdm
max_scf_cycles        300
geom_opt_max_cycles   500
geom_opt_dmax         100
geom_opt_tol_gradient 10
geom_opt_hessian      read
$end

--------------------------------------------------------------
 ----------------------------------------------------------------
             Standard Nuclear Orientation (Angstroms)
    I     Atom           X                Y                Z
 ----------------------------------------------------------------
    1      C       1.6418631753     0.3549639225    -0.2201453280
    2      C       1.1501458164    -0.9683493348    -0.1950754621
    3      C      -0.2053729102    -1.1896057620    -0.2661849851
    4      C      -1.1649306574    -0.0607535044    -0.2849640780
    5      C      -0.4710200855     1.2382423959    -0.2493746477
    6      N       0.8462160514     1.4293999360    -0.2052505822
    7      H       2.7118184489     0.5472538718    -0.2348811098
    8      H       1.8443437031    -1.8022409101    -0.1544614384
    9      H      -0.6084413875    -2.1970190268    -0.2576315007
   10      H      -2.0206126099    -0.1627740449    -0.9574407826
   11      H      -1.0881245363     2.1333574678    -0.1973584732
   12      C      -1.5647145067    -0.1057798159     1.2328902203
   13      H      -1.1701441565     0.7509421930     1.8186352858
 ----------------------------------------------------------------
 Nuclear Repulsion Energy =   266.0032483191 hartrees
 There are       25 alpha and       24 beta electrons
 Requested basis set is 6-31+G(d,p)
 There are 53 shells and 163 basis functions

 Total QAlloc Memory Limit   8000 MB
 Mega-Array Size      1956 MB
 MEM_STATIC part      2000 MB
 A cutoff of  1.0D-14 yielded   1388 shell pairs
 There are     13449 function pairs
 
 -------------------------------------------------------
 OpenMP Integral Computing Module                       
 Release: version 1.0, May 2013, Q-Chem Inc. Pittsburgh 
 -------------------------------------------------------
 Integral Job Info:
 Integral job number is                      11
 Integral operator is                         1
 short-range coefficients                     0
 long-range coefficients              100000000
 Omega coefficients                           0
 if combine SR and LR in K                    0
 Integral screening is                        0
 Integral computing path is                   2
 max size of driver memory is            800000
 size of driver memory is                593474
 size of scratch memory is              2361544
 max col of scratch BK array               1296
 max len of scratch array in speh3          155
 max len of scratch index in speh4           18
 max int batch size is                      520
 min int batch size is                       52
 fixed nKL is                                52
 max L of basis functions is                  2
 order of int derivative is                   0
 number of shells is                         53
 number of basis is                         163
 number of cartesian basis is               163
 number of contracted shell pairs          1388
 number of primitive shell pairs           4692
 maxK2 (contraction) of shell pair           36
 max number of K2 of shell pair               1
 max number of CS2 of shell pair            127
 max number of PS2 of shell pair            684
 mem total for path MDJ                  534060
 -------------------------------------------------------
 Smallest overlap matrix eigenvalue = 2.64E-05

 Scale SEOQF with 1.000000e-01/1.000000e-01/1.000000e-01

 Standard Electronic Orientation quadrupole field applied
 Nucleus-field energy     =     0.0000000046 hartrees
 Guess MOs from SCF MO coefficient file
 Reading MOs from coefficient file
 Reading MOs from coefficient file
 An unrestricted hybrid HF-DFT SCF calculation will be
 performed using Pulay DIIS + Geometric Direct Minimization
 Exchange:     0.2000 Hartree-Fock + 0.0800 Slater + 0.7200 B88
 Correlation:  0.1900 VWN1RPA + 0.8100 LYP
 Using SG-1 standard quadrature grid
 SCF converges when RMS gradient is below 1.0E-08
Using Q-Chem read-in guess as SCF_GUESS READ specified.

 using 4 threads for integral computing
 -------------------------------------------------------
 OpenMP Integral computing Module                
 Release: version 1.0, May 2013, Q-Chem Inc. Pittsburgh 
 -------------------------------------------------------
 -------------------------------------------------------
 OpenMP BLAS3 based DFT computing Module                
 Release: version 1.0, May 2013, Q-Chem Inc. Pittsburgh 
 -------------------------------------------------------
 ---------------------------------------
  Cycle       Energy        RMS Gradient
 ---------------------------------------
    1    -286.8127810704      1.33E-10 Done DIIS. Switching to GDM
    2    -286.8127810704      1.53E-08 Normal BFGS step
    3    -286.8127810704      4.76E-08 Normal BFGS step
    4    -286.8127810704      2.92E-09 Convergence criterion met
 ---------------------------------------
 <S^2> = 0.9417
 SCF time:  CPU 20.66 s  wall 11.18 s
 SCF   energy in the final basis set = -286.81278107
 Total energy in the final basis set = -286.81278107
 
 --------------------------------------------------------------
 
                    Orbital Energies (a.u.)
 --------------------------------------------------------------
 
 Alpha MOs
 -- Occupied --
-14.357 -10.257 -10.246 -10.240 -10.238 -10.229 -10.219  -0.965
 -0.842  -0.796  -0.679  -0.647  -0.608  -0.542  -0.505  -0.496
 -0.450  -0.425  -0.420  -0.385  -0.379  -0.311  -0.280  -0.247
 -0.210
 -- Virtual --
 -0.103  -0.028  -0.000   0.018   0.026   0.031   0.043   0.046
  0.058   0.069   0.078   0.084   0.092   0.098   0.105   0.115
  0.121   0.123   0.138   0.143   0.146   0.161   0.171   0.176
  0.192   0.202   0.206   0.212   0.225   0.227   0.237   0.246
  0.252   0.269   0.275   0.297   0.308   0.312   0.318   0.322
  0.335   0.391   0.478   0.528   0.615   0.647   0.657   0.671
  0.696   0.705   0.712   0.717   0.722   0.746   0.756   0.764
  0.805   0.836   0.873   0.890   0.922   0.935   0.964   0.989
  1.007   1.018   1.031   1.051   1.079   1.093   1.110   1.118
  1.180   1.205   1.226   1.287   1.324   1.360   1.399   1.418
  1.447   1.529   1.563   1.609   1.698   1.729   1.732   1.770
  1.848   1.883   1.910   1.928   1.979   2.001   2.036   2.067
  2.094   2.115   2.147   2.185   2.250   2.291   2.321   2.362
  2.389   2.408   2.432   2.453   2.459   2.497   2.509   2.520
  2.537   2.550   2.586   2.614   2.663   2.689   2.703   2.768
  2.817   2.953   3.005   3.173   3.228   3.256   3.314   3.357
  3.402   3.449   3.753   4.187   4.313   4.336   4.423   4.458
  4.579   4.763
 
 Beta MOs
 -- Occupied --
-14.355 -10.260 -10.249 -10.240 -10.239 -10.217 -10.213  -0.964
 -0.838  -0.795  -0.675  -0.647  -0.580  -0.543  -0.504  -0.494
 -0.448  -0.423  -0.419  -0.384  -0.373  -0.306  -0.276  -0.208
 -- Virtual --
 -0.113  -0.068  -0.021   0.001   0.018   0.027   0.034   0.043
  0.047   0.059   0.069   0.080   0.086   0.093   0.103   0.106
  0.117   0.122   0.127   0.138   0.143   0.147   0.164   0.171
  0.179   0.194   0.202   0.206   0.215   0.227   0.230   0.237
  0.248   0.259   0.271   0.277   0.299   0.308   0.312   0.319
  0.323   0.337   0.395   0.480   0.528   0.615   0.652   0.663
  0.674   0.702   0.705   0.710   0.721   0.745   0.763   0.765
  0.773   0.807   0.839   0.874   0.891   0.921   0.936   0.969
  0.996   1.009   1.024   1.035   1.055   1.080   1.097   1.111
  1.124   1.180   1.210   1.230   1.293   1.326   1.358   1.404
  1.415   1.450   1.540   1.578   1.639   1.707   1.740   1.745
  1.773   1.853   1.886   1.912   1.936   1.991   2.003   2.039
  2.080   2.099   2.128   2.149   2.193   2.258   2.290   2.322
  2.362   2.391   2.410   2.448   2.454   2.468   2.497   2.518
  2.520   2.535   2.552   2.589   2.616   2.664   2.691   2.709
  2.771   2.820   2.953   3.005   3.173   3.228   3.256   3.327
  3.357   3.402   3.449   3.753   4.193   4.313   4.367   4.424
  4.454   4.582   4.762
 --------------------------------------------------------------
 
          Ground-State Mulliken Net Atomic Charges

     Atom                 Charge (a.u.)    Spin (a.u.)
  --------------------------------------------------------
      1 C                    -0.214445      -0.205524
      2 C                     0.138425       0.170691
      3 C                    -0.253268      -0.118389
      4 C                     0.182452      -0.073497
      5 C                    -0.225165      -0.209465
      6 N                    -0.155077       0.138726
      7 H                     0.136463       0.008905
      8 H                     0.136383      -0.006532
      9 H                     0.150912       0.006899
     10 H                     0.155464       0.012702
     11 H                     0.153184       0.011875
     12 C                    -0.347063       1.296467
     13 H                     0.141734      -0.032859
  --------------------------------------------------------
  Sum of atomic charges =    -0.000000
  Sum of spin   charges =     1.000000

 -----------------------------------------------------------------
                    Cartesian Multipole Moments
 -----------------------------------------------------------------
    Charge (ESU x 10^10)
                -0.0000
    Dipole Moment (Debye)
         X       0.6024      Y      -1.2931      Z      -1.3277
       Tot       1.9488
    Quadrupole Moments (Debye-Ang)
        XX     -41.8506     XY      -4.6706     YY     -42.6733
        XZ       3.6320     YZ       2.1020     ZZ     -45.2350
    Octopole Moments (Debye-Ang^2)
       XXX      18.7742    XXY      -3.4827    XYY      -7.0821
       YYY     -23.4193    XXZ      -9.6016    XYZ      -2.4016
       YYZ      -0.7418    XZZ       1.4253    YZZ       0.0779
       ZZZ      -1.5821
    Hexadecapole Moments (Debye-Ang^3)
      XXXX    -412.6343   XXXY     -11.2477   XXYY    -119.6323
      XYYY     -25.3674   YYYY    -302.4767   XXXZ      62.4451
      XXYZ       5.4110   XYYZ      17.5863   YYYZ       5.5492
      XXZZ    -104.0632   XYZZ      -5.3503   YYZZ     -79.3046
      XZZZ      49.9651   YZZZ       7.4373   ZZZZ    -143.3682
 -----------------------------------------------------------------
 Calculating analytic gradient of the SCF energy
 Gradient of SCF Energy
            1           2           3           4           5           6
    1   0.0000884   0.0012457  -0.0028682  -0.0023695   0.0074132  -0.0049909
    2  -0.0042426   0.0030815  -0.0011699   0.0103893  -0.0024253   0.0030021
    3  -0.0010346   0.0006730   0.0028229   0.0017255  -0.0034290   0.0010940
            7           8           9          10          11          12
    1   0.0000324   0.0000134  -0.0000712   0.0005305  -0.0000737   0.0016845
    2  -0.0001139  -0.0000365   0.0002128   0.0000074   0.0001495  -0.0142138
    3   0.0002464  -0.0005054   0.0005536  -0.0009701   0.0004561   0.0030514
           13
    1  -0.0006344
    2   0.0053594
    3  -0.0046838
 Max gradient component =       1.421E-02
 RMS gradient           =       3.720E-03
 Gradient time:  CPU 17.16 s  wall 4.44 s
 Geometry Optimization Parameters
   NAtoms,    NIC,     NZ,  NCons,   NDum,   NFix, NCnnct, MaxDiis
       13      86       0       0       0       0       0       0

 Cartesian Hessian read from HESS file


** GEOMETRY OPTIMIZATION IN DELOCALIZED INTERNAL COORDINATES **
   Searching for a Transition State

   Optimization Cycle:   1

                       Coordinates (Angstroms)
     ATOM                X               Y               Z
      1  C         1.6418631753    0.3549639225   -0.2201453280
      2  C         1.1501458164   -0.9683493348   -0.1950754621
      3  C        -0.2053729102   -1.1896057620   -0.2661849851
      4  C        -1.1649306574   -0.0607535044   -0.2849640780
      5  C        -0.4710200855    1.2382423959   -0.2493746477
      6  N         0.8462160514    1.4293999360   -0.2052505822
      7  H         2.7118184489    0.5472538718   -0.2348811098
      8  H         1.8443437031   -1.8022409101   -0.1544614384
      9  H        -0.6084413875   -2.1970190268   -0.2576315007
     10  H        -2.0206126099   -0.1627740449   -0.9574407826
     11  H        -1.0881245363    2.1333574678   -0.1973584732
     12  C        -1.5647145067   -0.1057798159    1.2328902203
     13  H        -1.1701441565    0.7509421930    1.8186352858
   Point Group: c1    Number of degrees of freedom:    33


   Energy is   -286.812781070


 Attempting to Generate Delocalized Internal Coordinates

 Transforming Cartesian Hessian to Internal Coordinates
 Hessian Transformation does not Include Derivative of B-matrix

 33 Hessian modes will be used to form the next step
  Hessian Eigenvalues:
    -0.011064    0.002646    0.011339    0.013475    0.018863    0.019842
     0.024377    0.025710    0.030000    0.045388    0.059936    0.079482
     0.098183    0.105808    0.115432    0.126686    0.130006    0.169426
     0.184540    0.208359    0.236003    0.250898    0.273811    0.307375
     0.309363    0.347354    0.356035    0.359221    0.366017    0.389995
     0.414227    0.476674    0.595372

 Transition State Search - Taking P-RFO Step
 Searching for Lamda that Maximizes Along the Lowest mode
 Value Taken    Lamda =   0.00018195
 Searching for Lamda that Minimizes Along All other modes
 Value Taken    Lamda =  -0.00317382
 Calculated Step too Large.  Step scaled by  0.398376
 Step Taken.  Stepsize is  0.100000

                             Maximum     Tolerance    Cnvgd?
         Gradient           0.006860      0.000010      NO
         Displacement       0.059305      0.001200      NO
         Energy change     *********      0.000001      NO


 New Cartesian Coordinates Obtained by Inverse Iteration

 Displacement from previous Coordinates is:  0.169644
 ----------------------------------------------------------------
             Standard Nuclear Orientation (Angstroms)
    I     Atom           X                Y                Z
 ----------------------------------------------------------------
    1      C       1.6481347704     0.3524517438    -0.2243309431
    2      C       1.1573310961    -0.9745114446    -0.2067559441
    3      C      -0.1957455526    -1.1975950312    -0.2709395380
    4      C      -1.1560597388    -0.0704766433    -0.2704666942
    5      C      -0.4669006363     1.2332727069    -0.2384613987
    6      N       0.8510130722     1.4238073014    -0.2056538078
    7      H       2.7176972344     0.5463538226    -0.2441055135
    8      H       1.8530655938    -1.8066725817    -0.1733844432
    9      H      -0.5974171687    -2.2062724992    -0.2702108323
   10      H      -2.0133658849    -0.1682242039    -0.9431869647
   11      H      -1.0862078229     2.1264177472    -0.1867570223
   12      C      -1.5866971867    -0.0685813923     1.2325372319
   13      H      -1.2238214310     0.7776678623     1.8304729883
 ----------------------------------------------------------------
 Nuclear Repulsion Energy =   265.7946521879 hartrees
 There are       25 alpha and       24 beta electrons
 Applying Cartesian multipole field
    Component          Value
    ---------          -----
     (2,0,0)        1.00000E-11
     (0,2,0)        2.00000E-11
     (0,0,2)       -3.00000E-11
 Nucleus-field energy     =     0.0000000046 hartrees
 Requested basis set is 6-31+G(d,p)
 There are 53 shells and 163 basis functions
 A cutoff of  1.0D-14 yielded   1388 shell pairs
 There are     13449 function pairs
 Smallest overlap matrix eigenvalue = 2.63E-05
 Guess MOs from SCF MO coefficient file
 Reading MOs from coefficient file
 Reading MOs from coefficient file
 An unrestricted hybrid HF-DFT SCF calculation will be
 performed using Pulay DIIS + Geometric Direct Minimization
 Exchange:     0.2000 Hartree-Fock + 0.0800 Slater + 0.7200 B88
 Correlation:  0.1900 VWN1RPA + 0.8100 LYP
 Using SG-1 standard quadrature grid
 SCF converges when RMS gradient is below 1.0E-08
 Geometry optimization detected.  Setting ReadMinima to 0
 Setting SaveMinima to 0
Using Q-Chem read-in guess as SCF_GUESS READ specified.

 using 4 threads for integral computing
 -------------------------------------------------------
 OpenMP Integral computing Module                
 Release: version 1.0, May 2013, Q-Chem Inc. Pittsburgh 
 -------------------------------------------------------
 -------------------------------------------------------
 OpenMP BLAS3 based DFT computing Module                
 Release: version 1.0, May 2013, Q-Chem Inc. Pittsburgh 
 -------------------------------------------------------
 ---------------------------------------
  Cycle       Energy        RMS Gradient
 ---------------------------------------
    1    -286.8193118294      5.66E-04 Done DIIS. Switching to GDM
    2    -286.8137262767      1.19E-02 Normal BFGS step
    3    -286.8135508078      5.90E-03 Line search: overstep
    4    -286.8137941637      6.67E-03 Normal BFGS step
    5    -286.8138702756      2.98E-03 Normal BFGS step
    6    -286.8139191817      3.06E-03 Normal BFGS step
    7    -286.8139539051      2.31E-03 Normal BFGS step
    8    -286.8139823234      1.56E-03 Normal BFGS step
    9    -286.8139917259      7.60E-04 Normal BFGS step
   10    -286.8139948175      3.22E-04 Normal BFGS step
   11    -286.8139953328      2.63E-04 Normal BFGS step
   12    -286.8139957024      1.25E-04 Normal BFGS step
   13    -286.8139957397      6.39E-05 Normal BFGS step
   14    -286.8139957788      1.48E-05 Normal BFGS step
   15    -286.8139957809      7.88E-06 Normal BFGS step
   16    -286.8139957816      4.34E-06 Normal BFGS step
   17    -286.8139957817      2.04E-06 Normal BFGS step
   18    -286.8139957817      7.48E-07 Normal BFGS step
   19    -286.8139957817      5.81E-07 Normal BFGS step
   20    -286.8139957817      1.68E-07 Normal BFGS step
   GDM::WARNING energy changes are now smaller than effective accuracy.
   GDM::        calculation will continue, but THRESH should be increased
   GDM::        or SCF_CONVERGENCE decreased.
   GDM::        effective_thresh =   4.314694120217955E-009
   21    -286.8139957817      5.09E-08 Normal BFGS step
   22    -286.8139957817      1.98E-08 Normal BFGS step
   GDM::WARNING energy changes are now smaller than effective accuracy.
   GDM::        calculation will continue, but THRESH should be increased
   GDM::        or SCF_CONVERGENCE decreased.
   GDM::        effective_thresh =   4.314694120217955E-009
   23    -286.8139957817      1.57E-08 Normal BFGS step
   24    -286.8139957817      2.52E-08 Normal BFGS step
   25    -286.8139957817      1.09E-09 Convergence criterion met
 ---------------------------------------
 <S^2> = 1.0551
 SCF time:  CPU 129.24 s  wall 76.44 s
 SCF   energy in the final basis set = -286.81399578
 Total energy in the final basis set = -286.81399578
 
 --------------------------------------------------------------
 
                    Orbital Energies (a.u.)
 --------------------------------------------------------------
 
 Alpha MOs
 -- Occupied --
-14.357 -10.254 -10.244 -10.239 -10.234 -10.228 -10.218  -0.964
 -0.840  -0.794  -0.679  -0.645  -0.608  -0.541  -0.504  -0.495
 -0.450  -0.426  -0.419  -0.383  -0.381  -0.308  -0.280  -0.249
 -0.213
 -- Virtual --
 -0.102  -0.026   0.000   0.018   0.026   0.031   0.043   0.047
  0.058   0.070   0.078   0.085   0.093   0.098   0.104   0.116
  0.121   0.124   0.138   0.143   0.146   0.163   0.171   0.176
  0.194   0.203   0.206   0.213   0.225   0.228   0.238   0.246
  0.254   0.269   0.276   0.297   0.309   0.314   0.319   0.323
  0.336   0.395   0.481   0.529   0.616   0.648   0.658   0.671
  0.696   0.707   0.713   0.719   0.722   0.742   0.756   0.764
  0.806   0.834   0.875   0.891   0.923   0.936   0.960   0.992
  1.009   1.018   1.033   1.054   1.079   1.094   1.112   1.122
  1.182   1.202   1.227   1.288   1.328   1.364   1.394   1.420
  1.446   1.533   1.566   1.609   1.696   1.726   1.742   1.770
  1.848   1.888   1.905   1.925   1.979   2.003   2.036   2.061
  2.095   2.114   2.154   2.189   2.258   2.294   2.324   2.360
  2.391   2.410   2.435   2.457   2.461   2.498   2.512   2.523
  2.538   2.552   2.588   2.620   2.661   2.687   2.706   2.775
  2.823   2.953   3.006   3.177   3.230   3.257   3.333   3.361
  3.402   3.450   3.755   4.187   4.313   4.330   4.423   4.461
  4.577   4.766
 
 Beta MOs
 -- Occupied --
-14.354 -10.258 -10.248 -10.238 -10.237 -10.216 -10.210  -0.964
 -0.836  -0.795  -0.675  -0.646  -0.579  -0.542  -0.503  -0.494
 -0.447  -0.423  -0.420  -0.383  -0.376  -0.306  -0.274  -0.207
 -- Virtual --
 -0.109  -0.065  -0.023   0.001   0.019   0.027   0.034   0.043
  0.048   0.060   0.069   0.081   0.085   0.093   0.102   0.106
  0.117   0.122   0.127   0.138   0.143   0.147   0.166   0.171
  0.179   0.196   0.203   0.207   0.215   0.227   0.229   0.238
  0.248   0.262   0.271   0.279   0.299   0.309   0.313   0.320
  0.323   0.337   0.399   0.482   0.529   0.616   0.653   0.663
  0.674   0.699   0.706   0.710   0.723   0.747   0.761   0.766
  0.772   0.808   0.837   0.875   0.891   0.921   0.937   0.965
  1.000   1.011   1.025   1.039   1.058   1.081   1.099   1.112
  1.127   1.181   1.206   1.230   1.293   1.329   1.360   1.400
  1.414   1.449   1.544   1.580   1.641   1.705   1.738   1.757
  1.773   1.853   1.892   1.907   1.932   1.990   2.007   2.040
  2.072   2.101   2.123   2.155   2.197   2.269   2.293   2.324
  2.360   2.392   2.411   2.452   2.456   2.471   2.497   2.521
  2.523   2.535   2.554   2.589   2.623   2.662   2.689   2.713
  2.777   2.827   2.953   3.006   3.177   3.230   3.257   3.344
  3.364   3.402   3.450   3.755   4.194   4.313   4.362   4.424
  4.455   4.579   4.765
 --------------------------------------------------------------
 
          Ground-State Mulliken Net Atomic Charges

     Atom                 Charge (a.u.)    Spin (a.u.)
  --------------------------------------------------------
      1 C                    -0.215315      -0.289512
      2 C                     0.140943       0.194360
      3 C                    -0.254394      -0.193526
      4 C                     0.188209      -0.044124
      5 C                    -0.241900      -0.276219
      6 N                    -0.151613       0.164705
      7 H                     0.135836       0.013441
      8 H                     0.135402      -0.006826
      9 H                     0.147890       0.010063
     10 H                     0.156562       0.007687
     11 H                     0.153204       0.014821
     12 C                    -0.339251       1.440100
     13 H                     0.144425      -0.034971
  --------------------------------------------------------
  Sum of atomic charges =    -0.000000
  Sum of spin   charges =     1.000000

 -----------------------------------------------------------------
                    Cartesian Multipole Moments
 -----------------------------------------------------------------
    Charge (ESU x 10^10)
                -0.0000
    Dipole Moment (Debye)
         X       0.5097      Y      -1.3572      Z      -1.1959
       Tot       1.8794
    Quadrupole Moments (Debye-Ang)
        XX     -41.7107     XY      -4.4498     YY     -42.6621
        XZ       3.3321     YZ       2.0041     ZZ     -45.0348
    Octopole Moments (Debye-Ang^2)
       XXX      18.2363    XXY      -4.1046    XYY      -7.3089
       YYY     -23.4973    XXZ      -9.1298    XYZ      -2.1216
       YYZ      -0.4148    XZZ       0.8743    YZZ      -0.1136
       ZZZ      -0.8782
    Hexadecapole Moments (Debye-Ang^3)
      XXXX    -416.2348   XXXY      -8.6290   XXYY    -120.0241
      XYYY     -23.5008   YYYY    -302.8755   XXXZ      62.9391
      XXYZ       4.1880   XYYZ      17.6126   YYYZ       3.7286
      XXZZ    -103.7042   XYZZ      -4.4876   YYZZ     -78.9673
      XZZZ      50.3927   YZZZ       5.3365   ZZZZ    -142.0673
 -----------------------------------------------------------------
 Calculating analytic gradient of the SCF energy
 Gradient of SCF Energy
            1           2           3           4           5           6
    1  -0.0002412   0.0035536  -0.0060425   0.0014681   0.0063780  -0.0046552
    2  -0.0047257   0.0042838   0.0011164   0.0096685  -0.0033004   0.0020221
    3  -0.0011365   0.0003416   0.0047970  -0.0012237  -0.0019549   0.0003457
            7           8           9          10          11          12
    1   0.0000145  -0.0003728  -0.0002743  -0.0004029  -0.0002237   0.0026367
    2  -0.0000979   0.0002586   0.0000204   0.0002351   0.0001039  -0.0102858
    3   0.0002930  -0.0003170   0.0005659  -0.0001505   0.0006061   0.0057000
           13
    1  -0.0018382
    2   0.0007009
    3  -0.0078667
 Max gradient component =       1.029E-02
 RMS gradient           =       3.603E-03
 Gradient time:  CPU 17.19 s  wall 7.41 s
 Geometry Optimization Parameters
   NAtoms,    NIC,     NZ,  NCons,   NDum,   NFix, NCnnct, MaxDiis
       13      86       0       0       0       0       0       0

 Cartesian Hessian Update
 Hessian Updated using Powell/Murtagh-Sargent Update
  Mixing factors:     0.950910 Powell
                      0.049090 Murtagh-Sargent


** GEOMETRY OPTIMIZATION IN DELOCALIZED INTERNAL COORDINATES **
   Searching for a Transition State

   Optimization Cycle:   2

                       Coordinates (Angstroms)
     ATOM                X               Y               Z
      1  C         1.6481347704    0.3524517438   -0.2243309431
      2  C         1.1573310961   -0.9745114446   -0.2067559441
      3  C        -0.1957455526   -1.1975950312   -0.2709395380
      4  C        -1.1560597388   -0.0704766433   -0.2704666942
      5  C        -0.4669006363    1.2332727069   -0.2384613987
      6  N         0.8510130722    1.4238073014   -0.2056538078
      7  H         2.7176972344    0.5463538226   -0.2441055135
      8  H         1.8530655938   -1.8066725817   -0.1733844432
      9  H        -0.5974171687   -2.2062724992   -0.2702108323
     10  H        -2.0133658849   -0.1682242039   -0.9431869647
     11  H        -1.0862078229    2.1264177472   -0.1867570223
     12  C        -1.5866971867   -0.0685813923    1.2325372319
     13  H        -1.2238214310    0.7776678623    1.8304729883
   Point Group: c1    Number of degrees of freedom:    33


   Energy is   -286.813995782

 Hessian Updated using Powell/Murtagh-Sargent Update
  Mixing factors:     0.842902 Powell
                      0.157098 Murtagh-Sargent

 33 Hessian modes will be used to form the next step
  Hessian Eigenvalues:
    -0.027200   -0.000606    0.004664    0.011526    0.015340    0.019260
     0.024124    0.024740    0.029895    0.036692    0.051217    0.067106
     0.097960    0.106426    0.115442    0.126594    0.129965    0.169533
     0.184794    0.208219    0.236927    0.247682    0.273472    0.307147
     0.309291    0.347354    0.356015    0.359152    0.365982    0.390027
     0.407549    0.474370    0.594906
**WARNING** Hessian does not have the Desired Local Structure

 Transition State Search - Taking P-RFO Step
 Searching for Lamda that Maximizes Along the Lowest mode
 Value Taken    Lamda =   0.00579512
 Searching for Lamda that Minimizes Along All other modes
 Value Taken    Lamda =  -0.00614717
 Calculated Step too Large.  Step scaled by  0.100341
 Step Taken.  Stepsize is  0.100000

                             Maximum     Tolerance    Cnvgd?
         Gradient           0.008386      0.000010      NO
         Displacement       0.046732      0.001200      NO
         Energy change     -0.001215      0.000001      NO


 New Cartesian Coordinates Obtained by Inverse Iteration

 Displacement from previous Coordinates is:  0.142832
 ----------------------------------------------------------------
             Standard Nuclear Orientation (Angstroms)
    I     Atom           X                Y                Z
 ----------------------------------------------------------------
    1      C       1.6447143119     0.3549398638    -0.2256918002
    2      C       1.1532866534    -0.9697243377    -0.1955148951
    3      C      -0.2018728681    -1.1910040699    -0.2645129633
    4      C      -1.1611151033    -0.0638100599    -0.2845455061
    5      C      -0.4696715819     1.2375225307    -0.2451912768
    6      N       0.8482042873     1.4270470844    -0.2136697480
    7      H       2.7143583277     0.5478522603    -0.2477315630
    8      H       1.8473903793    -1.8035885779    -0.1504831135
    9      H      -0.6042405551    -2.1991484194    -0.2584985308
   10      H      -2.0143028850    -0.1614530490    -0.9602299185
   11      H      -1.0874700810     2.1317206691    -0.1933432821
   12      C      -1.5845085300    -0.0798119413     1.2218994963
   13      H      -1.1837460103     0.7370954349     1.8462702193
 ----------------------------------------------------------------
 Nuclear Repulsion Energy =   265.9350970356 hartrees
 There are       25 alpha and       24 beta electrons
 Applying Cartesian multipole field
    Component          Value
    ---------          -----
     (2,0,0)        1.00000E-11
     (0,2,0)        2.00000E-11
     (0,0,2)       -3.00000E-11
 Nucleus-field energy     =     0.0000000046 hartrees
 Requested basis set is 6-31+G(d,p)
 There are 53 shells and 163 basis functions
 A cutoff of  1.0D-14 yielded   1388 shell pairs
 There are     13449 function pairs
 Smallest overlap matrix eigenvalue = 2.63E-05
 Guess MOs from SCF MO coefficient file
 Reading MOs from coefficient file
 Reading MOs from coefficient file
 An unrestricted hybrid HF-DFT SCF calculation will be
 performed using Pulay DIIS + Geometric Direct Minimization
 Exchange:     0.2000 Hartree-Fock + 0.0800 Slater + 0.7200 B88
 Correlation:  0.1900 VWN1RPA + 0.8100 LYP
 Using SG-1 standard quadrature grid
 SCF converges when RMS gradient is below 1.0E-08
 Geometry optimization detected.  Setting ReadMinima to 0
 Setting SaveMinima to 0
Using Q-Chem read-in guess as SCF_GUESS READ specified.

 using 4 threads for integral computing
 -------------------------------------------------------
 OpenMP Integral computing Module                
 Release: version 1.0, May 2013, Q-Chem Inc. Pittsburgh 
 -------------------------------------------------------
 -------------------------------------------------------
 OpenMP BLAS3 based DFT computing Module                
 Release: version 1.0, May 2013, Q-Chem Inc. Pittsburgh 
 -------------------------------------------------------
 ---------------------------------------
  Cycle       Energy        RMS Gradient
 ---------------------------------------
    1    -286.8119731046      3.61E-04 Done DIIS. Switching to GDM
    2    -286.8139516466      5.92E-03 Normal BFGS step
    3    -286.8138630325      3.72E-03 Line search: overstep
    4    -286.8139883369      3.48E-03 Normal BFGS step
    5    -286.8140130146      1.19E-03 Normal BFGS step
    6    -286.8140142460      1.16E-03 Normal BFGS step
    7    -286.8140191541      3.02E-04 Normal BFGS step
    8    -286.8140194973      2.27E-04 Normal BFGS step
    9    -286.8140199907      1.83E-04 Normal BFGS step
   10    -286.8140201450      1.55E-04 Normal BFGS step
   11    -286.8140202747      1.32E-04 Normal BFGS step
   12    -286.8140203378      4.55E-05 Normal BFGS step
   13    -286.8140203543      2.03E-05 Normal BFGS step
   14    -286.8140203569      1.25E-05 Normal BFGS step
   15    -286.8140203581      9.91E-06 Normal BFGS step
   16    -286.8140203582      5.09E-06 Normal BFGS step
   17    -286.8140203584      1.10E-06 Normal BFGS step
   18    -286.8140203584      5.93E-07 Normal BFGS step
   19    -286.8140203584      3.32E-07 Normal BFGS step
   20    -286.8140203584      1.28E-07 Normal BFGS step
   21    -286.8140203584      4.17E-08 Normal BFGS step
   GDM::WARNING energy changes are now smaller than effective accuracy.
   GDM::        calculation will continue, but THRESH should be increased
   GDM::        or SCF_CONVERGENCE decreased.
   GDM::        effective_thresh =   2.200599723278795E-009
   22    -286.8140203584      1.30E-08 Normal BFGS step
   23    -286.8140203584      4.15E-09 Convergence criterion met
 ---------------------------------------
 <S^2> = 1.0394
 SCF time:  CPU 118.52 s  wall 72.20 s
 SCF   energy in the final basis set = -286.81402036
 Total energy in the final basis set = -286.81402036
 
 --------------------------------------------------------------
 
                    Orbital Energies (a.u.)
 --------------------------------------------------------------
 
 Alpha MOs
 -- Occupied --
-14.357 -10.255 -10.244 -10.239 -10.235 -10.229 -10.218  -0.964
 -0.841  -0.794  -0.678  -0.645  -0.608  -0.541  -0.504  -0.495
 -0.450  -0.426  -0.419  -0.383  -0.381  -0.309  -0.280  -0.249
 -0.212
 -- Virtual --
 -0.102  -0.026   0.000   0.018   0.026   0.031   0.043   0.047
  0.058   0.070   0.077   0.085   0.093   0.098   0.105   0.115
  0.121   0.124   0.138   0.143   0.146   0.162   0.171   0.176
  0.193   0.203   0.206   0.212   0.225   0.228   0.237   0.247
  0.254   0.269   0.276   0.298   0.310   0.314   0.318   0.323
  0.336   0.394   0.480   0.529   0.616   0.647   0.658   0.671
  0.695   0.706   0.713   0.718   0.722   0.746   0.757   0.765
  0.806   0.838   0.874   0.891   0.922   0.936   0.960   0.990
  1.009   1.018   1.032   1.054   1.078   1.093   1.112   1.121
  1.182   1.203   1.229   1.287   1.327   1.363   1.399   1.419
  1.449   1.531   1.565   1.609   1.694   1.726   1.738   1.771
  1.847   1.886   1.908   1.927   1.981   2.003   2.036   2.067
  2.096   2.115   2.153   2.187   2.256   2.293   2.323   2.362
  2.391   2.412   2.432   2.454   2.459   2.499   2.510   2.520
  2.538   2.550   2.588   2.621   2.661   2.688   2.705   2.773
  2.821   2.954   3.005   3.177   3.230   3.256   3.323   3.360
  3.404   3.451   3.755   4.187   4.314   4.335   4.424   4.461
  4.579   4.764
 
 Beta MOs
 -- Occupied --
-14.354 -10.258 -10.247 -10.239 -10.237 -10.216 -10.211  -0.964
 -0.837  -0.794  -0.675  -0.646  -0.579  -0.542  -0.503  -0.494
 -0.447  -0.423  -0.420  -0.383  -0.375  -0.306  -0.274  -0.207
 -- Virtual --
 -0.109  -0.067  -0.021   0.001   0.019   0.028   0.034   0.043
  0.048   0.059   0.069   0.080   0.086   0.093   0.103   0.106
  0.116   0.122   0.127   0.138   0.143   0.147   0.165   0.171
  0.179   0.195   0.203   0.207   0.215   0.227   0.229   0.238
  0.249   0.261   0.271   0.278   0.300   0.309   0.313   0.319
  0.323   0.337   0.398   0.481   0.529   0.616   0.653   0.663
  0.673   0.700   0.705   0.710   0.723   0.747   0.762   0.765
  0.776   0.808   0.842   0.875   0.892   0.921   0.937   0.965
  0.998   1.011   1.025   1.037   1.059   1.080   1.098   1.111
  1.127   1.181   1.207   1.233   1.292   1.327   1.360   1.404
  1.414   1.451   1.542   1.580   1.641   1.705   1.738   1.751
  1.774   1.852   1.890   1.910   1.935   1.993   2.005   2.040
  2.079   2.102   2.126   2.154   2.195   2.266   2.291   2.323
  2.362   2.392   2.414   2.448   2.455   2.467   2.497   2.519
  2.520   2.535   2.552   2.589   2.624   2.662   2.690   2.712
  2.775   2.824   2.955   3.006   3.177   3.230   3.256   3.336
  3.361   3.404   3.450   3.755   4.195   4.314   4.367   4.425
  4.456   4.582   4.763
 --------------------------------------------------------------
 
          Ground-State Mulliken Net Atomic Charges

     Atom                 Charge (a.u.)    Spin (a.u.)
  --------------------------------------------------------
      1 C                    -0.218162      -0.275653
      2 C                     0.142462       0.198718
      3 C                    -0.264979      -0.179743
      4 C                     0.193479      -0.056659
      5 C                    -0.236569      -0.266352
      6 N                    -0.152300       0.165599
      7 H                     0.135649       0.012874
      8 H                     0.135698      -0.007370
      9 H                     0.148982       0.009641
     10 H                     0.155884       0.005674
     11 H                     0.153135       0.014386
     12 C                    -0.338059       1.412885
     13 H                     0.144780      -0.034000
  --------------------------------------------------------
  Sum of atomic charges =    -0.000000
  Sum of spin   charges =     1.000000

 -----------------------------------------------------------------
                    Cartesian Multipole Moments
 -----------------------------------------------------------------
    Charge (ESU x 10^10)
                 0.0000
    Dipole Moment (Debye)
         X       0.5297      Y      -1.3548      Z      -1.1763
       Tot       1.8707
    Quadrupole Moments (Debye-Ang)
        XX     -41.8801     XY      -4.4554     YY     -42.7132
        XZ       3.4286     YZ       1.9777     ZZ     -44.9145
    Octopole Moments (Debye-Ang^2)
       XXX      18.7424    XXY      -4.1029    XYY      -7.1293
       YYY     -23.6814    XXZ      -9.2109    XYZ      -2.0901
       YYZ      -0.3265    XZZ       0.9117    YZZ      -0.2033
       ZZZ      -0.3477
    Hexadecapole Moments (Debye-Ang^3)
      XXXX    -416.4217   XXXY      -9.3077   XXYY    -119.9276
      XYYY     -24.1769   YYYY    -302.6347   XXXZ      62.5384
      XXYZ       4.4908   XYYZ      17.5957   YYYZ       4.9038
      XXZZ    -103.6113   XYZZ      -4.6093   YYZZ     -78.9790
      XZZZ      49.3427   YZZZ       6.6704   ZZZZ    -140.7712
 -----------------------------------------------------------------
 Calculating analytic gradient of the SCF energy
 Gradient of SCF Energy
            1           2           3           4           5           6
    1  -0.0010473   0.0028888  -0.0052710   0.0003112   0.0056504  -0.0035014
    2  -0.0036562   0.0039079   0.0011352   0.0088770  -0.0037562   0.0015316
    3  -0.0009069   0.0003926   0.0043263  -0.0024298  -0.0012894   0.0001590
            7           8           9          10          11          12
    1  -0.0000135  -0.0000032  -0.0001717   0.0002541  -0.0001378   0.0021595
    2  -0.0001311  -0.0001122   0.0000562   0.0003196   0.0000835  -0.0116166
    3   0.0002156  -0.0003224   0.0004339  -0.0000540   0.0004055   0.0039577
           13
    1  -0.0011181
    2   0.0033612
    3  -0.0048882
 Max gradient component =       1.162E-02
 RMS gradient           =       3.307E-03
 Gradient time:  CPU 17.21 s  wall 4.69 s
 Geometry Optimization Parameters
   NAtoms,    NIC,     NZ,  NCons,   NDum,   NFix, NCnnct, MaxDiis
       13      86       0       0       0       0       0       0

 Cartesian Hessian Update
 Hessian Updated using Powell/Murtagh-Sargent Update
  Mixing factors:     0.995547 Powell
                      0.004453 Murtagh-Sargent


** GEOMETRY OPTIMIZATION IN DELOCALIZED INTERNAL COORDINATES **
   Searching for a Transition State

   Optimization Cycle:   3

                       Coordinates (Angstroms)
     ATOM                X               Y               Z
      1  C         1.6447143119    0.3549398638   -0.2256918002
      2  C         1.1532866534   -0.9697243377   -0.1955148951
      3  C        -0.2018728681   -1.1910040699   -0.2645129633
      4  C        -1.1611151033   -0.0638100599   -0.2845455061
      5  C        -0.4696715819    1.2375225307   -0.2451912768
      6  N         0.8482042873    1.4270470844   -0.2136697480
      7  H         2.7143583277    0.5478522603   -0.2477315630
      8  H         1.8473903793   -1.8035885779   -0.1504831135
      9  H        -0.6042405551   -2.1991484194   -0.2584985308
     10  H        -2.0143028850   -0.1614530490   -0.9602299185
     11  H        -1.0874700810    2.1317206691   -0.1933432821
     12  C        -1.5845085300   -0.0798119413    1.2218994963
     13  H        -1.1837460103    0.7370954349    1.8462702193
   Point Group: c1    Number of degrees of freedom:    33


   Energy is   -286.814020358

 Hessian Updated using Powell/Murtagh-Sargent Update
  Mixing factors:     0.980583 Powell
                      0.019417 Murtagh-Sargent

 33 Hessian modes will be used to form the next step
  Hessian Eigenvalues:
    -0.033270    0.000576    0.005329    0.012182    0.015462    0.019271
     0.024118    0.024965    0.029962    0.038718    0.053381    0.067505
     0.098079    0.106502    0.115474    0.126660    0.129963    0.169568
     0.184797    0.208273    0.236946    0.248879    0.273536    0.307217
     0.309372    0.347438    0.356155    0.359239    0.366019    0.390859
     0.413364    0.475059    0.594930

 Transition State Search - Taking P-RFO Step
 Searching for Lamda that Maximizes Along the Lowest mode
 Value Taken    Lamda =   0.00360351
 Searching for Lamda that Minimizes Along All other modes
 Value Taken    Lamda =  -0.00589544
 Calculated Step too Large.  Step scaled by  0.110941
 Step Taken.  Stepsize is  0.100000

                             Maximum     Tolerance    Cnvgd?
         Gradient           0.007227      0.000010      NO
         Displacement       0.042317      0.001200      NO
         Energy change     -0.000025      0.000001      NO


 New Cartesian Coordinates Obtained by Inverse Iteration

 Displacement from previous Coordinates is:  0.115272
 ----------------------------------------------------------------
             Standard Nuclear Orientation (Angstroms)
    I     Atom           X                Y                Z
 ----------------------------------------------------------------
    1      C       1.6454594159     0.3564084089    -0.2310016156
    2      C       1.1519481339    -0.9664393787    -0.1891966344
    3      C      -0.2039177886    -1.1862337166    -0.2549612954
    4      C      -1.1623687401    -0.0574034671    -0.2888984343
    5      C      -0.4687573291     1.2439642415    -0.2483513586
    6      N       0.8488791788     1.4303049679    -0.2207627244
    7      H       2.7149821616     0.5483403856    -0.2593625019
    8      H       1.8434467170    -1.8018378145    -0.1384307778
    9      H      -0.6078735261    -2.1933732914    -0.2410081031
   10      H      -2.0096100585    -0.1573308810    -0.9713071823
   11      H      -1.0849139203     2.1391970809    -0.1975280303
   12      C      -1.5961840982    -0.0839035045     1.2081841447
   13      H      -1.1700638014     0.6959443570     1.8613816316
 ----------------------------------------------------------------
 Nuclear Repulsion Energy =   265.9414681855 hartrees
 There are       25 alpha and       24 beta electrons
 Applying Cartesian multipole field
    Component          Value
    ---------          -----
     (2,0,0)        1.00000E-11
     (0,2,0)        2.00000E-11
     (0,0,2)       -3.00000E-11
 Nucleus-field energy     =     0.0000000046 hartrees
 Requested basis set is 6-31+G(d,p)
 There are 53 shells and 163 basis functions
 A cutoff of  1.0D-14 yielded   1388 shell pairs
 There are     13449 function pairs
 Smallest overlap matrix eigenvalue = 2.62E-05
 Guess MOs from SCF MO coefficient file
 Reading MOs from coefficient file
 Reading MOs from coefficient file
 An unrestricted hybrid HF-DFT SCF calculation will be
 performed using Pulay DIIS + Geometric Direct Minimization
 Exchange:     0.2000 Hartree-Fock + 0.0800 Slater + 0.7200 B88
 Correlation:  0.1900 VWN1RPA + 0.8100 LYP
 Using SG-1 standard quadrature grid
 SCF converges when RMS gradient is below 1.0E-08
 Geometry optimization detected.  Setting ReadMinima to 0
 Setting SaveMinima to 0
Using Q-Chem read-in guess as SCF_GUESS READ specified.

 using 4 threads for integral computing
 -------------------------------------------------------
 OpenMP Integral computing Module                
 Release: version 1.0, May 2013, Q-Chem Inc. Pittsburgh 
 -------------------------------------------------------
 -------------------------------------------------------
 OpenMP BLAS3 based DFT computing Module                
 Release: version 1.0, May 2013, Q-Chem Inc. Pittsburgh 
 -------------------------------------------------------
 ---------------------------------------
  Cycle       Energy        RMS Gradient
 ---------------------------------------
    1    -286.8149149390      3.00E-04 Done DIIS. Switching to GDM
    2    -286.8142315414      3.05E-03 Normal BFGS step
    3    -286.8142554477      2.90E-03 Normal BFGS step
    4    -286.8142501476      3.55E-03 Line search: overstep
    5    -286.8142658624      1.33E-03 Normal BFGS step
    6    -286.8142683277      7.35E-04 Normal BFGS step
    7    -286.8142703344      5.52E-04 Normal BFGS step
    8    -286.8142715856      3.99E-04 Normal BFGS step
    9    -286.8142722994      2.53E-04 Normal BFGS step
   10    -286.8142726853      1.36E-04 Normal BFGS step
   11    -286.8142727693      5.25E-05 Normal BFGS step
   12    -286.8142727785      3.05E-05 Normal BFGS step
   13    -286.8142727850      1.23E-05 Normal BFGS step
   14    -286.8142727860      9.53E-06 Normal BFGS step
   15    -286.8142727863      7.03E-06 Normal BFGS step
   16    -286.8142727863      3.45E-06 Normal BFGS step
   17    -286.8142727864      3.87E-07 Normal BFGS step
   18    -286.8142727864      4.10E-07 Normal BFGS step
   19    -286.8142727864      1.34E-07 Normal BFGS step
   20    -286.8142727864      4.12E-08 Normal BFGS step
   21    -286.8142727864      1.26E-08 Normal BFGS step
   GDM::WARNING energy changes are now smaller than effective accuracy.
   GDM::        calculation will continue, but THRESH should be increased
   GDM::        or SCF_CONVERGENCE decreased.
   GDM::        effective_thresh =   2.450481768889734E-009
   22    -286.8142727864      5.59E-09 Convergence criterion met
 ---------------------------------------
 <S^2> = 1.0674
 SCF time:  CPU 113.29 s  wall 69.39 s
 SCF   energy in the final basis set = -286.81427279
 Total energy in the final basis set = -286.81427279
 
 --------------------------------------------------------------
 
                    Orbital Energies (a.u.)
 --------------------------------------------------------------
 
 Alpha MOs
 -- Occupied --
-14.357 -10.254 -10.243 -10.239 -10.234 -10.230 -10.218  -0.964
 -0.841  -0.794  -0.678  -0.645  -0.609  -0.540  -0.504  -0.495
 -0.450  -0.427  -0.419  -0.383  -0.381  -0.309  -0.280  -0.249
 -0.212
 -- Virtual --
 -0.101  -0.025   0.000   0.018   0.027   0.031   0.043   0.047
  0.058   0.070   0.077   0.086   0.093   0.098   0.105   0.115
  0.122   0.124   0.138   0.143   0.146   0.162   0.171   0.176
  0.193   0.203   0.207   0.212   0.225   0.228   0.238   0.247
  0.255   0.269   0.276   0.299   0.310   0.314   0.318   0.323
  0.336   0.396   0.481   0.529   0.616   0.647   0.658   0.670
  0.694   0.707   0.713   0.718   0.722   0.749   0.759   0.766
  0.806   0.841   0.874   0.892   0.922   0.936   0.958   0.989
  1.010   1.019   1.032   1.054   1.078   1.094   1.111   1.122
  1.182   1.203   1.230   1.287   1.327   1.363   1.402   1.420
  1.451   1.529   1.566   1.607   1.693   1.725   1.738   1.772
  1.846   1.884   1.909   1.930   1.981   2.002   2.034   2.072
  2.099   2.116   2.154   2.185   2.257   2.293   2.324   2.364
  2.391   2.414   2.431   2.451   2.459   2.499   2.512   2.519
  2.537   2.551   2.589   2.624   2.663   2.691   2.706   2.773
  2.821   2.954   3.005   3.177   3.230   3.257   3.324   3.361
  3.405   3.451   3.755   4.187   4.315   4.336   4.425   4.461
  4.582   4.764
 
 Beta MOs
 -- Occupied --
-14.354 -10.258 -10.246 -10.238 -10.237 -10.216 -10.211  -0.963
 -0.837  -0.794  -0.675  -0.645  -0.579  -0.542  -0.503  -0.494
 -0.447  -0.423  -0.420  -0.383  -0.375  -0.306  -0.274  -0.206
 -- Virtual --
 -0.109  -0.068  -0.019   0.001   0.019   0.028   0.034   0.043
  0.048   0.059   0.070   0.080   0.086   0.093   0.103   0.106
  0.116   0.122   0.127   0.138   0.143   0.148   0.165   0.171
  0.179   0.195   0.203   0.208   0.214   0.227   0.229   0.238
  0.249   0.262   0.271   0.279   0.301   0.309   0.313   0.319
  0.323   0.338   0.400   0.482   0.528   0.616   0.653   0.662
  0.672   0.699   0.704   0.710   0.724   0.747   0.763   0.765
  0.779   0.808   0.844   0.875   0.892   0.921   0.937   0.963
  0.998   1.012   1.025   1.036   1.059   1.080   1.098   1.111
  1.128   1.181   1.207   1.234   1.292   1.328   1.359   1.407
  1.416   1.453   1.542   1.582   1.639   1.705   1.736   1.749
  1.775   1.851   1.888   1.910   1.939   1.993   2.004   2.039
  2.084   2.103   2.129   2.155   2.194   2.267   2.291   2.323
  2.364   2.392   2.415   2.447   2.454   2.465   2.498   2.517
  2.522   2.535   2.552   2.590   2.626   2.663   2.693   2.714
  2.774   2.824   2.955   3.005   3.178   3.230   3.257   3.337
  3.362   3.405   3.451   3.755   4.194   4.314   4.369   4.425
  4.455   4.584   4.762
 --------------------------------------------------------------
 
          Ground-State Mulliken Net Atomic Charges

     Atom                 Charge (a.u.)    Spin (a.u.)
  --------------------------------------------------------
      1 C                    -0.221138      -0.288324
      2 C                     0.146367       0.208118
      3 C                    -0.280588      -0.188006
      4 C                     0.205584      -0.058981
      5 C                    -0.235700      -0.278026
      6 N                    -0.151833       0.174146
      7 H                     0.135502       0.013748
      8 H                     0.135564      -0.007935
      9 H                     0.149395       0.010076
     10 H                     0.155526       0.002427
     11 H                     0.152726       0.014922
     12 C                    -0.336760       1.431316
     13 H                     0.145356      -0.033481
  --------------------------------------------------------
  Sum of atomic charges =    -0.000000
  Sum of spin   charges =     1.000000

 -----------------------------------------------------------------
                    Cartesian Multipole Moments
 -----------------------------------------------------------------
    Charge (ESU x 10^10)
                -0.0000
    Dipole Moment (Debye)
         X       0.5200      Y      -1.3704      Z      -1.1117
       Tot       1.8396
    Quadrupole Moments (Debye-Ang)
        XX     -42.0073     XY      -4.4104     YY     -42.7627
        XZ       3.3789     YZ       1.8984     ZZ     -44.7412
    Octopole Moments (Debye-Ang^2)
       XXX      19.0925    XXY      -4.2817    XYY      -7.0488
       YYY     -23.9231    XXZ      -9.1251    XYZ      -1.9580
       YYZ      -0.1761    XZZ       0.7727    YZZ      -0.4026
       ZZZ       0.3393
    Hexadecapole Moments (Debye-Ang^3)
      XXXX    -418.7803   XXXY      -9.4490   XXYY    -120.2767
      XYYY     -24.5965   YYYY    -302.9311   XXXZ      62.3548
      XXYZ       4.5661   XYYZ      17.6799   YYYZ       5.7316
      XXZZ    -103.4655   XYZZ      -4.5401   YYZZ     -78.9364
      XZZZ      48.7472   YZZZ       7.5531   ZZZZ    -138.7118
 -----------------------------------------------------------------
 Calculating analytic gradient of the SCF energy
 Gradient of SCF Energy
            1           2           3           4           5           6
    1  -0.0010602   0.0019662  -0.0041475   0.0009215   0.0041218  -0.0024022
    2  -0.0029425   0.0032011   0.0009414   0.0089582  -0.0038982   0.0012022
    3  -0.0008831   0.0003092   0.0040671  -0.0023657  -0.0001617   0.0000547
            7           8           9          10          11          12
    1  -0.0000295  -0.0002081  -0.0000918   0.0001797  -0.0000634   0.0017785
    2  -0.0001517  -0.0000529   0.0001448   0.0000699   0.0000195  -0.0110877
    3   0.0001166  -0.0003691   0.0004310   0.0004408   0.0001497   0.0026352
           13
    1  -0.0009650
    2   0.0035961
    3  -0.0044247
 Max gradient component =       1.109E-02
 RMS gradient           =       3.007E-03
 Gradient time:  CPU 17.25 s  wall 5.12 s
 Geometry Optimization Parameters
   NAtoms,    NIC,     NZ,  NCons,   NDum,   NFix, NCnnct, MaxDiis
       13      86       0       0       0       0       0       0

 Cartesian Hessian Update
 Hessian Updated using Powell/Murtagh-Sargent Update
  Mixing factors:     1.000000 Powell
                      0.000000 Murtagh-Sargent


** GEOMETRY OPTIMIZATION IN DELOCALIZED INTERNAL COORDINATES **
   Searching for a Transition State

   Optimization Cycle:   4

                       Coordinates (Angstroms)
     ATOM                X               Y               Z
      1  C         1.6454594159    0.3564084089   -0.2310016156
      2  C         1.1519481339   -0.9664393787   -0.1891966344
      3  C        -0.2039177886   -1.1862337166   -0.2549612954
      4  C        -1.1623687401   -0.0574034671   -0.2888984343
      5  C        -0.4687573291    1.2439642415   -0.2483513586
      6  N         0.8488791788    1.4303049679   -0.2207627244
      7  H         2.7149821616    0.5483403856   -0.2593625019
      8  H         1.8434467170   -1.8018378145   -0.1384307778
      9  H        -0.6078735261   -2.1933732914   -0.2410081031
     10  H        -2.0096100585   -0.1573308810   -0.9713071823
     11  H        -1.0849139203    2.1391970809   -0.1975280303
     12  C        -1.5961840982   -0.0839035045    1.2081841447
     13  H        -1.1700638014    0.6959443570    1.8613816316
   Point Group: c1    Number of degrees of freedom:    33


   Energy is   -286.814272786

 Hessian Updated using Powell/Murtagh-Sargent Update
  Mixing factors:     0.983701 Powell
                      0.016299 Murtagh-Sargent

 33 Hessian modes will be used to form the next step
  Hessian Eigenvalues:
    -0.034278   -0.000041    0.006626    0.012176    0.015352    0.019630
     0.024402    0.025207    0.030054    0.038983    0.054667    0.067933
     0.097990    0.106503    0.115505    0.126723    0.129964    0.169567
     0.184795    0.208271    0.236962    0.249539    0.273625    0.307460
     0.309736    0.347475    0.356155    0.359242    0.366021    0.390888
     0.413562    0.475647    0.594939
**WARNING** Magnitude of eigenvalue   2 too small.  Replaced by    -0.000100
**WARNING** Hessian does not have the Desired Local Structure

 Transition State Search - Taking P-RFO Step
 Searching for Lamda that Maximizes Along the Lowest mode
 Value Taken    Lamda =   0.00269929
 Searching for Lamda that Minimizes Along All other modes
 Value Taken    Lamda =  -0.00649725
 Calculated Step too Large.  Step scaled by  0.103849
 Step Taken.  Stepsize is  0.100000

                             Maximum     Tolerance    Cnvgd?
         Gradient           0.006132      0.000010      NO
         Displacement       0.045779      0.001200      NO
         Energy change     -0.000252      0.000001      NO


 New Cartesian Coordinates Obtained by Inverse Iteration

 Displacement from previous Coordinates is:  0.129365
 ----------------------------------------------------------------
             Standard Nuclear Orientation (Angstroms)
    I     Atom           X                Y                Z
 ----------------------------------------------------------------
    1      C       1.6446556477     0.3580792543    -0.2319740279
    2      C       1.1494771582    -0.9625690247    -0.1817640861
    3      C      -0.2085268655    -1.1818052061    -0.2512460698
    4      C      -1.1661205783    -0.0522809659    -0.2943449427
    5      C      -0.4695036193     1.2498420515    -0.2598181143
    6      N       0.8472056501     1.4337253911    -0.2325321339
    7      H       2.7142276693     0.5498892757    -0.2583891362
    8      H       1.8397758950    -1.7987435519    -0.1212399546
    9      H      -0.6134440512    -2.1885258491    -0.2329205385
   10      H      -2.0109439799    -0.1503768518    -0.9803939247
   11      H      -1.0849963373     2.1455791358    -0.2110418345
   12      C      -1.5988121964    -0.0861296060     1.2009985305
   13      H      -1.1419680473     0.6509533352     1.8834233512
 ----------------------------------------------------------------
 Nuclear Repulsion Energy =   265.8790110803 hartrees
 There are       25 alpha and       24 beta electrons
 Applying Cartesian multipole field
    Component          Value
    ---------          -----
     (2,0,0)        1.00000E-11
     (0,2,0)        2.00000E-11
     (0,0,2)       -3.00000E-11
 Nucleus-field energy     =     0.0000000046 hartrees
 Requested basis set is 6-31+G(d,p)
 There are 53 shells and 163 basis functions
 A cutoff of  1.0D-14 yielded   1388 shell pairs
 There are     13449 function pairs
 Smallest overlap matrix eigenvalue = 2.64E-05
 Guess MOs from SCF MO coefficient file
 Reading MOs from coefficient file
 Reading MOs from coefficient file
 An unrestricted hybrid HF-DFT SCF calculation will be
 performed using Pulay DIIS + Geometric Direct Minimization
 Exchange:     0.2000 Hartree-Fock + 0.0800 Slater + 0.7200 B88
 Correlation:  0.1900 VWN1RPA + 0.8100 LYP
 Using SG-1 standard quadrature grid
 SCF converges when RMS gradient is below 1.0E-08
 Geometry optimization detected.  Setting ReadMinima to 0
 Setting SaveMinima to 0
Using Q-Chem read-in guess as SCF_GUESS READ specified.

 using 4 threads for integral computing
 -------------------------------------------------------
 OpenMP Integral computing Module                
 Release: version 1.0, May 2013, Q-Chem Inc. Pittsburgh 
 -------------------------------------------------------
 -------------------------------------------------------
 OpenMP BLAS3 based DFT computing Module                
 Release: version 1.0, May 2013, Q-Chem Inc. Pittsburgh 
 -------------------------------------------------------
 ---------------------------------------
  Cycle       Energy        RMS Gradient
 ---------------------------------------
    1    -286.8127701971      3.06E-04 Done DIIS. Switching to GDM
    2    -286.8146091737      3.54E-03 Normal BFGS step
    3    -286.8146130173      8.52E-03 Normal BFGS step
    4    -286.8146495118      1.37E-03 Normal BFGS step
    5    -286.8146545961      7.33E-04 Normal BFGS step
    6    -286.8146570493      8.08E-04 Normal BFGS step
    7    -286.8146580905      4.25E-04 Normal BFGS step
    8    -286.8146590835      2.54E-04 Normal BFGS step
    9    -286.8146595140      1.66E-04 Normal BFGS step
   10    -286.8146595907      9.46E-05 Normal BFGS step
   11    -286.8146596482      3.47E-05 Normal BFGS step
   12    -286.8146596579      2.36E-05 Normal BFGS step
   13    -286.8146596583      1.88E-05 Normal BFGS step
   14    -286.8146596600      1.58E-06 Normal BFGS step
   15    -286.8146596600      7.95E-07 Normal BFGS step
   16    -286.8146596600      3.63E-07 Normal BFGS step
   17    -286.8146596600      1.37E-07 Normal BFGS step
   18    -286.8146596600      6.44E-08 Normal BFGS step
   GDM::WARNING energy changes are now smaller than effective accuracy.
   GDM::        calculation will continue, but THRESH should be increased
   GDM::        or SCF_CONVERGENCE decreased.
   GDM::        effective_thresh =   5.875258654586268E-009
   19    -286.8146596600      3.63E-08 Normal BFGS step
   20    -286.8146596600      1.02E-08 Normal BFGS step
   GDM::WARNING energy changes are now smaller than effective accuracy.
   GDM::        calculation will continue, but THRESH should be increased
   GDM::        or SCF_CONVERGENCE decreased.
   GDM::        effective_thresh =   5.875258654586268E-009
   21    -286.8146596600      4.68E-09 Convergence criterion met
 ---------------------------------------
 <S^2> = 1.0956
 SCF time:  CPU 108.42 s  wall 56.43 s
 SCF   energy in the final basis set = -286.81465966
 Total energy in the final basis set = -286.81465966
 
 --------------------------------------------------------------
 
                    Orbital Energies (a.u.)
 --------------------------------------------------------------
 
 Alpha MOs
 -- Occupied --
-14.357 -10.254 -10.242 -10.239 -10.234 -10.231 -10.218  -0.963
 -0.841  -0.793  -0.678  -0.644  -0.610  -0.540  -0.504  -0.494
 -0.449  -0.428  -0.419  -0.383  -0.381  -0.309  -0.281  -0.250
 -0.212
 -- Virtual --
 -0.100  -0.024   0.000   0.019   0.027   0.031   0.044   0.047
  0.057   0.070   0.077   0.086   0.093   0.098   0.104   0.114
  0.122   0.124   0.138   0.143   0.146   0.162   0.172   0.176
  0.193   0.203   0.207   0.211   0.225   0.228   0.238   0.247
  0.255   0.270   0.276   0.300   0.310   0.314   0.317   0.323
  0.336   0.397   0.481   0.529   0.616   0.647   0.659   0.669
  0.691   0.707   0.713   0.718   0.722   0.750   0.762   0.768
  0.806   0.843   0.874   0.892   0.922   0.936   0.958   0.988
  1.010   1.019   1.032   1.055   1.078   1.094   1.111   1.123
  1.182   1.203   1.232   1.286   1.327   1.363   1.406   1.419
  1.454   1.527   1.565   1.606   1.689   1.724   1.736   1.773
  1.844   1.881   1.910   1.931   1.982   2.001   2.032   2.076
  2.100   2.117   2.156   2.184   2.255   2.293   2.324   2.365
  2.390   2.413   2.428   2.448   2.459   2.499   2.513   2.518
  2.537   2.551   2.589   2.626   2.661   2.691   2.707   2.772
  2.820   2.953   3.004   3.177   3.229   3.257   3.322   3.362
  3.405   3.450   3.755   4.186   4.315   4.337   4.425   4.461
  4.583   4.762
 
 Beta MOs
 -- Occupied --
-14.354 -10.257 -10.245 -10.239 -10.237 -10.216 -10.212  -0.962
 -0.836  -0.793  -0.674  -0.645  -0.580  -0.541  -0.503  -0.494
 -0.446  -0.424  -0.420  -0.383  -0.376  -0.306  -0.273  -0.205
 -- Virtual --
 -0.108  -0.070  -0.017   0.002   0.019   0.028   0.034   0.043
  0.049   0.058   0.070   0.079   0.086   0.094   0.103   0.106
  0.115   0.123   0.127   0.138   0.144   0.148   0.165   0.171
  0.178   0.195   0.203   0.208   0.214   0.227   0.230   0.238
  0.249   0.262   0.271   0.279   0.302   0.309   0.313   0.319
  0.323   0.338   0.401   0.482   0.528   0.616   0.653   0.662
  0.671   0.697   0.704   0.710   0.725   0.747   0.763   0.766
  0.785   0.808   0.846   0.875   0.893   0.921   0.937   0.962
  0.997   1.012   1.026   1.036   1.061   1.080   1.097   1.110
  1.128   1.181   1.207   1.235   1.291   1.327   1.359   1.409
  1.416   1.455   1.541   1.582   1.637   1.702   1.735   1.747
  1.776   1.849   1.885   1.911   1.940   1.993   2.003   2.036
  2.087   2.104   2.131   2.156   2.193   2.266   2.291   2.323
  2.365   2.391   2.415   2.442   2.452   2.465   2.497   2.515
  2.522   2.535   2.553   2.590   2.628   2.662   2.693   2.714
  2.773   2.823   2.954   3.005   3.177   3.229   3.257   3.335
  3.363   3.405   3.450   3.754   4.194   4.314   4.370   4.426
  4.455   4.585   4.760
 --------------------------------------------------------------
 
          Ground-State Mulliken Net Atomic Charges

     Atom                 Charge (a.u.)    Spin (a.u.)
  --------------------------------------------------------
      1 C                    -0.225614      -0.301592
      2 C                     0.148940       0.220475
      3 C                    -0.293492      -0.201158
      4 C                     0.213724      -0.060420
      5 C                    -0.232317      -0.288054
      6 N                    -0.151781       0.183072
      7 H                     0.135278       0.014629
      8 H                     0.135502      -0.008559
      9 H                     0.149605       0.010686
     10 H                     0.154929      -0.000957
     11 H                     0.151996       0.015406
     12 C                    -0.332850       1.449506
     13 H                     0.146080      -0.033033
  --------------------------------------------------------
  Sum of atomic charges =    -0.000000
  Sum of spin   charges =     1.000000

 -----------------------------------------------------------------
                    Cartesian Multipole Moments
 -----------------------------------------------------------------
    Charge (ESU x 10^10)
                -0.0000
    Dipole Moment (Debye)
         X       0.4965      Y      -1.3906      Z      -1.0359
       Tot       1.8037
    Quadrupole Moments (Debye-Ang)
        XX     -42.1039     XY      -4.3465     YY     -42.8362
        XZ       3.3901     YZ       1.8268     ZZ     -44.5687
    Octopole Moments (Debye-Ang^2)
       XXX      19.2947    XXY      -4.4867    XYY      -6.9544
       YYY     -24.1982    XXZ      -8.9438    XYZ      -1.7809
       YYZ       0.0091    XZZ       0.6312    YZZ      -0.6011
       ZZZ       1.1883
    Hexadecapole Moments (Debye-Ang^3)
      XXXX    -419.5884   XXXY      -9.4560   XXYY    -120.3820
      XYYY     -24.9201   YYYY    -303.3221   XXXZ      62.0498
      XXYZ       4.6315   XYYZ      17.7535   YYYZ       6.7469
      XXZZ    -103.3807   XYZZ      -4.4417   YYZZ     -79.0674
      XZZZ      47.8196   YZZZ       8.6089   ZZZZ    -137.5149
 -----------------------------------------------------------------
 Calculating analytic gradient of the SCF energy
 Gradient of SCF Energy
            1           2           3           4           5           6
    1  -0.0010580   0.0019429  -0.0040939   0.0009209   0.0029313  -0.0014445
    2  -0.0022938   0.0028868   0.0009119   0.0077968  -0.0037083   0.0007895
    3  -0.0005950   0.0002920   0.0033025  -0.0030549   0.0002645  -0.0001854
            7           8           9          10          11          12
    1   0.0000442  -0.0000055  -0.0001519   0.0000974  -0.0000471   0.0016213
    2  -0.0001066  -0.0001731   0.0000832   0.0001985  -0.0000966  -0.0104961
    3   0.0000750  -0.0002573   0.0004155   0.0001455   0.0001229   0.0023233
           13
    1  -0.0007571
    2   0.0042078
    3  -0.0028487
 Max gradient component =       1.050E-02
 RMS gradient           =       2.720E-03
 Gradient time:  CPU 16.86 s  wall 5.18 s
 Geometry Optimization Parameters
   NAtoms,    NIC,     NZ,  NCons,   NDum,   NFix, NCnnct, MaxDiis
       13      86       0       0       0       0       0       0

 Cartesian Hessian Update
 Hessian Updated using Powell/Murtagh-Sargent Update
  Mixing factors:     0.996469 Powell
                      0.003531 Murtagh-Sargent


** GEOMETRY OPTIMIZATION IN DELOCALIZED INTERNAL COORDINATES **
   Searching for a Transition State

   Optimization Cycle:   5

                       Coordinates (Angstroms)
     ATOM                X               Y               Z
      1  C         1.6446556477    0.3580792543   -0.2319740279
      2  C         1.1494771582   -0.9625690247   -0.1817640861
      3  C        -0.2085268655   -1.1818052061   -0.2512460698
      4  C        -1.1661205783   -0.0522809659   -0.2943449427
      5  C        -0.4695036193    1.2498420515   -0.2598181143
      6  N         0.8472056501    1.4337253911   -0.2325321339
      7  H         2.7142276693    0.5498892757   -0.2583891362
      8  H         1.8397758950   -1.7987435519   -0.1212399546
      9  H        -0.6134440512   -2.1885258491   -0.2329205385
     10  H        -2.0109439799   -0.1503768518   -0.9803939247
     11  H        -1.0849963373    2.1455791358   -0.2110418345
     12  C        -1.5988121964   -0.0861296060    1.2009985305
     13  H        -1.1419680473    0.6509533352    1.8834233512
   Point Group: c1    Number of degrees of freedom:    33


   Energy is   -286.814659660

 Hessian Updated using Powell/Murtagh-Sargent Update
  Mixing factors:     0.980555 Powell
                      0.019445 Murtagh-Sargent

 33 Hessian modes will be used to form the next step
  Hessian Eigenvalues:
    -0.038631    0.002401    0.006539    0.012410    0.015908    0.019670
     0.024405    0.025458    0.030072    0.040720    0.056067    0.068346
     0.098057    0.106497    0.115509    0.126723    0.129977    0.169578
     0.184960    0.208269    0.237263    0.249775    0.273624    0.307578
     0.309747    0.347510    0.356196    0.359247    0.366021    0.391038
     0.415636    0.475695    0.595279

 Transition State Search - Taking P-RFO Step
 Searching for Lamda that Maximizes Along the Lowest mode
 Value Taken    Lamda =   0.00144151
 Searching for Lamda that Minimizes Along All other modes
 Value Taken    Lamda =  -0.00534333
 Calculated Step too Large.  Step scaled by  0.126892
 Step Taken.  Stepsize is  0.100000

                             Maximum     Tolerance    Cnvgd?
         Gradient           0.005247      0.000010      NO
         Displacement       0.047383      0.001200      NO
         Energy change     -0.000387      0.000001      NO


 New Cartesian Coordinates Obtained by Inverse Iteration

 Displacement from previous Coordinates is:  0.101520
 ----------------------------------------------------------------
             Standard Nuclear Orientation (Angstroms)
    I     Atom           X                Y                Z
 ----------------------------------------------------------------
    1      C       1.6458367757     0.3590688054    -0.2346906520
    2      C       1.1486923447    -0.9602180280    -0.1783857547
    3      C      -0.2096317007    -1.1795947681    -0.2448572849
    4      C      -1.1675720793    -0.0481445352    -0.2911625369
    5      C      -0.4674721804     1.2561884128    -0.2676170059
    6      N       0.8477276787     1.4370134288    -0.2422826656
    7      H       2.7152891641     0.5503292557    -0.2617386978
    8      H       1.8378008802    -1.7968123498    -0.1154803824
    9      H      -0.6150701380    -2.1860419040    -0.2245455239
   10      H      -2.0069087444    -0.1464583045    -0.9835844368
   11      H      -1.0823024083     2.1524174228    -0.2237946168
   12      C      -1.6114035442    -0.0826266604     1.1932677128
   13      H      -1.1339597031     0.6125166127     1.9036289630
 ----------------------------------------------------------------
 Nuclear Repulsion Energy =   265.7400783473 hartrees
 There are       25 alpha and       24 beta electrons
 Applying Cartesian multipole field
    Component          Value
    ---------          -----
     (2,0,0)        1.00000E-11
     (0,2,0)        2.00000E-11
     (0,0,2)       -3.00000E-11
 Nucleus-field energy     =     0.0000000046 hartrees
 Requested basis set is 6-31+G(d,p)
 There are 53 shells and 163 basis functions
 A cutoff of  1.0D-14 yielded   1388 shell pairs
 There are     13449 function pairs
 Smallest overlap matrix eigenvalue = 2.64E-05
 Guess MOs from SCF MO coefficient file
 Reading MOs from coefficient file
 Reading MOs from coefficient file
 An unrestricted hybrid HF-DFT SCF calculation will be
 performed using Pulay DIIS + Geometric Direct Minimization
 Exchange:     0.2000 Hartree-Fock + 0.0800 Slater + 0.7200 B88
 Correlation:  0.1900 VWN1RPA + 0.8100 LYP
 Using SG-1 standard quadrature grid
 SCF converges when RMS gradient is below 1.0E-08
 Geometry optimization detected.  Setting ReadMinima to 0
 Setting SaveMinima to 0
Using Q-Chem read-in guess as SCF_GUESS READ specified.

 using 4 threads for integral computing
 -------------------------------------------------------
 OpenMP Integral computing Module                
 Release: version 1.0, May 2013, Q-Chem Inc. Pittsburgh 
 -------------------------------------------------------
 -------------------------------------------------------
 OpenMP BLAS3 based DFT computing Module                
 Release: version 1.0, May 2013, Q-Chem Inc. Pittsburgh 
 -------------------------------------------------------
 ---------------------------------------
  Cycle       Energy        RMS Gradient
 ---------------------------------------
    1    -286.8153721718      3.13E-04 Done DIIS. Switching to GDM
    2    -286.8150703108      4.15E-03 Normal BFGS step
    3    -286.8150295383      2.98E-03 Line search: overstep
    4    -286.8150959507      4.74E-03 Normal BFGS step
    5    -286.8151208220      1.40E-03 Normal BFGS step
    6    -286.8151278019      1.53E-03 Normal BFGS step
    7    -286.8151347565      7.03E-04 Normal BFGS step
    8    -286.8151381905      4.41E-04 Normal BFGS step
    9    -286.8151390295      2.73E-04 Normal BFGS step
   10    -286.8151392661      1.94E-04 Normal BFGS step
   11    -286.8151393454      8.44E-05 Normal BFGS step
   12    -286.8151393699      3.72E-05 Normal BFGS step
   13    -286.8151393794      1.07E-05 Normal BFGS step
   14    -286.8151393802      7.36E-06 Normal BFGS step
   15    -286.8151393810      2.13E-06 Normal BFGS step
   GDM::WARNING energy changes are now smaller than effective accuracy.
   GDM::        calculation will continue, but THRESH should be increased
   GDM::        or SCF_CONVERGENCE decreased.
   GDM::        effective_thresh =   4.369051995189999E-009
   16    -286.8151393810      2.12E-06 Normal BFGS step
   17    -286.8151393811      5.82E-07 Normal BFGS step
   18    -286.8151393811      1.87E-07 Normal BFGS step
   19    -286.8151393811      6.46E-08 Normal BFGS step
   20    -286.8151393811      2.18E-08 Normal BFGS step
   21    -286.8151393811      8.55E-09 Convergence criterion met
 ---------------------------------------
 <S^2> = 1.1484
 SCF time:  CPU 107.76 s  wall 59.32 s
 SCF   energy in the final basis set = -286.81513938
 Total energy in the final basis set = -286.81513938
 
 --------------------------------------------------------------
 
                    Orbital Energies (a.u.)
 --------------------------------------------------------------
 
 Alpha MOs
 -- Occupied --
-14.357 -10.253 -10.240 -10.239 -10.233 -10.231 -10.218  -0.962
 -0.841  -0.792  -0.678  -0.643  -0.610  -0.539  -0.503  -0.494
 -0.449  -0.429  -0.418  -0.382  -0.381  -0.309  -0.281  -0.251
 -0.212
 -- Virtual --
 -0.100  -0.023   0.001   0.019   0.027   0.031   0.044   0.047
  0.057   0.071   0.076   0.086   0.093   0.098   0.104   0.114
  0.122   0.124   0.138   0.143   0.147   0.163   0.172   0.176
  0.193   0.203   0.207   0.210   0.225   0.228   0.238   0.247
  0.256   0.270   0.277   0.300   0.311   0.314   0.317   0.323
  0.337   0.400   0.481   0.529   0.616   0.647   0.659   0.668
  0.689   0.707   0.712   0.719   0.723   0.750   0.765   0.770
  0.806   0.843   0.875   0.893   0.922   0.937   0.956   0.987
  1.011   1.019   1.033   1.055   1.078   1.095   1.111   1.124
  1.182   1.202   1.232   1.286   1.328   1.365   1.407   1.420
  1.455   1.526   1.566   1.605   1.686   1.723   1.737   1.773
  1.843   1.879   1.909   1.933   1.981   2.000   2.029   2.077
[...]
 Geometry optimization detected.  Setting ReadMinima to 0
 Setting SaveMinima to 0
Using Q-Chem read-in guess as SCF_GUESS READ specified.

 using 4 threads for integral computing
 -------------------------------------------------------
 OpenMP Integral computing Module                
 Release: version 1.0, May 2013, Q-Chem Inc. Pittsburgh 
 -------------------------------------------------------
 -------------------------------------------------------
 OpenMP BLAS3 based DFT computing Module                
 Release: version 1.0, May 2013, Q-Chem Inc. Pittsburgh 
 -------------------------------------------------------
 ---------------------------------------
  Cycle       Energy        RMS Gradient
 ---------------------------------------
    1    -286.8185206311      3.37E-06 Done DIIS. Switching to GDM
    2    -286.8185282034      2.47E-05 Normal BFGS step
    3    -286.8185282040      7.00E-05 Normal BFGS step
    4    -286.8185282072      7.48E-06 Normal BFGS step
    5    -286.8185282072      1.19E-05 Normal BFGS step
    6    -286.8185282075      2.57E-06 Normal BFGS step
    7    -286.8185282075      1.34E-06 Normal BFGS step
    8    -286.8185282075      8.42E-07 Normal BFGS step
    9    -286.8185282075      7.65E-07 Normal BFGS step
   10    -286.8185282075      2.13E-07 Normal BFGS step
   GDM::WARNING energy changes are now smaller than effective accuracy.
   GDM::        calculation will continue, but THRESH should be increased
   GDM::        or SCF_CONVERGENCE decreased.
   GDM::        effective_thresh =   2.500000000000000E-010
   11    -286.8185282075      1.51E-07 Normal BFGS step
   GDM::WARNING energy changes are now smaller than effective accuracy.
   GDM::        calculation will continue, but THRESH should be increased
   GDM::        or SCF_CONVERGENCE decreased.
   GDM::        effective_thresh =   2.500000000000000E-010
   12    -286.8185282075      4.17E-08 Normal BFGS step
   13    -286.8185282075      2.73E-08 Normal BFGS step
   GDM::WARNING energy changes are now smaller than effective accuracy.
   GDM::        calculation will continue, but THRESH should be increased
   GDM::        or SCF_CONVERGENCE decreased.
   GDM::        effective_thresh =   2.500000000000000E-010
   14    -286.8185282075      8.11E-09 Convergence criterion met
 ---------------------------------------
 <S^2> = 1.3890
 SCF time:  CPU 71.97 s  wall 35.77 s
 SCF   energy in the final basis set = -286.81852821
 Total energy in the final basis set = -286.81852821
 
 --------------------------------------------------------------
 
                    Orbital Energies (a.u.)
 --------------------------------------------------------------
 
 Alpha MOs
 -- Occupied --
-14.354 -10.249 -10.239 -10.234 -10.233 -10.229 -10.217  -0.957
 -0.837  -0.787  -0.678  -0.636  -0.615  -0.535  -0.499  -0.491
 -0.445  -0.432  -0.415  -0.386  -0.375  -0.306  -0.281  -0.253
 -0.216
 -- Virtual --
 -0.101  -0.019   0.001   0.020   0.028   0.030   0.047   0.048
  0.054   0.072   0.074   0.088   0.094   0.097   0.103   0.113
  0.121   0.124   0.141   0.144   0.149   0.162   0.174   0.177
  0.194   0.201   0.204   0.209   0.229   0.234   0.239   0.249
  0.253   0.269   0.279   0.296   0.305   0.320   0.321   0.325
  0.336   0.416   0.481   0.527   0.617   0.640   0.659   0.662
  0.672   0.709   0.712   0.721   0.727   0.750   0.769   0.784
  0.807   0.869   0.878   0.896   0.924   0.938   0.952   0.984
  1.019   1.032   1.039   1.057   1.082   1.105   1.121   1.132
  1.183   1.213   1.225   1.275   1.337   1.365   1.409   1.420
  1.448   1.520   1.558   1.599   1.666   1.715   1.728   1.775
  1.826   1.870   1.901   1.957   1.970   1.985   2.007   2.059
  2.104   2.116   2.145   2.179   2.244   2.305   2.325   2.359
  2.381   2.387   2.415   2.466   2.474   2.494   2.513   2.520
  2.535   2.573   2.605   2.641   2.651   2.697   2.706   2.773
  2.809   2.945   2.997   3.167   3.223   3.259   3.331   3.373
  3.413   3.446   3.750   4.178   4.307   4.315   4.427   4.458
  4.579   4.757
 
 Beta MOs
 -- Occupied --
-14.350 -10.252 -10.240 -10.238 -10.233 -10.214 -10.212  -0.956
 -0.832  -0.788  -0.674  -0.639  -0.581  -0.537  -0.499  -0.490
 -0.442  -0.428  -0.417  -0.383  -0.377  -0.309  -0.269  -0.203
 -- Virtual --
 -0.095  -0.083  -0.010   0.001   0.020   0.030   0.035   0.046
  0.050   0.053   0.069   0.077   0.089   0.095   0.100   0.104
  0.113   0.122   0.126   0.140   0.144   0.151   0.165   0.174
  0.178   0.196   0.201   0.207   0.213   0.228   0.235   0.239
  0.249   0.263   0.271   0.280   0.298   0.307   0.317   0.321
  0.327   0.338   0.422   0.481   0.526   0.615   0.647   0.657
  0.667   0.684   0.699   0.713   0.724   0.753   0.762   0.771
  0.794   0.809   0.878   0.881   0.896   0.923   0.938   0.959
  0.992   1.023   1.035   1.050   1.063   1.086   1.106   1.121
  1.134   1.180   1.214   1.225   1.282   1.339   1.360   1.409
  1.417   1.450   1.537   1.591   1.607   1.701   1.717   1.739
  1.778   1.832   1.884   1.903   1.962   1.968   1.996   2.017
  2.070   2.102   2.130   2.158   2.173   2.248   2.305   2.327
  2.359   2.383   2.387   2.420   2.464   2.480   2.491   2.514
  2.530   2.534   2.571   2.608   2.644   2.653   2.699   2.714
  2.775   2.813   2.946   2.997   3.166   3.222   3.259   3.344
  3.373   3.414   3.447   3.750   4.188   4.309   4.343   4.431
  4.449   4.583   4.753
 --------------------------------------------------------------
 
          Ground-State Mulliken Net Atomic Charges

     Atom                 Charge (a.u.)    Spin (a.u.)
  --------------------------------------------------------
      1 C                    -0.242503      -0.459148
      2 C                     0.141411       0.300042
      3 C                    -0.388063      -0.385189
      4 C                     0.254448      -0.048253
      5 C                    -0.191872      -0.313664
      6 N                    -0.148333       0.207339
      7 H                     0.134027       0.023349
      8 H                     0.134341      -0.009993
      9 H                     0.147982       0.017970
     10 H                     0.154777      -0.017668
     11 H                     0.143437       0.017842
     12 C                    -0.284983       1.700143
     13 H                     0.145330      -0.032768
  --------------------------------------------------------
  Sum of atomic charges =     0.000000
  Sum of spin   charges =     1.000000

 -----------------------------------------------------------------
                    Cartesian Multipole Moments
 -----------------------------------------------------------------
    Charge (ESU x 10^10)
                 0.0000
    Dipole Moment (Debye)
         X       0.2259      Y      -1.9025      Z      -0.4886
       Tot       1.9772
    Quadrupole Moments (Debye-Ang)
        XX     -42.3569     XY      -3.4151     YY     -43.5945
        XZ       3.6622     YZ       0.3838     ZZ     -43.6291
    Octopole Moments (Debye-Ang^2)
       XXX      18.8143    XXY      -8.3404    XYY      -6.5114
       YYY     -29.7672    XXZ      -7.2952    XYZ       1.4141
       YYZ       0.9590    XZZ      -0.1005    YZZ      -5.3887
       ZZZ       6.6705
    Hexadecapole Moments (Debye-Ang^3)
      XXXX    -424.4373   XXXY      -5.9123   XXYY    -123.5942
      XYYY     -26.1906   YYYY    -310.4083   XXXZ      63.1910
      XXYZ       5.2570   XYYZ      21.2164   YYYZ      18.0586
      XXZZ    -105.1252   XYZZ      -1.6412   YYZZ     -82.3265
      XZZZ      46.2739   YZZZ      16.4473   ZZZZ    -136.5910
 -----------------------------------------------------------------
 Calculating analytic gradient of the SCF energy
 Gradient of SCF Energy
            1           2           3           4           5           6
    1   0.0000022  -0.0000037  -0.0000010  -0.0000100   0.0000105   0.0000039
    2  -0.0000080  -0.0000050   0.0000000   0.0000038   0.0000018   0.0000001
    3   0.0000038  -0.0000027  -0.0000038  -0.0000079   0.0000031   0.0000068
            7           8           9          10          11          12
    1   0.0000028  -0.0000077  -0.0000094   0.0000060   0.0000083   0.0000032
    2  -0.0000103  -0.0000071   0.0000023   0.0000137   0.0000098   0.0000013
    3   0.0000058  -0.0000052  -0.0000096  -0.0000022   0.0000080   0.0000070
           13
    1  -0.0000051
    2  -0.0000025
    3  -0.0000031
 Max gradient component =       1.372E-05
 RMS gradient           =       6.272E-06
 Gradient time:  CPU 17.13 s  wall 5.66 s
 Geometry Optimization Parameters
   NAtoms,    NIC,     NZ,  NCons,   NDum,   NFix, NCnnct, MaxDiis
       13      86       0       0       0       0       0       0

 Cartesian Hessian Update
 Hessian Updated using Powell/Murtagh-Sargent Update
**WARNING** Small Scalar Product
 Hessian Update Skipped this cycle


** GEOMETRY OPTIMIZATION IN DELOCALIZED INTERNAL COORDINATES **
   Searching for a Transition State

   Optimization Cycle:  36

                       Coordinates (Angstroms)
     ATOM                X               Y               Z
      1  C         1.6445617029    0.3786580278   -0.2370173153
      2  C         1.1281684884   -0.9184022163   -0.1225559896
      3  C        -0.2413548069   -1.1284696510   -0.1954104097
      4  C        -1.1790139847    0.0212084784   -0.2578746698
      5  C        -0.4448083579    1.3265912322   -0.4128531363
      6  N         0.8529826514    1.4837966561   -0.3755251412
      7  H         2.7146509195    0.5612888433   -0.2231432765
      8  H         1.8062071337   -1.7602026393   -0.0152822002
      9  H        -0.6590923163   -2.1288577673   -0.1478199627
     10  H        -2.0187033624   -0.0863661534   -0.9507864344
     11  H        -1.0522621061    2.2274300884   -0.4890760491
     12  C        -1.6599414823    0.0114337368    1.1959252804
     13  H        -0.9903681340   -0.0204712476    2.0601764226
   Point Group: c1    Number of degrees of freedom:    33


   Energy is   -286.818528208

 Hessian Updated using Powell/Murtagh-Sargent Update
**WARNING** Small Scalar Product
 Hessian Update Skipped this cycle

 33 Hessian modes will be used to form the next step
  Hessian Eigenvalues:
    -0.010011    0.002898    0.008206    0.013271    0.016199    0.020353
     0.024578    0.026933    0.030427    0.038810    0.068815    0.070868
     0.105098    0.113222    0.115653    0.126828    0.130316    0.170402
     0.186402    0.208661    0.238793    0.250037    0.278940    0.309730
     0.314904    0.349694    0.356253    0.359908    0.366196    0.391558
     0.433984    0.476072    0.596250

 Transition State Search - Taking P-RFO Step
 Searching for Lamda that Maximizes Along the Lowest mode
 Value Taken    Lamda =   0.00000000
 Searching for Lamda that Minimizes Along All other modes
 Value Taken    Lamda =   0.00000000
 Step Taken.  Stepsize is  0.000632

                             Maximum     Tolerance    Cnvgd?
         Gradient           0.000006      0.000010     YES
         Displacement       0.000292      0.001200     YES
         Energy change     -0.000000      0.000001     YES


                       Distance Matrix (Angstroms)
             C (  1)   C (  2)   C (  3)   C (  4)   C (  5)   N (  6)
   C (  2)  1.400760
   C (  3)  2.414507  1.387455
   C (  4)  2.846188  2.494849  1.484879
   C (  5)  2.301079  2.756542  2.473055  1.505689
   N (  6)  1.366424  2.431107  2.837948  2.506395  1.307811
   H (  7)  1.085651  2.171757  3.405000  3.931096  3.256357  2.083279
   H (  8)  2.156391  1.086219  2.150359  3.484799  3.841019  3.400286
   H (  9)  3.406232  2.158736  1.085148  2.214772  3.472217  3.922944
   H ( 10)  3.761014  3.358728  2.194434  1.093973  2.182422  3.323089
   H ( 11)  3.279383  3.845111  3.464949  2.221921  1.089183  2.048375
   C ( 12)  3.620486  3.221264  2.290760  1.531314  2.407147  3.309395
   H ( 13)  3.518417  3.171561  2.622280  2.326088  2.868464  3.404909
             H (  7)   H (  8)   H (  9)   H ( 10)   H ( 11)   C ( 12)
   H (  8)  2.501559
   H (  9)  4.315635  2.496232
   H ( 10)  4.832553  4.278649  2.581680
   H ( 11)  4.127515  4.929152  4.387286  2.549674
   C ( 12)  4.631755  4.076752  2.718124  2.178680  2.849411
   H ( 13)  4.390804  3.892946  3.070877  3.182407  3.399350  1.093744

 
 Final energy is   -286.818528207524     


 ******************************
 **  OPTIMIZATION CONVERGED  **
 ******************************

                       Coordinates (Angstroms)
     ATOM                X               Y               Z
      1  C         1.6445617029    0.3786580278   -0.2370173153
      2  C         1.1281684884   -0.9184022163   -0.1225559896
      3  C        -0.2413548069   -1.1284696510   -0.1954104097
      4  C        -1.1790139847    0.0212084784   -0.2578746698
      5  C        -0.4448083579    1.3265912322   -0.4128531363
      6  N         0.8529826514    1.4837966561   -0.3755251412
      7  H         2.7146509195    0.5612888433   -0.2231432765
      8  H         1.8062071337   -1.7602026393   -0.0152822002
      9  H        -0.6590923163   -2.1288577673   -0.1478199627
     10  H        -2.0187033624   -0.0863661534   -0.9507864344
     11  H        -1.0522621061    2.2274300884   -0.4890760491
     12  C        -1.6599414823    0.0114337368    1.1959252804
     13  H        -0.9903681340   -0.0204712476    2.0601764226

Z-matrix Print:
$molecule
0 2
N 
C  1 1.307811
H  2 1.089183 1 117.130619
C  1 1.366424 2 118.720842 3 177.933055 0
H  4 1.085651 1 115.864460 2 179.311863 0
C  4 1.400760 1 122.930886 2 -0.501553 0
H  6 1.086219 4 119.706660 1 179.956030 0
C  6 1.387455 4 119.986323 1 2.304708 0
H  8 1.085148 6 121.148629 4 177.596509 0
C  8 1.484879 6 120.550209 4 -6.145494 0
H  10 1.093973 8 115.798089 6 138.933689 0
C  10 1.531314 8 98.826421 6 -102.426764 0
H  12 1.093744 10 123.924566 8 49.909889 0
$end

 
 --------------------------------------------------------------
 
                    Orbital Energies (a.u.)
 --------------------------------------------------------------
 
 Alpha MOs
 -- Occupied --
-14.354 -10.249 -10.239 -10.234 -10.233 -10.229 -10.217  -0.957
 -0.837  -0.787  -0.678  -0.636  -0.615  -0.535  -0.499  -0.491
 -0.445  -0.432  -0.415  -0.386  -0.375  -0.306  -0.281  -0.253
 -0.216
 -- Virtual --
 -0.101  -0.019   0.001   0.020   0.028   0.030   0.047   0.048
  0.054   0.072   0.074   0.088   0.094   0.097   0.103   0.113
  0.121   0.124   0.141   0.144   0.149   0.162   0.174   0.177
  0.194   0.201   0.204   0.209   0.229   0.234   0.239   0.249
  0.253   0.269   0.279   0.296   0.305   0.320   0.321   0.325
  0.336   0.416   0.481   0.527   0.617   0.640   0.659   0.662
  0.672   0.709   0.712   0.721   0.727   0.750   0.769   0.784
  0.807   0.869   0.878   0.896   0.924   0.938   0.952   0.984
  1.019   1.032   1.039   1.057   1.082   1.105   1.121   1.132
  1.183   1.213   1.225   1.275   1.337   1.365   1.409   1.420
  1.448   1.520   1.558   1.599   1.666   1.715   1.728   1.775
  1.826   1.870   1.901   1.957   1.970   1.985   2.007   2.059
  2.104   2.116   2.145   2.179   2.244   2.305   2.325   2.359
  2.381   2.387   2.415   2.466   2.474   2.494   2.513   2.520
  2.535   2.573   2.605   2.641   2.651   2.697   2.706   2.773
  2.809   2.945   2.997   3.167   3.223   3.259   3.331   3.373
  3.413   3.446   3.750   4.178   4.307   4.315   4.427   4.458
  4.579   4.757
 
 Beta MOs
 -- Occupied --
-14.350 -10.252 -10.240 -10.238 -10.233 -10.214 -10.212  -0.956
 -0.832  -0.788  -0.674  -0.639  -0.581  -0.537  -0.499  -0.490
 -0.442  -0.428  -0.417  -0.383  -0.377  -0.309  -0.269  -0.203
 -- Virtual --
 -0.095  -0.083  -0.010   0.001   0.020   0.030   0.035   0.046
  0.050   0.053   0.069   0.077   0.089   0.095   0.100   0.104
  0.113   0.122   0.126   0.140   0.144   0.151   0.165   0.174
  0.178   0.196   0.201   0.207   0.213   0.228   0.235   0.239
  0.249   0.263   0.271   0.280   0.298   0.307   0.317   0.321
  0.327   0.338   0.422   0.481   0.526   0.615   0.647   0.657
  0.667   0.684   0.699   0.713   0.724   0.753   0.762   0.771
  0.794   0.809   0.878   0.881   0.896   0.923   0.938   0.959
  0.992   1.023   1.035   1.050   1.063   1.086   1.106   1.121
  1.134   1.180   1.214   1.225   1.282   1.339   1.360   1.409
  1.417   1.450   1.537   1.591   1.607   1.701   1.717   1.739
  1.778   1.832   1.884   1.903   1.962   1.968   1.996   2.017
  2.070   2.102   2.130   2.158   2.173   2.248   2.305   2.327
  2.359   2.383   2.387   2.420   2.464   2.480   2.491   2.514
  2.530   2.534   2.571   2.608   2.644   2.653   2.699   2.714
  2.775   2.813   2.946   2.997   3.166   3.222   3.259   3.344
  3.373   3.414   3.447   3.750   4.188   4.309   4.343   4.431
  4.449   4.583   4.753
 --------------------------------------------------------------
 
          Ground-State Mulliken Net Atomic Charges

     Atom                 Charge (a.u.)    Spin (a.u.)
  --------------------------------------------------------
      1 C                    -0.242503      -0.459148
      2 C                     0.141411       0.300042
      3 C                    -0.388063      -0.385189
      4 C                     0.254448      -0.048253
      5 C                    -0.191872      -0.313664
      6 N                    -0.148333       0.207339
      7 H                     0.134027       0.023349
      8 H                     0.134341      -0.009993
      9 H                     0.147982       0.017970
     10 H                     0.154777      -0.017668
     11 H                     0.143437       0.017842
     12 C                    -0.284983       1.700143
     13 H                     0.145330      -0.032768
  --------------------------------------------------------
  Sum of atomic charges =     0.000000
  Sum of spin   charges =     1.000000

 -----------------------------------------------------------------
                    Cartesian Multipole Moments
 -----------------------------------------------------------------
    Charge (ESU x 10^10)
                 0.0000
    Dipole Moment (Debye)
         X       0.2259      Y      -1.9025      Z      -0.4886
       Tot       1.9772
    Quadrupole Moments (Debye-Ang)
        XX     -42.3569     XY      -3.4151     YY     -43.5945
        XZ       3.6622     YZ       0.3838     ZZ     -43.6291
    Octopole Moments (Debye-Ang^2)
       XXX      18.8143    XXY      -8.3404    XYY      -6.5114
       YYY     -29.7672    XXZ      -7.2952    XYZ       1.4141
       YYZ       0.9590    XZZ      -0.1005    YZZ      -5.3887
       ZZZ       6.6705
    Hexadecapole Moments (Debye-Ang^3)
      XXXX    -424.4373   XXXY      -5.9123   XXYY    -123.5942
      XYYY     -26.1906   YYYY    -310.4083   XXXZ      63.1910
      XXYZ       5.2570   XYYZ      21.2164   YYYZ      18.0586
      XXZZ    -105.1252   XYZZ      -1.6412   YYZZ     -82.3265
      XZZZ      46.2739   YZZZ      16.4473   ZZZZ    -136.5910
 -----------------------------------------------------------------
Archival summary:
1\1\c8-89\TS\ProcedureUnspecified\6-31+G**\166(2)\hpark21\WedMar208:13:392022WedMar208:13:392022\0\\#,TS,ProcedureUnspecified,6-31+G**,\\0,2\N\C,1,1.30781\H,2,1.08918,1,117.131\C,1,1.36642,2,118.721,3,177.933,0\H,4,1.08565,1,115.864,2,179.312,0\C,4,1.40076,1,122.931,2,-0.501553,0\H,6,1.08622,4,119.707,1,179.956,0\C,6,1.38745,4,119.986,1,2.30471,0\H,8,1.08515,6,121.149,4,177.597,0\C,8,1.48488,6,120.55,4,-6.14549,0\H,10,1.09397,8,115.798,6,138.934,0\C,10,1.53131,8,98.8264,6,-102.427,0\H,12,1.09374,10,123.925,8,49.9099,0\\\@

 Total job time:  2338.57s(wall), 4236.97s(cpu) 
 Wed Mar  2 08:13:39 2022

        *************************************************************
        *                                                           *
        *  Thank you very much for using Q-Chem.  Have a nice day.  *
        *                                                           *
        *************************************************************


