13   
From optimize.out: Frame 1 / 2, Energy=    -286.8364672944
C        0.0961430000    0.0067690000   -0.0000000000
C       -0.1922290000    0.0366310000   -0.0000000000
C       -0.1070820000    0.1075540000   -0.0000000000
C       -0.0713890000    0.9523960000    0.0000000000
C       -0.0993100000   -0.0433350000   -0.0000000000
N       -0.3374180000    0.0125400000   -0.0000000000
H        0.1439080000    0.0039570000   -0.0000000000
H        0.1486950000    0.0014130000    0.0000000000
H        0.1494670000    0.0086090000   -0.0000000000
H        0.1394870000   -0.0393410000    0.0000000000
H        0.1419110000    0.0054080000   -0.0000000000
C       -0.1617380000   -0.0529640000    0.0000000000
H        0.1495560000    0.0003660000    0.0000000000
