13   
From optimize.out: Frame 1 / 2, Energy=    -286.8364672944
C        1.5760285402    0.4905829746   -0.1802268852
C        0.8451033833   -0.7987643908   -0.0034579785
C       -0.4633490545   -0.6151088003   -0.7008306503
C       -0.9622863165    0.6742249893    0.9121766739
C       -0.5545041403    0.9502718022   -0.5408383873
N        0.8335452356    1.4756464003   -0.5243753546
H        2.6434858991    0.6148788365   -0.0009238289
H        1.3463286226   -1.7619347469    0.0059605398
H       -0.9182237166   -1.2629738316   -1.4445599550
H       -1.9031227831    0.9730394210    1.3603932228
H       -1.2164879894    1.5365400964   -1.1779315234
C       -0.4782102071   -0.7177034652    0.8322060845
H       -0.7483074734   -1.5586992854    1.4624080422
