13   
From optimize.out: Frame 1 / 2, Energy=    -286.9514982042
C        1.9060500046    0.3097202117   -0.4823097842
C        1.3505745745   -0.9696948104   -0.3441303683
C        0.0139369398   -1.0885533981   -0.0043043231
C       -0.7663525087    0.0848176594    0.1959094288
C       -0.0774162012    1.3251578443    0.0227024597
N        1.2029906089    1.4427300352   -0.3013406052
H        2.9539218484    0.4337908923   -0.7476162453
H        1.9673264112   -1.8500289230   -0.5017877668
H       -0.4479806321   -2.0659613478    0.1125956274
H       -2.6519579055   -0.8904458554    0.6716292342
H       -0.6285534463    2.2555383669    0.1626147648
C       -2.1279651279    0.0491834846    0.5375697469
H       -2.6945745656    0.9637458404    0.6784678311
