13   
From optimize.out: Frame 1 / 2, Energy=    -286.9514982042
C        0.0306650000    0.2703080000   -0.0000000000
C       -0.1345080000   -0.1348680000   -0.0000000000
C       -0.1566050000    0.2474820000   -0.0000000000
C        0.2091130000   -0.2007080000    0.0000000000
C       -0.0087160000    0.2424210000    0.0000000000
N       -0.4020520000   -0.1104260000   -0.0000000000
H        0.1434390000   -0.0141370000   -0.0000000000
H        0.1386490000    0.0053200000   -0.0000000000
H        0.1399330000   -0.0114840000    0.0000000000
H        0.1520560000   -0.0383520000    0.0000000000
H        0.1401770000   -0.0120720000    0.0000000000
C       -0.4074460000    0.7947050000    0.0000000000
H        0.1552950000   -0.0381880000    0.0000000000
