
Running Job 1 of 1 optimize.in
qchem optimize.in_48508.0 ./optimize.d/ 1
/home/leeping/opt/qchem/5.0.2-openmp/exe/qcprog.exe_s optimize.in_48508.0 ./optimize.d/
Check license passed

                  Welcome to Q-Chem
     A Quantum Leap Into The Future Of Chemistry


 Q-Chem 5.0, Q-Chem, Inc., Pleasanton, CA (2017)

 Yihan Shao,  Zhengting Gan,  E. Epifanovsky,  A. T. B. Gilbert,  M. Wormit,  
 J. Kussmann,  A. W. Lange,  A. Behn,  Jia Deng,  Xintian Feng,  D. Ghosh,  
 M. Goldey,  P. R. Horn,  L. D. Jacobson,  I. Kaliman,  T. Kus,  A. Landau,  
 Jie Liu,  E. I. Proynov,  R. M. Richard,  R. P. Steele,  E. J. Sundstrom,  
 H. L. Woodcock III,  P. M. Zimmerman,  D. Zuev,  B. Albrecht,  E. Alguire,  
 S. A. Baeppler,  D. Barton,  Z. Benda,  Y. A. Bernard,  E. J. Berquist,  
 K. B. Bravaya,  H. Burton,  D. Casanova,  Chun-Min Chang,  Yunqing Chen,  
 A. Chien,  K. D. Closser,  M. P. Coons,  S. Dasgupta,  A. L. Dempwolff,  
 M. Diedenhofen,  Hainam Do,  R. G. Edgar,  Po-Tung Fang,  S. Fatehi,  
 Qingguo Feng,  J. Fosso-Tande,  Qinghui Ge,  A. Ghysels,  G. Gidofalvi,  
 J. Gomes,  J. Gonthier,  A. Gunina,  M. W. D. Hanson-Heine,  
 P. H. P. Harbach,  A. W. Hauser,  J. E. Herr,  E. G. Hohenstein,  
 Z. C. Holden,  Kerwin Hui,  T.-C. Jagau,  Hyunjun Ji,  B. Kaduk,  
 K. Khistyaev,  Jaehoon Kim,  P. Klunzinger,  K. Koh,  D. Kosenkov,  
 L. Koulias,  T. Kowalczyk,  C. M. Krauter,  A. Kunitsa,  Ka Un Lao,  
 A. Laurent,  K. V. Lawler,  Joonho Lee,  D. Lefrancois,  S. Lehtola,  
 D. S. Levine,  Yi-Pei Li,  You-Sheng Lin,  Fenglai Liu,  E. Livshits,  
 A. Luenser,  P. Manohar,  E. Mansoor,  S. F. Manzer,  Shan-Ping Mao,  
 Yuezhi Mao,  N. Mardirossian,  A. V. Marenich,  T. Markovich,  
 L. A. Martinez-Martinez,  S. A. Maurer,  N. J. Mayhall,  S. C. McKenzie,  
 J.-M. Mewes,  A. F. Morrison,  J. W. Mullinax,  K. Nanda,  
 T. S. Nguyen-Beck,  R. Olivares-Amaya,  J. A. Parkhill,  T. M. Perrine,  
 F. Plasser,  S. Prager,  A. Prociuk,  E. Ramos,  D. R. Rehn,  F. Rob,  
 M. Schneider,  N. Sergueev,  S. M. Sharada,  S. Sharma,  D. W. Small,  
 T. Stauch,  T. Stein,  Yu-Chuan Su,  A. J. W. Thom,  A. Tkatchenko,  
 T. Tsuchimochi,  L. Vogt,  O. Vydrov,  M. A. Watson,  J. Wenzel,  
 M. de Wergifosse,  T. A. Wesolowski,  A. White,  J. Witte,  A. Yamada,  
 Jun Yang,  K. Yao,  S. Yeganeh,  S. R. Yost,  Zhi-Qiang You,  A. Zech,  
 Igor Ying Zhang,  Xing Zhang,  Yan Zhao,  Ying Zhu,  B. R. Brooks,  
 G. K. L. Chan,  C. J. Cramer,  M. S. Gordon,  W. J. Hehre,  A. Klamt,  
 M. W. Schmidt,  C. D. Sherrill,  D. G. Truhlar,  A. Aspuru-Guzik,  R. Baer,  
 A. T. Bell,  N. A. Besley,  Jeng-Da Chai,  R. A. DiStasio Jr.,  A. Dreuw,  
 B. D. Dunietz,  T. R. Furlani,  Chao-Ping Hsu,  Yousung Jung,  Jing Kong,  
 D. S. Lambrecht,  WanZhen Liang,  C. Ochsenfeld,  V. A. Rassolov,  
 L. V. Slipchenko,  J. E. Subotnik,  T. Van Voorhis,  J. M. Herbert,  
 A. I. Krylov,  P. M. W. Gill,  M. Head-Gordon

 Contributors to earlier versions of Q-Chem not listed above: 
 R. D. Adamson,  B. Austin,  J. Baker,  G. J. O. Beran,  K. Brandhorst,  
 S. T. Brown,  E. F. C. Byrd,  A. K. Chakraborty,  C.-L. Cheng,  
 Siu Hung Chien,  D. M. Chipman,  D. L. Crittenden,  H. Dachsel,  
 R. J. Doerksen,  A. D. Dutoi,  L. Fusti-Molnar,  W. A. Goddard III,  
 A. Golubeva-Zadorozhnaya,  S. R. Gwaltney,  G. Hawkins,  A. Heyden,  
 S. Hirata,  G. Kedziora,  F. J. Keil,  C. Kelley,  Jihan Kim,  R. A. King,  
 R. Z. Khaliullin,  P. P. Korambath,  W. Kurlancheek,  A. M. Lee,  M. S. Lee,  
 S. V. Levchenko,  Ching Yeh Lin,  D. Liotard,  R. C. Lochan,  I. Lotan,  
 P. E. Maslen,  N. Nair,  D. P. O'Neill,  D. Neuhauser,  E. Neuscamman,  
 C. M. Oana,  R. Olson,  B. Peters,  R. Peverati,  P. A. Pieniazek,  
 Y. M. Rhee,  J. Ritchie,  M. A. Rohrdanz,  E. Rosta,  N. J. Russ,  
 H. F. Schaefer III,  N. E. Schultz,  N. Shenvi,  A. C. Simmonett,  A. Sodt,  
 D. Stuck,  K. S. Thanthiriwatte,  V. Vanovschi,  Tao Wang,  A. Warshel,  
 C. F. Williams,  Q. Wu,  X. Xu,  W. Zhang

 Please cite Q-Chem as follows:
 Y. Shao et al., Mol. Phys. 113, 184-215 (2015)
 DOI: 10.1080/00268976.2014.952696

 Q-Chem 5.0.2 for Intel X86 EM64T Linux

 Parts of Q-Chem use Armadillo 5.200.1 (Boston Tea Smuggler).
 http://arma.sourceforge.net/

 Q-Chem begins on Wed Mar  2 18:02:34 2022  

Host: 
0

     Scratch files written to ./optimize.d//
 Dec517 15110_ 26548  26544 5633   
Processing $rem in /home/leeping/opt/qchem/5.0.2-openmp/config/preferences.
 MEM_STATIC 2000
 MEM_TOTAL  8000
 SYMMETRY   OFF
 SYM_IGNORE TRUE 

Checking the input file for inconsistencies... 	...done.

--------------------------------------------------------------
User input:
--------------------------------------------------------------
$molecule
0 2
C        1.3199927695    0.0323587386    0.3281901696
C        1.0329883246   -1.3109846868    0.8737598926
C        1.9549551306   -2.0601167609    1.4488672980
C       -1.7920864061    1.7600014250   -0.5540667051
C       -0.8473716722    0.5861190526   -0.4691745020
N        0.5371826309    0.8630526150   -0.2531778513
H        2.3604211170    0.3476537233    0.4419025423
H        0.0132172740   -1.6993902167    0.7914556442
H        2.0130048425   -3.0381901388    1.9094705924
H       -2.2838619616    2.5321308192    0.0185564313
H       -1.2366973216   -0.3671524337   -0.0953815514
C       -1.5028046113    1.1993653051   -1.6817275849
H       -1.5689401162    1.1551525582   -2.7586743757
$end

$rem
method                b3lyp
basis                 6-31g(d)
unrestricted          true
symmetry              off
sym_ignore            true
incdft                false
incfock               0
scf_convergence       8
thresh                14
jobtype               opt
scf_guess             read
scf_algorithm         diis
max_scf_cycles        100
geom_opt_tol_gradient 600
geom_opt_tol_displacement 2400
geom_opt_tol_energy   200
geom_opt_max_cycles   100
$end

--------------------------------------------------------------
 ----------------------------------------------------------------
             Standard Nuclear Orientation (Angstroms)
    I     Atom           X                Y                Z
 ----------------------------------------------------------------
    1      C       1.3199927695     0.0323587386     0.3281901696
    2      C       1.0329883246    -1.3109846868     0.8737598926
    3      C       1.9549551306    -2.0601167609     1.4488672980
    4      C      -1.7920864061     1.7600014250    -0.5540667051
    5      C      -0.8473716722     0.5861190526    -0.4691745020
    6      N       0.5371826309     0.8630526150    -0.2531778513
    7      H       2.3604211170     0.3476537233     0.4419025423
    8      H       0.0132172740    -1.6993902167     0.7914556442
    9      H       2.0130048425    -3.0381901388     1.9094705924
   10      H      -2.2838619616     2.5321308192     0.0185564313
   11      H      -1.2366973216    -0.3671524337    -0.0953815514
   12      C      -1.5028046113     1.1993653051    -1.6817275849
   13      H      -1.5689401162     1.1551525582    -2.7586743757
 ----------------------------------------------------------------
 Nuclear Repulsion Energy =   242.3618915450 hartrees
 There are       25 alpha and       24 beta electrons
 Requested basis set is 6-31G(d)
 There are 40 shells and 117 basis functions

 Total QAlloc Memory Limit   8000 MB
 Mega-Array Size      1956 MB
 MEM_STATIC part      2000 MB
 A cutoff of  1.0D-14 yielded    752 shell pairs
 There are      6706 function pairs
 
 -------------------------------------------------------
 OpenMP Integral Computing Module                       
 Release: version 1.0, May 2013, Q-Chem Inc. Pittsburgh 
 -------------------------------------------------------
 Integral Job Info:
 Integral job number is                      11
 Integral operator is                         1
 short-range coefficients                     0
 long-range coefficients              100000000
 Omega coefficients                           0
 if combine SR and LR in K                    0
 Integral screening is                        0
 Integral computing path is                   2
 max size of driver memory is            800000
 size of driver memory is                593474
 size of scratch memory is              2361544
 max col of scratch BK array               1296
 max len of scratch array in speh3          155
 max len of scratch index in speh4           18
 max int batch size is                      520
 min int batch size is                       52
 fixed nKL is                                52
 max L of basis functions is                  2
 order of int derivative is                   0
 number of shells is                         40
 number of basis is                         117
 number of cartesian basis is               117
 number of contracted shell pairs           752
 number of primitive shell pairs           3124
 maxK2 (contraction) of shell pair           36
 max number of K2 of shell pair               1
 max number of CS2 of shell pair             86
 max number of PS2 of shell pair            426
 mem total for path MDJ                  525324
 -------------------------------------------------------
 Smallest overlap matrix eigenvalue = 2.38E-03

 Scale SEOQF with 1.000000e-01/1.000000e-01/1.000000e-01

 Standard Electronic Orientation quadrupole field applied
 Nucleus-field energy     =     0.0000000045 hartrees
 Guess MOs from SCF MO coefficient file
 Reading MOs from coefficient file
 Reading MOs from coefficient file
 An unrestricted hybrid HF-DFT SCF calculation will be
 performed using Pulay DIIS extrapolation
 Exchange:     0.2000 Hartree-Fock + 0.0800 Slater + 0.7200 B88
 Correlation:  0.1900 VWN1RPA + 0.8100 LYP
 Using SG-1 standard quadrature grid
 SCF converges when DIIS error is below 1.0E-08
Using Q-Chem read-in guess as SCF_GUESS READ specified.

 using 4 threads for integral computing
 -------------------------------------------------------
 OpenMP Integral computing Module                
 Release: version 1.0, May 2013, Q-Chem Inc. Pittsburgh 
 -------------------------------------------------------
 -------------------------------------------------------
 OpenMP BLAS3 based DFT computing Module                
 Release: version 1.0, May 2013, Q-Chem Inc. Pittsburgh 
 -------------------------------------------------------
 ---------------------------------------
  Cycle       Energy         DIIS Error
 ---------------------------------------
    1    -286.7710800071      6.51E-10
    2    -286.7710800071      1.10E-09 Convergence criterion met
 ---------------------------------------
 <S^2> = 0.7654
 SCF time:  CPU 4.26 s  wall 1.09 s
 SCF   energy in the final basis set = -286.77108001
 Total energy in the final basis set = -286.77108001
 
 --------------------------------------------------------------
 
                    Orbital Energies (a.u.)
 --------------------------------------------------------------
 
 Alpha MOs
 -- Occupied --
-14.319 -10.230 -10.225 -10.222 -10.208 -10.207 -10.204  -0.924
 -0.858  -0.782  -0.650  -0.596  -0.570  -0.539  -0.503  -0.497
 -0.456  -0.417  -0.374  -0.351  -0.308  -0.276  -0.260  -0.243
 -0.228
 -- Virtual --
 -0.043   0.015   0.074   0.104   0.128   0.135   0.136   0.157
  0.189   0.224   0.236   0.248   0.318   0.345   0.365   0.384
  0.482   0.499   0.520   0.531   0.556   0.566   0.581   0.594
  0.612   0.626   0.627   0.648   0.653   0.700   0.729   0.738
  0.837   0.844   0.854   0.874   0.883   0.889   0.931   0.945
  0.969   1.031   1.038   1.053   1.103   1.192   1.218   1.257
  1.324   1.376   1.427   1.447   1.521   1.563   1.572   1.669
  1.691   1.706   1.729   1.784   1.853   1.875   1.903   1.920
  1.996   2.051   2.101   2.112   2.165   2.253   2.293   2.374
  2.377   2.412   2.418   2.420   2.536   2.605   2.690   2.748
  2.813   2.840   2.936   3.017   3.137   3.969   4.053   4.113
  4.180   4.299   4.396   4.482
 
 Beta MOs
 -- Occupied --
-14.320 -10.230 -10.224 -10.208 -10.207 -10.207 -10.206  -0.925
 -0.858  -0.768  -0.643  -0.582  -0.571  -0.534  -0.499  -0.490
 -0.447  -0.410  -0.375  -0.351  -0.305  -0.276  -0.240  -0.238
 -- Virtual --
 -0.079  -0.033   0.016   0.077   0.109   0.129   0.136   0.144
  0.159   0.189   0.225   0.237   0.248   0.324   0.344   0.378
  0.394   0.487   0.504   0.525   0.535   0.562   0.571   0.587
  0.614   0.619   0.630   0.643   0.647   0.662   0.704   0.730
  0.738   0.841   0.844   0.858   0.877   0.881   0.901   0.937
  0.950   0.974   1.038   1.041   1.056   1.111   1.200   1.220
  1.257   1.328   1.378   1.432   1.447   1.528   1.564   1.574
  1.669   1.712   1.718   1.763   1.828   1.862   1.882   1.904
  1.929   2.004   2.056   2.103   2.119   2.174   2.253   2.308
  2.374   2.377   2.412   2.420   2.429   2.538   2.605   2.691
  2.763   2.813   2.852   2.936   3.022   3.139   3.969   4.072
  4.128   4.183   4.299   4.397   4.482
 --------------------------------------------------------------
 
          Ground-State Mulliken Net Atomic Charges

     Atom                 Charge (a.u.)    Spin (a.u.)
  --------------------------------------------------------
      1 C                     0.040618       0.060674
      2 C                    -0.128932      -0.167873
      3 C                    -0.198192       1.067128
      4 C                    -0.117391      -0.002367
      5 C                    -0.014379       0.005964
      6 N                    -0.361347      -0.039078
      7 H                     0.139798       0.006286
      8 H                     0.158120       0.071687
      9 H                     0.171132       0.002604
     10 H                     0.152600      -0.000610
     11 H                     0.123251      -0.001278
     12 C                    -0.117822      -0.002545
     13 H                     0.152543      -0.000593
  --------------------------------------------------------
  Sum of atomic charges =     0.000000
  Sum of spin   charges =     1.000000

 -----------------------------------------------------------------
                    Cartesian Multipole Moments
 -----------------------------------------------------------------
    Charge (ESU x 10^10)
                 0.0000
    Dipole Moment (Debye)
         X      -1.3664      Y      -1.3651      Z       0.2646
       Tot       1.9495
    Quadrupole Moments (Debye-Ang)
        XX     -39.5939     XY      -3.5552     YY     -37.6773
        XZ       1.6675     YZ      -1.7591     ZZ     -38.4428
    Octopole Moments (Debye-Ang^2)
       XXX     -11.9616    XXY      -0.1148    XYY      -6.9271
       YYY     -24.4832    XXZ       2.7153    XYZ      -2.9876
       YYZ      12.6503    XZZ      -8.2046    YZZ      -5.7247
       ZZZ      -8.5732
    Hexadecapole Moments (Debye-Ang^3)
      XXXX    -540.2160   XXXY     183.5189   XXYY    -147.8121
      XYYY     145.3828   YYYY    -437.7838   XXXZ    -150.2309
      XXYZ      44.2605   XYYZ     -34.5732   YYYZ     118.3382
      XXZZ    -133.0112   XYZZ      50.4535   YYZZ    -113.8238
      XZZZ    -127.2643   YZZZ     123.4517   ZZZZ    -259.2404
 -----------------------------------------------------------------
 Calculating analytic gradient of the SCF energy
 Gradient of SCF Energy
            1           2           3           4           5           6
    1  -0.0000390   0.0001315  -0.0000239   0.0001105   0.0000977  -0.0003363
    2  -0.0001326   0.0000535  -0.0000091  -0.0000143   0.0000960   0.0000738
    3   0.0001514   0.0000474  -0.0000403  -0.0002839   0.0001283  -0.0003382
            7           8           9          10          11          12
    1   0.0000495   0.0000198  -0.0000059  -0.0000435  -0.0001806   0.0001976
    2   0.0000130  -0.0000329  -0.0000033  -0.0000295   0.0001190  -0.0001978
    3  -0.0000819   0.0000397  -0.0000264   0.0000287  -0.0000650   0.0004923
           13
    1   0.0000227
    2   0.0000641
    3  -0.0000520
 Max gradient component =       4.923E-04
 RMS gradient           =       1.453E-04
 Gradient time:  CPU 7.06 s  wall 2.04 s
 Geometry Optimization Parameters
   NAtoms,    NIC,     NZ,  NCons,   NDum,   NFix, NCnnct, MaxDiis
       13      83       0       0       0       0       0       0


** GEOMETRY OPTIMIZATION IN DELOCALIZED INTERNAL COORDINATES **
   Searching for a Minimum

   Optimization Cycle:   1

                       Coordinates (Angstroms)
     ATOM                X               Y               Z
      1  C         1.3199927695    0.0323587386    0.3281901696
      2  C         1.0329883246   -1.3109846868    0.8737598926
      3  C         1.9549551306   -2.0601167609    1.4488672980
      4  C        -1.7920864061    1.7600014250   -0.5540667051
      5  C        -0.8473716722    0.5861190526   -0.4691745020
      6  N         0.5371826309    0.8630526150   -0.2531778513
      7  H         2.3604211170    0.3476537233    0.4419025423
      8  H         0.0132172740   -1.6993902167    0.7914556442
      9  H         2.0130048425   -3.0381901388    1.9094705924
     10  H        -2.2838619616    2.5321308192    0.0185564313
     11  H        -1.2366973216   -0.3671524337   -0.0953815514
     12  C        -1.5028046113    1.1993653051   -1.6817275849
     13  H        -1.5689401162    1.1551525582   -2.7586743757
   Point Group: c1    Number of degrees of freedom:    33


   Energy is   -286.771080007


 Attempting to Generate Delocalized Internal Coordinates

 33 Hessian modes will be used to form the next step
  Hessian Eigenvalues:
     0.011888    0.012084    0.017311    0.018670    0.019098    0.020479
     0.024829    0.031393    0.033011    0.038913    0.112398    0.146126
     0.156968    0.158644    0.159999    0.160000    0.160000    0.220000
     0.220000    0.250000    0.271881    0.294260    0.341897    0.343166
     0.344587    0.347955    0.356748    0.360087    0.360210    0.412195
     0.561122    0.619720    0.727740

 Minimum Search - Taking Simple RFO Step
 Searching for Lamda that Minimizes Along All modes
 Value Taken    Lamda =  -0.00000823
 Step Taken.  Stepsize is  0.017767

                             Maximum     Tolerance    Cnvgd?
         Gradient           0.000558      0.000600     YES
         Displacement       0.011551      0.002400      NO
         Energy change     *********      0.000002      NO


 New Cartesian Coordinates Obtained by Inverse Iteration

 Displacement from previous Coordinates is:  0.057147
 ----------------------------------------------------------------
             Standard Nuclear Orientation (Angstroms)
    I     Atom           X                Y                Z
 ----------------------------------------------------------------
    1      C       1.3227048826     0.0315988847     0.3234485202
    2      C       1.0324077685    -1.3101134747     0.8713643353
    3      C       1.9508499439    -2.0571555997     1.4548544609
    4      C      -1.7909336124     1.7561790490    -0.5496820451
    5      C      -0.8437254988     0.5835016126    -0.4747261701
    6      N       0.5407190845     0.8624454316    -0.2584991777
    7      H       2.3625974638     0.3470025352     0.4410738102
    8      H       0.0123950696    -1.6973607454     0.7864604495
    9      H       2.0059421019    -3.0329948182     1.9205575255
   10      H      -2.2814222297     2.5246326912     0.0289279472
   11      H      -1.2292141474    -0.3724631300    -0.1035624251
   12      C      -1.5057080235     1.2019437253    -1.6817269530
   13      H      -1.5766128028     1.1627838386    -2.7584902778
 ----------------------------------------------------------------
 Nuclear Repulsion Energy =   242.3806844367 hartrees
 There are       25 alpha and       24 beta electrons
 Applying Cartesian multipole field
    Component          Value
    ---------          -----
     (2,0,0)        1.00000E-11
     (0,2,0)        2.00000E-11
     (0,0,2)       -3.00000E-11
 Nucleus-field energy     =     0.0000000045 hartrees
 Requested basis set is 6-31G(d)
 There are 40 shells and 117 basis functions
 A cutoff of  1.0D-14 yielded    752 shell pairs
 There are      6706 function pairs
 Smallest overlap matrix eigenvalue = 2.38E-03
 Guess MOs from SCF MO coefficient file
 Reading MOs from coefficient file
 Reading MOs from coefficient file
 An unrestricted hybrid HF-DFT SCF calculation will be
 performed using Pulay DIIS extrapolation
 Exchange:     0.2000 Hartree-Fock + 0.0800 Slater + 0.7200 B88
 Correlation:  0.1900 VWN1RPA + 0.8100 LYP
 Using SG-1 standard quadrature grid
 SCF converges when DIIS error is below 1.0E-08
 Geometry optimization detected.  Setting ReadMinima to 0
 Setting SaveMinima to 0
Using Q-Chem read-in guess as SCF_GUESS READ specified.

 using 4 threads for integral computing
 -------------------------------------------------------
 OpenMP Integral computing Module                
 Release: version 1.0, May 2013, Q-Chem Inc. Pittsburgh 
 -------------------------------------------------------
 -------------------------------------------------------
 OpenMP BLAS3 based DFT computing Module                
 Release: version 1.0, May 2013, Q-Chem Inc. Pittsburgh 
 -------------------------------------------------------
 ---------------------------------------
  Cycle       Energy         DIIS Error
 ---------------------------------------
    1    -286.7708005605      2.42E-04
    2    -286.7710824290      2.07E-05
    3    -286.7710826950      2.48E-05
    4    -286.7710836781      6.75E-06
    5    -286.7710837482      3.11E-06
    6    -286.7710837663      7.14E-07
    7    -286.7710837681      1.64E-07
    8    -286.7710837684      1.15E-07
    9    -286.7710837685      6.66E-08
   10    -286.7710837686      2.31E-08
   11    -286.7710837686      1.25E-08
   12    -286.7710837686      7.31E-09 Convergence criterion met
 ---------------------------------------
 <S^2> = 0.7654
 SCF time:  CPU 26.35 s  wall 9.98 s
 SCF   energy in the final basis set = -286.77108377
 Total energy in the final basis set = -286.77108377
 
 --------------------------------------------------------------
 
                    Orbital Energies (a.u.)
 --------------------------------------------------------------
 
 Alpha MOs
 -- Occupied --
-14.319 -10.230 -10.225 -10.222 -10.208 -10.207 -10.204  -0.924
 -0.858  -0.782  -0.650  -0.596  -0.571  -0.539  -0.503  -0.497
 -0.455  -0.418  -0.374  -0.352  -0.308  -0.276  -0.260  -0.243
 -0.228
 -- Virtual --
 -0.043   0.015   0.074   0.104   0.128   0.135   0.136   0.157
  0.189   0.224   0.237   0.247   0.318   0.345   0.365   0.384
  0.482   0.499   0.520   0.531   0.557   0.566   0.581   0.594
  0.612   0.626   0.627   0.648   0.652   0.700   0.729   0.738
  0.837   0.844   0.854   0.874   0.883   0.889   0.931   0.946
  0.970   1.031   1.038   1.054   1.103   1.192   1.218   1.257
  1.324   1.376   1.427   1.447   1.521   1.563   1.572   1.668
  1.691   1.706   1.729   1.785   1.853   1.875   1.903   1.919
  1.996   2.051   2.102   2.113   2.165   2.253   2.294   2.374
  2.377   2.412   2.418   2.420   2.536   2.604   2.690   2.747
  2.813   2.840   2.935   3.017   3.136   3.969   4.053   4.113
  4.179   4.299   4.396   4.481
 
 Beta MOs
 -- Occupied --
-14.320 -10.230 -10.224 -10.208 -10.207 -10.207 -10.206  -0.925
 -0.858  -0.768  -0.643  -0.582  -0.571  -0.534  -0.499  -0.490
 -0.447  -0.410  -0.375  -0.351  -0.305  -0.276  -0.240  -0.238
 -- Virtual --
 -0.079  -0.033   0.016   0.077   0.109   0.129   0.135   0.144
  0.159   0.189   0.225   0.238   0.248   0.324   0.344   0.378
  0.394   0.487   0.504   0.525   0.534   0.562   0.571   0.587
  0.614   0.619   0.630   0.643   0.647   0.662   0.704   0.730
  0.738   0.841   0.844   0.858   0.877   0.881   0.901   0.936
  0.950   0.974   1.037   1.041   1.056   1.111   1.200   1.220
  1.257   1.328   1.377   1.432   1.447   1.528   1.564   1.573
  1.669   1.712   1.718   1.763   1.828   1.862   1.882   1.904
  1.928   2.004   2.056   2.104   2.119   2.174   2.253   2.308
  2.374   2.377   2.412   2.420   2.429   2.538   2.605   2.691
  2.763   2.813   2.852   2.935   3.022   3.138   3.969   4.072
  4.128   4.183   4.299   4.397   4.482
 --------------------------------------------------------------
 
          Ground-State Mulliken Net Atomic Charges

     Atom                 Charge (a.u.)    Spin (a.u.)
  --------------------------------------------------------
      1 C                     0.040891       0.060658
      2 C                    -0.129039      -0.167901
      3 C                    -0.198356       1.067053
      4 C                    -0.117365      -0.002357
      5 C                    -0.014429       0.006036
      6 N                    -0.361400      -0.038997
      7 H                     0.139856       0.006293
      8 H                     0.158209       0.071619
      9 H                     0.171124       0.002615
     10 H                     0.152621      -0.000607
     11 H                     0.123198      -0.001303
     12 C                    -0.117894      -0.002515
     13 H                     0.152582      -0.000595
  --------------------------------------------------------
  Sum of atomic charges =     0.000000
  Sum of spin   charges =     1.000000

 -----------------------------------------------------------------
                    Cartesian Multipole Moments
 -----------------------------------------------------------------
    Charge (ESU x 10^10)
                -0.0000
    Dipole Moment (Debye)
         X      -1.3712      Y      -1.3615      Z       0.2737
       Tot       1.9516
    Quadrupole Moments (Debye-Ang)
        XX     -39.6001     XY      -3.5439     YY     -37.7067
        XZ       1.6819     YZ      -1.7610     ZZ     -38.4236
    Octopole Moments (Debye-Ang^2)
       XXX     -12.0081    XXY      -0.0804    XYY      -6.9787
       YYY     -24.4409    XXZ       2.7319    XYZ      -2.9734
       YYZ      12.7160    XZZ      -8.2576    YZZ      -5.7240
       ZZZ      -8.4086
    Hexadecapole Moments (Debye-Ang^3)
      XXXX    -539.8676   XXXY     183.2525   XXYY    -147.9522
      XYYY     145.4709   YYYY    -437.4981   XXXZ    -150.1400
      XXYZ      44.3474   XYYZ     -34.5811   YYYZ     118.4914
      XXZZ    -132.8515   XYZZ      50.0432   YYZZ    -113.4187
      XZZZ    -126.9150   YZZZ     123.1760   ZZZZ    -259.6302
 -----------------------------------------------------------------
 Calculating analytic gradient of the SCF energy
 Gradient of SCF Energy
            1           2           3           4           5           6
    1   0.0000324  -0.0000303   0.0000187   0.0000829   0.0002198  -0.0001079
    2  -0.0000772   0.0000993  -0.0000035   0.0001496  -0.0001434   0.0000319
    3  -0.0002626  -0.0000729   0.0000414  -0.0000875  -0.0000176   0.0001372
            7           8           9          10          11          12
    1  -0.0000031  -0.0000772  -0.0000037  -0.0000120  -0.0000328  -0.0001040
    2   0.0000310   0.0000391  -0.0000057  -0.0000267  -0.0000231  -0.0001038
    3   0.0000555   0.0000417  -0.0000129   0.0000202   0.0001048   0.0000519
           13
    1   0.0000171
    2   0.0000324
    3   0.0000007
 Max gradient component =       2.626E-04
 RMS gradient           =       8.543E-05
 Gradient time:  CPU 6.66 s  wall 1.74 s
 Geometry Optimization Parameters
   NAtoms,    NIC,     NZ,  NCons,   NDum,   NFix, NCnnct, MaxDiis
       13      83       0       0       0       0       0       0

 Cartesian Hessian Update
 Hessian Updated using BFGS Update


** GEOMETRY OPTIMIZATION IN DELOCALIZED INTERNAL COORDINATES **
   Searching for a Minimum

   Optimization Cycle:   2

                       Coordinates (Angstroms)
     ATOM                X               Y               Z
      1  C         1.3227048826    0.0315988847    0.3234485202
      2  C         1.0324077685   -1.3101134747    0.8713643353
      3  C         1.9508499439   -2.0571555997    1.4548544609
      4  C        -1.7909336124    1.7561790490   -0.5496820451
      5  C        -0.8437254988    0.5835016126   -0.4747261701
      6  N         0.5407190845    0.8624454316   -0.2584991777
      7  H         2.3625974638    0.3470025352    0.4410738102
      8  H         0.0123950696   -1.6973607454    0.7864604495
      9  H         2.0059421019   -3.0329948182    1.9205575255
     10  H        -2.2814222297    2.5246326912    0.0289279472
     11  H        -1.2292141474   -0.3724631300   -0.1035624251
     12  C        -1.5057080235    1.2019437253   -1.6817269530
     13  H        -1.5766128028    1.1627838386   -2.7584902778
   Point Group: c1    Number of degrees of freedom:    33


   Energy is   -286.771083769

 Hessian Updated using BFGS Update

 33 Hessian modes will be used to form the next step
  Hessian Eigenvalues:
     0.008359    0.012050    0.017310    0.018974    0.020191    0.021322
     0.025758    0.031391    0.032899    0.040144    0.112350    0.141417
     0.156701    0.158603    0.159874    0.160000    0.160593    0.219739
     0.229737    0.269047    0.286576    0.319824    0.342607    0.344461
     0.345169    0.356622    0.357145    0.360165    0.361137    0.407132
     0.560328    0.620116    0.742433

 Minimum Search - Taking Simple RFO Step
 Searching for Lamda that Minimizes Along All modes
 Value Taken    Lamda =  -0.00000246
 Step Taken.  Stepsize is  0.012767

                             Maximum     Tolerance    Cnvgd?
         Gradient           0.000481      0.000600     YES
         Displacement       0.007360      0.002400      NO
         Energy change     -0.000004      0.000002      NO


 New Cartesian Coordinates Obtained by Inverse Iteration

 Displacement from previous Coordinates is:  0.032805
 ----------------------------------------------------------------
             Standard Nuclear Orientation (Angstroms)
    I     Atom           X                Y                Z
 ----------------------------------------------------------------
    1      C       1.3226060970     0.0301583184     0.3222678266
    2      C       1.0326435348    -1.3108371812     0.8724986329
    3      C       1.9509612267    -2.0555288657     1.4591564329
    4      C      -1.7908601742     1.7555181994    -0.5478377676
    5      C      -0.8437092676     0.5825094326    -0.4782929220
    6      N       0.5412164813     0.8602502885    -0.2617390429
    7      H       2.3628696769     0.3448928860     0.4380625218
    8      H       0.0133311209    -1.6994964361     0.7866123271
    9      H       2.0064723409    -3.0301057684     1.9274522814
   10      H      -2.2804894166     2.5220531897     0.0340418055
   11      H      -1.2286522872    -0.3749706973    -0.1106839266
   12      C      -1.5070339033     1.2055229980    -1.6823822103
   13      H      -1.5793554292     1.1700336364    -2.7591559587
 ----------------------------------------------------------------
 Nuclear Repulsion Energy =   242.3412412506 hartrees
 There are       25 alpha and       24 beta electrons
 Applying Cartesian multipole field
    Component          Value
    ---------          -----
     (2,0,0)        1.00000E-11
     (0,2,0)        2.00000E-11
     (0,0,2)       -3.00000E-11
 Nucleus-field energy     =     0.0000000045 hartrees
 Requested basis set is 6-31G(d)
 There are 40 shells and 117 basis functions
 A cutoff of  1.0D-14 yielded    752 shell pairs
 There are      6706 function pairs
 Smallest overlap matrix eigenvalue = 2.38E-03
 Guess MOs from SCF MO coefficient file
 Reading MOs from coefficient file
 Reading MOs from coefficient file
 An unrestricted hybrid HF-DFT SCF calculation will be
 performed using Pulay DIIS extrapolation
 Exchange:     0.2000 Hartree-Fock + 0.0800 Slater + 0.7200 B88
 Correlation:  0.1900 VWN1RPA + 0.8100 LYP
 Using SG-1 standard quadrature grid
 SCF converges when DIIS error is below 1.0E-08
 Geometry optimization detected.  Setting ReadMinima to 0
 Setting SaveMinima to 0
Using Q-Chem read-in guess as SCF_GUESS READ specified.

 using 4 threads for integral computing
 -------------------------------------------------------
 OpenMP Integral computing Module                
 Release: version 1.0, May 2013, Q-Chem Inc. Pittsburgh 
 -------------------------------------------------------
 -------------------------------------------------------
 OpenMP BLAS3 based DFT computing Module                
 Release: version 1.0, May 2013, Q-Chem Inc. Pittsburgh 
 -------------------------------------------------------
 ---------------------------------------
  Cycle       Energy         DIIS Error
 ---------------------------------------
    1    -286.7707173580      1.32E-04
    2    -286.7710848667      1.06E-05
    3    -286.7710848145      1.58E-05
    4    -286.7710852219      3.61E-06
    5    -286.7710852437      1.43E-06
    6    -286.7710852477      5.90E-07
    7    -286.7710852486      2.45E-07
    8    -286.7710852488      7.85E-08
    9    -286.7710852489      3.16E-08
   10    -286.7710852490      1.05E-08
   11    -286.7710852490      4.05E-09 Convergence criterion met
 ---------------------------------------
 <S^2> = 0.7654
 SCF time:  CPU 24.17 s  wall 8.88 s
 SCF   energy in the final basis set = -286.77108525
 Total energy in the final basis set = -286.77108525
 
 --------------------------------------------------------------
 
                    Orbital Energies (a.u.)
 --------------------------------------------------------------
 
 Alpha MOs
 -- Occupied --
-14.319 -10.231 -10.225 -10.222 -10.208 -10.207 -10.204  -0.924
 -0.858  -0.782  -0.650  -0.596  -0.571  -0.539  -0.503  -0.497
 -0.455  -0.418  -0.373  -0.352  -0.308  -0.276  -0.260  -0.243
 -0.228
 -- Virtual --
 -0.043   0.015   0.074   0.104   0.128   0.135   0.136   0.157
  0.189   0.224   0.237   0.247   0.318   0.345   0.365   0.383
  0.482   0.499   0.520   0.531   0.556   0.566   0.581   0.594
  0.612   0.626   0.627   0.648   0.653   0.700   0.729   0.738
  0.838   0.844   0.854   0.874   0.883   0.889   0.931   0.946
  0.970   1.031   1.037   1.054   1.103   1.192   1.218   1.257
  1.324   1.376   1.427   1.447   1.521   1.563   1.572   1.668
  1.691   1.706   1.729   1.784   1.853   1.875   1.903   1.919
  1.996   2.051   2.101   2.112   2.165   2.253   2.294   2.374
  2.376   2.412   2.418   2.420   2.536   2.604   2.690   2.747
  2.813   2.840   2.935   3.016   3.136   3.969   4.053   4.113
  4.179   4.299   4.396   4.482
 
 Beta MOs
 -- Occupied --
-14.320 -10.230 -10.224 -10.208 -10.207 -10.207 -10.206  -0.925
 -0.858  -0.768  -0.643  -0.582  -0.571  -0.534  -0.499  -0.490
 -0.447  -0.410  -0.375  -0.351  -0.305  -0.276  -0.240  -0.238
 -- Virtual --
 -0.079  -0.033   0.016   0.077   0.109   0.129   0.135   0.144
  0.159   0.189   0.225   0.238   0.248   0.324   0.344   0.378
  0.394   0.487   0.504   0.525   0.534   0.561   0.571   0.587
  0.614   0.619   0.630   0.643   0.647   0.662   0.704   0.730
  0.738   0.841   0.844   0.858   0.878   0.881   0.901   0.936
  0.950   0.974   1.037   1.041   1.056   1.111   1.200   1.220
  1.257   1.328   1.377   1.432   1.447   1.528   1.564   1.573
  1.669   1.712   1.717   1.763   1.828   1.862   1.882   1.904
  1.928   2.004   2.056   2.103   2.119   2.174   2.253   2.308
  2.374   2.376   2.412   2.420   2.429   2.538   2.605   2.691
  2.762   2.813   2.851   2.935   3.022   3.138   3.969   4.072
  4.128   4.183   4.299   4.397   4.482
 --------------------------------------------------------------
 
          Ground-State Mulliken Net Atomic Charges

     Atom                 Charge (a.u.)    Spin (a.u.)
  --------------------------------------------------------
      1 C                     0.040792       0.060670
      2 C                    -0.129028      -0.167912
      3 C                    -0.198257       1.067070
      4 C                    -0.117378      -0.002387
      5 C                    -0.014466       0.006013
      6 N                    -0.361422      -0.038993
      7 H                     0.139851       0.006299
      8 H                     0.158196       0.071628
      9 H                     0.171140       0.002603
     10 H                     0.152631      -0.000604
     11 H                     0.123151      -0.001296
     12 C                    -0.117820      -0.002494
     13 H                     0.152610      -0.000597
  --------------------------------------------------------
  Sum of atomic charges =     0.000000
  Sum of spin   charges =     1.000000

 -----------------------------------------------------------------
                    Cartesian Multipole Moments
 -----------------------------------------------------------------
    Charge (ESU x 10^10)
                 0.0000
    Dipole Moment (Debye)
         X      -1.3726      Y      -1.3593      Z       0.2777
       Tot       1.9516
    Quadrupole Moments (Debye-Ang)
        XX     -39.6004     XY      -3.5471     YY     -37.7050
        XZ       1.6901     YZ      -1.7700     ZZ     -38.4119
    Octopole Moments (Debye-Ang^2)
       XXX     -11.9967    XXY      -0.0935    XYY      -6.9713
       YYY     -24.4102    XXZ       2.7361    XYZ      -2.9835
       YYZ      12.7389    XZZ      -8.2667    YZZ      -5.7161
       ZZZ      -8.3696
    Hexadecapole Moments (Debye-Ang^3)
      XXXX    -540.0632   XXXY     183.3599   XXYY    -148.0381
      XYYY     145.7560   YYYY    -437.6563   XXXZ    -150.3220
      XXYZ      44.4075   XYYZ     -34.5935   YYYZ     118.7870
      XXZZ    -132.9001   XYZZ      49.8824   YYZZ    -113.2865
      XZZZ    -126.9446   YZZZ     123.2123   ZZZZ    -260.2241
 -----------------------------------------------------------------
 Calculating analytic gradient of the SCF energy
 Gradient of SCF Energy
            1           2           3           4           5           6
    1   0.0000793   0.0000028   0.0000076   0.0000581   0.0000491  -0.0000171
    2  -0.0000306  -0.0000070  -0.0000014   0.0001776  -0.0000937   0.0000336
    3  -0.0000117  -0.0000408   0.0000272  -0.0000004  -0.0000973   0.0001422
            7           8           9          10          11          12
    1  -0.0000052   0.0000024  -0.0000009  -0.0000045   0.0000154  -0.0002033
    2  -0.0000279   0.0000232  -0.0000048  -0.0000173   0.0000227  -0.0000884
    3  -0.0000455   0.0000354   0.0000027   0.0000096   0.0000609  -0.0000936
           13
    1   0.0000162
    2   0.0000137
    3   0.0000113
 Max gradient component =       2.033E-04
 RMS gradient           =       6.307E-05
 Gradient time:  CPU 6.61 s  wall 1.71 s
 Geometry Optimization Parameters
   NAtoms,    NIC,     NZ,  NCons,   NDum,   NFix, NCnnct, MaxDiis
       13      83       0       0       0       0       0       0

 Cartesian Hessian Update
 Hessian Updated using BFGS Update


** GEOMETRY OPTIMIZATION IN DELOCALIZED INTERNAL COORDINATES **
   Searching for a Minimum

   Optimization Cycle:   3

                       Coordinates (Angstroms)
     ATOM                X               Y               Z
      1  C         1.3226060970    0.0301583184    0.3222678266
      2  C         1.0326435348   -1.3108371812    0.8724986329
      3  C         1.9509612267   -2.0555288657    1.4591564329
      4  C        -1.7908601742    1.7555181994   -0.5478377676
      5  C        -0.8437092676    0.5825094326   -0.4782929220
      6  N         0.5412164813    0.8602502885   -0.2617390429
      7  H         2.3628696769    0.3448928860    0.4380625218
      8  H         0.0133311209   -1.6994964361    0.7866123271
      9  H         2.0064723409   -3.0301057684    1.9274522814
     10  H        -2.2804894166    2.5220531897    0.0340418055
     11  H        -1.2286522872   -0.3749706973   -0.1106839266
     12  C        -1.5070339033    1.2055229980   -1.6823822103
     13  H        -1.5793554292    1.1700336364   -2.7591559587
   Point Group: c1    Number of degrees of freedom:    33


   Energy is   -286.771085249

 Hessian Updated using BFGS Update

 33 Hessian modes will be used to form the next step
  Hessian Eigenvalues:
     0.004758    0.012147    0.017309    0.019184    0.020120    0.022865
     0.025330    0.031912    0.032831    0.040584    0.112527    0.146121
     0.156388    0.158844    0.159851    0.160025    0.160461    0.219169
     0.227880    0.270999    0.297859    0.325569    0.342583    0.344504
     0.345679    0.356719    0.360099    0.360218    0.367532    0.441828
     0.562539    0.619780    0.773055

 Minimum Search - Taking Simple RFO Step
 Searching for Lamda that Minimizes Along All modes
 Value Taken    Lamda =  -0.00000132
 Step Taken.  Stepsize is  0.014209

                             Maximum     Tolerance    Cnvgd?
         Gradient           0.000123      0.000600     YES
         Displacement       0.009029      0.002400      NO
         Energy change     -0.000001      0.000002     YES


                       Distance Matrix (Angstroms)
             C (  1)   C (  2)   C (  3)   C (  4)   C (  5)   N (  6)
   C (  2)  1.478209
   C (  3)  2.457120  1.319864
   C (  4)  3.664372  4.403642  5.705553
   C (  5)  2.374639  2.988327  4.303852  1.509265
   N (  6)  1.280893  2.498323  3.667510  2.514347  1.429005
   H (  7)  1.092984  2.167874  2.640895  4.496147  3.343399  2.018350
   H (  8)  2.218450  1.094272  2.081702  4.119829  2.746280  2.816027
   H (  9)  3.522713  2.239900  1.082674  6.591585  5.192507  4.698341
   H ( 10)  4.390320  5.135261  6.394559  1.079767  2.467520  3.288024
   H ( 11)  2.619255  2.637414  3.924107  2.246367  1.095484  2.163567
   C ( 12)  3.661552  4.394251  5.697495  1.292379  1.509297  2.516500
   H ( 13)  4.383591  5.115288  6.376641  2.297271  2.467528  3.290879
             H (  7)   H (  8)   H (  9)   H ( 10)   H ( 11)   C ( 12)
   H (  8)  3.133903
   H (  9)  3.706200  2.654176
   H ( 10)  5.144321  4.863071  7.265639
   H ( 11)  3.703830  2.025347  4.655080  3.085459
   C ( 12)  4.495901  4.104459  6.581503  2.297302  2.246262
   H ( 13)  5.142393  4.831493  7.243178  3.181430  3.086168  1.079783

 
 Final energy is   -286.771085248961     


 ******************************
 **  OPTIMIZATION CONVERGED  **
 ******************************

                       Coordinates (Angstroms)
     ATOM                X               Y               Z
      1  C         1.3226060970    0.0301583184    0.3222678266
      2  C         1.0326435348   -1.3108371812    0.8724986329
      3  C         1.9509612267   -2.0555288657    1.4591564329
      4  C        -1.7908601742    1.7555181994   -0.5478377676
      5  C        -0.8437092676    0.5825094326   -0.4782929220
      6  N         0.5412164813    0.8602502885   -0.2617390429
      7  H         2.3628696769    0.3448928860    0.4380625218
      8  H         0.0133311209   -1.6994964361    0.7866123271
      9  H         2.0064723409   -3.0301057684    1.9274522814
     10  H        -2.2804894166    2.5220531897    0.0340418055
     11  H        -1.2286522872   -0.3749706973   -0.1106839266
     12  C        -1.5070339033    1.2055229980   -1.6823822103
     13  H        -1.5793554292    1.1700336364   -2.7591559587

Z-matrix Print:
$molecule
0 2
N 
C  1 1.280893
H  2 1.092984 1 116.250692
C  1 1.429005 2 122.300202 3 -179.855653 0
H  4 1.095484 1 117.359644 2 0.823215 0
C  2 1.478209 1 129.639231 3 -179.930668 0
H  6 1.094272 2 118.405794 1 0.443898 0
C  6 1.319864 2 122.739104 1 -179.649572 0
H  8 1.082674 6 137.376079 2 -179.936096 0
C  4 1.509265 1 117.653644 2 151.746631 0
H  10 1.079767 4 144.241168 1 -72.366466 0
C  10 1.292379 4 64.651442 1 104.587530 0
H  12 1.079783 10 151.009978 4 -175.985632 0
$end

 
 --------------------------------------------------------------
 
                    Orbital Energies (a.u.)
 --------------------------------------------------------------
 
 Alpha MOs
 -- Occupied --
-14.319 -10.231 -10.225 -10.222 -10.208 -10.207 -10.204  -0.924
 -0.858  -0.782  -0.650  -0.596  -0.571  -0.539  -0.503  -0.497
 -0.455  -0.418  -0.373  -0.352  -0.308  -0.276  -0.260  -0.243
 -0.228
 -- Virtual --
 -0.043   0.015   0.074   0.104   0.128   0.135   0.136   0.157
  0.189   0.224   0.237   0.247   0.318   0.345   0.365   0.383
  0.482   0.499   0.520   0.531   0.556   0.566   0.581   0.594
  0.612   0.626   0.627   0.648   0.653   0.700   0.729   0.738
  0.838   0.844   0.854   0.874   0.883   0.889   0.931   0.946
  0.970   1.031   1.037   1.054   1.103   1.192   1.218   1.257
  1.324   1.376   1.427   1.447   1.521   1.563   1.572   1.668
  1.691   1.706   1.729   1.784   1.853   1.875   1.903   1.919
  1.996   2.051   2.101   2.112   2.165   2.253   2.294   2.374
  2.376   2.412   2.418   2.420   2.536   2.604   2.690   2.747
  2.813   2.840   2.935   3.016   3.136   3.969   4.053   4.113
  4.179   4.299   4.396   4.482
 
 Beta MOs
 -- Occupied --
-14.320 -10.230 -10.224 -10.208 -10.207 -10.207 -10.206  -0.925
 -0.858  -0.768  -0.643  -0.582  -0.571  -0.534  -0.499  -0.490
 -0.447  -0.410  -0.375  -0.351  -0.305  -0.276  -0.240  -0.238
 -- Virtual --
 -0.079  -0.033   0.016   0.077   0.109   0.129   0.135   0.144
  0.159   0.189   0.225   0.238   0.248   0.324   0.344   0.378
  0.394   0.487   0.504   0.525   0.534   0.561   0.571   0.587
  0.614   0.619   0.630   0.643   0.647   0.662   0.704   0.730
  0.738   0.841   0.844   0.858   0.878   0.881   0.901   0.936
  0.950   0.974   1.037   1.041   1.056   1.111   1.200   1.220
  1.257   1.328   1.377   1.432   1.447   1.528   1.564   1.573
  1.669   1.712   1.717   1.763   1.828   1.862   1.882   1.904
  1.928   2.004   2.056   2.103   2.119   2.174   2.253   2.308
  2.374   2.376   2.412   2.420   2.429   2.538   2.605   2.691
  2.762   2.813   2.851   2.935   3.022   3.138   3.969   4.072
  4.128   4.183   4.299   4.397   4.482
 --------------------------------------------------------------
 
          Ground-State Mulliken Net Atomic Charges

     Atom                 Charge (a.u.)    Spin (a.u.)
  --------------------------------------------------------
      1 C                     0.040792       0.060670
      2 C                    -0.129028      -0.167912
      3 C                    -0.198257       1.067070
      4 C                    -0.117378      -0.002387
      5 C                    -0.014466       0.006013
      6 N                    -0.361422      -0.038993
      7 H                     0.139851       0.006299
      8 H                     0.158196       0.071628
      9 H                     0.171140       0.002603
     10 H                     0.152631      -0.000604
     11 H                     0.123151      -0.001296
     12 C                    -0.117820      -0.002494
     13 H                     0.152610      -0.000597
  --------------------------------------------------------
  Sum of atomic charges =     0.000000
  Sum of spin   charges =     1.000000

 -----------------------------------------------------------------
                    Cartesian Multipole Moments
 -----------------------------------------------------------------
    Charge (ESU x 10^10)
                 0.0000
    Dipole Moment (Debye)
         X      -1.3726      Y      -1.3593      Z       0.2777
       Tot       1.9516
    Quadrupole Moments (Debye-Ang)
        XX     -39.6004     XY      -3.5471     YY     -37.7050
        XZ       1.6901     YZ      -1.7700     ZZ     -38.4119
    Octopole Moments (Debye-Ang^2)
       XXX     -11.9967    XXY      -0.0935    XYY      -6.9713
       YYY     -24.4102    XXZ       2.7361    XYZ      -2.9835
       YYZ      12.7389    XZZ      -8.2667    YZZ      -5.7161
       ZZZ      -8.3696
    Hexadecapole Moments (Debye-Ang^3)
      XXXX    -540.0632   XXXY     183.3599   XXYY    -148.0381
      XYYY     145.7560   YYYY    -437.6563   XXXZ    -150.3220
      XXYZ      44.4075   XYYZ     -34.5935   YYYZ     118.7870
      XXZZ    -132.9001   XYZZ      49.8824   YYZZ    -113.2865
      XZZZ    -126.9446   YZZZ     123.2123   ZZZZ    -260.2241
 -----------------------------------------------------------------
Archival summary:
1\1\c8-85\OPT\ProcedureUnspecified\6-31G*\166(2)\hpark21\WedMar218:03:032022WedMar218:03:032022\0\\#,OPT,ProcedureUnspecified,6-31G*,\\0,2\N\C,1,1.28089\H,2,1.09298,1,116.251\C,1,1.429,2,122.3,3,-179.856,0\H,4,1.09548,1,117.36,2,0.823215,0\C,2,1.47821,1,129.639,3,-179.931,0\H,6,1.09427,2,118.406,1,0.443898,0\C,6,1.31986,2,122.739,1,-179.65,0\H,8,1.08267,6,137.376,2,-179.936,0\C,4,1.50927,1,117.654,2,151.747,0\H,10,1.07977,4,144.241,1,-72.3665,0\C,10,1.29238,4,64.6514,1,104.588,0\H,12,1.07978,10,151.01,4,-175.986,0\\\@

 Total job time:  28.83s(wall), 78.72s(cpu) 
 Wed Mar  2 18:03:03 2022

        *************************************************************
        *                                                           *
        *  Thank you very much for using Q-Chem.  Have a nice day.  *
        *                                                           *
        *************************************************************


