13   
From optimize.out: Frame 1 / 3, Energy=    -286.7710800071
C        0.0406180000    0.0606740000    0.0000000000
C       -0.1289320000   -0.1678730000    0.0000000000
C       -0.1981920000    1.0671280000    0.0000000000
C       -0.1173910000   -0.0023670000   -0.0000000000
C       -0.0143790000    0.0059640000   -0.0000000000
N       -0.3613470000   -0.0390780000   -0.0000000000
H        0.1397980000    0.0062860000    0.0000000000
H        0.1581200000    0.0716870000    0.0000000000
H        0.1711320000    0.0026040000    0.0000000000
H        0.1526000000   -0.0006100000    0.0000000000
H        0.1232510000   -0.0012780000   -0.0000000000
C       -0.1178220000   -0.0025450000   -0.0000000000
H        0.1525430000   -0.0005930000   -0.0000000000
13   
From optimize.out: Frame 2 / 3, Energy=    -286.7710837686
C        0.0408910000    0.0606580000    0.0000000000
C       -0.1290390000   -0.1679010000    0.0000000000
C       -0.1983560000    1.0670530000    0.0000000000
C       -0.1173650000   -0.0023570000   -0.0000000000
C       -0.0144290000    0.0060360000   -0.0000000000
N       -0.3614000000   -0.0389970000   -0.0000000000
H        0.1398560000    0.0062930000    0.0000000000
H        0.1582090000    0.0716190000    0.0000000000
H        0.1711240000    0.0026150000    0.0000000000
H        0.1526210000   -0.0006070000    0.0000000000
H        0.1231980000   -0.0013030000   -0.0000000000
C       -0.1178940000   -0.0025150000   -0.0000000000
H        0.1525820000   -0.0005950000   -0.0000000000
