13   
From optimize.out: Frame 1 / 2, Energy=    -286.8505804601
C       -0.0695170000    0.0429350000    0.0000000000
C       -0.1032150000   -0.1675200000   -0.0000000000
C       -0.1984800000    1.0405160000   -0.0000000000
C       -0.1421480000    0.0003150000    0.0000000000
C        0.0558410000    0.0047760000   -0.0000000000
N       -0.3774520000   -0.0034980000   -0.0000000000
H        0.1810170000   -0.0043590000    0.0000000000
H        0.1639460000    0.0786130000   -0.0000000000
H        0.1639820000    0.0048560000   -0.0000000000
H        0.1401690000    0.0001370000    0.0000000000
H        0.1434780000   -0.0001360000   -0.0000000000
C       -0.1108070000    0.0028860000    0.0000000000
H        0.1531860000    0.0004800000    0.0000000000
