13   
From optimize.out: Frame 20 / 21, Energy=    -286.8754792730
C        1.6790276777    0.4830999984   -0.3260927528
C        1.1480824923   -0.8118775612   -0.4378191510
C       -0.3405772721   -0.7026571801   -0.4748621500
C       -1.2156312520    0.6018872471    0.9537731764
C       -0.5216060231    0.8648089160   -0.3834391384
N        0.7980311247    1.4779680468   -0.2908272691
H        2.7418748682    0.7076444539   -0.2455474248
H        1.7219389641   -1.7321137312   -0.4438373823
H       -0.8234852605   -1.2474930973   -1.2968410911
H       -1.6253226247    1.2818949857    1.6946776604
H       -1.1307923854    1.3573470143   -1.1512337864
C       -1.0771352298   -0.7264035322    0.8767470070
H       -1.3544050797   -1.5541055605    1.5253023026
13   
From optimize.out: Frame 18 / 21, Energy=    -286.8753728372
C        1.6833261595    0.4817028514   -0.3306950312
C        1.1512034481   -0.8145103242   -0.4370771208
C       -0.3385775611   -0.7040969592   -0.4676608576
C       -1.2233154013    0.6009430434    0.9527776211
C       -0.5218340142    0.8661984702   -0.3796897212
N        0.8028090470    1.4781570648   -0.2864843382
H        2.7468533533    0.7056619324   -0.2571305296
H        1.7248313533   -1.7351418763   -0.4381567781
H       -0.8270244639   -1.2248294546   -1.3018998258
H       -1.6372643307    1.2787049445    1.6935208999
H       -1.1324912448    1.3476681097   -1.1537002976
C       -1.0755988397   -0.7270498440    0.8783196175
H       -1.3529175056   -1.5534079581    1.5278763617
13   
From optimize.out: Frame 16 / 21, Energy=    -286.8748748160
C        1.6810234189    0.4815074463   -0.3366413110
C        1.1568544343   -0.8156923460   -0.4319174368
C       -0.3321838090   -0.7017939312   -0.4768372024
C       -1.2052492451    0.6022717020    0.9624886196
C       -0.5298682152    0.8658203707   -0.3879099887
N        0.7902463852    1.4678498323   -0.3078935765
H        2.7431371888    0.7131609526   -0.2633009211
H        1.7260378573   -1.7385288313   -0.4190878599
H       -0.7990337974   -1.2729194827   -1.2902331138
H       -1.6227724834    1.2827916097    1.6988235441
H       -1.1460654713    1.3994663176   -1.1216603531
C       -1.0827201928   -0.7259365054    0.8693858313
H       -1.3794060704   -1.5579971345    1.5047837683
13   
From optimize.out: Frame 14 / 21, Energy=    -286.8745636639
C        1.6728946675    0.4873255731   -0.3448110260
C        1.1412818284   -0.8116811424   -0.4267288580
C       -0.3579668766   -0.7057598200   -0.4857236776
C       -1.2005650718    0.5875735165    0.9533694569
C       -0.5154385521    0.8617197410   -0.3933204849
N        0.7917336600    1.4833113530   -0.3219449959
H        2.7342576553    0.7184764848   -0.2720126785
H        1.7107251138   -1.7272044718   -0.3067459917
H       -0.8254995305   -1.2066491520   -1.3438358905
H       -1.5600537058    1.2637295280    1.7227343201
H       -1.1525908118    1.3618683058   -1.1338709123
C       -1.0797186621   -0.7429531038    0.8533478701
H       -1.3590597142   -1.5697568122    1.4995428682
13   
From optimize.out: Frame 13 / 21, Energy=    -286.8723117886
C        1.6616279311    0.4888447972   -0.3502446541
C        1.1292228119   -0.8048260049   -0.3991937043
C       -0.3691090878   -0.7084854962   -0.5128052124
C       -1.1646132204    0.5754557509    0.9638103678
C       -0.5213883342    0.8841171877   -0.3908922647
N        0.7806251931    1.4836944995   -0.3935641887
H        2.7176037864    0.7284013481   -0.2594599899
H        1.6891401320   -1.7096638453   -0.1827440033
H       -0.8222815816   -1.1883527742   -1.3905491471
H       -1.4556473124    1.2376202714    1.7731396419
H       -1.1889253950    1.3408517310   -1.1327392000
C       -1.0852296689   -0.7521162180    0.8181952300
H       -1.3710252543   -1.5755412473    1.4570471249
13   
From optimize.out: Frame 12 / 21, Energy=    -286.8687055824
C        1.6472937383    0.4951313453   -0.3267090785
C        1.1184373419   -0.7940663644   -0.3917772237
C       -0.3791810900   -0.7173274447   -0.5168769246
C       -1.1383435086    0.5583926275    0.9511339381
C       -0.5195214995    0.8548860067   -0.4124300363
N        0.7654113172    1.4811969919   -0.4430597355
H        2.6993528119    0.7393272805   -0.2170499756
H        1.6790083640   -1.6881000368   -0.1309137093
H       -0.8490635590   -1.1148936635   -1.4260605231
H       -1.3576518483    1.2276782356    1.7772797233
H       -1.2059361719    1.3066353858   -1.1391205037
C       -1.0900741491   -0.7670762214    0.8134022642
H       -1.3697317470   -1.5817841423    1.4621817847
13   
From optimize.out: Frame 11 / 21, Energy=    -286.8625629266
C        1.6363121604    0.5000672403   -0.3218308522
C        1.1086280961   -0.7847664414   -0.3729015191
C       -0.3826882059   -0.7371362094   -0.5270096526
C       -1.1115537325    0.5439233333    0.9483571398
C       -0.5248383481    0.8727562934   -0.4133147006
N        0.7595104150    1.4813456525   -0.5131245728
H        2.6856616849    0.7437108699   -0.1945250780
H        1.6644342111   -1.6621439067   -0.0469162523
H       -0.8546439704   -1.0840300163   -1.4551478599
H       -1.2600677546    1.1999336160    1.8020975390
H       -1.2350113766    1.2909783705   -1.1353726853
C       -1.1018119266   -0.7775308807    0.7904540528
H       -1.3839312527   -1.5871079215    1.4392344411
13   
From optimize.out: Frame 10 / 21, Energy=    -286.8540420596
C        1.6240797709    0.5080141879   -0.3071104223
C        1.1030708980   -0.7728983586   -0.3658797997
C       -0.3796170087   -0.7584588946   -0.5286989103
C       -1.0887100562    0.5290220406    0.9426603061
C       -0.5295047996    0.8788915119   -0.4179394177
N        0.7542629437    1.4758134373   -0.5796424711
H        2.6726948415    0.7487936825   -0.1648038443
H        1.6586227663   -1.6360495730   -0.0001875291
H       -0.8582118994   -1.0447683717   -1.4724719074
H       -1.1689527456    1.1769380384    1.8136885812
H       -1.2565805185    1.2725355657   -1.1340817515
C       -1.1222133264   -0.7862409610    0.7815049438
H       -1.4089408659   -1.5915923055    1.4329622223
13   
From optimize.out: Frame 9 / 21, Energy=    -286.8427474377
C        1.6179460595    0.5124382952   -0.3021233890
C        1.1065454232   -0.7680518838   -0.3629781140
C       -0.3664643899   -0.7964036212   -0.5224687443
C       -1.0827886907    0.5196106433    0.9370955847
C       -0.5393884876    0.9163015618   -0.4119584940
N        0.7588256036    1.4713307096   -0.6388096029
H        2.6707381591    0.7438615307   -0.1595067589
H        1.6697582543   -1.6143833546    0.0310006518
H       -0.8443081369   -1.0350753231   -1.4776164358
H       -1.1137860935    1.1493917422    1.8267585178
H       -1.2796680616    1.2857021552   -1.1253898521
C       -1.1501204038   -0.7909865965    0.7745923258
H       -1.4472892357   -1.5937358587    1.4314043110
13   
From optimize.out: Frame 8 / 21, Energy=    -286.8275226693
C        1.6099628716    0.5127051142   -0.3162930290
C        1.1175934703   -0.7766264278   -0.3633225495
C       -0.3431893275   -0.8636803399   -0.5195084554
C       -1.0890587067    0.5193268289    0.9287391620
C       -0.5533252423    0.9856355892   -0.3964389929
N        0.7644457464    1.4790577778   -0.6857467400
H        2.6692447565    0.7313741514   -0.1769583840
H        1.6974232804   -1.5939663699    0.0672944937
H       -0.8072760112   -1.0961436232   -1.4812208415
H       -1.0750161166    1.1159213364    1.8438906239
H       -1.3040000478    1.3658494596   -1.0913927129
C       -1.1890010354   -0.7915559680    0.7600836828
H       -1.4978036375   -1.5878975287    1.4308737429
13   
From optimize.out: Frame 7 / 21, Energy=    -286.8081201075
C        1.6044331048    0.5125583154   -0.3347126590
C        1.1329948933   -0.7882688667   -0.3669002343
C       -0.3132613807   -0.9267218207   -0.5195616919
C       -1.1034635689    0.5234703306    0.9239161420
C       -0.5742924089    1.0469765521   -0.3765763740
N        0.7784016285    1.4900185828   -0.7327801945
H        2.6714065339    0.7150684748   -0.1991688881
H        1.7278910422   -1.5741682572    0.1012246304
H       -0.7600649398   -1.1618849124   -1.4872738486
H       -1.0422051967    1.0833734705    1.8627255040
H       -1.3334273427    1.4464301367   -1.0493461892
C       -1.2355592950   -0.7873561593    0.7466179385
H       -1.5528530702   -1.5794958466    1.4318358647
13   
From optimize.out: Frame 6 / 21, Energy=    -286.7798769413
C        1.6162297194    0.5123057953   -0.3618528212
C        1.1556305808   -0.8013109984   -0.3787499499
C       -0.2751835840   -0.9769731709   -0.5235324112
C       -1.1389184079    0.5321313237    0.9249643228
C       -0.6075485951    1.0958115209   -0.3505781525
N        0.8195919047    1.5134020180   -0.7758494538
H        2.6931324668    0.6883702503   -0.2294982788
H        1.7622306888   -1.5590387084    0.1204177396
H       -0.7050629114   -1.2230952424   -1.4944177422
H       -1.0429944336    1.0596321728    1.8826187288
H       -1.3737300877    1.5146006758   -1.0018370348
C       -1.2906990817   -0.7811391778    0.7442525408
H       -1.6126782590   -1.5746964589    1.4440625124
13   
From optimize.out: Frame 5 / 21, Energy=    -286.7419989578
C        1.6402940155    0.5091283080   -0.3928792279
C        1.1865399948   -0.8209547290   -0.3956160187
C       -0.2308416777   -1.0174024145   -0.5326208745
C       -1.1856002845    0.5483128470    0.9329195586
C       -0.6494358904    1.1381748486   -0.3222428699
N        0.8665399594    1.5370133489   -0.8124563250
H        2.7263128443    0.6599171741   -0.2622943239
H        1.8018435634   -1.5554925634    0.1269168850
H       -0.6424373181   -1.2779038928   -1.5061209303
H       -1.0664709613    1.0486865108    1.9057122977
H       -1.4257576787    1.5719479022   -0.9511329250
C       -1.3472219602   -0.7708607307    0.7478315977
H       -1.6737646066   -1.5705666091    1.4619831562
13   
From optimize.out: Frame 4 / 21, Energy=    -286.6973519848
C        1.6715864903    0.5035787330   -0.4249994221
C        1.2250170462   -0.8480455878   -0.4151753090
C       -0.1809780973   -1.0508511790   -0.5436726911
C       -1.2379662710    0.5722702914    0.9472682283
C       -0.6960134768    1.1778675892   -0.2932915409
N        0.9074479135    1.5571936945   -0.8467811055
H        2.7666414003    0.6327964421   -0.2958436819
H        1.8464185321   -1.5641393744    0.1250795816
H       -0.5716269299   -1.3239237732   -1.5211957522
H       -1.1007243118    1.0495805243    1.9332290896
H       -1.4876320127    1.6191593731   -0.8981997820
C       -1.4045492256   -0.7563604152    0.7527413158
H       -1.7376210572   -1.5691263179    1.4808410694
13   
From optimize.out: Frame 3 / 21, Energy=    -286.6490635098
C        1.7024321325    0.4943591393   -0.4556199138
C        1.2706821153   -0.8792433925   -0.4356305760
C       -0.1251852228   -1.0700353610   -0.5537813150
C       -1.2917349867    0.6023830945    0.9671862475
C       -0.7468227216    1.2106770461   -0.2662486839
N        0.9297853230    1.5612466285   -0.8871992675
H        2.8070167509    0.6059839185   -0.3254140015
H        1.8897481128   -1.5813159878    0.1247100315
H       -0.4834544996   -1.3543220375   -1.5386094089
H       -1.1252708555    1.0559212748    1.9654428827
H       -1.5626909955    1.6522296665   -0.8379902355
C       -1.4617707829   -0.7323090398    0.7520229465
H       -1.8027343698   -1.5655749495    1.4911312937
13   
From optimize.out: Frame 1 / 21, Energy=    -286.5896370306
C        1.7300183582    0.4801186671   -0.4844647389
C        1.3208856074   -0.9153481476   -0.4579064742
C       -0.0663153742   -1.0857539017   -0.5627058820
C       -1.3465892091    0.6388723043    0.9854086666
C       -0.7963409116    1.2472255600   -0.2386779028
N        0.9345676323    1.5653483125   -0.9322455354
H        2.8462314873    0.5729486754   -0.3512095703
H        1.9355563990   -1.6067670019    0.1181606501
H       -0.3841214794   -1.3811003430   -1.5553483866
H       -1.1545850072    1.0719555330    1.9949209090
H       -1.6408775933    1.6872653577   -0.7677884750
C       -1.5139002862   -0.7084428970    0.7472994416
H       -1.8645296232   -1.5663221188    1.5045572979
13   
C6H6N->C6H6N atoms 1-13 frame 308 charge +0.000 sz -1.000 sz^2 2.148
C        1.7300183582    0.4801186671   -0.4844647389
C        1.3208856074   -0.9153481476   -0.4579064742
C       -0.0663153742   -1.0857539017   -0.5627058820
C       -1.3465892091    0.6388723043    0.9854086666
C       -0.7963409116    1.2472255600   -0.2386779028
N        0.9345676323    1.5653483125   -0.9322455354
H        2.8462314873    0.5729486754   -0.3512095703
H        1.9355563990   -1.6067670019    0.1181606501
H       -0.3841214794   -1.3811003430   -1.5553483866
H       -1.1545850072    1.0719555330    1.9949209090
H       -1.6408775933    1.6872653577   -0.7677884750
C       -1.5139002862   -0.7084428970    0.7472994416
H       -1.8645296232   -1.5663221188    1.5045572979
13   
C6H6N->C6H6N atoms 1-13 frame 309 charge +0.000 sz -1.000 sz^2 2.121
C        1.7274041883    0.4759872854   -0.4784153850
C        1.3238417325   -0.9265043619   -0.4507292309
C       -0.0794325676   -1.0925903498   -0.5509873855
C       -1.3464862608    0.6420192424    0.9765855854
C       -0.7928537296    1.2576092535   -0.2420127405
N        0.9314418406    1.5509293771   -0.9233752181
H        2.8514653307    0.6097102588   -0.3703736422
H        1.9431215667   -1.6294168334    0.1184657912
H       -0.3541032527   -1.3591894458   -1.5545125176
H       -1.1188585673    1.0647586966    1.9790279632
H       -1.6618768382    1.6898578094   -0.7624505018
C       -1.5391081046   -0.7150956490    0.7555795228
H       -1.8845553381   -1.5680752833    1.5031977592
13   
C6H6N->C6H6N atoms 1-13 frame 310 charge -0.000 sz -1.000 sz^2 2.078
C        1.7251193353    0.4711719845   -0.4721844785
C        1.3271203028   -0.9373273501   -0.4424848290
C       -0.0932273713   -1.0998079278   -0.5385321873
C       -1.3453347075    0.6440241897    0.9688427504
C       -0.7886030838    1.2674810544   -0.2447947594
N        0.9279031719    1.5358656634   -0.9133913737
H        2.8539358803    0.6472571422   -0.3902334758
H        1.9514415545   -1.6525485894    0.1178617479
H       -0.3269523170   -1.3383622779   -1.5539031968
H       -1.0858879365    1.0571126730    1.9633013231
H       -1.6798712148    1.6933567793   -0.7584599154
C       -1.5633156191   -0.7224587934    0.7648876945
H       -1.9023279947   -1.5657645480    1.4990907000
13   
C6H6N->C6H6N atoms 1-13 frame 311 charge +0.000 sz -1.000 sz^2 2.039
C        1.7232461306    0.4658360962   -0.4657971633
C        1.3307923589   -0.9477118599   -0.4331099070
C       -0.1073885334   -1.1073728757   -0.5252743133
C       -1.3431703565    0.6448263553    0.9620856625
C       -0.7836619803    1.2768327355   -0.2471644377
N        0.9238858624    1.5202801463   -0.9024019540
H        2.8531637362    0.6851232351   -0.4106743406
H        1.9603604291   -1.6755644785    0.1162265231
H       -0.3030160566   -1.3187830146   -1.5541104993
H       -1.0557823219    1.0493468895    1.9480416701
H       -1.6941455674    1.6974047249   -0.7557409993
C       -1.5863826263   -0.7303815052    0.7751303402
H       -1.9179010750   -1.5598364488    1.4927894187
13   
C6H6N->C6H6N atoms 1-13 frame 312 charge -0.000 sz -1.000 sz^2 1.984
C        1.7218509086    0.4601514697   -0.4593129878
C        1.3349141728   -0.9575419061   -0.4225992100
C       -0.1216421472   -1.1152432801   -0.5112319219
C       -1.3400454264    0.6443892280    0.9561691347
C       -0.7781020730    1.2856722757   -0.2492937257
N        0.9193262620    1.5043172469   -0.8905433968
H        2.8488079641    0.7228247109   -0.4315732975
H        1.9697289299   -1.6978978940    0.1134274218
H       -0.2824836453   -1.3004561191   -1.5554193002
H       -1.0286148656    1.0417824864    1.9335091309
H       -1.7040831788    1.7017172432   -0.7542821801
C       -1.6081773379   -0.7386792057    0.7861298381
H       -1.9314795632   -1.5510362557    1.4850204946
13   
From optimize.out: Frame 1 / 37, Energy=    -286.5877433464
C        1.7209881142    0.4543015732   -0.4528232701
C        1.3395280936   -0.9666869127   -0.4110105452
C       -0.1357442062   -1.1233607900   -0.4965177718
C       -1.3360252759    0.6427080200    0.9508949297
C       -0.7719803215    1.2940302327   -0.2513869571
N        0.9141716144    1.4881475142   -0.8779746204
H        2.8406857791    0.7598767376   -0.4527998775
H        1.9794136612   -1.7190294443    0.1093286853
H       -0.2654119107   -1.2832335484   -1.5577826961
H       -1.0044105028    1.0347150902    1.9199075363
H       -1.7091929025    1.7061046204   -0.7541531889
C       -1.6285780022   -0.7471278447    0.7976110708
H       -1.9434441406   -1.5404452481    1.4767067049
13   
From optimize.out: Frame 2 / 37, Energy=    -286.6430874522
C        1.6792738442    0.4651788160   -0.4244919217
C        1.2884234036   -0.9290456197   -0.3910105483
C       -0.1746390702   -1.1148066011   -0.4998487478
C       -1.2799165360    0.6079201425    0.9310092957
C       -0.7254505724    1.2666290362   -0.2745359044
N        0.8889421149    1.4925494200   -0.8456238983
H        2.7826899502    0.7549577181   -0.4101651956
H        1.9271260873   -1.6751674769    0.1214718545
H       -0.3633298766   -1.2718221131   -1.5579399664
H       -0.9817161702    1.0198824403    1.9027390119
H       -1.6197318368    1.6803160757   -0.8196851187
C       -1.5559917313   -0.7571437746    0.7885598018
H       -1.8656796066   -1.5394480636    1.4795213372
13   
From optimize.out: Frame 3 / 37, Energy=    -286.6952452699
C        1.6337912952    0.4708338725   -0.3938095064
C        1.2417141555   -0.8971217200   -0.3740666873
C       -0.2112325512   -1.1027718238   -0.5048418773
C       -1.2254633315    0.5802412114    0.9130491879
C       -0.6797461721    1.2407151707   -0.2988989997
N        0.8435746168    1.4865667765   -0.8160333619
H        2.7227525389    0.7524914032   -0.3618252155
H        1.8764987138   -1.6406503258    0.1330512547
H       -0.4471811925   -1.2596745649   -1.5560175077
H       -0.9496402058    1.0104752284    1.8836670259
H       -1.5383299313    1.6560199089   -0.8733602992
C       -1.4816528289   -0.7623558066    0.7734219747
H       -1.7850851069   -1.5347693303    1.4756640117
13   
From optimize.out: Frame 4 / 37, Energy=    -286.7425620681
C        1.5896125616    0.4737155780   -0.3641775106
C        1.1998103107   -0.8724476775   -0.3573689320
C       -0.2452488231   -1.0956937479   -0.5069079191
C       -1.1720936578    0.5590588538    0.8950691611
C       -0.6349515549    1.2239489269   -0.3236053130
N        0.7879474719    1.4782518765   -0.7863445387
H        2.6651147757    0.7533335583   -0.3156425262
H        1.8330234748   -1.6145167493    0.1422782083
H       -0.5244121584   -1.2529227134   -1.5498939507
H       -0.9177072832    1.0053040623    1.8642957766
H       -1.4632007806    1.6425863037   -0.9208336613
C       -1.4101390516   -0.7689159098    0.7547906901
H       -1.7077552851   -1.5317023615    1.4683405155
13   
From optimize.out: Frame 5 / 37, Energy=    -286.7816333387
C        1.5489082541    0.4724636718   -0.3382241882
C        1.1637101627   -0.8567292738   -0.3413428003
C       -0.2751843635   -1.1022350609   -0.5056665940
C       -1.1231945638    0.5449087874    0.8745015420
C       -0.5951322935    1.2254229003   -0.3455997240
N        0.7272792974    1.4693404067   -0.7558684171
H        2.6117891913    0.7532117124   -0.2736439746
H        1.8002219450   -1.5953485817    0.1494264432
H       -0.5956951292   -1.2649177690   -1.5380709584
H       -0.8940346819    1.0016488276    1.8446546211
H       -1.3974785706    1.6545764134   -0.9576577719
C       -1.3396732115   -0.7760936969    0.7296084649
H       -1.6315160365   -1.5262483373    1.4578833572
13   
From optimize.out: Frame 6 / 37, Energy=    -286.8072292042
C        1.5219670657    0.4650093440   -0.3228506725
C        1.1371760189   -0.8506202486   -0.3270465853
C       -0.2979581278   -1.1315568723   -0.4977630424
C       -1.0904688490    0.5380993425    0.8506503896
C       -0.5704200831    1.2556381725   -0.3575354072
N        0.6815180564    1.4665073650   -0.7299583361
H        2.5758395173    0.7424951149   -0.2440095281
H        1.7851268349   -1.5838182530    0.1499518231
H       -0.6566770054   -1.3112870632   -1.5159634311
H       -0.9058790229    0.9997125715    1.8270234184
H       -1.3513692539    1.7094354406   -0.9734315237
C       -1.2700480357   -0.7841713473    0.6961689679
H       -1.5588071154   -1.5154435665    1.4447639274
13   
From optimize.out: Frame 7 / 37, Energy=    -286.8220107331
C        1.5195047114    0.4525138191   -0.3217353621
C        1.1277349924   -0.8526555864   -0.3212098905
C       -0.3066378714   -1.1645100179   -0.4852514143
C       -1.0859448391    0.5375739527    0.8332687537
C       -0.5671988954    1.2939648155   -0.3553179356
N        0.6703364150    1.4681214443   -0.7146067423
H        2.5702384538    0.7213423455   -0.2333073182
H        1.7923230757   -1.5882757104    0.1262446942
H       -0.6950055123   -1.3683277921   -1.4879567723
H       -0.9801395854    1.0100510214    1.8151422830
H       -1.3299700801    1.7823453461   -0.9666106050
C       -1.2098976158   -0.7905133737    0.6723866506
H       -1.5053432489   -1.5016302643    1.4389536590
13   
From optimize.out: Frame 8 / 37, Energy=    -286.8329242316
C        1.5172388474    0.4383971853   -0.3266847653
C        1.1301484350   -0.8617854509   -0.3274436026
C       -0.3002277452   -1.2062616602   -0.4824141828
C       -1.0911490442    0.5424937477    0.8236350992
C       -0.5646343505    1.3287892966   -0.3433576275
N        0.6608678945    1.4653724505   -0.6995295272
H        2.5646639471    0.7064507705   -0.2336935006
H        1.8157059755   -1.5994616910    0.0831766408
H       -0.7093827265   -1.4399934697   -1.4700238538
H       -1.0717120528    1.0245961272    1.8051730064
H       -1.3043529715    1.8651791904   -0.9410010365
C       -1.1677521093   -0.7883313974    0.6640572345
H       -1.4794140995   -1.4754450991    1.4481061153
13   
From optimize.out: Frame 9 / 37, Energy=    -286.8424465427
C        1.5221079570    0.4252118061   -0.3353814345
C        1.1338757339   -0.8722370083   -0.3288072943
C       -0.2940523776   -1.2366896463   -0.4716983392
C       -1.1019734515    0.5476015629    0.8115396871
C       -0.5679735940    1.3640672336   -0.3295285690
N        0.6640693991    1.4644724555   -0.6911266624
H        2.5697775407    0.6901961007   -0.2430719779
H        1.8374366417   -1.6145272779    0.0430915889
H       -0.7203668992   -1.5063611020   -1.4415677232
H       -1.1703005263    1.0332466969    1.7877756428
H       -1.2880728187    1.9484193291   -0.9070668159
C       -1.1297483064   -0.7862765450    0.6554810833
H       -1.4547792985   -1.4571236053    1.4503608141
13   
From optimize.out: Frame 10 / 37, Energy=    -286.8508919661
C        1.5189468238    0.4134262118   -0.3462597739
C        1.1403196241   -0.8846358419   -0.3356672327
C       -0.2808555748   -1.2786592870   -0.4636442635
C       -1.1103936018    0.5562028692    0.8014218958
C       -0.5630543826    1.3980443138   -0.3096738039
N        0.6587098644    1.4608055228   -0.6806965590
H        2.5655644754    0.6819363699   -0.2603093124
H        1.8659440390   -1.6257594895   -0.0045389303
H       -0.7173198820   -1.5872550051   -1.4162363511
H       -1.2606711975    1.0400446891    1.7682913121
H       -1.2593599265    2.0352007209   -0.8592196138
C       -1.1055826385   -0.7782823153    0.6518321603
H       -1.4522476229   -1.4310687587    1.4547004724
13   
From optimize.out: Frame 11 / 37, Energy=    -286.8585847363
C        1.5215751101    0.4027311673   -0.3596107307
C        1.1474010983   -0.8963663307   -0.3408644922
C       -0.2693712839   -1.3043606590   -0.4480321599
C       -1.1232763449    0.5647032266    0.7898620262
C       -0.5606942770    1.4278631536   -0.2900185604
N        0.6638071823    1.4591267981   -0.6724372729
H        2.5692872340    0.6715165572   -0.2827908809
H        1.8915096664   -1.6388012325   -0.0541654738
H       -0.7134675922   -1.6603773671   -1.3793393731
H       -1.3582396411    1.0451173897    1.7408398817
H       -1.2351431468    2.1142415679   -0.8073461167
C       -1.0832462469   -0.7714348795    0.6500107582
H       -1.4501417584   -1.4139593917    1.4538923944
13   
From optimize.out: Frame 12 / 37, Energy=    -286.8654868593
C        1.5210316150    0.3964135718   -0.3742568098
C        1.1532452750   -0.9051969322   -0.3452295768
C       -0.2567845949   -1.3318091280   -0.4291681058
C       -1.1321735091    0.5738739921    0.7786487253
C       -0.5520059003    1.4552509659   -0.2679883912
N        0.6669650855    1.4584136310   -0.6672431459
H        2.5702852879    0.6660702628   -0.3142150365
H        1.9158399178   -1.6454601013   -0.1028299259
H       -0.7009460831   -1.7439455018   -1.3361637064
H       -1.4432879660    1.0462800423    1.7112435971
H       -1.2041728021    2.1911193794   -0.7444277533
C       -1.0718710840   -0.7629952928    0.6468007338
H       -1.4661252418   -1.3980148893    1.4448293954
13   
From optimize.out: Frame 13 / 37, Energy=    -286.8717859321
C        1.5229703707    0.3909939174   -0.3902013285
C        1.1601122889   -0.9130709588   -0.3554867267
C       -0.2425968266   -1.3530462199   -0.4096017735
C       -1.1430683108    0.5846352653    0.7697496169
C       -0.5430571475    1.4819131580   -0.2419511632
N        0.6747678569    1.4624730298   -0.6542650860
H        2.5742569778    0.6586918076   -0.3462048210
H        1.9381811859   -1.6520987248   -0.1605955014
H       -0.6850443072   -1.8296738457   -1.2846279353
H       -1.5313353204    1.0486715341    1.6770484647
H       -1.1754743392    2.2560563752   -0.6837687808
C       -1.0618005959   -0.7538321788    0.6458555701
H       -1.4879118327   -1.3817131594    1.4340494647
13   
From optimize.out: Frame 14 / 37, Energy=    -286.8775162477
C        1.5223249071    0.3904996547   -0.4045673035
C        1.1628083444   -0.9161707896   -0.3605115011
C       -0.2311300972   -1.3723127781   -0.3860801233
C       -1.1499181463    0.5927478756    0.7584071585
C       -0.5313658410    1.5042319825   -0.2210310876
N        0.6800916174    1.4663835729   -0.6511882073
H        2.5756718500    0.6555009935   -0.3820403501
H        1.9543872694   -1.6517670330   -0.2094675637
H       -0.6643716454   -1.9186279726   -1.2235123188
H       -1.5983690220    1.0456766912    1.6430512500
H       -1.1412190827    2.3213010895   -0.6149455182
C       -1.0604565591   -0.7465075667    0.6391996593
H       -1.5184535947   -1.3709557199    1.4126859058
13   
From optimize.out: Frame 15 / 37, Energy=    -286.8829611968
C        1.5247911677    0.3891510174   -0.4202101392
C        1.1673123600   -0.9205525084   -0.3745790732
C       -0.2160689295   -1.3884863500   -0.3631976452
C       -1.1597440040    0.6035133733    0.7513429030
C       -0.5193523482    1.5286302549   -0.1917125768
N        0.6902172158    1.4756254925   -0.6336631442
H        2.5803263142    0.6495305959   -0.4164307455
H        1.9687006399   -1.6548072979   -0.2730276926
H       -0.6397243702   -2.0053119699   -1.1545806433
H       -1.6745449598    1.0466080328    1.6041045042
H       -1.1132329003    2.3708245807   -0.5568687164
C       -1.0569755233   -0.7378923501    0.6366047957
H       -1.5517046623   -1.3568328709    1.3922181737
13   
From optimize.out: Frame 16 / 37, Energy=    -286.8881831907
C        1.5257417743    0.3911426028   -0.4347357763
C        1.1683477627   -0.9207787964   -0.3837503553
C       -0.2034646414   -1.4019493857   -0.3380025168
C       -1.1672541975    0.6109916162    0.7417888379
C       -0.5072188155    1.5474268663   -0.1700498767
N        0.6973823583    1.4832822496   -0.6266553057
H        2.5827414462    0.6463731637   -0.4526931704
H        1.9771370515   -1.6521325055   -0.3265409892
H       -0.6111471917   -2.0896757357   -1.0769029922
H       -1.7329879412    1.0437380101    1.5669300799
H       -1.0801505734    2.4214338337   -0.4914162442
C       -1.0598110374   -0.7318606172    0.6288947946
H       -1.5893159950   -1.3479913020    1.3631335143
13   
From optimize.out: Frame 17 / 37, Energy=    -286.8932750543
C        1.5279199397    0.3933346980   -0.4492556066
C        1.1691502325   -0.9211350007   -0.3962181780
C       -0.1895275105   -1.4123447274   -0.3114458614
C       -1.1752070248    0.6188850515    0.7344293991
C       -0.4937723385    1.5665701314   -0.1439499272
N        0.7065093406    1.4932476878   -0.6138468809
H        2.5861327405    0.6427444198   -0.4893738038
H        1.9816879408   -1.6508941315   -0.3852201063
H       -0.5788533197   -2.1678430261   -0.9908493685
H       -1.7918821339    1.0421294607    1.5269615299
H       -1.0510791018    2.4614962903   -0.4341103532
C       -1.0624949862   -0.7262209918    0.6222145857
H       -1.6285837786   -1.3399698620    1.3306645710
13   
From optimize.out: Frame 18 / 37, Energy=    -286.8982517582
C        1.5305706536    0.3965194490   -0.4645066193
C        1.1688573838   -0.9198982955   -0.4086552129
C       -0.1756850497   -1.4206396791   -0.2839779644
C       -1.1832769229    0.6252644433    0.7268788363
C       -0.4813350703    1.5819875523   -0.1211414216
N        0.7149857949    1.5031273522   -0.6033289967
H        2.5892413131    0.6397903280   -0.5265524510
H        1.9822786847   -1.6480833476   -0.4404626357
H       -0.5426168320   -2.2400035458   -0.8979853125
H       -1.8440533355    1.0401967922    1.4871626607
H       -1.0214800992    2.4981913702   -0.3753724986
C       -1.0676408775   -0.7224281255    0.6141919829