13   
From optimize.out: Frame 1 / 3, Energy=    -286.8383083155
C        0.0885310000    0.0461300000   -0.0000000000
C       -0.2586140000   -0.0656020000   -0.0000000000
C       -0.1081000000    0.0784020000   -0.0000000000
C       -0.1636020000   -0.0955820000    0.0000000000
C       -0.0188720000    0.0957470000   -0.0000000000
N       -0.3420670000    0.0403970000   -0.0000000000
H        0.1430200000    0.0014350000   -0.0000000000
H        0.1428940000    0.0226200000   -0.0000000000
H        0.1481380000   -0.0008540000   -0.0000000000
H        0.1472760000    0.0052650000    0.0000000000
H        0.1513490000    0.0028780000   -0.0000000000
C       -0.0661760000    0.8884260000    0.0000000000
H        0.1362220000   -0.0192600000    0.0000000000
13   
From optimize.out: Frame 2 / 3, Energy=    -286.8383134969
C        0.0886550000    0.0465700000   -0.0000000000
C       -0.2586070000   -0.0657260000   -0.0000000000
C       -0.1081570000    0.0780440000   -0.0000000000
C       -0.1632460000   -0.0957970000    0.0000000000
C       -0.0191570000    0.0963770000   -0.0000000000
N       -0.3420670000    0.0396020000   -0.0000000000
H        0.1429560000    0.0014010000   -0.0000000000
H        0.1428880000    0.0226200000   -0.0000000000
H        0.1481080000   -0.0008200000   -0.0000000000
H        0.1471960000    0.0053190000    0.0000000000
H        0.1513970000    0.0028520000   -0.0000000000
C       -0.0662730000    0.8889800000    0.0000000000
H        0.1363070000   -0.0194220000    0.0000000000
