13   
Frame   0 IRC: Energy =  -286.8724601193 ; +0.0000 kcal/mol
C       -0.0839310000   -0.0201780000    0.0000000000
C        0.0027350000    0.0102930000   -0.0000000000
C       -0.1923270000   -0.0139550000   -0.0000000000
C       -0.0266210000   -0.2491560000    0.0000000000
C       -0.1022930000    0.0317010000   -0.0000000000
N       -0.1821840000    0.0030750000    0.0000000000
H        0.1313030000    0.0007450000    0.0000000000
H        0.1343770000   -0.0000900000   -0.0000000000
H        0.1388140000    0.0001780000   -0.0000000000
H        0.1375150000    0.0775480000    0.0000000000
H        0.1811690000   -0.0049800000   -0.0000000000
C       -0.2880650000    1.1582310000    0.0000000000
H        0.1495090000    0.0065890000    0.0000000000
13   
Frame   1 IRC: Energy =  -286.8724594632 ; +0.0004 kcal/mol
C       -0.0836650000   -0.0202850000    0.0000000000
C        0.0029540000    0.0104430000   -0.0000000000
C       -0.1925440000   -0.0140680000   -0.0000000000
C       -0.0255070000   -0.2490050000    0.0000000000
C       -0.1030840000    0.0316990000   -0.0000000000
N       -0.1820300000    0.0030550000    0.0000000000
H        0.1312890000    0.0007440000    0.0000000000
H        0.1343880000   -0.0000910000   -0.0000000000
H        0.1388310000    0.0001780000   -0.0000000000
H        0.1374530000    0.0775840000    0.0000000000
H        0.1811850000   -0.0049720000   -0.0000000000
C       -0.2887820000    1.1581490000    0.0000000000
H        0.1495110000    0.0065680000    0.0000000000
13   
Frame   2 IRC: Energy =  -286.8724574706 ; +0.0017 kcal/mol
C       -0.0829920000   -0.0202110000    0.0000000000
C        0.0014370000    0.0104500000   -0.0000000000
C       -0.1893650000   -0.0142990000   -0.0000000000
C       -0.0239620000   -0.2492410000    0.0000000000
C       -0.1071790000    0.0315770000   -0.0000000000
N       -0.1816570000    0.0030680000    0.0000000000
H        0.1313220000    0.0007480000    0.0000000000
H        0.1343750000   -0.0000920000   -0.0000000000
H        0.1387960000    0.0001820000   -0.0000000000
H        0.1374750000    0.0776760000    0.0000000000
H        0.1812970000   -0.0049990000   -0.0000000000
C       -0.2890960000    1.1585800000    0.0000000000
H        0.1495500000    0.0065610000    0.0000000000
13   
Frame   3 IRC: Energy =  -286.8724405068 ; +0.0123 kcal/mol
C       -0.0808900000   -0.0202320000   -0.0000000000
C       -0.0017840000    0.0105980000   -0.0000000000
C       -0.1838760000   -0.0145060000   -0.0000000000
C       -0.0227810000   -0.2491100000    0.0000000000
C       -0.1124650000    0.0307790000   -0.0000000000
N       -0.1810360000    0.0030180000    0.0000000000
H        0.1313490000    0.0007530000    0.0000000000
H        0.1343400000   -0.0000900000   -0.0000000000
H        0.1388260000    0.0001840000   -0.0000000000
H        0.1373230000    0.0778980000    0.0000000000
H        0.1817660000   -0.0050270000   -0.0000000000
C       -0.2902860000    1.1591120000    0.0000000000
H        0.1495160000    0.0066230000    0.0000000000
13   
Frame   4 IRC: Energy =  -286.8724219929 ; +0.0239 kcal/mol
C       -0.0816690000   -0.0217280000    0.0000000000
C        0.0048790000    0.0119530000   -0.0000000000
C       -0.1934680000   -0.0156220000   -0.0000000000
C       -0.0136740000   -0.2503630000    0.0000000000
C       -0.1116830000    0.0342190000   -0.0000000000
N       -0.1810850000    0.0029760000    0.0000000000
H        0.1311440000    0.0007440000    0.0000000000
H        0.1344030000   -0.0001070000   -0.0000000000
H        0.1389220000    0.0001930000   -0.0000000000
H        0.1370750000    0.0780860000    0.0000000000
H        0.1803690000   -0.0048210000   -0.0000000000
C       -0.2948120000    1.1581130000    0.0000000000
H        0.1496000000    0.0063580000    0.0000000000
13   
Frame   5 IRC: Energy =  -286.8722085616 ; +0.1579 kcal/mol
C       -0.0788850000   -0.0263390000   -0.0000000000
C        0.0042740000    0.0152850000   -0.0000000000
C       -0.2016250000   -0.0189490000   -0.0000000000
C       -0.0125070000   -0.2566680000    0.0000000000
C       -0.0983980000    0.0462290000   -0.0000000000
N       -0.1819860000    0.0024910000    0.0000000000
H        0.1310990000    0.0007100000    0.0000000000
H        0.1344590000   -0.0001460000   -0.0000000000
H        0.1388850000    0.0002150000   -0.0000000000
H        0.1375140000    0.0781180000    0.0000000000
H        0.1766960000   -0.0043400000   -0.0000000000
C       -0.2995350000    1.1579570000    0.0000000000
H        0.1500080000    0.0054360000    0.0000000000
13   
Frame   6 IRC: Energy =  -286.8716674862 ; +0.4974 kcal/mol
C       -0.0828500000   -0.0304890000    0.0000000000
C        0.0134380000    0.0173250000   -0.0000000000
C       -0.2257600000   -0.0213300000   -0.0000000000
C       -0.0180370000   -0.2659690000    0.0000000000
C       -0.0684920000    0.0603010000   -0.0000000000
N       -0.1841110000    0.0023780000    0.0000000000
H        0.1309560000    0.0006610000    0.0000000000
H        0.1343160000   -0.0001330000   -0.0000000000
H        0.1392850000    0.0002160000   -0.0000000000
H        0.1383320000    0.0782040000    0.0000000000
H        0.1730070000   -0.0039100000   -0.0000000000
C       -0.3002350000    1.1581980000    0.0000000000
H        0.1501500000    0.0045490000    0.0000000000
13   
Frame   7 IRC: Energy =  -286.8707880000 ; +1.0493 kcal/mol
C       -0.0832880000   -0.0356210000    0.0000000000
C        0.0061280000    0.0207460000   -0.0000000000
C       -0.2318820000   -0.0271410000   -0.0000000000
C       -0.0336310000   -0.2778250000    0.0000000000
C       -0.0369330000    0.0779580000   -0.0000000000
N       -0.1859600000    0.0033510000    0.0000000000
H        0.1306740000    0.0006500000    0.0000000000
H        0.1341190000   -0.0001440000   -0.0000000000
H        0.1389240000    0.0002290000   -0.0000000000
H        0.1393710000    0.0782300000    0.0000000000
H        0.1678290000   -0.0036780000   -0.0000000000
C       -0.2958810000    1.1595780000    0.0000000000
H        0.1505290000    0.0036670000    0.0000000000
13   
Frame   8 IRC: Energy =  -286.8707360000 ; +1.0819 kcal/mol
C       -0.0834280000   -0.0358330000    0.0000000000
C        0.0060790000    0.0208630000   -0.0000000000
C       -0.2323160000   -0.0274340000   -0.0000000000
C       -0.0346710000   -0.2780630000    0.0000000000
C       -0.0358730000    0.0787970000   -0.0000000000
N       -0.1858530000    0.0033630000    0.0000000000
H        0.1306620000    0.0006490000    0.0000000000
H        0.1341210000   -0.0001430000   -0.0000000000
H        0.1389480000    0.0002290000   -0.0000000000
H        0.1394830000    0.0780560000    0.0000000000
H        0.1676230000   -0.0036840000   -0.0000000000
C       -0.2953620000    1.1595210000    0.0000000000
H        0.1505850000    0.0036810000    0.0000000000
13   
Frame   9 IRC: Energy =  -286.8707160000 ; +1.0945 kcal/mol
C       -0.0835060000   -0.0358850000    0.0000000000
C        0.0061530000    0.0209060000   -0.0000000000
C       -0.2326500000   -0.0274070000   -0.0000000000
C       -0.0347770000   -0.2786150000    0.0000000000
C       -0.0346890000    0.0789850000   -0.0000000000
N       -0.1861680000    0.0034300000    0.0000000000
H        0.1306600000    0.0006500000    0.0000000000
H        0.1340810000   -0.0001430000   -0.0000000000
H        0.1389090000    0.0002290000   -0.0000000000
H        0.1394390000    0.0782670000    0.0000000000
H        0.1675700000   -0.0036660000   -0.0000000000
C       -0.2955970000    1.1596840000    0.0000000000
H        0.1505760000    0.0035630000    0.0000000000
13   
Frame  10 IRC: Energy =  -286.8706550000 ; +1.1327 kcal/mol
C       -0.0838530000   -0.0361090000    0.0000000000
C        0.0062930000    0.0210240000   -0.0000000000
C       -0.2334110000   -0.0277180000   -0.0000000000
C       -0.0360440000   -0.2788890000    0.0000000000
C       -0.0332470000    0.0799080000   -0.0000000000
N       -0.1860570000    0.0034520000    0.0000000000
H        0.1306550000    0.0006500000    0.0000000000
H        0.1341280000   -0.0001420000   -0.0000000000
H        0.1389350000    0.0002290000   -0.0000000000
H        0.1395700000    0.0780640000    0.0000000000
H        0.1673420000   -0.0036740000   -0.0000000000
C       -0.2949520000    1.1596180000    0.0000000000
H        0.1506410000    0.0035880000    0.0000000000
13   
Frame  11 IRC: Energy =  -286.8706390000 ; +1.1428 kcal/mol
C       -0.0842070000   -0.0362940000    0.0000000000
C        0.0065310000    0.0212080000   -0.0000000000
C       -0.2335240000   -0.0279070000   -0.0000000000
C       -0.0355390000   -0.2790030000    0.0000000000
C       -0.0334690000    0.0802780000   -0.0000000000
N       -0.1859180000    0.0034900000    0.0000000000
H        0.1306570000    0.0006520000    0.0000000000
H        0.1341950000   -0.0001430000   -0.0000000000
H        0.1389770000    0.0002310000   -0.0000000000
H        0.1395730000    0.0782950000    0.0000000000
H        0.1672830000   -0.0036830000   -0.0000000000
C       -0.2952660000    1.1591470000    0.0000000000
H        0.1507080000    0.0037290000    0.0000000000
13   
Frame  12 IRC: Energy =  -286.8703150000 ; +1.3461 kcal/mol
C       -0.0851790000   -0.0370960000    0.0000000000
C        0.0068460000    0.0215800000   -0.0000000000
C       -0.2375250000   -0.0287050000   -0.0000000000
C       -0.0420800000   -0.2819720000    0.0000000000
C       -0.0223180000    0.0838890000   -0.0000000000
N       -0.1871200000    0.0038210000    0.0000000000
H        0.1306180000    0.0006540000    0.0000000000
H        0.1340100000   -0.0001360000   -0.0000000000
H        0.1388840000    0.0002280000   -0.0000000000
H        0.1398930000    0.0780870000    0.0000000000
H        0.1663370000   -0.0036420000   -0.0000000000
C       -0.2931770000    1.1600920000    0.0000000000
H        0.1508100000    0.0032000000    0.0000000000
13   
Frame  13 IRC: Energy =  -286.8702930000 ; +1.3599 kcal/mol
C       -0.0858160000   -0.0372260000    0.0000000000
C        0.0074500000    0.0216790000   -0.0000000000
C       -0.2379030000   -0.0288940000   -0.0000000000
C       -0.0423700000   -0.2819580000    0.0000000000
C       -0.0220880000    0.0842560000   -0.0000000000
N       -0.1869960000    0.0038400000    0.0000000000
H        0.1306410000    0.0006550000    0.0000000000
H        0.1341110000   -0.0001370000   -0.0000000000
H        0.1389250000    0.0002290000   -0.0000000000
H        0.1399360000    0.0780430000    0.0000000000
H        0.1662770000   -0.0036530000   -0.0000000000
C       -0.2930170000    1.1598970000    0.0000000000
H        0.1508490000    0.0032680000    0.0000000000
13   
Frame  14 IRC: Energy =  -286.8701720000 ; +1.4358 kcal/mol
C       -0.0857440000   -0.0374860000    0.0000000000
C        0.0071160000    0.0218170000   -0.0000000000
C       -0.2391420000   -0.0291180000   -0.0000000000
C       -0.0444960000   -0.2831120000    0.0000000000
C       -0.0180910000    0.0854240000   -0.0000000000
N       -0.1875110000    0.0039710000    0.0000000000
H        0.1306040000    0.0006560000    0.0000000000
H        0.1339700000   -0.0001340000   -0.0000000000
H        0.1388700000    0.0002280000   -0.0000000000
H        0.1400260000    0.0780850000    0.0000000000
H        0.1659570000   -0.0036350000   -0.0000000000
C       -0.2924440000    1.1602450000    0.0000000000
H        0.1508860000    0.0030580000    0.0000000000
13   
Frame  15 IRC: Energy =  -286.8701430000 ; +1.4540 kcal/mol
C       -0.0865070000   -0.0376140000    0.0000000000
C        0.0079120000    0.0218990000   -0.0000000000
C       -0.2397030000   -0.0293090000   -0.0000000000
C       -0.0450270000   -0.2831280000    0.0000000000
C       -0.0175900000    0.0858260000   -0.0000000000
N       -0.1874130000    0.0039950000    0.0000000000
H        0.1306330000    0.0006570000    0.0000000000
H        0.1340870000   -0.0001350000   -0.0000000000
H        0.1389030000    0.0002290000   -0.0000000000
H        0.1400770000    0.0779960000    0.0000000000
H        0.1658880000   -0.0036450000   -0.0000000000
C       -0.2921790000    1.1601270000    0.0000000000
H        0.1509200000    0.0031010000    0.0000000000
13   
Frame  16 IRC: Energy =  -286.8700090000 ; +1.5381 kcal/mol
C       -0.0864150000   -0.0379000000    0.0000000000
C        0.0074890000    0.0220690000   -0.0000000000
C       -0.2409660000   -0.0295670000   -0.0000000000
C       -0.0472660000   -0.2842750000    0.0000000000
C       -0.0134290000    0.0870500000   -0.0000000000
N       -0.1879330000    0.0041320000    0.0000000000
H        0.1305880000    0.0006590000    0.0000000000
H        0.1339320000   -0.0001310000   -0.0000000000
H        0.1388600000    0.0002270000   -0.0000000000
H        0.1401760000    0.0780560000    0.0000000000
H        0.1655600000   -0.0036310000   -0.0000000000
C       -0.2915680000    1.1604000000    0.0000000000
H        0.1509730000    0.0029120000    0.0000000000
13   
Frame  17 IRC: Energy =  -286.8699760000 ; +1.5588 kcal/mol
C       -0.0872830000   -0.0380260000    0.0000000000
C        0.0084780000    0.0221400000   -0.0000000000
C       -0.2416660000   -0.0297440000   -0.0000000000
C       -0.0478540000   -0.2843360000    0.0000000000
C       -0.0127860000    0.0874510000   -0.0000000000
N       -0.1878640000    0.0041650000    0.0000000000
H        0.1306240000    0.0006600000    0.0000000000
H        0.1340660000   -0.0001320000   -0.0000000000
H        0.1388810000    0.0002270000   -0.0000000000
H        0.1402210000    0.0779760000    0.0000000000
H        0.1654900000   -0.0036400000   -0.0000000000
C       -0.2913070000    1.1603230000    0.0000000000
H        0.1510010000    0.0029350000    0.0000000000
13   
Frame  18 IRC: Energy =  -286.8698120000 ; +1.6617 kcal/mol
C       -0.0872610000   -0.0383620000    0.0000000000
C        0.0080360000    0.0223550000   -0.0000000000
C       -0.2431660000   -0.0300690000   -0.0000000000
C       -0.0505600000   -0.2855590000    0.0000000000
C       -0.0079350000    0.0888450000   -0.0000000000
N       -0.1884480000    0.0043200000    0.0000000000
H        0.1305720000    0.0006620000    0.0000000000
H        0.1338910000   -0.0001270000   -0.0000000000
H        0.1388480000    0.0002250000   -0.0000000000
H        0.1403470000    0.0780290000    0.0000000000
H        0.1651250000   -0.0036300000   -0.0000000000
C       -0.2905250000    1.1605590000    0.0000000000
H        0.1510740000    0.0027520000    0.0000000000
13   
Frame  19 IRC: Energy =  -286.8697760000 ; +1.6843 kcal/mol
C       -0.0881760000   -0.0384810000    0.0000000000
C        0.0091720000    0.0224180000   -0.0000000000
C       -0.2439290000   -0.0302290000   -0.0000000000
C       -0.0511480000   -0.2856520000    0.0000000000
C       -0.0072670000    0.0892280000   -0.0000000000
N       -0.1884020000    0.0043570000    0.0000000000
H        0.1306060000    0.0006630000    0.0000000000
H        0.1340350000   -0.0001270000   -0.0000000000
H        0.1388600000    0.0002250000   -0.0000000000
H        0.1403850000    0.0779650000    0.0000000000
H        0.1650520000   -0.0036380000   -0.0000000000
C       -0.2902860000    1.1605030000    0.0000000000
H        0.1510970000    0.0027680000    0.0000000000
13   
Frame  20 IRC: Energy =  -286.8695960000 ; +1.7973 kcal/mol
C       -0.0881610000   -0.0388810000    0.0000000000
C        0.0086880000    0.0227140000   -0.0000000000
C       -0.2455210000   -0.0306460000   -0.0000000000
C       -0.0540800000   -0.2868340000    0.0000000000
C       -0.0021480000    0.0906200000   -0.0000000000
N       -0.1890070000    0.0045720000    0.0000000000
H        0.1305550000    0.0006690000    0.0000000000
H        0.1338490000   -0.0001260000   -0.0000000000
H        0.1388360000    0.0002270000   -0.0000000000
H        0.1405220000    0.0780070000    0.0000000000
H        0.1646950000   -0.0036320000   -0.0000000000
C       -0.2894090000    1.1607220000    0.0000000000
H        0.1511800000    0.0025890000    0.0000000000
13   
Frame  21 IRC: Energy =  -286.8695590000 ; +1.8205 kcal/mol
C       -0.0892770000   -0.0389330000    0.0000000000
C        0.0099560000    0.0227070000   -0.0000000000
C       -0.2464400000   -0.0307230000   -0.0000000000
C       -0.0546640000   -0.2868780000    0.0000000000
C       -0.0012850000    0.0909160000   -0.0000000000
N       -0.1889940000    0.0045900000    0.0000000000
H        0.1306480000    0.0006680000    0.0000000000
H        0.1339920000   -0.0001240000   -0.0000000000
H        0.1388320000    0.0002240000   -0.0000000000
H        0.1405500000    0.0779440000    0.0000000000
H        0.1646490000   -0.0036410000   -0.0000000000
C       -0.2891660000    1.1606640000    0.0000000000
H        0.1511970000    0.0025870000    0.0000000000
13   
Frame  22 IRC: Energy =  -286.8694320000 ; +1.9002 kcal/mol
C       -0.0887990000   -0.0392040000    0.0000000000
C        0.0092300000    0.0229220000   -0.0000000000
C       -0.2472280000   -0.0309960000   -0.0000000000
C       -0.0566830000   -0.2877530000    0.0000000000
C        0.0020210000    0.0918790000   -0.0000000000
N       -0.1894220000    0.0046960000    0.0000000000
H        0.1305230000    0.0006710000    0.0000000000
H        0.1338190000   -0.0001210000   -0.0000000000
H        0.1388310000    0.0002230000   -0.0000000000
H        0.1406500000    0.0779970000    0.0000000000
H        0.1643850000   -0.0036350000   -0.0000000000
C       -0.2885850000    1.1608420000    0.0000000000
H        0.1512570000    0.0024780000    0.0000000000
13   
Frame  23 IRC: Energy =  -286.8693900000 ; +1.9265 kcal/mol
C       -0.0898630000   -0.0392640000    0.0000000000
C        0.0102060000    0.0229570000   -0.0000000000
C       -0.2478390000   -0.0310960000   -0.0000000000
C       -0.0574160000   -0.2878130000    0.0000000000
C        0.0031350000    0.0921020000   -0.0000000000
N       -0.1895240000    0.0047740000    0.0000000000
H        0.1306030000    0.0006720000    0.0000000000
H        0.1338610000   -0.0001230000   -0.0000000000
H        0.1388530000    0.0002240000   -0.0000000000
H        0.1406820000    0.0779640000    0.0000000000
H        0.1643300000   -0.0036410000   -0.0000000000
C       -0.2883070000    1.1607320000    0.0000000000
H        0.1512790000    0.0025120000    0.0000000000
13   
Frame  24 IRC: Energy =  -286.8692820000 ; +1.9943 kcal/mol
C       -0.0894510000   -0.0395080000    0.0000000000
C        0.0098660000    0.0231200000   -0.0000000000
C       -0.2490570000   -0.0313270000   -0.0000000000
C       -0.0589730000   -0.2884920000    0.0000000000
C        0.0058030000    0.0929560000   -0.0000000000
N       -0.1897480000    0.0048260000    0.0000000000
H        0.1305400000    0.0006750000    0.0000000000
H        0.1338450000   -0.0001180000   -0.0000000000
H        0.1388000000    0.0002210000   -0.0000000000
H        0.1407550000    0.0779670000    0.0000000000
H        0.1641420000   -0.0036400000   -0.0000000000
C       -0.2878460000    1.1609820000    0.0000000000
H        0.1513230000    0.0023380000    0.0000000000
13   
Frame  25 IRC: Energy =  -286.8692110000 ; +2.0389 kcal/mol
C       -0.0901870000   -0.0395320000    0.0000000000
C        0.0105910000    0.0231900000   -0.0000000000
C       -0.2496050000   -0.0314970000   -0.0000000000
C       -0.0594270000   -0.2888210000    0.0000000000
C        0.0072430000    0.0933520000   -0.0000000000
N       -0.1902170000    0.0049540000    0.0000000000
H        0.1305360000    0.0006730000    0.0000000000
H        0.1335940000   -0.0001170000   -0.0000000000
H        0.1388120000    0.0002210000   -0.0000000000
H        0.1407950000    0.0779800000    0.0000000000
H        0.1640670000   -0.0036420000   -0.0000000000
C       -0.2875990000    1.1608630000    0.0000000000
H        0.1513970000    0.0023750000    0.0000000000
13   
Frame  26 IRC: Energy =  -286.8690530000 ; +2.1380 kcal/mol
C       -0.0906860000   -0.0399000000    0.0000000000
C        0.0108030000    0.0233470000   -0.0000000000
C       -0.2513170000   -0.0316740000   -0.0000000000
C       -0.0630290000   -0.2894280000    0.0000000000
C        0.0115780000    0.0943410000   -0.0000000000
N       -0.1901650000    0.0049540000    0.0000000000
H        0.1305530000    0.0006770000    0.0000000000
H        0.1339400000   -0.0001120000   -0.0000000000
H        0.1388260000    0.0002140000   -0.0000000000
H        0.1409310000    0.0779460000    0.0000000000
H        0.1637560000   -0.0036500000   -0.0000000000
C       -0.2865900000    1.1610470000    0.0000000000
H        0.1513990000    0.0022380000    0.0000000000
13   
Frame  27 IRC: Energy =  -286.8689800000 ; +2.1838 kcal/mol
C       -0.0916810000   -0.0400180000    0.0000000000
C        0.0114200000    0.0233270000   -0.0000000000
C       -0.2528700000   -0.0316880000   -0.0000000000
C       -0.0642240000   -0.2892510000    0.0000000000
C        0.0135830000    0.0944530000   -0.0000000000
N       -0.1899470000    0.0050030000    0.0000000000
H        0.1308600000    0.0006800000    0.0000000000
H        0.1342830000   -0.0001140000   -0.0000000000
H        0.1387440000    0.0002140000   -0.0000000000
H        0.1409450000    0.0778430000    0.0000000000
H        0.1637650000   -0.0036680000   -0.0000000000
C       -0.2862230000    1.1611570000    0.0000000000
H        0.1513460000    0.0020610000    0.0000000000
13   
Frame  28 IRC: Energy =  -286.8684600000 ; +2.5101 kcal/mol
C       -0.0930430000   -0.0406900000    0.0000000000
C        0.0133440000    0.0239800000   -0.0000000000
C       -0.2573330000   -0.0326660000   -0.0000000000
C       -0.0710850000   -0.2917260000    0.0000000000
C        0.0249490000    0.0974090000   -0.0000000000
N       -0.1918850000    0.0054090000    0.0000000000
H        0.1304810000    0.0006830000    0.0000000000
H        0.1336160000   -0.0000950000   -0.0000000000
H        0.1387970000    0.0001990000   -0.0000000000
H        0.1412950000    0.0779290000    0.0000000000
H        0.1630200000   -0.0036790000   -0.0000000000
C       -0.2838300000    1.1612900000    0.0000000000
H        0.1516740000    0.0019590000    0.0000000000
13   
Frame  29 IRC: Energy =  -286.8684150000 ; +2.5384 kcal/mol
C       -0.0936880000   -0.0406650000    0.0000000000
C        0.0136850000    0.0239770000   -0.0000000000
C       -0.2577460000   -0.0326840000   -0.0000000000
C       -0.0715710000   -0.2917900000    0.0000000000
C        0.0261500000    0.0974570000   -0.0000000000
N       -0.1921180000    0.0055100000    0.0000000000
H        0.1305570000    0.0006820000    0.0000000000
H        0.1334860000   -0.0000950000   -0.0000000000
H        0.1387980000    0.0002000000   -0.0000000000
H        0.1413120000    0.0779380000    0.0000000000
H        0.1630240000   -0.0036830000   -0.0000000000
C       -0.2835950000    1.1611770000    0.0000000000
H        0.1517050000    0.0019780000    0.0000000000
13   
Frame  30 IRC: Energy =  -286.8677490000 ; +2.9563 kcal/mol
C       -0.0960690000   -0.0415390000    0.0000000000
C        0.0166540000    0.0246380000   -0.0000000000
C       -0.2644480000   -0.0335260000   -0.0000000000
C       -0.0810920000   -0.2935760000    0.0000000000
C        0.0399910000    0.1000250000   -0.0000000000
N       -0.1933620000    0.0057910000    0.0000000000
H        0.1305200000    0.0006920000    0.0000000000
H        0.1336200000   -0.0000760000   -0.0000000000
H        0.1387790000    0.0001770000   -0.0000000000
H        0.1417010000    0.0778900000    0.0000000000
H        0.1623020000   -0.0037260000   -0.0000000000
C       -0.2804840000    1.1615510000    0.0000000000
H        0.1518870000    0.0016790000    0.0000000000
13   
Frame  31 IRC: Energy =  -286.8676990000 ; +2.9876 kcal/mol
C       -0.0968360000   -0.0415300000    0.0000000000
C        0.0171340000    0.0245830000   -0.0000000000
C       -0.2653160000   -0.0334880000   -0.0000000000
C       -0.0817610000   -0.2935440000    0.0000000000
C        0.0415370000    0.1000420000   -0.0000000000
N       -0.1934790000    0.0058650000    0.0000000000
H        0.1306600000    0.0006910000    0.0000000000
H        0.1335950000   -0.0000760000   -0.0000000000
H        0.1387470000    0.0001760000   -0.0000000000
H        0.1417160000    0.0778770000    0.0000000000
H        0.1623220000   -0.0037360000   -0.0000000000
C       -0.2802130000    1.1614890000    0.0000000000
H        0.1518940000    0.0016490000    0.0000000000
13   
Frame  32 IRC: Energy =  -286.8669470000 ; +3.4595 kcal/mol
C       -0.0990460000   -0.0422210000    0.0000000000
C        0.0204790000    0.0252510000   -0.0000000000
C       -0.2716120000   -0.0342390000   -0.0000000000
C       -0.0907570000   -0.2951930000    0.0000000000
C        0.0544050000    0.1021730000   -0.0000000000
N       -0.1950080000    0.0060870000    0.0000000000
H        0.1304950000    0.0006950000    0.0000000000
H        0.1334710000   -0.0000490000   -0.0000000000
H        0.1387800000    0.0001440000   -0.0000000000
H        0.1421090000    0.0778880000    0.0000000000
H        0.1616610000   -0.0037770000   -0.0000000000
C       -0.2771040000    1.1617700000    0.0000000000
H        0.1521250000    0.0014710000    0.0000000000
13   
Frame  33 IRC: Energy =  -286.8668820000 ; +3.5003 kcal/mol
C       -0.0997790000   -0.0422120000    0.0000000000
C        0.0209610000    0.0251900000   -0.0000000000
C       -0.2725030000   -0.0341940000   -0.0000000000
C       -0.0914620000   -0.2951840000    0.0000000000
C        0.0560220000    0.1021920000   -0.0000000000
N       -0.1951650000    0.0061750000    0.0000000000
H        0.1306070000    0.0006950000    0.0000000000
H        0.1333990000   -0.0000480000   -0.0000000000
H        0.1387500000    0.0001430000   -0.0000000000
H        0.1421290000    0.0778850000    0.0000000000
H        0.1616840000   -0.0037880000   -0.0000000000
C       -0.2767870000    1.1616890000    0.0000000000
H        0.1521440000    0.0014570000    0.0000000000
13   
Frame  34 IRC: Energy =  -286.8660370000 ; +4.0306 kcal/mol
C       -0.1022690000   -0.0428940000    0.0000000000
C        0.0250690000    0.0259250000   -0.0000000000
C       -0.2792460000   -0.0348760000   -0.0000000000
C       -0.1006470000   -0.2964760000    0.0000000000
C        0.0686240000    0.1038500000   -0.0000000000
N       -0.1965740000    0.0063440000    0.0000000000
H        0.1304960000    0.0006990000    0.0000000000
H        0.1333770000   -0.0000190000   -0.0000000000
H        0.1387810000    0.0001080000   -0.0000000000
H        0.1425300000    0.0779060000    0.0000000000
H        0.1610660000   -0.0038330000   -0.0000000000
C       -0.2735640000    1.1619850000    0.0000000000
H        0.1523560000    0.0012820000    0.0000000000
13   
Frame  35 IRC: Energy =  -286.8659540000 ; +4.0827 kcal/mol
C       -0.1029650000   -0.0428890000    0.0000000000
C        0.0255830000    0.0258240000   -0.0000000000
C       -0.2803120000   -0.0347810000   -0.0000000000
C       -0.1014500000   -0.2964670000    0.0000000000
C        0.0703960000    0.1038700000   -0.0000000000
N       -0.1967130000    0.0064160000    0.0000000000
H        0.1305940000    0.0006980000    0.0000000000
H        0.1333040000   -0.0000170000   -0.0000000000
H        0.1387390000    0.0001050000   -0.0000000000
H        0.1425550000    0.0779100000    0.0000000000
H        0.1610910000   -0.0038460000   -0.0000000000
C       -0.2731990000    1.1619120000    0.0000000000
H        0.1523760000    0.0012640000    0.0000000000
13   
Frame  36 IRC: Energy =  -286.8650070000 ; +4.6769 kcal/mol
C       -0.1055510000   -0.0434880000    0.0000000000
C        0.0303330000    0.0265990000   -0.0000000000
C       -0.2870530000   -0.0353610000   -0.0000000000
C       -0.1103970000   -0.2975360000    0.0000000000
C        0.0820480000    0.1051350000   -0.0000000000
N       -0.1980830000    0.0065060000    0.0000000000
H        0.1304900000    0.0006980000    0.0000000000
H        0.1332580000    0.0000160000   -0.0000000000
H        0.1387850000    0.0000620000   -0.0000000000
H        0.1429660000    0.0779680000    0.0000000000
H        0.1604970000   -0.0038920000   -0.0000000000
C       -0.2699120000    1.1621980000    0.0000000000
H        0.1526200000    0.0010930000    0.0000000000
13   
Frame  37 IRC: Energy =  -286.8649020000 ; +4.7428 kcal/mol
C       -0.1061390000   -0.0435120000    0.0000000000
C        0.0308310000    0.0264990000   -0.0000000000
C       -0.2881860000   -0.0352540000   -0.0000000000
C       -0.1112450000   -0.2975240000    0.0000000000
C        0.0838260000    0.1051600000   -0.0000000000
N       -0.1982160000    0.0065920000    0.0000000000
H        0.1305570000    0.0006990000    0.0000000000
H        0.1331650000    0.0000180000   -0.0000000000
H        0.1387370000    0.0000610000   -0.0000000000
H        0.1429970000    0.0779880000    0.0000000000
H        0.1605210000   -0.0039060000   -0.0000000000
C       -0.2694980000    1.1620990000    0.0000000000
H        0.1526490000    0.0010800000    0.0000000000
13   
Frame  38 IRC: Energy =  -286.8638430000 ; +5.4073 kcal/mol
C       -0.1088320000   -0.0440870000    0.0000000000
C        0.0362460000    0.0273550000   -0.0000000000
C       -0.2948700000   -0.0357560000   -0.0000000000
C       -0.1200370000   -0.2984010000    0.0000000000
C        0.0943020000    0.1061120000   -0.0000000000
N       -0.1994330000    0.0066250000    0.0000000000
H        0.1304890000    0.0006960000    0.0000000000
H        0.1331470000    0.0000550000   -0.0000000000
H        0.1387860000    0.0000120000   -0.0000000000
H        0.1434210000    0.0780950000    0.0000000000
H        0.1599250000   -0.0039520000   -0.0000000000
C       -0.2660960000    1.1623970000    0.0000000000
H        0.1529520000    0.0008490000    0.0000000000
13   