13   
Frame   0 IRC: Energy =  -286.8724601193 ; +0.0000 kcal/mol
C        1.8310512122    0.2079965210    0.0053954782
C        1.3974190607   -0.8749972867   -0.8913378217
C        0.0755797579   -0.6988485288   -1.0821545156
C       -1.4913412198    0.3023379258    0.6480828423
C       -0.3307138246    0.5318956033   -0.3020080922
N        0.8842871079    1.0078858339    0.3662000963
H        2.8511085508    0.3552371932    0.3547462698
H        2.0328260935   -1.6508881862   -1.3021425853
H       -0.5976517825   -1.3020901514   -1.6798211330
H       -2.4202771356   -0.0242939574    0.1638058102
H       -0.6303253837    1.3218853104   -1.0130829753
C       -1.4568779555    0.4608557232    1.9517631803
H       -2.1450844810    0.3630239999    2.7805534454
13   
Frame   1 IRC: Energy =  -286.8724594632 ; +0.0004 kcal/mol
C        1.8314651445    0.2081906257    0.0049878052
C        1.3977632362   -0.8749637905   -0.8915383597
C        0.0756024488   -0.6997452491   -1.0809680121
C       -1.4919725463    0.3041028546    0.6479984001
C       -0.3304335176    0.5315386520   -0.3013793118
N        0.8845615392    1.0075952926    0.3666090569
H        2.8517714478    0.3562079953    0.3532403727
H        2.0332953685   -1.6503658562   -1.3030869187
H       -0.5978432993   -1.3033364010   -1.6780304419
H       -2.4211249922   -0.0211098416    0.1631170716
H       -0.6293835903    1.3209861594   -1.0134352759
C       -1.4574772005    0.4592555513    1.9520631874
H       -2.1462240388    0.3616440075    2.7804224263
13   
Frame   2 IRC: Energy =  -286.8724574706 ; +0.0017 kcal/mol
C        1.8326390639    0.2078397333    0.0040512167
C        1.3989279859   -0.8745938959   -0.8932314894
C        0.0764718597   -0.6998578489   -1.0817721657
C       -1.4919343932    0.3020870979    0.6500506750
C       -0.3302966366    0.5290130340   -0.2988222812
N        0.8851680051    1.0059713535    0.3672267339
H        2.8530941366    0.3560579873    0.3517953697
H        2.0348614253   -1.6485662303   -1.3068574356
H       -0.5969095782   -1.3029207065   -1.6794055188
H       -2.4213161309   -0.0210201935    0.1638929021
H       -0.6292759291    1.3185133901   -1.0112604955
C       -1.4599881564    0.4601125916    1.9538361701
H       -2.1514416523    0.3673636875    2.7804963187
13   
Frame   3 IRC: Energy =  -286.8724405068 ; +0.0123 kcal/mol
C        1.8354170813    0.2099271261   -0.0010173649
C        1.4003422192   -0.8741981317   -0.8955944001
C        0.0770417533   -0.7015475198   -1.0802494215
C       -1.4920723108    0.3007787250    0.6521440910
C       -0.3292093449    0.5251448747   -0.2940826815
N        0.8857546538    1.0001336800    0.3734149117
H        2.8561798203    0.3578948889    0.3459741617
H        2.0367274156   -1.6456050698   -1.3132196296
H       -0.5969423615   -1.3041613943   -1.6777032343
H       -2.4208142054   -0.0189301549    0.1622491312
H       -0.6269899200    1.3155315008   -1.0065409108
C       -1.4646904666    0.4610791700    1.9556290330
H       -2.1607443343    0.3739523049    2.7789963141
13   
Frame   4 IRC: Energy =  -286.8724219929 ; +0.0239 kcal/mol
C        1.8323196194    0.2107835694    0.0045645213
C        1.4002273797   -0.8760330772   -0.8885202565
C        0.0765807403   -0.7077244376   -1.0721446841
C       -1.4944794817    0.3153424868    0.6476985417
C       -0.3297787510    0.5294049259   -0.3014832288
N        0.8854921041    1.0128793097    0.3599035077
H        2.8538822090    0.3646504784    0.3467939823
H        2.0376030463   -1.6495014494   -1.3008160317
H       -0.5968245750   -1.3142640474   -1.6663160448
H       -2.4328360776    0.0292860718    0.1555140060
H       -0.6314648412    1.3095914498   -1.0216697688
C       -1.4547187867    0.4345875856    1.9549044109
H       -2.1460025857    0.3409971342    2.7815710448
13   
Frame   5 IRC: Energy =  -286.8722085616 ; +0.1579 kcal/mol
C        1.8269414388    0.2299404112   -0.0003918879
C        1.3930005842   -0.8874963846   -0.8547076924
C        0.0745172166   -0.7100200081   -1.0631234821
C       -1.4968347756    0.3375414053    0.6318246695
C       -0.3331962913    0.5511406795   -0.3298232671
N        0.8824696533    1.0472390313    0.3250672845
H        2.8458855119    0.3853745415    0.3490404444
H        2.0256930899   -1.6853269616   -1.2259856768
H       -0.5984324043   -1.3297818763   -1.6437872947
H       -2.4622746322    0.1493485932    0.1459384415
H       -0.6446120016    1.3136671891   -1.0605415336
C       -1.4215279903    0.3573857154    1.9427424525
H       -2.0916293994    0.2409876640    2.7837475420
13   
Frame   6 IRC: Energy =  -286.8716674862 ; +0.4974 kcal/mol
C        1.8124488128    0.2446032599    0.0082560914
C        1.3803689011   -0.8926461407   -0.8210638431
C        0.0659475309   -0.7117457289   -1.0505823260
C       -1.4925629981    0.3595834843    0.6090295668
C       -0.3395342613    0.5784434957   -0.3673099693
N        0.8729432492    1.0838542381    0.2883035344
H        2.8270588081    0.4014638456    0.3691188416
H        2.0070821867   -1.7148183526   -1.1461146397
H       -0.6078374148   -1.3485078689   -1.6112815984
H       -2.4809407783    0.2640475961    0.1432474154
H       -0.6584483675    1.3251388181   -1.1095452084
C       -1.3737083585    0.2794122502    1.9143844391
H       -2.0128173104    0.1311711030    2.7735576961
13   
Frame   7 IRC: Energy =  -286.8707880000 ; +1.0493 kcal/mol
C        1.7899245491    0.2637696937    0.0180965849
C        1.3504732654   -0.9047491766   -0.7623620663
C        0.0537682948   -0.6936624064   -1.0573798890
C       -1.4778010235    0.3939503959    0.5872298012
C       -0.3484127894    0.6166444114   -0.4125427191
N        0.8647960362    1.1378061126    0.2287459948
H        2.7962838133    0.4133783224    0.4036295742
H        1.9595316476   -1.7650535705   -1.0129295638
H       -0.6215498935   -1.3420764512   -1.6024407744
H       -2.4822577018    0.3319909934    0.1509808472
H       -0.6776000203    1.3478153495   -1.1655580464
C       -1.3046964589    0.2061185568    1.8750598959
H       -1.9024597191   -0.0059322310    2.7494703608
13   
Frame   8 IRC: Energy =  -286.8707360000 ; +1.0819 kcal/mol
C        1.7889590885    0.2643301139    0.0184962923
C        1.3492816998   -0.9050300163   -0.7601516222
C        0.0532130362   -0.6927148774   -1.0574716615
C       -1.4771320373    0.3948388575    0.5859164577
C       -0.3482704863    0.6176811624   -0.4138649495
N        0.8645430865    1.1399916269    0.2263847301
H        2.7951305025    0.4136786577    0.4051977081
H        1.9574250795   -1.7669105195   -1.0076821539
H       -0.6222697537   -1.3417705239   -1.6019468153
H       -2.4820692660    0.3341724198    0.1512864981
H       -0.6788083810    1.3493458884   -1.1679652125
C       -1.3018785053    0.2034665477    1.8731887471
H       -1.8981240633   -0.0110793371    2.7486119815
13   
Frame   9 IRC: Energy =  -286.8707160000 ; +1.0945 kcal/mol
C        1.7888068841    0.2646979678    0.0187588489
C        1.3488103533   -0.9051926757   -0.7593963589
C        0.0531304296   -0.6927312041   -1.0575556820
C       -1.4768262502    0.3950311563    0.5860117666
C       -0.3486462439    0.6190064921   -0.4153038964
N        0.8646217361    1.1405318511    0.2256428491
H        2.7945555298    0.4137758211    0.4056766612
H        1.9565990287   -1.7674745365   -1.0057790908
H       -0.6224738535   -1.3415464546   -1.6016936267
H       -2.4820858002    0.3349436334    0.1513193037
H       -0.6789896079    1.3493355037   -1.1682786025
C       -1.3011718169    0.2024616011    1.8726401412
H       -1.8963303889   -0.0128391558    2.7479576866
13   
Frame  10 IRC: Energy =  -286.8706550000 ; +1.1327 kcal/mol
C        1.7876267561    0.2653528093    0.0192614101
C        1.3474886413   -0.9055629351   -0.7569095642
C        0.0524767335   -0.6916115018   -1.0576723227
C       -1.4760867568    0.3960560254    0.5845564489
C       -0.3485790078    0.6203588352   -0.4168760912
N        0.8642925378    1.1431647203    0.2229666410
H        2.7933598404    0.4140936636    0.4074911936
H        1.9542690045   -1.7698330940   -0.9997799501
H       -0.6233552425   -1.3411575819   -1.6011267667
H       -2.4818529877    0.3372335485    0.1515757520
H       -0.6803767959    1.3512057786   -1.1710732383
C       -1.2978885647    0.1994406500    1.8706059458
H       -1.8913741583   -0.0187409181    2.7469805416
13   
Frame  11 IRC: Energy =  -286.8706390000 ; +1.1428 kcal/mol
C        1.7872077593    0.2650769354    0.0190600385
C        1.3473570127   -0.9054166065   -0.7565075847
C        0.0523815211   -0.6912131459   -1.0576359732
C       -1.4759147897    0.3961668621    0.5847868531
C       -0.3481743212    0.6198453975   -0.4164962490
N        0.8640629456    1.1437554260    0.2226445347
H        2.7934371956    0.4141679506    0.4078209252
H        1.9540345721   -1.7702087702   -0.9990934187
H       -0.6235266898   -1.3411855010   -1.6011332484
H       -2.4818493217    0.3375007601    0.1516109102
H       -0.6807085363    1.3518393876   -1.1717851429
C       -1.2972983041    0.1992271007    1.8695339393
H       -1.8910090434   -0.0195557965    2.7471944159
13   
Frame  12 IRC: Energy =  -286.8703150000 ; +1.3461 kcal/mol
C        1.7828422881    0.2694119810    0.0221992022
C        1.3397101835   -0.9074270753   -0.7440703455
C        0.0492798370   -0.6866862745   -1.0584847912
C       -1.4712527655    0.4000858522    0.5789946071
C       -0.3493238471    0.6315135516   -0.4286091833
N        0.8640834763    1.1553180807    0.2097878162
H        2.7864459160    0.4153855517    0.4159102274
H        1.9400605584   -1.7809189077   -0.9680406338
H       -0.6284590813   -1.3378124692   -1.5974331486
H       -2.4797327220    0.3450096357    0.1519376751
H       -0.6860161287    1.3591702378   -1.1820211669
C       -1.2823915164    0.1852929666    1.8604576270
H       -1.8652461983   -0.0483431307    2.7393721142
13   
Frame  13 IRC: Energy =  -286.8702930000 ; +1.3599 kcal/mol
C        1.7822243043    0.2691071497    0.0219809722
C        1.3393302514   -0.9070952104   -0.7431389962
C        0.0490253281   -0.6862667883   -1.0585475345
C       -1.4709933812    0.4003559198    0.5785758522
C       -0.3490262237    0.6315183363   -0.4286856058
N        0.8638909978    1.1562960400    0.2090759836
H        2.7863529357    0.4155217509    0.4165100466
H        1.9393750247   -1.7817099558   -0.9663609379
H       -0.6287731557   -1.3376654563   -1.5972639893
H       -2.4795746461    0.3454116144    0.1519951443
H       -0.6864770708    1.3599547743   -1.1829410323
C       -1.2813742390    0.1846008415    1.8596061656
H       -1.8639801254   -0.0500290160    2.7391939316
13   
Frame  14 IRC: Energy =  -286.8701720000 ; +1.4358 kcal/mol
C        1.7810036116    0.2709478263    0.0233031037
C        1.3366335371   -0.9081220867   -0.7391298565
C        0.0480397726   -0.6846586624   -1.0587828431
C       -1.4693248643    0.4015774956    0.5768543640
C       -0.3494873291    0.6357642234   -0.4329986908
N        0.8640818121    1.1600200402    0.2047004877
H        2.7838419488    0.4158454890    0.4191027304
H        1.9343582907   -1.7851749872   -0.9556922765
H       -0.6305595498   -1.3364209900   -1.5959525559
H       -2.4787470671    0.3474810840    0.1519707649
H       -0.6881758359    1.3624380861   -1.1861994183
C       -1.2764350707    0.1800309490    1.8565082901
H       -1.8552292560   -0.0597284672    2.7363159004
13   
Frame  15 IRC: Energy =  -286.8701430000 ; +1.4540 kcal/mol
C        1.7802491505    0.2706707042    0.0230981564
C        1.3361041254   -0.9077049792   -0.7379050686
C        0.0476569678   -0.6842338485   -1.0589200894
C       -1.4689718879    0.4019133262    0.5762564718
C       -0.3492304884    0.6360914066   -0.4333542210
N        0.8639284782    1.1612146673    0.2037545895
H        2.7836636801    0.4160100794    0.4198568280
H        1.9333894369   -1.7862236874   -0.9534109497
H       -0.6309534189   -1.3361400916   -1.5956604270
H       -2.4785138891    0.3479130968    0.1520085987
H       -0.6887101072    1.3633428429   -1.1872480447
C       -1.2751527644    0.1790933442    1.8555943973
H       -1.8534592829   -0.0619468608    2.7359297587
13   
Frame  16 IRC: Energy =  -286.8700090000 ; +1.5381 kcal/mol
C        1.7790060045    0.2725721552    0.0244430388
C        1.3332485972   -0.9088294159   -0.7337435613
C        0.0466334235   -0.6823360124   -1.0591063522
C       -1.4671522516    0.4031274063    0.5744748843
C       -0.3495646269    0.6403979050   -0.4376488330
N        0.8641881624    1.1651421088    0.1991970004
H        2.7810996219    0.4163034762    0.4224821173
H        1.9279394733   -1.7897996894   -0.9421932298
H       -0.6329829812   -1.3347889649   -1.5942574861
H       -2.4774898898    0.3495498768    0.1518697203
H       -0.6904727818    1.3661673810   -1.1906359118
C       -1.2699868959    0.1745426311    1.8522341474
H       -1.8444658556   -0.0720488577    2.7328844658
13   
Frame  17 IRC: Energy =  -286.8699760000 ; +1.5588 kcal/mol
C        1.7781901749    0.2722934460    0.0242225612
C        1.3326283311   -0.9082953716   -0.7323876869
C        0.0461573777   -0.6819941208   -1.0593284205
C       -1.4667499759    0.4034570589    0.5738706881
C       -0.3493373005    0.6409522026   -0.4381612838
N        0.8640824035    1.1664012322    0.1981880872
H        2.7809181471    0.4164767528    0.4232793903
H        1.9268657189   -1.7909858467   -0.9397022478
H       -0.6333863140   -1.3343977425   -1.5938736867
H       -2.4772074766    0.3499000073    0.1518751142
H       -0.6909982433    1.3670824113   -1.1916591277
C       -1.2686516137    0.1735471547    1.8513082370
H       -1.8425112292   -0.0744371841    2.7323683754
13   
Frame  18 IRC: Energy =  -286.8698120000 ; +1.6617 kcal/mol
C        1.7767587049    0.2743934762    0.0256923692
C        1.3292777750   -0.9095711277   -0.7275552228
C        0.0449661582   -0.6795678100   -1.0594663759
C       -1.4645512407    0.4048050208    0.5717604535
C       -0.3495530900    0.6458156172   -0.4429109009
N        0.8644589979    1.1710087454    0.1929189901
H        2.7780635902    0.4167782456    0.4262087607
H        1.9202806786   -1.7951033373   -0.9265974969
H       -0.6359405820   -1.3327415267   -1.5921673027
H       -2.4758171071    0.3511273438    0.1515469787
H       -0.6930192925    1.3706439246   -1.1955502309
C       -1.2626442561    0.1685351125    1.8473497916
H       -1.8322803366   -0.0861236845    2.7287701862
13   
Frame  19 IRC: Energy =  -286.8697760000 ; +1.6843 kcal/mol
C        1.7759022506    0.2741036512    0.0254503921
C        1.3286156971   -0.9088981732   -0.7261465911
C        0.0444698033   -0.6793549652   -1.0597413989
C       -1.4641337140    0.4051128822    0.5711943964
C       -0.3493188143    0.6465060434   -0.4435141644
N        0.8644432225    1.1722215677    0.1919208798
H        2.7778865018    0.4169515804    0.4269799452
H        1.9191556113   -1.7963311180   -0.9240741721
H       -0.6363415520   -1.3322648564   -1.5917180563
H       -2.4755195741    0.3513456120    0.1514995108
H       -0.6935176161    1.3715501437   -1.1965049065
C       -1.2613216092    0.1675699239    1.8464655282
H       -1.8303202069   -0.0885122918    2.7281886368
13   
Frame  20 IRC: Energy =  -286.8695960000 ; +1.7973 kcal/mol
C        1.7744906496    0.2762760408    0.0269252765
C        1.3250596268   -0.9102826759   -0.7211844842
C        0.0432070333   -0.6765968978   -1.0598149293
C       -1.4617554432    0.4064179977    0.5689766851
C       -0.3494437406    0.6515129235   -0.4482440159
N        0.8649197847    1.1770227088    0.1864923067
H        2.7750656128    0.4172142887    0.4298660564
H        1.9120794162   -1.8005505208   -0.9104228536
H       -0.6391808165   -1.3304681552   -1.5898535777
H       -2.4738357450    0.3519420093    0.1509977277
H       -0.6955314276    1.3754289395   -1.2004011477
C       -1.2551677282    0.1626409381    1.8423508667
H       -1.8199072222   -0.1005575966    2.7243120892
13   
Frame  21 IRC: Energy =  -286.8695590000 ; +1.8205 kcal/mol
C        1.7739675375    0.2758551301    0.0267076737
C        1.3244884045   -0.9096585396   -0.7198211008
C        0.0424739087   -0.6764278318   -1.0602055034
C       -1.4613200173    0.4066761863    0.5684376996
C       -0.3492915553    0.6522895839   -0.4487832593
N        0.8646924042    1.1783635138    0.1855354949
H        2.7749031816    0.4173653960    0.4305684183
H        1.9109819045   -1.8017635676   -0.9079846271
H       -0.6395111501   -1.3299133698   -1.5893370691
H       -2.4734617810    0.3520310162    0.1509453226
H       -0.6959589475    1.3762775278   -1.2012420348
C       -1.2539503365    0.1617493311    1.8414953061
H       -1.8180135535   -0.1028443765    2.7236836793
13   
Frame  22 IRC: Energy =  -286.8694320000 ; +1.9002 kcal/mol
C        1.7727729338    0.2776419989    0.0277535436
C        1.3219331296   -0.9106860965   -0.7165567984
C        0.0419947884   -0.6744420527   -1.0600287923
C       -1.4596872760    0.4075374311    0.5669863383
C       -0.3492606413    0.6556676277   -0.4520951043
N        0.8654509723    1.1812740726    0.1818682146
H        2.7729577967    0.4175163308    0.4324103264
H        1.9059514696   -1.8044524306   -0.8986546312
H       -0.6416394916   -1.3287340464   -1.5880928599
H       -2.4723044613    0.3521140678    0.1504616855
H       -0.6973064945    1.3789970853   -1.2038137231
C       -1.2497880885    0.1585294182    1.8387801468
H       -1.8110746372   -0.1109634061    2.7209816542
13   
Frame  23 IRC: Energy =  -286.8693900000 ; +1.9265 kcal/mol
C        1.7726732588    0.2771728494    0.0276431215
C        1.3216316704   -0.9102362799   -0.7150477111
C        0.0414097816   -0.6744468266   -1.0603885215
C       -1.4591915361    0.4078652192    0.5664278447
C       -0.3488439955    0.6565957277   -0.4529138455
N        0.8653177830    1.1827215986    0.1809699733
H        2.7722355097    0.4176333359    0.4329291177
H        1.9043845062   -1.8053359938   -0.8959169885
H       -0.6421690123   -1.3281826922   -1.5875875539
H       -2.4721369597    0.3520947889    0.1502469467
H       -0.6978321575    1.3799646983   -1.2047187312
C       -1.2483297694    0.1576037905    1.8379749803
H       -1.8091490792   -0.1134502161    2.7203813675
13   
Frame  24 IRC: Energy =  -286.8692820000 ; +1.9943 kcal/mol
C        1.7712869880    0.2789091141    0.0284802208
C        1.3189829408   -0.9111193123   -0.7126409454
C        0.0406619052   -0.6722868661   -1.0602696091
C       -1.4578139869    0.4084239279    0.5652307689
C       -0.3493292200    0.6593714873   -0.4552404531
N        0.8657493903    1.1850985202    0.1777371647
H        2.7714812416    0.4177552803    0.4346720852
H        1.9006983900   -1.8081169542   -0.8883514810
H       -0.6437538699   -1.3271221464   -1.5864408589
H       -2.4706317989    0.3519827832    0.1500292044
H       -0.6987330463    1.3821184478   -1.2066631658
C       -1.2452773958    0.1550203782    1.8355757022
H       -1.8033215381   -0.1200346600    2.7178813670
13   
Frame  25 IRC: Energy =  -286.8692110000 ; +2.0389 kcal/mol
C        1.7711050810    0.2776324925    0.0291804263
C        1.3189335943   -0.9101007849   -0.7109488334
C        0.0403877543   -0.6726222706   -1.0596583374
C       -1.4569326508    0.4091640508    0.5643809788
C       -0.3483879210    0.6602693091   -0.4575336025
N        0.8660175317    1.1861441806    0.1754368557
H        2.7697113315    0.4180232176    0.4349952222
H        1.8972034529   -1.8081274841   -0.8835617528
H       -0.6444245005   -1.3258178014   -1.5854099081
H       -2.4705631327    0.3517481529    0.1495574949
H       -0.6996023310    1.3838873373   -1.2079138594
C       -1.2430167715    0.1536601760    1.8344237040
H       -1.8004314381   -0.1238605756    2.7170516119
13   
Frame  26 IRC: Energy =  -286.8690530000 ; +2.1380 kcal/mol
C        1.7694943549    0.2812106538    0.0289146393
C        1.3147108091   -0.9120578022   -0.7063723284
C        0.0388869934   -0.6692053746   -1.0612410197
C       -1.4551438105    0.4095276095    0.5627760688
C       -0.3490397980    0.6652294003   -0.4594885807
N        0.8665255161    1.1912073160    0.1726072030
H        2.7691260202    0.4179618481    0.4378337205
H        1.8930194526   -1.8137023065   -0.8735593447
H       -0.6473977997   -1.3251086336   -1.5842017097
H       -2.4684061151    0.3512561336    0.1490262273
H       -0.7008263201    1.3867439295   -1.2108577138
C       -1.2385139706    0.1501344811    1.8311863035
H       -1.7924353323   -0.1331972550    2.7133765346
13   
Frame  27 IRC: Energy =  -286.8689800000 ; +2.1838 kcal/mol
C        1.7699217102    0.2825614908    0.0285478319
C        1.3132169061   -0.9134622978   -0.7051703473
C        0.0372654768   -0.6673641373   -1.0626712805
C       -1.4547425800    0.4092081173    0.5624239476
C       -0.3504762178    0.6671458644   -0.4585700956
N        0.8653135287    1.1936729486    0.1720428863
H        2.7700427265    0.4177946651    0.4390397485
H        1.8930959722   -1.8164479953   -0.8714225348
H       -0.6480131609   -1.3251291394   -1.5839264724
H       -2.4669164338    0.3512208057    0.1493178126
H       -0.7008109070    1.3871331569   -1.2115478094
C       -1.2379167189    0.1491654284    1.8300454527
H       -1.7899803022   -0.1354989074    2.7118908606
13   
Frame  28 IRC: Energy =  -286.8684600000 ; +2.5101 kcal/mol
C        1.7652951517    0.2838240970    0.0315851241
C        1.3053892971   -0.9122349697   -0.6928541796
C        0.0348910637   -0.6626055469   -1.0606367770
C       -1.4479729413    0.4125786720    0.5567060246
C       -0.3472728307    0.6779027737   -0.4711443248
N        0.8692932848    1.2033084051    0.1580525488
H        2.7632843461    0.4187362629    0.4431020064
H        1.8713398373   -1.8241216045   -0.8367400825
H       -0.6558491966   -1.3180297398   -1.5771213869
H       -2.4621082294    0.3460307332    0.1455921354
H       -0.7054440221    1.3992028358   -1.2195521908
C       -1.2230058433    0.1397329579    1.8209246053
H       -1.7678399174   -0.1643248769    2.7020864970
13   
Frame  29 IRC: Energy =  -286.8684150000 ; +2.5384 kcal/mol
C        1.7658301512    0.2832555940    0.0319129923
C        1.3055389023   -0.9122329710   -0.6919438142
C        0.0341486841   -0.6626501560   -1.0606821412
C       -1.4474900808    0.4128862078    0.5563098632
C       -0.3467914017    0.6784996889   -0.4722008393
N        0.8691332116    1.2044008673    0.1572095149
H        2.7623736039    0.4188033653    0.4431456300
H        1.8696159085   -1.8242219993   -0.8343969582
H       -0.6561819297   -1.3173394593   -1.5765211689
H       -2.4619811736    0.3456493653    0.1452705838
H       -0.7058054070    1.4000575802   -1.2200711582
C       -1.2219020403    0.1391363028    1.8203797664
H       -1.7664884286   -0.1662443859    2.7015877295
13   
Frame  30 IRC: Energy =  -286.8677490000 ; +2.9563 kcal/mol
C        1.7616133225    0.2883779144    0.0328997806
C        1.2942490309   -0.9136142653   -0.6782022928
C        0.0300148492   -0.6541580859   -1.0613054186
C       -1.4401519700    0.4147053423    0.5506298891
C       -0.3457567321    0.6925610763   -0.4813351331
N        0.8726979208    1.2171698425    0.1441646254
H        2.7591183734    0.4192027113    0.4477521657
H        1.8485074578   -1.8367129693   -0.7979593714
H       -0.6659593340   -1.3107365292   -1.5694711135
H       -2.4537908343    0.3375422053    0.1410790507
H       -0.7095968739    1.4125750403   -1.2276709739
C       -1.2075789120    0.1297267062    1.8105490787
H       -1.7433662984   -0.1966389888    2.6888697132
13   
Frame  31 IRC: Energy =  -286.8676990000 ; +2.9876 kcal/mol
C        1.7622221473    0.2882661263    0.0330258921
C        1.2941804303   -0.9140449234   -0.6772260328
C        0.0288430375   -0.6537552062   -1.0617980558
C       -1.4396650213    0.4147931307    0.5502849100
C       -0.3457293410    0.6935058818   -0.4817546874
N        0.8722806511    1.2185814672    0.1434219849
H        2.7587495358    0.4191987644    0.4479493071
H        1.8471553776   -1.8373800842   -0.7957248440
H       -0.6663405717   -1.3101461155   -1.5688867470
H       -2.4532491232    0.3370296931    0.1408484476
H       -0.7098153828    1.4133334022   -1.2281329974
C       -1.2067113388    0.1291425568    1.8099142801
H       -1.7419204007   -0.1985246931    2.6880785426
13   
Frame  32 IRC: Energy =  -286.8669470000 ; +3.4595 kcal/mol
C        1.7583038045    0.2920422256    0.0341209109
C        1.2833255616   -0.9142341872   -0.6638957540
C        0.0253963678   -0.6460397311   -1.0611410528
C       -1.4319877975    0.4165236023    0.5447085049
C       -0.3433618822    0.7067402539   -0.4914590546
N        0.8771087017    1.2300157391    0.1301645289
H        2.7555243634    0.4197579511    0.4502725395
H        1.8239112483   -1.8479889811   -0.7585430272
H       -0.6762767730   -1.3025259155   -1.5613879481
H       -2.4447150092    0.3265046943    0.1355218337
H       -0.7134611275    1.4266068505   -1.2344550052
C       -1.1929002909    0.1206575898    1.8008322171
H       -1.7208671670   -0.2280600917    2.6752613068
13   
Frame  33 IRC: Energy =  -286.8668820000 ; +3.5003 kcal/mol
C        1.7588713737    0.2918236658    0.0342926235
C        1.2834178580   -0.9146266207   -0.6627465501
C        0.0240346811   -0.6457016096   -1.0616014696
C       -1.4313978965    0.4166527991    0.5443155338
C       -0.3431368731    0.7077099321   -0.4920992582
N        0.8768856582    1.2314451115    0.1292785815
H        2.7550460424    0.4197804617    0.4503063834
H        1.8220983182   -1.8485116118   -0.7558762759
H       -0.6767030763   -1.3017266686   -1.5606548568
H       -2.4441281376    0.3257271114    0.1351422118
H       -0.7137294467    1.4275630547   -1.2349034477
C       -1.1918856176    0.1200584712    1.8001612880
H       -1.7193728837   -0.2301940968    2.6743852362
13   
Frame  34 IRC: Energy =  -286.8660370000 ; +4.0306 kcal/mol
C        1.7555585028    0.2958528105    0.0346550401
C        1.2720181295   -0.9149049110   -0.6495234545
C        0.0207076237   -0.6375429819   -1.0611599726
C       -1.4235384808    0.4175512739    0.5389534524
C       -0.3407220931    0.7210897528   -0.5007374606
N        0.8821498886    1.2427259848    0.1164641487
H        2.7531687226    0.4202853152    0.4509866647
H        1.7981804930   -1.8591808658   -0.7181537559
H       -0.6868864780   -1.2938248259   -1.5533475948
H       -2.4344740164    0.3133933341    0.1289849896
H       -0.7171938824    1.4411708827   -1.2398625985
C       -1.1790481412    0.1119919306    1.7915879664
H       -1.6999202682   -0.2586077000    2.6611525751
13   
Frame  35 IRC: Energy =  -286.8659540000 ; +4.0827 kcal/mol
C        1.7560561034    0.2957703746    0.0347666058
C        1.2721506044   -0.9154270024   -0.6481745463
C        0.0190566258   -0.6370904091   -1.0617732371
C       -1.4228539976    0.4176112911    0.5385401361
C       -0.3404866282    0.7222310818   -0.5013321468
N        0.8820439022    1.2442435815    0.1154756289
H        2.7528202896    0.4203065451    0.4509249244
H        1.7960779738   -1.8598032384   -0.7150841501
H       -0.6873687994   -1.2928856909   -1.5525213233
H       -2.4336906057    0.3123637156    0.1284946542
H       -0.7174813748    1.4422768402   -1.2402661969
C       -1.1779889175    0.1113434491    1.7908453688
H       -1.6983351760   -0.2609405383    2.6601042823
13   
Frame  36 IRC: Energy =  -286.8650070000 ; +4.6769 kcal/mol
C        1.7533504206    0.2994282539    0.0346594163
C        1.2606224776   -0.9153590286   -0.6351929250
C        0.0161767475   -0.6289376810   -1.0612081892
C       -1.4147888399    0.4176475503    0.5332684121
C       -0.3376196609    0.7352564141   -0.5095473818
N        0.8879157755    1.2550129195    0.1027386899
H        2.7518644183    0.4208220923    0.4496269655
H        1.7709842727   -1.8698100435   -0.6763666839
H       -0.6975025968   -1.2844944819   -1.5454962380
H       -2.4231648599    0.2986393449    0.1211860231
H       -0.7212277533    1.4563475374   -1.2435529606
C       -1.1660516499    0.1032551251    1.7827645071
H       -1.6805587516   -0.2878080025    2.6471203645
13   
Frame  37 IRC: Energy =  -286.8649020000 ; +4.7428 kcal/mol
C        1.7537436110    0.2994265399    0.0347279386
C        1.2608458727   -0.9159402492   -0.6336361430
C        0.0142728679   -0.6284361734   -1.0619235424
C       -1.4139978512    0.4176354585    0.5328267981
C       -0.3372943600    0.7364986504   -0.5102061026
N        0.8880267047    1.2565384558    0.1016194927
H        2.7515953808    0.4208530794    0.4493858551
H        1.7684803817   -1.8704254221   -0.6728082294
H       -0.6980151459   -1.2833673474   -1.5445750743
H       -2.4222088876    0.2973472734    0.1205170620
H       -0.7215872795    1.4576396191   -1.2438551809
C       -1.1649313460    0.1025276697    1.7819539279
H       -1.6789299488   -0.2902975541    2.6459731981
13   
Frame  38 IRC: Energy =  -286.8638430000 ; +5.4073 kcal/mol
C        1.7517869206    0.3029452041    0.0339145518
C        1.2492116724   -0.9156889221   -0.6209998752
C        0.0119517435   -0.6201545787   -1.0616460693
C       -1.4057377198    0.4163225094    0.5275759092
C       -0.3341050307    0.7491747894   -0.5177863186
N        0.8943622146    1.2669695879    0.0889456464
H        2.7517325266    0.4212617511    0.4463292635
H        1.7425437911   -1.8799213143   -0.6330188790
H       -0.7080941888   -1.2745996011   -1.5379864997
H       -2.4106805287    0.2828595694    0.1117115683
H       -0.7261007567    1.4719761964   -1.2451687300
C       -1.1540765101    0.0937033208    1.7742346450
H       -1.6627941340   -0.3148485124    2.6338947875
13   