
Running Job 1 of 1 irc_reactant.in
qchem irc_reactant.in_24991.0 ./irc_reactant.d/ 1
/home/leeping/opt/qchem/5.0.2-openmp/exe/qcprog.exe_s irc_reactant.in_24991.0 ./irc_reactant.d/
Check license passed

                  Welcome to Q-Chem
     A Quantum Leap Into The Future Of Chemistry


 Q-Chem 5.0, Q-Chem, Inc., Pleasanton, CA (2017)

 Yihan Shao,  Zhengting Gan,  E. Epifanovsky,  A. T. B. Gilbert,  M. Wormit,  
 J. Kussmann,  A. W. Lange,  A. Behn,  Jia Deng,  Xintian Feng,  D. Ghosh,  
 M. Goldey,  P. R. Horn,  L. D. Jacobson,  I. Kaliman,  T. Kus,  A. Landau,  
 Jie Liu,  E. I. Proynov,  R. M. Richard,  R. P. Steele,  E. J. Sundstrom,  
 H. L. Woodcock III,  P. M. Zimmerman,  D. Zuev,  B. Albrecht,  E. Alguire,  
 S. A. Baeppler,  D. Barton,  Z. Benda,  Y. A. Bernard,  E. J. Berquist,  
 K. B. Bravaya,  H. Burton,  D. Casanova,  Chun-Min Chang,  Yunqing Chen,  
 A. Chien,  K. D. Closser,  M. P. Coons,  S. Dasgupta,  A. L. Dempwolff,  
 M. Diedenhofen,  Hainam Do,  R. G. Edgar,  Po-Tung Fang,  S. Fatehi,  
 Qingguo Feng,  J. Fosso-Tande,  Qinghui Ge,  A. Ghysels,  G. Gidofalvi,  
 J. Gomes,  J. Gonthier,  A. Gunina,  M. W. D. Hanson-Heine,  
 P. H. P. Harbach,  A. W. Hauser,  J. E. Herr,  E. G. Hohenstein,  
 Z. C. Holden,  Kerwin Hui,  T.-C. Jagau,  Hyunjun Ji,  B. Kaduk,  
 K. Khistyaev,  Jaehoon Kim,  P. Klunzinger,  K. Koh,  D. Kosenkov,  
 L. Koulias,  T. Kowalczyk,  C. M. Krauter,  A. Kunitsa,  Ka Un Lao,  
 A. Laurent,  K. V. Lawler,  Joonho Lee,  D. Lefrancois,  S. Lehtola,  
 D. S. Levine,  Yi-Pei Li,  You-Sheng Lin,  Fenglai Liu,  E. Livshits,  
 A. Luenser,  P. Manohar,  E. Mansoor,  S. F. Manzer,  Shan-Ping Mao,  
 Yuezhi Mao,  N. Mardirossian,  A. V. Marenich,  T. Markovich,  
 L. A. Martinez-Martinez,  S. A. Maurer,  N. J. Mayhall,  S. C. McKenzie,  
 J.-M. Mewes,  A. F. Morrison,  J. W. Mullinax,  K. Nanda,  
 T. S. Nguyen-Beck,  R. Olivares-Amaya,  J. A. Parkhill,  T. M. Perrine,  
 F. Plasser,  S. Prager,  A. Prociuk,  E. Ramos,  D. R. Rehn,  F. Rob,  
 M. Schneider,  N. Sergueev,  S. M. Sharada,  S. Sharma,  D. W. Small,  
 T. Stauch,  T. Stein,  Yu-Chuan Su,  A. J. W. Thom,  A. Tkatchenko,  
 T. Tsuchimochi,  L. Vogt,  O. Vydrov,  M. A. Watson,  J. Wenzel,  
 M. de Wergifosse,  T. A. Wesolowski,  A. White,  J. Witte,  A. Yamada,  
 Jun Yang,  K. Yao,  S. Yeganeh,  S. R. Yost,  Zhi-Qiang You,  A. Zech,  
 Igor Ying Zhang,  Xing Zhang,  Yan Zhao,  Ying Zhu,  B. R. Brooks,  
 G. K. L. Chan,  C. J. Cramer,  M. S. Gordon,  W. J. Hehre,  A. Klamt,  
 M. W. Schmidt,  C. D. Sherrill,  D. G. Truhlar,  A. Aspuru-Guzik,  R. Baer,  
 A. T. Bell,  N. A. Besley,  Jeng-Da Chai,  R. A. DiStasio Jr.,  A. Dreuw,  
 B. D. Dunietz,  T. R. Furlani,  Chao-Ping Hsu,  Yousung Jung,  Jing Kong,  
 D. S. Lambrecht,  WanZhen Liang,  C. Ochsenfeld,  V. A. Rassolov,  
 L. V. Slipchenko,  J. E. Subotnik,  T. Van Voorhis,  J. M. Herbert,  
 A. I. Krylov,  P. M. W. Gill,  M. Head-Gordon

 Contributors to earlier versions of Q-Chem not listed above: 
 R. D. Adamson,  B. Austin,  J. Baker,  G. J. O. Beran,  K. Brandhorst,  
 S. T. Brown,  E. F. C. Byrd,  A. K. Chakraborty,  C.-L. Cheng,  
 Siu Hung Chien,  D. M. Chipman,  D. L. Crittenden,  H. Dachsel,  
 R. J. Doerksen,  A. D. Dutoi,  L. Fusti-Molnar,  W. A. Goddard III,  
 A. Golubeva-Zadorozhnaya,  S. R. Gwaltney,  G. Hawkins,  A. Heyden,  
 S. Hirata,  G. Kedziora,  F. J. Keil,  C. Kelley,  Jihan Kim,  R. A. King,  
 R. Z. Khaliullin,  P. P. Korambath,  W. Kurlancheek,  A. M. Lee,  M. S. Lee,  
 S. V. Levchenko,  Ching Yeh Lin,  D. Liotard,  R. C. Lochan,  I. Lotan,  
 P. E. Maslen,  N. Nair,  D. P. O'Neill,  D. Neuhauser,  E. Neuscamman,  
 C. M. Oana,  R. Olson,  B. Peters,  R. Peverati,  P. A. Pieniazek,  
 Y. M. Rhee,  J. Ritchie,  M. A. Rohrdanz,  E. Rosta,  N. J. Russ,  
 H. F. Schaefer III,  N. E. Schultz,  N. Shenvi,  A. C. Simmonett,  A. Sodt,  
 D. Stuck,  K. S. Thanthiriwatte,  V. Vanovschi,  Tao Wang,  A. Warshel,  
 C. F. Williams,  Q. Wu,  X. Xu,  W. Zhang

 Please cite Q-Chem as follows:
 Y. Shao et al., Mol. Phys. 113, 184-215 (2015)
 DOI: 10.1080/00268976.2014.952696

 Q-Chem 5.0.2 for Intel X86 EM64T Linux

 Parts of Q-Chem use Armadillo 5.200.1 (Boston Tea Smuggler).
 http://arma.sourceforge.net/

 Q-Chem begins on Wed Mar  2 16:50:30 2022  

Host: 
0

     Scratch files written to ./irc_reactant.d//
 Dec517 15110_ 26548  26544 5633   
Processing $rem in /home/leeping/opt/qchem/5.0.2-openmp/config/preferences.
 MEM_STATIC 2000
 MEM_TOTAL  8000
 SYMMETRY   OFF
 SYM_IGNORE TRUE 

Checking the input file for inconsistencies... 	...done.

--------------------------------------------------------------
User input:
--------------------------------------------------------------
$molecule
0 2
C        1.8310512122    0.2079965210    0.0053954782
C        1.3974190607   -0.8749972867   -0.8913378217
C        0.0755797579   -0.6988485288   -1.0821545156
C       -1.4913412198    0.3023379258    0.6480828423
C       -0.3307138246    0.5318956033   -0.3020080922
N        0.8842871079    1.0078858339    0.3662000963
H        2.8511085508    0.3552371932    0.3547462698
H        2.0328260935   -1.6508881862   -1.3021425853
H       -0.5976517825   -1.3020901514   -1.6798211330
H       -2.4202771356   -0.0242939574    0.1638058102
H       -0.6303253837    1.3218853104   -1.0130829753
C       -1.4568779555    0.4608557232    1.9517631803
H       -2.1450844810    0.3630239999    2.7805534454
$end

$rem
method                b3lyp
basis                 6-31+g(d,p)
unrestricted          true
symmetry              off
sym_ignore            true
incdft                false
incfock               0
scf_convergence       6
thresh                14
jobtype               sp
scf_guess             read
scf_algorithm         diis
max_scf_cycles        100
stability_analysis    true
max_cis_cycles        100
cis_n_roots           4
$end

--------------------------------------------------------------
 ----------------------------------------------------------------
             Standard Nuclear Orientation (Angstroms)
    I     Atom           X                Y                Z
 ----------------------------------------------------------------
    1      C       1.8310512122     0.2079965210     0.0053954782
    2      C       1.3974190607    -0.8749972867    -0.8913378217
    3      C       0.0755797579    -0.6988485288    -1.0821545156
    4      C      -1.4913412198     0.3023379258     0.6480828423
    5      C      -0.3307138246     0.5318956033    -0.3020080922
    6      N       0.8842871079     1.0078858339     0.3662000963
    7      H       2.8511085508     0.3552371932     0.3547462698
    8      H       2.0328260935    -1.6508881862    -1.3021425853
    9      H      -0.5976517825    -1.3020901514    -1.6798211330
   10      H      -2.4202771356    -0.0242939574     0.1638058102
   11      H      -0.6303253837     1.3218853104    -1.0130829753
   12      C      -1.4568779555     0.4608557232     1.9517631803
   13      H      -2.1450844810     0.3630239999     2.7805534454
 ----------------------------------------------------------------
 Nuclear Repulsion Energy =   259.8333064425 hartrees
 There are       25 alpha and       24 beta electrons
 Requested basis set is 6-31+G(d,p)
 There are 53 shells and 163 basis functions

 Total QAlloc Memory Limit   8000 MB
 Mega-Array Size      1956 MB
 MEM_STATIC part      2000 MB

                       Distance Matrix (Angstroms)
             C (  1)   C (  2)   C (  3)   C (  4)   C (  5)   N (  6)
   C (  2)  1.471409
   C (  3)  2.255396  1.347107
   C (  4)  3.385297  3.478630  2.539948
   C (  5)  2.207405  2.305016  1.512757  1.517375
   N (  6)  1.290878  2.321628  2.380059  2.494166  1.466048
   H (  7)  1.088229  2.275833  3.298385  4.352668  3.253695  2.072310
   H (  8)  2.281627  1.083748  2.187599  4.476408  3.369145  3.342393
   H (  9)  3.319475  2.187332  1.083673  2.965132  2.309357  3.423205
   H ( 10)  4.260616  4.051152  2.869973  1.097331  2.211923  3.467925
   H ( 11)  2.887286  2.992133  2.141597  2.130797  1.104300  2.072455
   C ( 12)  3.829199  4.244377  3.591378  1.313734  2.520472  2.879984
   H ( 13)  4.851308  5.250220  4.580331  2.231254  3.580872  3.927091
             H (  7)   H (  8)   H (  9)   H ( 10)   H ( 11)   C ( 12)
   H (  8)  2.727527
   H (  9)  4.333607  2.680245
   H ( 10)  5.288479  4.962352  2.890274
   H ( 11)  3.863386  4.001664  2.707555  2.530058
   C ( 12)  4.595690  5.217796  4.127306  2.088133  3.196072
   H ( 13)  5.553967  6.178931  5.006206  2.659533  4.195901  1.081708

 
 A cutoff of  1.0D-14 yielded   1360 shell pairs
 There are     13282 function pairs
 Smallest overlap matrix eigenvalue = 1.70E-05

 Scale SEOQF with 1.000000e-01/1.000000e-01/1.000000e-01

 Standard Electronic Orientation quadrupole field applied
 Nucleus-field energy     =    -0.0000000007 hartrees
 Guess MOs from SCF MO coefficient file
 Reading MOs from coefficient file
 Reading MOs from coefficient file
 An unrestricted hybrid HF-DFT SCF calculation will be
 performed using Pulay DIIS extrapolation
 Exchange:     0.2000 Hartree-Fock + 0.0800 Slater + 0.7200 B88
 Correlation:  0.1900 VWN1RPA + 0.8100 LYP
 Using SG-1 standard quadrature grid
 SCF converges when DIIS error is below 1.0E-06
Using Q-Chem read-in guess as SCF_GUESS READ specified.

 -------------------------------------------------------
 OpenMP BLAS3 based DFT computing Module                
 -------------------------------------------------------
 ---------------------------------------
  Cycle       Energy         DIIS Error
 ---------------------------------------
    1    -286.8724601193      1.28E-09
    2    -286.8724601193      1.65E-09 Convergence criterion met
 ---------------------------------------
 <S^2> = 0.7606
 SCF time:  CPU 6.15 s  wall 9.06 s
 SCF   energy in the final basis set = -286.87246012
 Total energy in the final basis set = -286.87246012
 
 Direct TDDFT/TDA calculation will be performed
 Exchange:     0.2000 Hartree-Fock + 0.0800 Slater + 0.7200 B88
 Correlation:  0.1900 VWN1RPA + 0.8100 LYP
 Using SG-1 standard quadrature grid
 CIS energy converged when residual is below 10e- 6
 ---------------------------------------------------
 Iter    Rts Conv    Rts Left    Ttl Dev     Max Dev
 ---------------------------------------------------
   1         0           4      0.001874    0.000602
   2         0           4      0.000905    0.000381
   3         0           4      0.000869    0.000581
   4         0           4      0.001093    0.000516
   5         0           4      0.000518    0.000279
   6         0           4      0.000170    0.000084
   7         1           3      0.000058    0.000031
   8         1           3      0.000019    0.000012
   9         2           2      0.000007    0.000004
  10         3           1      0.000003    0.000002
  11         4           0      0.000001    0.000000    Roots Converged
 ---------------------------------------------------
 
 ---------------------------------------------------
         TDDFT/TDA Excitation Energies              
 ---------------------------------------------------

 Excited state   1: excitation energy (eV) =    3.1177
 Total energy for state  1:                  -286.75788691 au
    <S**2>     :  0.7669
    Trans. Mom.: -0.0037 X   0.1098 Y  -0.0449 Z
    Strength   :     0.0010767999
    S(  1) --> V(  2) amplitude =  0.1654 alpha
    D( 22) --> S(  1) amplitude = -0.3050 beta
    D( 23) --> S(  1) amplitude =  0.6098 beta
    D( 24) --> S(  1) amplitude =  0.6981 beta

 Excited state   2: excitation energy (eV) =    3.3739
 Total energy for state  2:                  -286.74847201 au
    <S**2>     :  2.6734
    Trans. Mom.: -0.0147 X   0.0027 Y  -0.0064 Z
    Strength   :     0.0000218547
    D( 23) --> V(  1) amplitude = -0.1623 alpha
    D( 24) --> V(  1) amplitude =  0.6038 alpha
    S(  1) --> V(  1) amplitude =  0.2994 alpha
    D( 23) --> V(  1) amplitude =  0.3357 beta
    D( 24) --> V(  1) amplitude = -0.5813 beta

 Excited state   3: excitation energy (eV) =    3.9108
 Total energy for state  3:                  -286.72874114 au
    <S**2>     :  1.9194
    Trans. Mom.: -0.0817 X   0.0321 Y  -0.0123 Z
    Strength   :     0.0007524585
    D( 22) --> V(  1) amplitude =  0.1635 alpha
    D( 23) --> V(  1) amplitude = -0.3910 alpha
    D( 24) --> V(  1) amplitude = -0.2828 alpha
    S(  1) --> V(  1) amplitude =  0.6958 alpha
    D( 22) --> V(  1) amplitude =  0.3962 beta
    D( 24) --> V(  1) amplitude =  0.1798 beta

 Excited state   4: excitation energy (eV) =    4.2109
 Total energy for state  4:                  -286.71771140 au
    <S**2>     :  0.8474
    Trans. Mom.:  0.1162 X  -0.0587 Y  -0.0994 Z
    Strength   :     0.0027696260
    D( 22) --> S(  1) amplitude =  0.3759 beta
    D( 23) --> S(  1) amplitude = -0.5776 beta
    D( 24) --> S(  1) amplitude =  0.6981 beta
 
 ---------------------------------------------------

 Stability analysis will be performed
 ---------------------------------------------------
 Iter    Rts Conv    Rts Left    Ttl Dev     Max Dev
 ---------------------------------------------------
   1         0           8      0.003408    0.000663
   2         0           8      0.001211    0.000421
   3         0           8      0.000727    0.000257
   4         1           7      0.000615    0.000279
   5         1           7      0.001068    0.000869
   6         3           5      0.000522    0.000414
   7         3           5      0.000802    0.000733
   8         5           3      0.000211    0.000193
   9         5           3      0.000048    0.000042
  10         7           1      0.000014    0.000011
  11         7           1      0.000005    0.000003
  12         8           0      0.000003    0.000001    Roots Converged
 UKS-> UKS   stable,    smallest eigenvalue:      0.0744174
 UKS->CUKS   stable,    smallest eigenvalue:      0.1203830
 ---------------------------------------------------
  SETman timing summary (seconds)
  CPU time               205.22s
  System time              0.00s
  Wall time              220.97s
 
 --------------------------------------------------------------
 
                    Orbital Energies (a.u.)
 --------------------------------------------------------------
 
 Alpha MOs
 -- Occupied --
-14.334 -10.239 -10.234 -10.217 -10.214 -10.213 -10.209  -0.955
 -0.798  -0.778  -0.714  -0.603  -0.573  -0.540  -0.517  -0.483
 -0.452  -0.416  -0.407  -0.385  -0.336  -0.281  -0.278  -0.264
 -0.236
 -- Virtual --
 -0.053  -0.003   0.007   0.018   0.027   0.035   0.043   0.047
  0.050   0.063   0.073   0.075   0.092   0.099   0.108   0.115
  0.123   0.130   0.137   0.148   0.153   0.161   0.171   0.181
  0.194   0.197   0.206   0.212   0.225   0.233   0.239   0.246
  0.258   0.269   0.273   0.285   0.302   0.313   0.337   0.378
  0.381   0.417   0.458   0.506   0.622   0.653   0.669   0.693
  0.695   0.701   0.712   0.725   0.744   0.756   0.757   0.785
  0.792   0.834   0.857   0.874   0.903   0.922   0.962   0.978
  0.987   1.035   1.043   1.059   1.081   1.098   1.112   1.126
  1.174   1.203   1.211   1.339   1.358   1.368   1.391   1.453
  1.484   1.489   1.572   1.601   1.625   1.730   1.752   1.819
  1.832   1.872   1.885   1.939   1.967   1.991   2.006   2.025
  2.028   2.133   2.152   2.209   2.232   2.261   2.338   2.366
  2.403   2.428   2.436   2.450   2.461   2.493   2.522   2.542
  2.564   2.627   2.666   2.671   2.701   2.736   2.778   2.798
  2.842   2.884   2.949   3.021   3.200   3.240   3.297   3.389
  3.432   3.603   3.726   4.138   4.291   4.375   4.389   4.483
  4.665   4.729
 
 Beta MOs
 -- Occupied --
-14.334 -10.238 -10.234 -10.215 -10.214 -10.208 -10.202  -0.955
 -0.791  -0.776  -0.703  -0.594  -0.572  -0.531  -0.515  -0.473
 -0.445  -0.414  -0.404  -0.383  -0.335  -0.276  -0.273  -0.261
 -- Virtual --
 -0.080  -0.053   0.005   0.009   0.019   0.029   0.036   0.043
  0.047   0.051   0.065   0.074   0.076   0.093   0.102   0.111
  0.117   0.125   0.130   0.139   0.148   0.155   0.162   0.171
  0.182   0.195   0.201   0.206   0.214   0.226   0.237   0.240
  0.248   0.260   0.271   0.273   0.286   0.303   0.315   0.342
  0.380   0.384   0.419   0.473   0.507   0.631   0.656   0.668
  0.695   0.704   0.708   0.713   0.730   0.754   0.760   0.773
  0.785   0.802   0.835   0.858   0.875   0.903   0.929   0.963
  0.981   0.997   1.036   1.043   1.063   1.090   1.105   1.115
  1.131   1.181   1.204   1.212   1.340   1.358   1.372   1.394
  1.455   1.488   1.492   1.586   1.620   1.655   1.747   1.768
  1.823   1.845   1.875   1.886   1.958   1.972   1.993   2.007
  2.027   2.038   2.137   2.158   2.213   2.233   2.269   2.342
  2.368   2.411   2.430   2.444   2.452   2.463   2.494   2.523
  2.546   2.565   2.636   2.673   2.676   2.705   2.743   2.782
  2.803   2.847   2.885   2.951   3.031   3.201   3.241   3.309
  3.389   3.433   3.620   3.726   4.139   4.298   4.375   4.400
  4.500   4.667   4.730
 --------------------------------------------------------------
 
          Ground-State Mulliken Net Atomic Charges

     Atom                 Charge (a.u.)    Spin (a.u.)
  --------------------------------------------------------
      1 C                    -0.083931      -0.020163
      2 C                     0.002735       0.010274
      3 C                    -0.192328      -0.013934
      4 C                    -0.026621      -0.249158
      5 C                    -0.102293       0.031700
      6 N                    -0.182183       0.003060
      7 H                     0.131303       0.000744
      8 H                     0.134377      -0.000089
      9 H                     0.138814       0.000177
     10 H                     0.137515       0.077548
     11 H                     0.181169      -0.004980
     12 C                    -0.288065       1.158232
     13 H                     0.149509       0.006589
  --------------------------------------------------------
  Sum of atomic charges =     0.000000
  Sum of spin   charges =     1.000000

 -----------------------------------------------------------------
                    Cartesian Multipole Moments
 -----------------------------------------------------------------
    Charge (ESU x 10^10)
                 0.0000
    Dipole Moment (Debye)
         X      -0.7397      Y      -1.8464      Z      -1.6758
       Tot       2.6008
    Quadrupole Moments (Debye-Ang)
        XX     -35.0312     XY      -2.1064     YY     -45.2395
        XZ      -1.5068     YZ      -0.6269     ZZ     -41.1827
    Octopole Moments (Debye-Ang^2)
       XXX      -4.5018    XXY      -9.0779    XYY      -4.0854
       YYY     -21.3817    XXZ      -0.0481    XYZ       0.1984
       YYZ     -12.3073    XZZ     -13.4851    YZZ      -7.4430
       ZZZ      -5.6307
    Hexadecapole Moments (Debye-Ang^3)
      XXXX    -431.9865   XXXY      26.8194   XXYY    -113.0609
      XYYY      19.5997   YYYY    -186.2648   XXXZ      80.3764
      XXYZ     -13.5397   XYYZ      29.7161   YYYZ     -59.1897
      XXZZ    -115.1415   XYZZ       4.5774   YYZZ     -82.7190
      XZZZ      67.9856   YZZZ     -53.5452   ZZZZ    -303.0162
 -----------------------------------------------------------------
Archival summary:
1\1\c8-89\SP\ProcedureUnspecified\6-31+G**\166(2)\hpark21\WedMar216:54:222022WedMar216:54:222022\0\\#,ProcedureUnspecified,6-31+G**,\\0,2\N\C,1,1.29088\H,2,1.08823,1,120.925\C,1,1.46605,2,106.216,3,178.961,0\H,4,1.1043,1,106.623,2,-114.558,0\C,2,1.47141,1,114.222,3,-179.938,0\H,6,1.08375,2,125.815,1,-179.664,0\C,6,1.34711,2,106.216,1,0.187085,0\H,8,1.08367,6,127.947,2,-179.67,0\C,4,1.51737,1,113.431,2,127.081,0\H,10,1.09733,4,114.596,1,178.18,0\C,10,1.31373,4,125.664,1,-1.88208,0\H,12,1.08171,10,137.115,4,179.402,0\\\@

 Total job time:  232.40s(wall), 211.59s(cpu) 
 Wed Mar  2 16:54:22 2022

        *************************************************************
        *                                                           *
        *  Thank you very much for using Q-Chem.  Have a nice day.  *
        *                                                           *
        *************************************************************


