
Running Job 1 of 1 irc_product.in
qchem irc_product.in_25867.0 ./irc_product.d/ 1
/home/leeping/opt/qchem/5.0.2-openmp/exe/qcprog.exe_s irc_product.in_25867.0 ./irc_product.d/
Check license passed

                  Welcome to Q-Chem
     A Quantum Leap Into The Future Of Chemistry


 Q-Chem 5.0, Q-Chem, Inc., Pleasanton, CA (2017)

 Yihan Shao,  Zhengting Gan,  E. Epifanovsky,  A. T. B. Gilbert,  M. Wormit,  
 J. Kussmann,  A. W. Lange,  A. Behn,  Jia Deng,  Xintian Feng,  D. Ghosh,  
 M. Goldey,  P. R. Horn,  L. D. Jacobson,  I. Kaliman,  T. Kus,  A. Landau,  
 Jie Liu,  E. I. Proynov,  R. M. Richard,  R. P. Steele,  E. J. Sundstrom,  
 H. L. Woodcock III,  P. M. Zimmerman,  D. Zuev,  B. Albrecht,  E. Alguire,  
 S. A. Baeppler,  D. Barton,  Z. Benda,  Y. A. Bernard,  E. J. Berquist,  
 K. B. Bravaya,  H. Burton,  D. Casanova,  Chun-Min Chang,  Yunqing Chen,  
 A. Chien,  K. D. Closser,  M. P. Coons,  S. Dasgupta,  A. L. Dempwolff,  
 M. Diedenhofen,  Hainam Do,  R. G. Edgar,  Po-Tung Fang,  S. Fatehi,  
 Qingguo Feng,  J. Fosso-Tande,  Qinghui Ge,  A. Ghysels,  G. Gidofalvi,  
 J. Gomes,  J. Gonthier,  A. Gunina,  M. W. D. Hanson-Heine,  
 P. H. P. Harbach,  A. W. Hauser,  J. E. Herr,  E. G. Hohenstein,  
 Z. C. Holden,  Kerwin Hui,  T.-C. Jagau,  Hyunjun Ji,  B. Kaduk,  
 K. Khistyaev,  Jaehoon Kim,  P. Klunzinger,  K. Koh,  D. Kosenkov,  
 L. Koulias,  T. Kowalczyk,  C. M. Krauter,  A. Kunitsa,  Ka Un Lao,  
 A. Laurent,  K. V. Lawler,  Joonho Lee,  D. Lefrancois,  S. Lehtola,  
 D. S. Levine,  Yi-Pei Li,  You-Sheng Lin,  Fenglai Liu,  E. Livshits,  
 A. Luenser,  P. Manohar,  E. Mansoor,  S. F. Manzer,  Shan-Ping Mao,  
 Yuezhi Mao,  N. Mardirossian,  A. V. Marenich,  T. Markovich,  
 L. A. Martinez-Martinez,  S. A. Maurer,  N. J. Mayhall,  S. C. McKenzie,  
 J.-M. Mewes,  A. F. Morrison,  J. W. Mullinax,  K. Nanda,  
 T. S. Nguyen-Beck,  R. Olivares-Amaya,  J. A. Parkhill,  T. M. Perrine,  
 F. Plasser,  S. Prager,  A. Prociuk,  E. Ramos,  D. R. Rehn,  F. Rob,  
 M. Schneider,  N. Sergueev,  S. M. Sharada,  S. Sharma,  D. W. Small,  
 T. Stauch,  T. Stein,  Yu-Chuan Su,  A. J. W. Thom,  A. Tkatchenko,  
 T. Tsuchimochi,  L. Vogt,  O. Vydrov,  M. A. Watson,  J. Wenzel,  
 M. de Wergifosse,  T. A. Wesolowski,  A. White,  J. Witte,  A. Yamada,  
 Jun Yang,  K. Yao,  S. Yeganeh,  S. R. Yost,  Zhi-Qiang You,  A. Zech,  
 Igor Ying Zhang,  Xing Zhang,  Yan Zhao,  Ying Zhu,  B. R. Brooks,  
 G. K. L. Chan,  C. J. Cramer,  M. S. Gordon,  W. J. Hehre,  A. Klamt,  
 M. W. Schmidt,  C. D. Sherrill,  D. G. Truhlar,  A. Aspuru-Guzik,  R. Baer,  
 A. T. Bell,  N. A. Besley,  Jeng-Da Chai,  R. A. DiStasio Jr.,  A. Dreuw,  
 B. D. Dunietz,  T. R. Furlani,  Chao-Ping Hsu,  Yousung Jung,  Jing Kong,  
 D. S. Lambrecht,  WanZhen Liang,  C. Ochsenfeld,  V. A. Rassolov,  
 L. V. Slipchenko,  J. E. Subotnik,  T. Van Voorhis,  J. M. Herbert,  
 A. I. Krylov,  P. M. W. Gill,  M. Head-Gordon

 Contributors to earlier versions of Q-Chem not listed above: 
 R. D. Adamson,  B. Austin,  J. Baker,  G. J. O. Beran,  K. Brandhorst,  
 S. T. Brown,  E. F. C. Byrd,  A. K. Chakraborty,  C.-L. Cheng,  
 Siu Hung Chien,  D. M. Chipman,  D. L. Crittenden,  H. Dachsel,  
 R. J. Doerksen,  A. D. Dutoi,  L. Fusti-Molnar,  W. A. Goddard III,  
 A. Golubeva-Zadorozhnaya,  S. R. Gwaltney,  G. Hawkins,  A. Heyden,  
 S. Hirata,  G. Kedziora,  F. J. Keil,  C. Kelley,  Jihan Kim,  R. A. King,  
 R. Z. Khaliullin,  P. P. Korambath,  W. Kurlancheek,  A. M. Lee,  M. S. Lee,  
 S. V. Levchenko,  Ching Yeh Lin,  D. Liotard,  R. C. Lochan,  I. Lotan,  
 P. E. Maslen,  N. Nair,  D. P. O'Neill,  D. Neuhauser,  E. Neuscamman,  
 C. M. Oana,  R. Olson,  B. Peters,  R. Peverati,  P. A. Pieniazek,  
 Y. M. Rhee,  J. Ritchie,  M. A. Rohrdanz,  E. Rosta,  N. J. Russ,  
 H. F. Schaefer III,  N. E. Schultz,  N. Shenvi,  A. C. Simmonett,  A. Sodt,  
 D. Stuck,  K. S. Thanthiriwatte,  V. Vanovschi,  Tao Wang,  A. Warshel,  
 C. F. Williams,  Q. Wu,  X. Xu,  W. Zhang

 Please cite Q-Chem as follows:
 Y. Shao et al., Mol. Phys. 113, 184-215 (2015)
 DOI: 10.1080/00268976.2014.952696

 Q-Chem 5.0.2 for Intel X86 EM64T Linux

 Parts of Q-Chem use Armadillo 5.200.1 (Boston Tea Smuggler).
 http://arma.sourceforge.net/

 Q-Chem begins on Wed Mar  2 16:59:45 2022  

Host: 
0

     Scratch files written to ./irc_product.d//
 Dec517 15110_ 26548  26544 5633   
Processing $rem in /home/leeping/opt/qchem/5.0.2-openmp/config/preferences.
 MEM_STATIC 2000
 MEM_TOTAL  8000
 SYMMETRY   OFF
 SYM_IGNORE TRUE 

Checking the input file for inconsistencies... 	...done.

--------------------------------------------------------------
User input:
--------------------------------------------------------------
$molecule
0 2
C        1.9457968371    0.2041265136   -0.3030232012
C        1.0362185786   -0.7464297007   -0.0179773722
C       -0.3026141770   -0.2357133352   -0.4788990881
C       -1.4271254472   -0.1994111894    0.5398078775
C        0.1035350782    1.1323906098   -0.9974880907
N        1.3679510211    1.3628225911   -0.9070518178
H        3.0147282808    0.1876492081   -0.1304755435
H        1.2064556386   -1.7103218775    0.4428135532
H       -0.6490901255   -0.8259616591   -1.3468551349
H       -2.3859234800    0.1793365003    0.1623181052
H       -0.5865031901    1.8590023861   -1.4194853126
C       -1.3372915821   -0.5746849063    1.7963793936
H       -1.9861374326   -0.6328051409    2.6599366315
$end

$rem
method                b3lyp
basis                 6-31+g(d,p)
unrestricted          true
symmetry              off
sym_ignore            true
incdft                false
incfock               0
scf_convergence       8
thresh                14
jobtype               sp
scf_guess             read
scf_algorithm         diis
max_scf_cycles        100
scf_final_print       1
$end

--------------------------------------------------------------
 ----------------------------------------------------------------
             Standard Nuclear Orientation (Angstroms)
    I     Atom           X                Y                Z
 ----------------------------------------------------------------
    1      C       1.9457968371     0.2041265136    -0.3030232012
    2      C       1.0362185786    -0.7464297007    -0.0179773722
    3      C      -0.3026141770    -0.2357133352    -0.4788990881
    4      C      -1.4271254472    -0.1994111894     0.5398078775
    5      C       0.1035350782     1.1323906098    -0.9974880907
    6      N       1.3679510211     1.3628225911    -0.9070518178
    7      H       3.0147282808     0.1876492081    -0.1304755435
    8      H       1.2064556386    -1.7103218775     0.4428135532
    9      H      -0.6490901255    -0.8259616591    -1.3468551349
   10      H      -2.3859234800     0.1793365003     0.1623181052
   11      H      -0.5865031901     1.8590023861    -1.4194853126
   12      C      -1.3372915821    -0.5746849063     1.7963793936
   13      H      -1.9861374326    -0.6328051409     2.6599366315
 ----------------------------------------------------------------
 Nuclear Repulsion Energy =   258.8867584492 hartrees
 There are       25 alpha and       24 beta electrons
 Requested basis set is 6-31+G(d,p)
 There are 53 shells and 163 basis functions

 Total QAlloc Memory Limit   8000 MB
 Mega-Array Size      1956 MB
 MEM_STATIC part      2000 MB

                       Distance Matrix (Angstroms)
             C (  1)   C (  2)   C (  3)   C (  4)   C (  5)   N (  6)
   C (  2)  1.346158
   C (  3)  2.297769  1.505242
   C (  4)  3.499973  2.584263  1.517764
   C (  5)  2.176668  2.315017  1.518420  2.545564
   N (  6)  1.428752  2.312887  2.351472  3.513749  1.288420
   H (  7)  1.082894  2.190813  3.362350  4.508787  3.181084  2.167021
   H (  8)  2.183577  1.081849  2.302459  3.037764  3.372227  3.360422
   H (  9)  2.980622  2.147675  1.105344  2.134807  2.126886  3.008764
   H ( 10)  4.356714  3.549733  2.218919  1.097835  2.907037  4.078696
   H ( 11)  3.224538  3.374274  2.313683  2.963535  1.087290  2.080547
   C ( 12)  3.974004  2.992480  2.522370  1.314486  3.577119  4.287285
   H ( 13)  4.993966  4.039650  3.583884  2.235010  4.567210  5.287329
             H (  7)   H (  8)   H (  9)   H ( 10)   H ( 11)   C ( 12)
   H (  8)  2.683431
   H (  9)  3.991310  2.725446
   H ( 10)  5.408589  4.068744  2.510940
   H ( 11)  4.174187  4.407146  2.686675  2.925969
   C ( 12)  4.820166  3.097170  3.227489  2.082867  4.102231
   H ( 13)  5.785171  4.033525  4.228402  2.656596  4.980940  1.081716

 
 A cutoff of  1.0D-14 yielded   1366 shell pairs
 There are     13314 function pairs
 
 -------------------------------------------------------
 OpenMP Integral Computing Module                       
 Release: version 1.0, May 2013, Q-Chem Inc. Pittsburgh 
 -------------------------------------------------------
 Integral Job Info:
 Integral job number is                      11
 Integral operator is                         1
 short-range coefficients                     0
 long-range coefficients              100000000
 Omega coefficients                           0
 if combine SR and LR in K                    0
 Integral screening is                        0
 Integral computing path is                   2
 max size of driver memory is            800000
 size of driver memory is                593474
 size of scratch memory is              2361544
 max col of scratch BK array               1296
 max len of scratch array in speh3          155
 max len of scratch index in speh4           18
 max int batch size is                      520
 min int batch size is                       52
 fixed nKL is                                52
 max L of basis functions is                  2
 order of int derivative is                   0
 number of shells is                         53
 number of basis is                         163
 number of cartesian basis is               163
 number of contracted shell pairs          1366
 number of primitive shell pairs           4551
 maxK2 (contraction) of shell pair           36
 max number of K2 of shell pair               1
 max number of CS2 of shell pair            128
 max number of PS2 of shell pair            666
 mem total for path MDJ                  531564
 -------------------------------------------------------
 Smallest overlap matrix eigenvalue = 1.56E-05

 Scale SEOQF with 1.000000e-01/1.000000e-01/1.000000e-01

 Standard Electronic Orientation quadrupole field applied
 Nucleus-field energy     =     0.0000000006 hartrees
 Guess MOs from SCF MO coefficient file
 Reading MOs from coefficient file
 Reading MOs from coefficient file
 An unrestricted hybrid HF-DFT SCF calculation will be
 performed using Pulay DIIS extrapolation
 Exchange:     0.2000 Hartree-Fock + 0.0800 Slater + 0.7200 B88
 Correlation:  0.1900 VWN1RPA + 0.8100 LYP
 Using SG-1 standard quadrature grid
 SCF converges when DIIS error is below 1.0E-08
Using Q-Chem read-in guess as SCF_GUESS READ specified.

 using 4 threads for integral computing
 -------------------------------------------------------
 OpenMP Integral computing Module                
 Release: version 1.0, May 2013, Q-Chem Inc. Pittsburgh 
 -------------------------------------------------------
 -------------------------------------------------------
 OpenMP BLAS3 based DFT computing Module                
 Release: version 1.0, May 2013, Q-Chem Inc. Pittsburgh 
 -------------------------------------------------------
 ---------------------------------------
  Cycle       Energy         DIIS Error
 ---------------------------------------
    1    -286.8689992889      7.25E-10
    2    -286.8689992889      1.17E-09 Convergence criterion met
 ---------------------------------------
 One-Electron    Energy =  -898.1323516619
 Total Coulomb   Energy =   393.9327044060
 Alpha Exchange  Energy =    -4.0135700328
 Beta  Exchange  Energy =    -3.9228324683
 DFT   Exchange  Energy =   -31.5255374555
 DFT Correlation Energy =    -2.0941705263
 Nuclear Repu.   Energy =   258.8867584498
 Nuclear Attr.   Energy = -1182.2117727376
 Kinetic         Energy =   284.0794210757
 <S^2> = 0.7603
 SCF time:  CPU 9.94 s  wall 3.58 s
 Final Alpha MO Eigenvalues
            1           2           3           4           5           6
    1 -14.3442474 -10.2390841 -10.2276701 -10.2271941 -10.2238766 -10.2207266
            7           8           9          10          11          12
    1 -10.2018836  -0.9612032  -0.8210093  -0.7571952  -0.7246954  -0.6091520
           13          14          15          16          17          18
    1  -0.5652712  -0.5538933  -0.5119422  -0.4890443  -0.4541951  -0.4250330
           19          20          21          22          23          24
    1  -0.4039275  -0.3796744  -0.3550469  -0.3031172  -0.2703359  -0.2562280
           25          26          27          28          29          30
    1  -0.2453702  -0.0510485  -0.0118674   0.0062113   0.0190270   0.0224614
 Final Beta MO Eigenvalues
            1           2           3           4           5           6
    1 -14.3441107 -10.2392395 -10.2267129 -10.2255355 -10.2207146 -10.2121077
            7           8           9          10          11          12
    1 -10.2017979  -0.9609473  -0.8146758  -0.7524353  -0.7153032  -0.6009110
           13          14          15          16          17          18
    1  -0.5639064  -0.5445276  -0.5093965  -0.4783606  -0.4480883  -0.4233054
           19          20          21          22          23          24
    1  -0.4031604  -0.3752624  -0.3535921  -0.2981474  -0.2656427  -0.2501743
           25          26          27          28          29
    1  -0.0945336  -0.0506575  -0.0032366   0.0084967   0.0199827
 SCF   energy in the final basis set = -286.86899929
 Total energy in the final basis set = -286.86899929
 
 --------------------------------------------------------------
 
                    Orbital Energies (a.u.)
 --------------------------------------------------------------
 
 Alpha MOs
 -- Occupied --
-14.344 -10.239 -10.228 -10.227 -10.224 -10.221 -10.202  -0.961
 -0.821  -0.757  -0.725  -0.609  -0.565  -0.554  -0.512  -0.489
 -0.454  -0.425  -0.404  -0.380  -0.355  -0.303  -0.270  -0.256
 -0.245
 -- Virtual --
 -0.051  -0.012   0.006   0.019   0.022   0.035   0.037   0.045
  0.049   0.067   0.072   0.075   0.094   0.097   0.110   0.112
  0.123   0.128   0.135   0.147   0.152   0.155   0.171   0.191
  0.194   0.196   0.199   0.209   0.218   0.221   0.237   0.244
  0.249   0.263   0.273   0.288   0.304   0.311   0.331   0.387
  0.401   0.422   0.451   0.473   0.604   0.639   0.653   0.659
  0.695   0.698   0.708   0.728   0.729   0.749   0.765   0.780
  0.814   0.840   0.881   0.896   0.914   0.924   0.970   0.980
  0.994   1.008   1.027   1.050   1.063   1.077   1.100   1.140
  1.158   1.202   1.220   1.333   1.350   1.392   1.413   1.431
  1.469   1.500   1.506   1.599   1.642   1.690   1.744   1.777
  1.818   1.844   1.909   1.933   1.963   1.971   2.019   2.023
  2.065   2.110   2.134   2.232   2.257   2.293   2.321   2.377
  2.398   2.403   2.432   2.471   2.479   2.524   2.543   2.574
  2.601   2.612   2.641   2.658   2.680   2.694   2.747   2.769
  2.810   2.905   2.977   3.053   3.151   3.276   3.298   3.378
  3.469   3.590   3.684   4.132   4.295   4.331   4.422   4.531
  4.578   4.759
 
 Beta MOs
 -- Occupied --
-14.344 -10.239 -10.227 -10.226 -10.221 -10.212 -10.202  -0.961
 -0.815  -0.752  -0.715  -0.601  -0.564  -0.545  -0.509  -0.478
 -0.448  -0.423  -0.403  -0.375  -0.354  -0.298  -0.266  -0.250
 -- Virtual --
 -0.095  -0.051  -0.003   0.008   0.020   0.024   0.035   0.038
  0.045   0.050   0.068   0.074   0.079   0.094   0.100   0.113
  0.114   0.124   0.130   0.135   0.148   0.154   0.156   0.171
  0.191   0.196   0.198   0.204   0.210   0.220   0.222   0.239
  0.246   0.252   0.264   0.274   0.288   0.304   0.311   0.339
  0.389   0.401   0.431   0.451   0.482   0.608   0.651   0.658
  0.664   0.700   0.705   0.710   0.730   0.741   0.754   0.772
  0.788   0.817   0.842   0.882   0.899   0.915   0.933   0.972
  0.984   1.000   1.009   1.031   1.053   1.073   1.083   1.105
  1.145   1.159   1.207   1.221   1.334   1.352   1.395   1.415
  1.434   1.470   1.509   1.512   1.630   1.658   1.716   1.753
  1.781   1.831   1.849   1.923   1.940   1.966   1.974   2.022
  2.034   2.066   2.114   2.137   2.241   2.258   2.295   2.328
  2.377   2.403   2.409   2.440   2.474   2.481   2.524   2.544
  2.577   2.602   2.617   2.644   2.667   2.690   2.699   2.748
  2.771   2.819   2.907   2.986   3.055   3.153   3.278   3.309
  3.379   3.470   3.606   3.685   4.132   4.307   4.332   4.437
  4.541   4.578   4.760
 --------------------------------------------------------------
 
          Ground-State Mulliken Net Atomic Charges

     Atom                 Charge (a.u.)    Spin (a.u.)
  --------------------------------------------------------
      1 C                    -0.153517      -0.026404
      2 C                    -0.052161      -0.001464
      3 C                    -0.083492       0.064132
      4 C                     0.011585      -0.326537
      5 C                    -0.118636       0.014096
      6 N                    -0.193827       0.006086
      7 H                     0.132570       0.000040
      8 H                     0.140969       0.000163
      9 H                     0.182831      -0.005268
     10 H                     0.141639       0.078177
     11 H                     0.135344      -0.000047
     12 C                    -0.298455       1.189463
     13 H                     0.155149       0.007562
  --------------------------------------------------------
  Sum of atomic charges =    -0.000000
  Sum of spin   charges =     1.000000

 -----------------------------------------------------------------
                    Cartesian Multipole Moments
 -----------------------------------------------------------------
    Charge (ESU x 10^10)
                -0.0000
    Dipole Moment (Debye)
         X      -2.1524      Y      -1.5621      Z       0.2103
       Tot       2.6678
    Quadrupole Moments (Debye-Ang)
        XX     -39.0843     XY      -4.5907     YY     -45.5851
        XZ       1.7393     YZ       0.7394     ZZ     -41.7443
    Octopole Moments (Debye-Ang^2)
       XXX     -18.9946    XXY      -8.9619    XYY     -13.3202
       YYY     -20.7078    XXZ       9.6842    XYZ       5.1502
       YYZ       3.1079    XZZ     -18.8869    YZZ      -8.1907
       ZZZ      11.0694
    Hexadecapole Moments (Debye-Ang^3)
      XXXX    -437.9232   XXXY     -53.5923   XXYY    -135.0875
      XYYY     -68.6502   YYYY    -236.3017   XXXZ      88.4549
      XXYZ      24.5263   XYYZ      45.9974   YYYZ      70.8327
      XXZZ    -120.9945   XYZZ     -15.5491   YYZZ     -89.1129
      XZZZ      75.2062   YZZZ      64.0153   ZZZZ    -267.8552
 -----------------------------------------------------------------
 Mayer SCF Bond Order, atomic valence on the diagonal:

            1           2           3           4           5           6
    1   3.9245670   1.8626723   0.0800324   0.0180305   0.0270513   1.0088032
    2   1.8626723   4.0383757   1.0492865   0.0198181   0.1124192  -0.0979719
    3   0.0800324   1.0492865   3.7097539   0.8109220   0.8935287   0.1107438
    4   0.0180305   0.0198181   0.8109220   3.5940001   0.0525501   0.0115775
    5   0.0270513   0.1124192   0.8935287   0.0525501   3.8907512   1.6550171
    6   1.0088032  -0.0979719   0.1107438   0.0115775   1.6550171   2.6699805
    7   0.9634783  -0.0207760   0.0268753  -0.0013344   0.0092323  -0.0325342
    8   0.0377352   0.8429568   0.0590991  -0.0214622   0.0084175   0.0121476
    9   0.0026783   0.0647303   0.8404968  -0.0158707   0.0047532   0.0210631
   10  -0.0047855   0.0130873  -0.0134862   0.7565870   0.0407364  -0.0011981
   11   0.0099824   0.0262574  -0.0698637   0.0264445   0.9741389  -0.0256377
   12  -0.0807309   0.1686839  -0.1010902   1.9100040   0.1122673   0.0066623
   13  -0.0003804  -0.0027882   0.0232095   0.0267337   0.0006393   0.0013080
            7           8           9          10          11          12
    1   0.9634783   0.0377352   0.0026783  -0.0047855   0.0099824  -0.0807309
    2  -0.0207760   0.8429568   0.0647303   0.0130873   0.0262574   0.1686839
    3   0.0268753   0.0590991   0.8404968  -0.0134862  -0.0698637  -0.1010902
    4  -0.0013344  -0.0214622  -0.0158707   0.7565870   0.0264445   1.9100040
    5   0.0092323   0.0084175   0.0047532   0.0407364   0.9741389   0.1122673
    6  -0.0325342   0.0121476   0.0210631  -0.0011981  -0.0256377   0.0066623
    7   0.9502644   0.0005261   0.0005914   0.0003696   0.0022034   0.0016298
    8   0.0005261   0.9565701  -0.0000916   0.0000177   0.0009832   0.0162409
    9   0.0005914  -0.0000916   0.9304664  -0.0000477   0.0001698   0.0114917
   10   0.0003696   0.0000177  -0.0000477   0.9422266   0.0006158   0.1486259
   11   0.0022034   0.0009832   0.0001698   0.0006158   0.9460325   0.0007269
   12   0.0016298   0.0162409   0.0114917   0.1486259   0.0007269   3.0926366
   13   0.0000026  -0.0000002   0.0005020   0.0017044   0.0000115   0.8981251
           13
    1  -0.0003804
    2  -0.0027882
    3   0.0232095
    4   0.0267337
    5   0.0006393
    6   0.0013080
    7   0.0000026
    8  -0.0000002
    9   0.0005020
   10   0.0017044
   11   0.0000115
   12   0.8981251
   13   0.9490672


Archival summary:
1\1\c8-89\SP\ProcedureUnspecified\6-31+G**\166(2)\hpark21\WedMar216:59:522022WedMar216:59:522022\0\\#,ProcedureUnspecified,6-31+G**,\\0,2\C\H,1,1.10534\C,1,1.50524,2,109.759\H,3,1.08185,1,124.938,2,-68.2731,0\C,3,1.34616,1,107.251,2,111.016,0\H,5,1.08289,3,128.498,1,-179.086,0\N,5,1.42875,3,112.886,1,1.07342,0\C,7,1.28842,5,106.352,3,-0.0307713,0\H,8,1.08729,7,122.042,5,179.617,0\C,1,1.51776,2,107.913,3,-129.165,0\H,10,1.09784,1,115.121,2,-55.3273,0\C,10,1.31449,1,125.743,2,124.726,0\H,12,1.08172,10,137.518,1,-179.831,0\\\@

 Total job time:  6.94s(wall), 11.92s(cpu) 
 Wed Mar  2 16:59:52 2022

        *************************************************************
        *                                                           *
        *  Thank you very much for using Q-Chem.  Have a nice day.  *
        *                                                           *
        *************************************************************


