13   
Frame   0 IRC: Energy =  -286.8724601193 ; +0.0000 kcal/mol
C        1.8310512122    0.2079965210    0.0053954782
C        1.3974190607   -0.8749972867   -0.8913378217
C        0.0755797579   -0.6988485288   -1.0821545156
C       -1.4913412198    0.3023379258    0.6480828423
C       -0.3307138246    0.5318956033   -0.3020080922
N        0.8842871079    1.0078858339    0.3662000963
H        2.8511085508    0.3552371932    0.3547462698
H        2.0328260935   -1.6508881862   -1.3021425853
H       -0.5976517825   -1.3020901514   -1.6798211330
H       -2.4202771356   -0.0242939574    0.1638058102
H       -0.6303253837    1.3218853104   -1.0130829753
C       -1.4568779555    0.4608557232    1.9517631803
H       -2.1450844810    0.3630239999    2.7805534454
13   
Frame   1 IRC: Energy =  -286.8723551631 ; +0.0659 kcal/mol
C        1.8306355984    0.2167819778    0.0030125658
C        1.3979645187   -0.8796224788   -0.8779328345
C        0.0759346078   -0.7084432288   -1.0693199568
C       -1.4952169735    0.3222934331    0.6427280999
C       -0.3308488544    0.5362108456   -0.3103570884
N        0.8845457115    1.0236380582    0.3489955566
H        2.8513782757    0.3711396166    0.3474973966
H        2.0338737895   -1.6607191676   -1.2773850803
H       -0.5973280200   -1.3191230047   -1.6592618213
H       -2.4420539056    0.0668801618    0.1525156962
H       -0.6355814925    1.3108676491   -1.0338413325
C       -1.4443260532    0.4104140632    1.9510962470
H       -2.1289772023    0.3096820745    2.7822525517
13   
Frame   2 IRC: Energy =  -286.8721357520 ; +0.2035 kcal/mol
C        1.8249912447    0.2319135112    0.0007718238
C        1.3913008071   -0.8881893594   -0.8501804219
C        0.0733640405   -0.7102522290   -1.0614358867
C       -1.4962599457    0.3405074884    0.6287572561
C       -0.3340491576    0.5548146715   -0.3348676494
N        0.8811877368    1.0521661412    0.3201201859
H        2.8433521044    0.3875395920    0.3517422855
H        2.0231887215   -1.6892954582   -1.2152378642
H       -0.5996979856   -1.3323017316   -1.6394131794
H       -2.4647864343    0.1647830163    0.1455763247
H       -0.6464738864    1.3152108640   -1.0671356925
C       -1.4150931616    0.3468932489    1.9389264684
H       -2.0810240838    0.2262102446    2.7823763497
13   
Frame   3 IRC: Energy =  -286.8717230610 ; +0.4625 kcal/mol
C        1.8139373755    0.2430972134    0.0073678425
C        1.3816663231   -0.8921172004   -0.8245194610
C        0.0668277381   -0.7115684771   -1.0518704498
C       -1.4930017597    0.3573195043    0.6113708912
C       -0.3388832774    0.5756391762   -0.3634596453
N        0.8739217226    1.0800934269    0.2920796027
H        2.8289925314    0.3998112854    0.3670565547
H        2.0089937447   -1.7117892408   -1.1543183320
H       -0.6068714099   -1.3465844898   -1.6146203147
H       -2.4790235461    0.2522666633    0.1435238154
H       -0.6570272104    1.3239605473   -1.1045119562
C       -1.3786199955    0.2874210396    1.9172971397
H       -2.0209122363    0.1424505518    2.7746043128
13   
Frame   4 IRC: Energy =  -286.8711987829 ; +0.7915 kcal/mol
C        1.8004449904    0.2548175991    0.0135003710
C        1.3644366644   -0.8990961937   -0.7897799923
C        0.0594568687   -0.7021086107   -1.0542049411
C       -1.4846959209    0.3778985915    0.5974118501
C       -0.3442658821    0.5988018530   -0.3914157916
N        0.8686013671    1.1126067305    0.2565636231
H        2.8106579357    0.4078134100    0.3875105951
H        1.9817411484   -1.7415901327   -1.0751365148
H       -0.6151451857   -1.3450803830   -1.6065700712
H       -2.4816426044    0.3002565700    0.1473687817
H       -0.6686548294    1.3372237884   -1.1393960471
C       -1.3369299492    0.2403519509    1.8934272687
H       -1.9540046030    0.0581048267    2.7607208683
13   
Frame   5 IRC: Energy =  -286.8705772966 ; +1.1815 kcal/mol
C        1.7863763874    0.2659025129    0.0196578691
C        1.3459007303   -0.9057994855   -0.7541390040
C        0.0517908282   -0.6903510366   -1.0577976243
C       -1.4750269415    0.3969132050    0.5836837624
C       -0.3483932400    0.6220675116   -0.4188030682
N        0.8640668555    1.1459574485    0.2201960672
H        2.7921057578    0.4143998338    0.4093614733
H        1.9513733240   -1.7722484371   -0.9931796443
H       -0.6244660274   -1.3405431319   -1.6004285916
H       -2.4814462309    0.3389307702    0.1516731402
H       -0.6817193282    1.3532354941   -1.1737345183
C       -1.2944594161    0.1965734474    1.8678054224
H       -1.8861026991   -0.0250381324    2.7457047161
13   
Frame   6 IRC: Energy =  -286.8695382090 ; +1.8335 kcal/mol
C        1.7737719701    0.2761476566    0.0268788920
C        1.3240700829   -0.9098267600   -0.7192867051
C        0.0423954724   -0.6761027419   -1.0601765742
C       -1.4610527228    0.4068171798    0.5682000987
C       -0.3492864944    0.6528426002   -0.4493254382
N        0.8648165887    1.1788399985    0.1849351280
H        2.7745847046    0.4173901054    0.4308699553
H        1.9101583770   -1.8022037587   -0.9064572226
H       -0.6398595788   -1.3297203039   -1.5891333808
H       -2.4732723173    0.3520446125    0.1508661469
H       -0.6961795531    1.3767227439   -1.2016630434
C       -1.2532689390    0.1612222023    1.8410508100
H       -1.8168775904   -0.1041735348    2.7232413334
13   
Frame   7 IRC: Energy =  -286.8681165605 ; +2.7256 kcal/mol
C        1.7639405595    0.2855509431    0.0323551794
C        1.3004798286   -0.9128519390   -0.6857861383
C        0.0322962826   -0.6588447975   -1.0609614364
C       -1.4442018199    0.4137013752    0.5537646254
C       -0.3463277587    0.6848006991   -0.4762939830
N        0.8707305838    1.2101227382    0.1513640048
H        2.7609149114    0.4189823151    0.4452098522
H        1.8601570579   -1.8298192940   -0.8180690099
H       -0.6605632558   -1.3143806382   -1.5733619877
H       -2.4583110228    0.3420164878    0.1433923273
H       -0.7075043910    1.4056667453   -1.2234766910
C       -1.2154837421    0.1349197940    1.8159745636
H       -1.7561272335   -0.1798644291    2.6958886937
13   
Frame   8 IRC: Energy =  -286.8661758923 ; +3.9434 kcal/mol
C        1.7561030380    0.2951905416    0.0345954698
C        1.2738918983   -0.9148591685   -0.6516969295
C        0.0212544908   -0.6388840123   -1.0612325413
C       -1.4248303299    0.4174035919    0.5398348156
C       -0.3411190095    0.7188905169   -0.4993176027
N        0.8812846092    1.2408717521    0.1185704520
H        2.7534772969    0.4202023326    0.4508748471
H        1.8021118565   -1.8574271647   -0.7243541916
H       -0.6852126363   -1.2951236487   -1.5545486865
H       -2.4360608605    0.3154206322    0.1299970497
H       -0.7166244345    1.4389341694   -1.2390474649
C       -1.1811582321    0.1133178247    1.7929971599
H       -1.7031176870   -0.2539373673    2.6633276224
13   
Frame   9 IRC: Energy =  -286.8636021196 ; +5.5585 kcal/mol
C        1.7519724459    0.3033955052    0.0337476947
C        1.2484314008   -0.9163021333   -0.6181050965
C        0.0096573463   -0.6187976093   -1.0625354707
C       -1.4040307658    0.4158641637    0.5266135718
C       -0.3333648253    0.7516777749   -0.5191285524
N        0.8953376583    1.2694389078    0.0864790901
H        2.7517053050    0.4213019486    0.4454756676
H        1.7371584034   -1.8813691038   -0.6250900522
H       -0.7095908210   -1.2724064567   -1.5364022181
H       -2.4083226890    0.2799703025    0.1097842772
H       -0.7271398835    1.4747787764   -1.2452177098
C       -1.1520320807    0.0918325122    1.7726269632
H       -1.6597814944   -0.3193845882    2.6317518352
13   
Frame  10 IRC: Energy =  -286.8602075723 ; +7.6886 kcal/mol
C        1.7513817320    0.3113234814    0.0280697428
C        1.2235860380   -0.9160209911   -0.5873353787
C        0.0026736082   -0.5983618749   -1.0656136667
C       -1.3813824302    0.4032905972    0.5127642190
C       -0.3225814784    0.7812218325   -0.5365366499
N        0.9138818469    1.2955347275    0.0521143605
H        2.7556689694    0.4205426080    0.4321241165
H        1.6685681000   -1.9000236622   -0.5189415425
H       -0.7353483769   -1.2454630455   -1.5198581813
H       -2.3739526798    0.2440359585    0.0767412830
H       -0.7460991017    1.5096294749   -1.2387021473
C       -1.1299182382    0.0589322497    1.7527461162
H       -1.6264779893   -0.3646413559    2.6124277283
13   
Frame  11 IRC: Energy =  -286.8554995225 ; +10.6429 kcal/mol
C        1.7556226035    0.3183281413    0.0176744843
C        1.2011345942   -0.9156501058   -0.5555338041
C       -0.0015245050   -0.5800574265   -1.0658185670
C       -1.3585506165    0.3776301078    0.4980476490
C       -0.3075995139    0.8071852878   -0.5534497191
N        0.9391830959    1.3226841770    0.0059630309
H        2.7621228930    0.4145046705    0.4203068770
H        1.6084436825   -1.9100600723   -0.4196643509
H       -0.7638642111   -1.2107518796   -1.5044055399
H       -2.3368558831    0.2137176228    0.0319534628
H       -0.7749295074    1.5386966267   -1.2230259596
C       -1.1191573915    0.0011499545    1.7307318869
H       -1.6040252408   -0.3773771041    2.6172205496
13   
Frame  12 IRC: Energy =  -286.8481078133 ; +15.2813 kcal/mol
C        1.7634127565    0.3231730841    0.0054800411
C        1.1794516245   -0.9168509846   -0.5084436733
C       -0.0109674418   -0.5665091223   -1.0465073286
C       -1.3387936928    0.3281239857    0.4818061934
C       -0.2873679592    0.8344668648   -0.5749123269
N        0.9752901584    1.3524101142   -0.0642092006
H        2.7674941515    0.4016527167    0.4189974839
H        1.5710099805   -1.9136761988   -0.3560897557
H       -0.7865572507   -1.1698253908   -1.4938297972
H       -2.3129794857    0.1911867250   -0.0051812432
H       -0.8032733947    1.5690145597   -1.2068763212
C       -1.1258992240   -0.0732549889    1.7093237022
H       -1.5908202225   -0.3599113647    2.6404422261
13   
Frame  13 IRC: Energy =  -286.8351201180 ; +23.4312 kcal/mol
C        1.7698649159    0.3157975393   -0.0032713156
C        1.1629934728   -0.9133147443   -0.4609562807
C       -0.0403921271   -0.5527722876   -0.9898752319
C       -1.3270976701    0.2343021609    0.4619298617
C       -0.2434595889    0.8734608484   -0.6191540400
N        1.0065392268    1.3735857888   -0.1297734000
H        2.7675095222    0.3901818753    0.4219388602
H        1.5527164111   -1.9115575350   -0.3299883610
H       -0.7937059890   -1.1371789826   -1.4918401582
H       -2.3092774930    0.1865689360   -0.0226386941
H       -0.8242533787    1.6005565849   -1.1997608348
C       -1.1361179393   -0.1236846734    1.7029949164
H       -1.5853193626   -0.3359455106    2.6603946780
13   
Frame  14 IRC: Energy =  -286.8202067655 ; +32.7895 kcal/mol
C        1.7736366517    0.2983711546   -0.0081342816
C        1.1562147174   -0.9061255778   -0.4235485024
C       -0.0891626844   -0.5322832155   -0.9202429829
C       -1.3268834048    0.1288755169    0.4475933137
C       -0.1803908122    0.9208601793   -0.6816867893
N        1.0174112002    1.3877070824   -0.1746040989
H        2.7670462823    0.3833371939    0.4225445425
H        1.5435560348   -1.9091966248   -0.3187541875
H       -0.7926741842   -1.1167517251   -1.4952946085
H       -2.3076807994    0.1916271127   -0.0278174662
H       -0.8377172021    1.6214688772   -1.1928978990
C       -1.1399025868   -0.1513159558    1.7030497938
H       -1.5834532126   -0.3165740177    2.6697931665
13   
Frame  15 IRC: Energy =  -286.8194361974 ; +33.2730 kcal/mol (Transition State)
C        1.7789842628    0.2771401803   -0.0101465932
C        1.1533882314   -0.8982617999   -0.3885524376
C       -0.1514540128   -0.5052425724   -0.8486939263
C       -1.3278071246    0.0235160737    0.4327584674
C       -0.1201854283    0.9660867688   -0.7470962455
N        1.0193466125    1.4011265654   -0.2117414855
H        2.7685426241    0.3783899477    0.4215805947
H        1.5368795605   -1.9071741874   -0.3109733114
H       -0.7874866169   -1.0997188138   -1.5001287161
H       -2.3029801208    0.1976691415   -0.0283244086
H       -0.8459410576    1.6376329038   -1.1852972925
C       -1.1378898604   -0.1726152790    1.7026665845
H       -1.5833970698   -0.2985489286    2.6739487701
13   
Frame  16 IRC: Energy =  -286.8333251851 ; +24.5576 kcal/mol
C        1.7848557312    0.2608086718   -0.0103953237
C        1.1404625530   -0.8915622334   -0.3505100123
C       -0.2159033992   -0.4774742393   -0.7785962740
C       -1.3280640295   -0.0836346944    0.4160618855
C       -0.0738346623    1.0031369583   -0.8098817699
N        1.0302434150    1.4157242999   -0.2518171651
H        2.7728913032    0.3725154738    0.4190161139
H        1.5268930932   -1.9038235695   -0.3007446757
H       -0.7766106821   -1.0769379344   -1.5033908141
H       -2.2933969955    0.1985565746   -0.0247610705
H       -0.8489521436    1.6585929326   -1.1788566930
C       -1.1323729790   -0.2001569101    1.6999191502
H       -1.5862112043   -0.2757453299    2.6739566486
13   
Frame  17 IRC: Energy =  -286.8461209989 ; +16.5281 kcal/mol
C        1.7888819192    0.2525101787   -0.0128020269
C        1.1141247375   -0.8847346577   -0.3018321680
C       -0.2621251072   -0.4534115622   -0.7249048987
C       -1.3342393016   -0.1837013239    0.4077933045
C       -0.0438019764    1.0315696073   -0.8589335142
N        1.0554267621    1.4298655320   -0.3100276012
H        2.7799299618    0.3624332612    0.4108394700
H        1.5044523855   -1.8977097713   -0.2781549481
H       -0.7587006447   -1.0436569768   -1.5068909130
H       -2.2823404091    0.1855038603   -0.0131926102
H       -0.8421112875    1.6919997447   -1.1768639065
C       -1.1248529635   -0.2487184157    1.6971674843
H       -1.5946440760   -0.2419494767    2.6678023280
13   
Frame  18 IRC: Energy =  -286.8535899627 ; +11.8412 kcal/mol
C        1.7962642231    0.2531851856   -0.0259578999
C        1.0883197082   -0.8737145255   -0.2567946962
C       -0.2813066715   -0.4340453442   -0.7010031405
C       -1.3437898048   -0.2456567927    0.4119962633
C       -0.0323896471    1.0501243670   -0.8823677009
N        1.0936518783    1.4394134469   -0.3813382314
H        2.7903500583    0.3489501336    0.3910047803
H        1.4611547653   -1.8917071286   -0.2232152198
H       -0.7331924545   -1.0046975787   -1.5201413003
H       -2.2876102224    0.1498316518    0.0125630131
H       -0.8181351055    1.7332157725   -1.1853187015
C       -1.1211906736   -0.3194907023    1.7032982953
H       -1.6121260539   -0.2054084853    2.6572745384
13   
Frame  19 IRC: Energy =  -286.8583709703 ; +8.8411 kcal/mol
C        1.8101924892    0.2524695046   -0.0520831479
C        1.0716352915   -0.8615772299   -0.2306371323
C       -0.2898221811   -0.4107258665   -0.6868450212
C       -1.3511214567   -0.2781306832    0.4206508973
C       -0.0175558224    1.0683205009   -0.8931321433
N        1.1303222972    1.4435552390   -0.4426719565
H        2.8097293417    0.3365712995    0.3561967259
H        1.4054295196   -1.8878958152   -0.1350511207
H       -0.7092236912   -0.9643751115   -1.5371779293
H       -2.3106003696    0.1021865294    0.0472084885
H       -0.7867172636    1.7698035854   -1.2044103330
C       -1.1259705663   -0.3723976986    1.7108979652
H       -1.6362975884   -0.1978042538    2.6470547073
13   
Frame  20 IRC: Energy =  -286.8617537740 ; +6.7183 kcal/mol
C        1.8277219833    0.2491103951   -0.0805736805
C        1.0577132502   -0.8497012621   -0.2061789039
C       -0.2959004182   -0.3846191795   -0.6711135134
C       -1.3610798810   -0.2934922503    0.4279490839
C       -0.0001039338    1.0861570543   -0.9036188370
N        1.1694550732    1.4443241097   -0.4991254231
H        2.8359010265    0.3219545845    0.3085890699
H        1.3488888180   -1.8788555364   -0.0370557616
H       -0.6932463208   -0.9245131291   -1.5432906290
H       -2.3392926352    0.0517740375    0.0714937591
H       -0.7522217469    1.8000688492   -1.2293559701
C       -1.1337950201   -0.3974441008    1.7182316147
H       -1.6640401953   -0.2247635720    2.6440491910
13   
Frame  21 IRC: Energy =  -286.8642612461 ; +5.1449 kcal/mol
C        1.8469848202    0.2435995938   -0.1090503824
C        1.0453631618   -0.8361965332   -0.1783900860
C       -0.3022453550   -0.3575350289   -0.6518664475
C       -1.3747705732   -0.2962050474    0.4370489307
C        0.0203690982    1.1029052452   -0.9157865631
N        1.2101000124    1.4416434681   -0.5567053228
H        2.8648467443    0.3030815113    0.2542763864
H        1.2982844549   -1.8625713290    0.0549373387
H       -0.6829377358   -0.8900219924   -1.5342096908
H       -2.3683936852    0.0047590101    0.0823984760
H       -0.7151045837    1.8265913127   -1.2585404233
C       -1.1487566042   -0.4081004645    1.7258990693
H       -1.6937397546   -0.2719497457    2.6499887150
13   
Frame  22 IRC: Energy =  -286.8660794449 ; +4.0039 kcal/mol
C        1.8661987935    0.2369989436   -0.1393740696
C        1.0342661492   -0.8213004303   -0.1488948423
C       -0.3058440746   -0.3281284400   -0.6246224583
C       -1.3912497803   -0.2916926635    0.4473621121
C        0.0416661251    1.1188469771   -0.9290717382
N        1.2502937168    1.4346467994   -0.6168954755
H        2.8961079183    0.2806854779    0.1944929490
H        1.2565061610   -1.8411172057    0.1375280700
H       -0.6758963525   -0.8623510276   -1.5160165992
H       -2.3942926942   -0.0326041579    0.0878678359
H       -0.6764584488    1.8494087472   -1.2906547866
C       -1.1722115856   -0.4165982820    1.7384247829
H       -1.7290859278   -0.3267947383    2.6598542198
13   
Frame  23 IRC: Energy =  -286.8673514815 ; +3.2057 kcal/mol
C        1.8869770049    0.2288752590   -0.1722851411
C        1.0270242948   -0.8047689313   -0.1184755483
C       -0.3099444711   -0.3010539828   -0.5962350716
C       -1.4067916024   -0.2829776068    0.4621919324
C        0.0622188758    1.1313372163   -0.9410418565
N        1.2887696362    1.4243290018   -0.6791100113
H        2.9269833957    0.2556616548    0.1273346417
H        1.2243584292   -1.8159122831    0.2131823564
H       -0.6676309556   -0.8373032712   -1.4886687408
H       -2.4137562403   -0.0539753818    0.0928259542
H       -0.6415234218    1.8678274348   -1.3212501379
C       -1.2023690312   -0.4284543799    1.7528713751
H       -1.7743159143   -0.3835847300    2.6686602478
13   
Frame  24 IRC: Energy =  -286.8680121033 ; +2.7912 kcal/mol
C        1.9065678360    0.2205164918   -0.2096774392
C        1.0257487421   -0.7877809150   -0.0869269129
C       -0.3088986986   -0.2799455591   -0.5663441447
C       -1.4166244666   -0.2629215507    0.4800596912
C        0.0776527319    1.1391940081   -0.9496146324
N        1.3185549687    1.4103520312   -0.7407402188
H        2.9569663612    0.2318947125    0.0511454152
H        1.2095550506   -1.7880120875    0.2817727634
H       -0.6631142118   -0.8261455068   -1.4551073629
H       -2.4199117437   -0.0336868227    0.1001735667
H       -0.6179297455    1.8760358265   -1.3433761650
C       -1.2378636234   -0.4536590303    1.7676074315
H       -1.8307032009   -0.4458415980    2.6710280079
13   
Frame  25 IRC: Energy =  -286.8684436982 ; +2.5203 kcal/mol
C        1.9255275162    0.2124673970   -0.2482965175
C        1.0268383668   -0.7702553578   -0.0537654838
C       -0.3061546249   -0.2632452163   -0.5394544029
C       -1.4232455986   -0.2355707392    0.4989128097
C        0.0904727209    1.1447604564   -0.9559213519
N        1.3442940296    1.3957353059   -0.8012457395
H        2.9856838691    0.2097417478   -0.0274699582
H        1.2019535524   -1.7591471215    0.3487534801
H       -0.6618532551   -0.8225428539   -1.4189304631
H       -2.4197569561    0.0066287166    0.1088892295
H       -0.5998833316    1.8797300713   -1.3623552263
C       -1.2743075246   -0.4859610229    1.7809878765
H       -1.8895687641   -0.5123413833    2.6698957475
13   
Frame  26 IRC: Energy =  -286.8688135080 ; +2.2883 kcal/mol
C        1.9380001618    0.2094846102   -0.2756875497
C        1.0333390493   -0.7579658610   -0.0372435561
C       -0.3038207559   -0.2488330707   -0.5083684126
C       -1.4261254899   -0.2162405203    0.5237929135
C        0.1015878955    1.1371187820   -0.9859212206
N        1.3589688543    1.3822188225   -0.8521846343
H        3.0036012042    0.1984999289   -0.0828962450
H        1.2058933261   -1.7346936493    0.3946092435
H       -0.6615679911   -0.8243747020   -1.3765663377
H       -2.4048952088    0.0947349775    0.1375302727
H       -0.5875620366    1.8697599995   -1.3987268154
C       -1.3104073973   -0.5328773146    1.7940702795
H       -1.9470116117   -0.5768320027    2.6675920623
13   
Frame  27 IRC: Energy =  -286.8689804379 ; +2.1835 kcal/mol
C        1.9457968371    0.2041265136   -0.3030232012
C        1.0362185786   -0.7464297007   -0.0179773722
C       -0.3026141770   -0.2357133352   -0.4788990881
C       -1.4271254472   -0.1994111894    0.5398078775
C        0.1035350782    1.1323906098   -0.9974880907
N        1.3679510211    1.3628225911   -0.9070518178
H        3.0147282808    0.1876492081   -0.1304755435
H        1.2064556386   -1.7103218775    0.4428135532
H       -0.6490901255   -0.8259616591   -1.3468551349
H       -2.3859234800    0.1793365003    0.1623181052
H       -0.5865031901    1.8590023861   -1.4194853126
C       -1.3372915821   -0.5746849063    1.7963793936
H       -1.9861374326   -0.6328051409    2.6599366315
