
Running Job 1 of 1 qcts1.in
qchem qcts1.in_123211.0 ./qcts1.d/ 1
/home/leeping/opt/qchem/5.0.2-openmp/exe/qcprog.exe_s qcts1.in_123211.0 ./qcts1.d/
Check license passed

                  Welcome to Q-Chem
     A Quantum Leap Into The Future Of Chemistry


 Q-Chem 5.0, Q-Chem, Inc., Pleasanton, CA (2017)

 Yihan Shao,  Zhengting Gan,  E. Epifanovsky,  A. T. B. Gilbert,  M. Wormit,  
 J. Kussmann,  A. W. Lange,  A. Behn,  Jia Deng,  Xintian Feng,  D. Ghosh,  
 M. Goldey,  P. R. Horn,  L. D. Jacobson,  I. Kaliman,  T. Kus,  A. Landau,  
 Jie Liu,  E. I. Proynov,  R. M. Richard,  R. P. Steele,  E. J. Sundstrom,  
 H. L. Woodcock III,  P. M. Zimmerman,  D. Zuev,  B. Albrecht,  E. Alguire,  
 S. A. Baeppler,  D. Barton,  Z. Benda,  Y. A. Bernard,  E. J. Berquist,  
 K. B. Bravaya,  H. Burton,  D. Casanova,  Chun-Min Chang,  Yunqing Chen,  
 A. Chien,  K. D. Closser,  M. P. Coons,  S. Dasgupta,  A. L. Dempwolff,  
 M. Diedenhofen,  Hainam Do,  R. G. Edgar,  Po-Tung Fang,  S. Fatehi,  
 Qingguo Feng,  J. Fosso-Tande,  Qinghui Ge,  A. Ghysels,  G. Gidofalvi,  
 J. Gomes,  J. Gonthier,  A. Gunina,  M. W. D. Hanson-Heine,  
 P. H. P. Harbach,  A. W. Hauser,  J. E. Herr,  E. G. Hohenstein,  
 Z. C. Holden,  Kerwin Hui,  T.-C. Jagau,  Hyunjun Ji,  B. Kaduk,  
 K. Khistyaev,  Jaehoon Kim,  P. Klunzinger,  K. Koh,  D. Kosenkov,  
 L. Koulias,  T. Kowalczyk,  C. M. Krauter,  A. Kunitsa,  Ka Un Lao,  
 A. Laurent,  K. V. Lawler,  Joonho Lee,  D. Lefrancois,  S. Lehtola,  
 D. S. Levine,  Yi-Pei Li,  You-Sheng Lin,  Fenglai Liu,  E. Livshits,  
 A. Luenser,  P. Manohar,  E. Mansoor,  S. F. Manzer,  Shan-Ping Mao,  
 Yuezhi Mao,  N. Mardirossian,  A. V. Marenich,  T. Markovich,  
 L. A. Martinez-Martinez,  S. A. Maurer,  N. J. Mayhall,  S. C. McKenzie,  
 J.-M. Mewes,  A. F. Morrison,  J. W. Mullinax,  K. Nanda,  
 T. S. Nguyen-Beck,  R. Olivares-Amaya,  J. A. Parkhill,  T. M. Perrine,  
 F. Plasser,  S. Prager,  A. Prociuk,  E. Ramos,  D. R. Rehn,  F. Rob,  
 M. Schneider,  N. Sergueev,  S. M. Sharada,  S. Sharma,  D. W. Small,  
 T. Stauch,  T. Stein,  Yu-Chuan Su,  A. J. W. Thom,  A. Tkatchenko,  
 T. Tsuchimochi,  L. Vogt,  O. Vydrov,  M. A. Watson,  J. Wenzel,  
 M. de Wergifosse,  T. A. Wesolowski,  A. White,  J. Witte,  A. Yamada,  
 Jun Yang,  K. Yao,  S. Yeganeh,  S. R. Yost,  Zhi-Qiang You,  A. Zech,  
 Igor Ying Zhang,  Xing Zhang,  Yan Zhao,  Ying Zhu,  B. R. Brooks,  
 G. K. L. Chan,  C. J. Cramer,  M. S. Gordon,  W. J. Hehre,  A. Klamt,  
 M. W. Schmidt,  C. D. Sherrill,  D. G. Truhlar,  A. Aspuru-Guzik,  R. Baer,  
 A. T. Bell,  N. A. Besley,  Jeng-Da Chai,  R. A. DiStasio Jr.,  A. Dreuw,  
 B. D. Dunietz,  T. R. Furlani,  Chao-Ping Hsu,  Yousung Jung,  Jing Kong,  
 D. S. Lambrecht,  WanZhen Liang,  C. Ochsenfeld,  V. A. Rassolov,  
 L. V. Slipchenko,  J. E. Subotnik,  T. Van Voorhis,  J. M. Herbert,  
 A. I. Krylov,  P. M. W. Gill,  M. Head-Gordon

 Contributors to earlier versions of Q-Chem not listed above: 
 R. D. Adamson,  B. Austin,  J. Baker,  G. J. O. Beran,  K. Brandhorst,  
 S. T. Brown,  E. F. C. Byrd,  A. K. Chakraborty,  C.-L. Cheng,  
 Siu Hung Chien,  D. M. Chipman,  D. L. Crittenden,  H. Dachsel,  
 R. J. Doerksen,  A. D. Dutoi,  L. Fusti-Molnar,  W. A. Goddard III,  
 A. Golubeva-Zadorozhnaya,  S. R. Gwaltney,  G. Hawkins,  A. Heyden,  
 S. Hirata,  G. Kedziora,  F. J. Keil,  C. Kelley,  Jihan Kim,  R. A. King,  
 R. Z. Khaliullin,  P. P. Korambath,  W. Kurlancheek,  A. M. Lee,  M. S. Lee,  
 S. V. Levchenko,  Ching Yeh Lin,  D. Liotard,  R. C. Lochan,  I. Lotan,  
 P. E. Maslen,  N. Nair,  D. P. O'Neill,  D. Neuhauser,  E. Neuscamman,  
 C. M. Oana,  R. Olson,  B. Peters,  R. Peverati,  P. A. Pieniazek,  
 Y. M. Rhee,  J. Ritchie,  M. A. Rohrdanz,  E. Rosta,  N. J. Russ,  
 H. F. Schaefer III,  N. E. Schultz,  N. Shenvi,  A. C. Simmonett,  A. Sodt,  
 D. Stuck,  K. S. Thanthiriwatte,  V. Vanovschi,  Tao Wang,  A. Warshel,  
 C. F. Williams,  Q. Wu,  X. Xu,  W. Zhang

 Please cite Q-Chem as follows:
 Y. Shao et al., Mol. Phys. 113, 184-215 (2015)
 DOI: 10.1080/00268976.2014.952696

 Q-Chem 5.0.2 for Intel X86 EM64T Linux

 Parts of Q-Chem use Armadillo 5.200.1 (Boston Tea Smuggler).
 http://arma.sourceforge.net/

 Q-Chem begins on Wed Mar  2 10:09:20 2022  

Host: 
0

     Scratch files written to ./qcts1.d//
 Dec517 15110_ 26548  26544 5633   
Processing $rem in /home/leeping/opt/qchem/5.0.2-openmp/config/preferences.
 MEM_STATIC 2000
 MEM_TOTAL  8000
 SYMMETRY   OFF
 SYM_IGNORE TRUE 

Checking the input file for inconsistencies... 	...done.

--------------------------------------------------------------
User input:
--------------------------------------------------------------
$molecule
0 2
C        1.8262650451    0.3384259514   -0.1457453157
C        1.1048074807   -0.8258550581   -0.1442208373
C       -0.2762613671   -0.6093365677   -0.5413637350
C       -1.2947684358    0.1909641266    0.4084480984
C       -0.1325381601    1.1392240757   -0.7438618855
N        1.1005749149    1.4335507050   -0.4735534406
H        2.8953175254    0.4227638847    0.0068801724
H        1.5447020241   -1.8040152671    0.0077866732
H       -0.7952653199   -1.3753189366   -1.1206114733
H       -2.2198576205    0.5071003025   -0.0713820899
H       -0.8459094146    1.9120036941   -1.0359233193
C       -1.1325319656   -0.5072937044    1.5141132177
H       -1.7973099176   -0.8534152571    2.3046663701
$end

$rem
method                b3lyp
basis                 6-31g(d)
unrestricted          true
symmetry              off
sym_ignore            true
incdft                false
incfock               0
scf_convergence       8
thresh                14
jobtype               freq
scf_guess             read
scf_algorithm         diis
max_scf_cycles        100
$end

--------------------------------------------------------------
 ----------------------------------------------------------------
             Standard Nuclear Orientation (Angstroms)
    I     Atom           X                Y                Z
 ----------------------------------------------------------------
    1      C       1.8262650451     0.3384259514    -0.1457453157
    2      C       1.1048074807    -0.8258550581    -0.1442208373
    3      C      -0.2762613671    -0.6093365677    -0.5413637350
    4      C      -1.2947684358     0.1909641266     0.4084480984
    5      C      -0.1325381601     1.1392240757    -0.7438618855
    6      N       1.1005749149     1.4335507050    -0.4735534406
    7      H       2.8953175254     0.4227638847     0.0068801724
    8      H       1.5447020241    -1.8040152671     0.0077866732
    9      H      -0.7952653199    -1.3753189366    -1.1206114733
   10      H      -2.2198576205     0.5071003025    -0.0713820899
   11      H      -0.8459094146     1.9120036941    -1.0359233193
   12      C      -1.1325319656    -0.5072937044     1.5141132177
   13      H      -1.7973099176    -0.8534152571     2.3046663701
 ----------------------------------------------------------------
 Nuclear Repulsion Energy =   265.7866643077 hartrees
 There are       25 alpha and       24 beta electrons
 Requested basis set is 6-31G(d)
 There are 40 shells and 117 basis functions

 Total QAlloc Memory Limit   8000 MB
 Mega-Array Size      1956 MB
 MEM_STATIC part      2000 MB

                       Distance Matrix (Angstroms)
             C (  1)   C (  2)   C (  3)   C (  4)   C (  5)   N (  6)
   C (  2)  1.369691
   C (  3)  2.339954  1.453256
   C (  4)  3.173283  2.664081  1.606232
   C (  5)  2.199075  2.398360  1.766105  1.891506
   N (  6)  1.354025  2.283285  2.464481  2.838947  1.296249
   H (  7)  1.083181  2.188106  3.380047  4.215662  3.200756  2.115090
   H (  8)  2.166311  1.083241  2.246048  3.493289  3.469981  3.303146
   H (  9)  3.280199  2.205794  1.091614  2.245166  2.627560  3.450021
   H ( 10)  4.050320  3.582663  2.290170  1.089022  2.282260  3.470637
   H ( 11)  3.226311  3.477974  2.631776  2.291214  1.091507  2.081821
   C ( 12)  3.496406  2.803077  2.229035  1.317718  2.968073  3.564332
   H ( 13)  4.533795  3.797380  3.236209  2.222368  4.004448  4.620222
             H (  7)   H (  8)   H (  9)   H ( 10)   H ( 11)   C ( 12)
   H (  8)  2.604363
   H (  9)  4.257316  2.632966
   H ( 10)  5.116469  4.418080  2.583379
   H ( 11)  4.159574  4.540171  3.288803  2.189024
   C ( 12)  4.400038  3.334380  2.794457  2.173722  3.526732
   H ( 13)  5.378588  4.165134  3.606800  2.770407  4.439847  1.089360

 
 A cutoff of  1.0D-14 yielded    804 shell pairs
 There are      7076 function pairs
 Smallest overlap matrix eigenvalue = 1.78E-03
 Guess MOs from SCF MO coefficient file
 Reading MOs from coefficient file
 Reading MOs from coefficient file
 An unrestricted hybrid HF-DFT SCF calculation will be
 performed using Pulay DIIS extrapolation
 Exchange:     0.2000 Hartree-Fock + 0.0800 Slater + 0.7200 B88
 Correlation:  0.1900 VWN1RPA + 0.8100 LYP
 Using SG-1 standard quadrature grid
 SCF converges when DIIS error is below 1.0E-08
Using Q-Chem read-in guess as SCF_GUESS READ specified.

 -------------------------------------------------------
 OpenMP BLAS3 based DFT computing Module                
 -------------------------------------------------------
 ---------------------------------------
  Cycle       Energy         DIIS Error
 ---------------------------------------
    1    -286.7459350839      1.06E-09
    2    -286.7459350839      2.01E-09 Convergence criterion met
 ---------------------------------------
 <S^2> = 0.7596
 SCF time:  CPU 3.31 s  wall 10.12 s
 SCF   energy in the final basis set = -286.74593508
 Total energy in the final basis set = -286.74593508
 
 --------------------------------------------------------------
 
                    Orbital Energies (a.u.)
 --------------------------------------------------------------
 
 Alpha MOs
 -- Occupied --
-14.316 -10.246 -10.231 -10.225 -10.222 -10.201 -10.186  -0.945
 -0.825  -0.747  -0.695  -0.598  -0.587  -0.519  -0.505  -0.486
 -0.435  -0.417  -0.383  -0.374  -0.343  -0.274  -0.259  -0.228
 -0.199
 -- Virtual --
 -0.057   0.026   0.065   0.089   0.115   0.133   0.137   0.167
  0.171   0.201   0.214   0.262   0.292   0.361   0.378   0.434
  0.495   0.501   0.508   0.536   0.557   0.572   0.595   0.618
  0.629   0.636   0.665   0.673   0.676   0.707   0.779   0.807
  0.834   0.843   0.849   0.860   0.877   0.894   0.913   0.945
  0.957   0.979   1.028   1.062   1.130   1.173   1.240   1.325
  1.373   1.406   1.434   1.492   1.527   1.547   1.592   1.625
  1.672   1.737   1.797   1.821   1.903   1.923   1.970   2.001
  2.027   2.098   2.116   2.170   2.190   2.260   2.281   2.368
  2.372   2.409   2.467   2.537   2.560   2.598   2.638   2.686
  2.718   2.741   2.835   2.994   3.062   3.978   4.086   4.163
  4.209   4.356   4.384   4.499
 
 Beta MOs
 -- Occupied --
-14.315 -10.246 -10.229 -10.226 -10.207 -10.202 -10.185  -0.944
 -0.817  -0.745  -0.684  -0.588  -0.585  -0.515  -0.498  -0.477
 -0.434  -0.413  -0.381  -0.371  -0.335  -0.270  -0.229  -0.222
 -- Virtual --
 -0.079  -0.037   0.028   0.069   0.093   0.117   0.138   0.141
  0.170   0.172   0.204   0.218   0.264   0.295   0.367   0.391
  0.435   0.500   0.512   0.517   0.541   0.566   0.579   0.597
  0.622   0.634   0.644   0.668   0.676   0.679   0.713   0.785
  0.810   0.837   0.844   0.850   0.865   0.880   0.905   0.918
  0.950   0.961   0.986   1.036   1.066   1.134   1.175   1.248
  1.329   1.374   1.413   1.438   1.498   1.534   1.549   1.598
  1.632   1.683   1.758   1.824   1.844   1.919   1.931   1.979
  2.008   2.034   2.103   2.121   2.177   2.196   2.263   2.287
  2.371   2.377   2.416   2.472   2.539   2.564   2.603   2.640
  2.690   2.720   2.757   2.843   2.995   3.063   3.979   4.111
  4.164   4.217   4.358   4.383   4.502
 --------------------------------------------------------------
 
          Ground-State Mulliken Net Atomic Charges

     Atom                 Charge (a.u.)    Spin (a.u.)
  --------------------------------------------------------
      1 C                     0.027765      -0.019578
      2 C                    -0.106176       0.038514
      3 C                    -0.254641       0.092333
      4 C                    -0.172629      -0.121882
      5 C                     0.039549       0.007314
      6 N                    -0.354656       0.036769
      7 H                     0.136994       0.000631
      8 H                     0.138814      -0.002001
      9 H                     0.173575      -0.008877
     10 H                     0.173859       0.054045
     11 H                     0.170444      -0.002759
     12 C                    -0.135047       0.892038
     13 H                     0.162149       0.033452
  --------------------------------------------------------
  Sum of atomic charges =    -0.000000
  Sum of spin   charges =     1.000000

 -----------------------------------------------------------------
                    Cartesian Multipole Moments
 -----------------------------------------------------------------
    Charge (ESU x 10^10)
                -0.0000
    Dipole Moment (Debye)
         X      -2.3217      Y      -1.8131      Z       0.0473
       Tot       2.9462
    Quadrupole Moments (Debye-Ang)
        XX     -36.1440     XY      -3.2218     YY     -42.0851
        XZ       0.4706     YZ      -0.3254     ZZ     -41.7023
    Octopole Moments (Debye-Ang^2)
       XXX     -14.4244    XXY      -8.0331    XYY     -12.9894
       YYY     -25.3732    XXZ       3.9271    XYZ       3.7620
       YYZ      -1.1012    XZZ     -12.7950    YZZ      -7.6529
       ZZZ       6.4369
    Hexadecapole Moments (Debye-Ang^3)
      XXXX    -360.3648   XXXY     -25.3085   XXYY    -107.7529
      XYYY     -43.0344   YYYY    -243.2102   XXXZ      50.2050
      XXYZ       8.0500   XYYZ      22.6935   YYYZ      34.5396
      XXZZ     -92.4555   XYZZ      -3.0130   YYZZ     -68.7772
      XZZZ      40.6340   YZZZ      30.5138   ZZZZ    -183.2057
 -----------------------------------------------------------------
 Calculating MO derivatives via CPSCF
   1         3          39      0.298344    0.063629
   2         3          39      0.033254    0.006814
   3         3          39      0.005292    0.001376
   4         3          39      0.000667    0.000179
   5        32          10      0.000041    0.000014
   6        40           2      0.000002    0.000001
   7        42           0      0.000000    0.000000    Roots Converged
 Time for AOints: 5.8 s (CPU) 8.2 s (wall)
 ------------------------------------------------------------------------------
                     AOints        : Timing summary (seconds)
 ------------------------------------------------------------------------------
     job step          cpu (% of tot)      sys (% of tot)     wall (% of tot)
 ------------------------------------------------------------------------------
  cpscf_lag         0.5501E+02 (28.8)   0.2700E-04 (36.0)   0.6221E+02 (28.5)
  iterzp            0.1303E+03 (68.1)   0.4500E-04 (60.0)   0.1479E+03 (67.7)
  make_fx           0.0000E+00 ( 0.0)   0.0000E+00 ( 0.0)   0.0000E+00 ( 0.0)
  AOints            0.5826E+01 ( 3.0)   0.1000E-05 ( 1.3)   0.8183E+01 ( 3.7)
 ------------------------------------------------------------------------------
   Grand Totals     0.1913E+03          0.7500E-04          0.2185E+03
 ------------------------------------------------------------------------------
 Calculating analytic Hessian of the SCF energy
 Polarizability Matrix (a.u.)
            1           2           3
    1 -81.4718171  -3.4964179  12.1442508
    2  -3.4964179 -63.8701889  12.5767280
    3  12.1442508  12.5767280 -58.8589768
 
 Direct stationary perturbation theory relativistic correction:
 
 rels  =       0.069264198999
 relv  =      -0.336410925861
 rel2e =       0.154187979981
 E_rel =      -0.112958746881
 
 Hessian of the SCF Energy
            1           2           3           4           5           6
    1   0.8141885   0.0663437   0.1232106  -0.2013553  -0.1578045  -0.0084732
    2   0.0663437   0.6205644  -0.0664176  -0.1136041  -0.3035462   0.0050236
    3   0.1232106  -0.0664176   0.1674553  -0.0070166   0.0005893  -0.0562219
    4  -0.2013553  -0.1136041  -0.0070166   0.5551817  -0.0078044   0.0912603
    5  -0.1578045  -0.3035462   0.0005893  -0.0078044   0.8010557  -0.0644413
    6  -0.0084732   0.0050236  -0.0562219   0.0912603  -0.0644413   0.1448306
    7  -0.0321472  -0.0590958  -0.0093274  -0.2174529   0.0363136  -0.0397923
    8  -0.0111124   0.0271341   0.0049182   0.0003743  -0.0911266  -0.0205237
    9  -0.0125852   0.0016051   0.0008814  -0.0704331  -0.0058707  -0.0787189
   10  -0.0024317  -0.0141741   0.0053403  -0.0044042   0.0054508   0.0137478
   11   0.0073961  -0.0495903   0.0029227   0.0343514   0.0080746   0.0083796
   12   0.0027826   0.0267498  -0.0028784  -0.0137689   0.0024049   0.0149453
   13  -0.0843718   0.0862135  -0.0328829  -0.0377828  -0.0128442  -0.0095963
   14   0.0110587  -0.0019558   0.0026715   0.0336537  -0.0423932   0.0241809
   15  -0.0255282  -0.0070402  -0.0011635   0.0062958   0.0095628   0.0044451
   16  -0.1555993   0.0859863  -0.0358341   0.0338365   0.0462495  -0.0080889
   17   0.0997334  -0.2290221   0.0539009  -0.0253755  -0.0832160   0.0084434
   18  -0.0348208   0.0472706  -0.0768778   0.0024613   0.0239445   0.0121855
   19  -0.3395966  -0.0310092  -0.0434512  -0.0080595   0.0024991  -0.0022826
   20  -0.0341394  -0.0615406  -0.0010624  -0.0242482   0.0051449  -0.0047649
   21  -0.0402572   0.0005675  -0.0409526   0.0031405   0.0013753   0.0028422
   22   0.0124370  -0.0145842   0.0039137  -0.1023830   0.1090600  -0.0242946
   23   0.0155496  -0.0138414   0.0043337   0.1053982  -0.2968138   0.0389659
   24   0.0004865   0.0015060   0.0006937  -0.0251798   0.0372029  -0.0347063
   25  -0.0052914   0.0013005  -0.0020732  -0.0098515  -0.0210208  -0.0122027
   26   0.0040856   0.0001439   0.0002888   0.0017446   0.0086791   0.0039600
   27  -0.0026248  -0.0032257   0.0002439   0.0037816  -0.0055292   0.0004864
   28  -0.0007849   0.0032000  -0.0004632  -0.0019437   0.0003529   0.0018229
   29  -0.0006857   0.0018060  -0.0008838  -0.0007821  -0.0017860  -0.0020263
   30   0.0011680  -0.0012484   0.0006077   0.0034282  -0.0010556  -0.0024183
   31  -0.0043086  -0.0010360  -0.0014774  -0.0004372  -0.0015592  -0.0003861
   32  -0.0008718   0.0021078   0.0001631  -0.0016807  -0.0033282  -0.0001736
   33  -0.0016364  -0.0010574   0.0049120   0.0005946  -0.0005942   0.0001244
   34  -0.0009370  -0.0109230  -0.0004858  -0.0065199   0.0019618  -0.0034998
   35   0.0018650   0.0043430  -0.0007625  -0.0011464   0.0009260   0.0062740
   36  -0.0015525  -0.0078102   0.0031369   0.0067439   0.0043647  -0.0063913
   37   0.0001984   0.0013824   0.0005473   0.0011719  -0.0008544   0.0017854
   38  -0.0014182   0.0033971  -0.0006620  -0.0008806  -0.0016702  -0.0032976
   39  -0.0001695   0.0040768   0.0001633  -0.0013077  -0.0019533  -0.0014028
            7           8           9          10          11          12
    1  -0.0321472  -0.0111124  -0.0125852  -0.0024317   0.0073961   0.0027826
    2  -0.0590958   0.0271341   0.0016051  -0.0141741  -0.0495903   0.0267498
    3  -0.0093274   0.0049182   0.0008814   0.0053403   0.0029227  -0.0028784
    4  -0.2174529   0.0003743  -0.0704331  -0.0044042   0.0343514  -0.0137689
    5   0.0363136  -0.0911266  -0.0058707   0.0054508   0.0080746   0.0024049
    6  -0.0397923  -0.0205237  -0.0787189   0.0137478   0.0083796   0.0149453
    7   0.4835434   0.1035780   0.1497275  -0.0652537  -0.0226394  -0.0197039
    8   0.1035780   0.2625013   0.1639504   0.0384236   0.0312265  -0.0567149
    9   0.1497275   0.1639504   0.2963806   0.0314757  -0.0113757  -0.0704713
   10  -0.0652537   0.0384236   0.0314757   0.3961890  -0.1453197   0.1630992
   11  -0.0226394   0.0312265  -0.0113757  -0.1453197   0.1916661  -0.2477934
   12  -0.0197039  -0.0567149  -0.0704713   0.1630992  -0.2477934   0.5813986
   13  -0.0120832  -0.0419989  -0.0357791   0.0005036   0.0924203  -0.0347514
   14   0.0330628   0.0298870  -0.0337209  -0.0156578   0.0131943   0.0251475
   15  -0.0318206   0.0415567  -0.0178515   0.0009152  -0.0624070  -0.0122892
   16  -0.0468374  -0.0229648   0.0112599  -0.0264734  -0.0667678   0.0289493
   17  -0.0014890  -0.0591732  -0.0025246   0.0081582   0.0194707  -0.0158440
   18  -0.0121129  -0.0113371   0.0090596  -0.0026848  -0.0067071   0.0192799
   19   0.0002275  -0.0027098  -0.0009147   0.0002809  -0.0000910  -0.0002143
   20  -0.0024754  -0.0034159   0.0015186  -0.0006708  -0.0005612  -0.0004389
   21  -0.0025035   0.0044384   0.0072429  -0.0031700  -0.0017724  -0.0002694
   22  -0.0048401   0.0234399  -0.0009471  -0.0016667   0.0018576  -0.0014802
   23  -0.0020579   0.0029645  -0.0007060   0.0000311   0.0007910  -0.0005213
   24   0.0001689   0.0021513   0.0012036   0.0008130   0.0012915  -0.0016211
   25  -0.1076654  -0.0960772  -0.0856766   0.0045953   0.0132077   0.0173541
   26  -0.0971592  -0.1888806  -0.1121300   0.0004255  -0.0006120  -0.0080204
   27  -0.0926821  -0.0958398  -0.1102219  -0.0029166  -0.0209269  -0.0175110
   28  -0.0083758  -0.0004853  -0.0076179  -0.2444209   0.0837214  -0.1051928
   29   0.0163558  -0.0038951   0.0006478   0.0717329  -0.0461825   0.0304701
   30   0.0139702  -0.0041259   0.0079788  -0.1174516   0.0395435  -0.0975848
   31   0.0004728  -0.0030754   0.0046902  -0.0010413  -0.0091908   0.0060161
   32   0.0062414  -0.0016798   0.0014704   0.0017009   0.0003299   0.0023274
   33   0.0063563  -0.0041754  -0.0077237   0.0012521   0.0232492  -0.0123629
   34   0.0117823   0.0158951   0.0114326  -0.0591030  -0.0026193  -0.0284338
   35  -0.0186362  -0.0031597  -0.0062190   0.0646312  -0.1836460   0.2323137
   36   0.0323289  -0.0205750  -0.0364908  -0.1029225   0.2640950  -0.3953212
   37  -0.0013703  -0.0032871   0.0053678   0.0032261   0.0136733  -0.0146560
   38   0.0080012  -0.0023824   0.0033547  -0.0147319   0.0158388   0.0099194
   39   0.0053910  -0.0037232  -0.0012689   0.0125022   0.0115010  -0.0053145
           13          14          15          16          17          18
    1  -0.0843718   0.0110587  -0.0255282  -0.1555993   0.0997334  -0.0348208
    2   0.0862135  -0.0019558  -0.0070402   0.0859863  -0.2290221   0.0472706
    3  -0.0328829   0.0026715  -0.0011635  -0.0358341   0.0539009  -0.0768778
    4  -0.0377828   0.0336537   0.0062958   0.0338365  -0.0253755   0.0024613
    5  -0.0128442  -0.0423932   0.0095628   0.0462495  -0.0832160   0.0239445
    6  -0.0095963   0.0241809   0.0044451  -0.0080889   0.0084434   0.0121855
    7  -0.0120832   0.0330628  -0.0318206  -0.0468374  -0.0014890  -0.0121129
    8  -0.0419989   0.0298870   0.0415567  -0.0229648  -0.0591732  -0.0113371
    9  -0.0357791  -0.0337209  -0.0178515   0.0112599  -0.0025246   0.0090596
   10   0.0005036  -0.0156578   0.0009152  -0.0264734   0.0081582  -0.0026848
   11   0.0924203   0.0131943  -0.0624070  -0.0667678   0.0194707  -0.0067071
   12  -0.0347514   0.0251475  -0.0122892   0.0289493  -0.0158440   0.0192799
   13   0.6950095  -0.1512720   0.2405600  -0.3930499  -0.0816823  -0.0830539
   14  -0.1512720   0.2822546  -0.0605372  -0.0502685  -0.0805109  -0.0112561
   15   0.2405600  -0.0605372   0.1377005  -0.1224680  -0.0018602  -0.0849392
   16  -0.3930499  -0.0502685  -0.1224680   0.6335506  -0.0225214   0.1385820
   17  -0.0816823  -0.0805109  -0.0018602  -0.0225214   0.4363294  -0.0486174
   18  -0.0830539  -0.0112561  -0.0849392   0.1385820  -0.0486174   0.1306286
   19   0.0002219   0.0026798  -0.0006825  -0.0139339   0.0031611  -0.0034046
   20   0.0031875  -0.0036985   0.0016799   0.0310601   0.0024222   0.0045919
   21  -0.0019762   0.0023041   0.0035405  -0.0057954  -0.0052518  -0.0041509
   22  -0.0060144  -0.0017391  -0.0015720   0.0008111  -0.0046859  -0.0001759
   23  -0.0032369  -0.0014869  -0.0001461  -0.0003464  -0.0044996   0.0012864
   24  -0.0012767   0.0025751  -0.0001345  -0.0000586  -0.0001215   0.0076542
   25  -0.0029217   0.0008651   0.0025863  -0.0001590  -0.0003584  -0.0013453
   26  -0.0042991   0.0069895  -0.0041885  -0.0040857  -0.0073658   0.0004821
   27   0.0078490  -0.0033993   0.0012965   0.0024882   0.0090762   0.0001420
   28  -0.0143484   0.0001942   0.0007180   0.0039342  -0.0014574   0.0034457
   29  -0.0125406  -0.0053669   0.0044107   0.0025946   0.0008326   0.0030723
   30   0.0076817   0.0010031   0.0026757  -0.0008469  -0.0003628  -0.0029768
   31  -0.1639980   0.1342172  -0.0581476  -0.0255846   0.0196756  -0.0089048
   32   0.1402981  -0.1944000   0.0673204  -0.0087646   0.0087924  -0.0058381
   33  -0.0658609   0.0428930  -0.0320076  -0.0003116   0.0057475  -0.0055990
   34   0.0232560   0.0026223  -0.0151999  -0.0123586   0.0085184   0.0033290
   35  -0.0076411  -0.0004406   0.0048868   0.0041689  -0.0031753   0.0024704
   36   0.0192244   0.0107086  -0.0082566  -0.0140143  -0.0000804  -0.0050779
   37  -0.0044209   0.0005837   0.0043437   0.0018638  -0.0016768  -0.0013149
   38  -0.0066042  -0.0020728   0.0067620   0.0056599  -0.0008843   0.0006375
   39  -0.0101376  -0.0025705   0.0069838   0.0061385  -0.0025053   0.0006717
           19          20          21          22          23          24
    1  -0.3395966  -0.0341394  -0.0402572   0.0124370   0.0155496   0.0004865
    2  -0.0310092  -0.0615406   0.0005675  -0.0145842  -0.0138414   0.0015060
    3  -0.0434512  -0.0010624  -0.0409526   0.0039137   0.0043337   0.0006937
    4  -0.0080595  -0.0242482   0.0031405  -0.1023830   0.1053982  -0.0251798
    5   0.0024991   0.0051449   0.0013753   0.1090600  -0.2968138   0.0372029
    6  -0.0022826  -0.0047649   0.0028422  -0.0242946   0.0389659  -0.0347063
    7   0.0002275  -0.0024754  -0.0025035  -0.0048401  -0.0020579   0.0001689
    8  -0.0027098  -0.0034159   0.0044384   0.0234399   0.0029645   0.0021513
    9  -0.0009147   0.0015186   0.0072429  -0.0009471  -0.0007060   0.0012036
   10   0.0002809  -0.0006708  -0.0031700  -0.0016667   0.0000311   0.0008130
   11  -0.0000910  -0.0005612  -0.0017724   0.0018576   0.0007910   0.0012915
   12  -0.0002143  -0.0004389  -0.0002694  -0.0014802  -0.0005213  -0.0016211
   13   0.0002219   0.0031875  -0.0019762  -0.0060144  -0.0032369  -0.0012767
   14   0.0026798  -0.0036985   0.0023041  -0.0017391  -0.0014869   0.0025751
   15  -0.0006825   0.0016799   0.0035405  -0.0015720  -0.0001461  -0.0001345
   16  -0.0139339   0.0310601  -0.0057954   0.0008111  -0.0003464  -0.0000586
   17   0.0031611   0.0024222  -0.0052518  -0.0046859  -0.0044996  -0.0001215
   18  -0.0034046   0.0045919  -0.0041509  -0.0001759   0.0012864   0.0076542
   19   0.3612421   0.0260427   0.0507228   0.0001582  -0.0004423   0.0005171
   20   0.0260427   0.0597000  -0.0013870   0.0009406   0.0005324  -0.0003533
   21   0.0507228  -0.0013870   0.0328498   0.0004027  -0.0003314  -0.0031781
   22   0.0001582   0.0009406   0.0004027   0.1006718  -0.1149768   0.0242467
   23  -0.0004423   0.0005324  -0.0003314  -0.1149768   0.3118944  -0.0435353
   24   0.0005171  -0.0003533  -0.0031781   0.0242467  -0.0435353   0.0280963
   25  -0.0005285  -0.0009637   0.0007310   0.0001492   0.0005718   0.0008421
   26   0.0002139   0.0005370  -0.0009574  -0.0007797   0.0000520  -0.0000402
   27   0.0000069  -0.0003596   0.0006202   0.0002449   0.0001936  -0.0000428
   28   0.0000917  -0.0001535  -0.0005184  -0.0004882  -0.0002578   0.0002341
   29   0.0000972   0.0000704  -0.0000768   0.0006699  -0.0000401  -0.0001843
   30  -0.0000367   0.0000950   0.0005478   0.0006022   0.0000746   0.0001895
   31  -0.0004066   0.0011442  -0.0004685   0.0005049   0.0000275  -0.0005611
   32  -0.0003576   0.0006757   0.0005217   0.0009102   0.0003221   0.0001839
   33  -0.0001751   0.0005950   0.0009766   0.0001171   0.0002027   0.0020558
   34   0.0004435   0.0003120  -0.0004107   0.0007976  -0.0003413  -0.0000323
   35  -0.0001173   0.0001310   0.0003764  -0.0000674   0.0001564  -0.0004973
   36  -0.0000230  -0.0001381  -0.0002607  -0.0010666   0.0001950   0.0000008
   37  -0.0001408  -0.0000362   0.0001028  -0.0001374   0.0000812  -0.0002000
   38   0.0000333   0.0000025   0.0001935  -0.0000451  -0.0000309  -0.0001788
   39  -0.0000622   0.0000238   0.0001917   0.0000090  -0.0000117  -0.0002112
           25          26          27          28          29          30
    1  -0.0052914   0.0040856  -0.0026248  -0.0007849  -0.0006857   0.0011680
    2   0.0013005   0.0001439  -0.0032257   0.0032000   0.0018060  -0.0012484
    3  -0.0020732   0.0002888   0.0002439  -0.0004632  -0.0008838   0.0006077
    4  -0.0098515   0.0017446   0.0037816  -0.0019437  -0.0007821   0.0034282
    5  -0.0210208   0.0086791  -0.0055292   0.0003529  -0.0017860  -0.0010556
    6  -0.0122027   0.0039600   0.0004864   0.0018229  -0.0020263  -0.0024183
    7  -0.1076654  -0.0971592  -0.0926821  -0.0083758   0.0163558   0.0139702
    8  -0.0960772  -0.1888806  -0.0958398  -0.0004853  -0.0038951  -0.0041259
    9  -0.0856766  -0.1121300  -0.1102219  -0.0076179   0.0006478   0.0079788
   10   0.0045953   0.0004255  -0.0029166  -0.2444209   0.0717329  -0.1174516
   11   0.0132077  -0.0006120  -0.0209269   0.0837214  -0.0461825   0.0395435
   12   0.0173541  -0.0080204  -0.0175110  -0.1051928   0.0304701  -0.0975848
   13  -0.0029217  -0.0042991   0.0078490  -0.0143484  -0.0125406   0.0076817
   14   0.0008651   0.0069895  -0.0033993   0.0001942  -0.0053669   0.0010031
   15   0.0025863  -0.0041885   0.0012965   0.0007180   0.0044107   0.0026757
   16  -0.0001590  -0.0040857   0.0024882   0.0039342   0.0025946  -0.0008469
   17  -0.0003584  -0.0073658   0.0090762  -0.0014574   0.0008326  -0.0003628
   18  -0.0013453   0.0004821   0.0001420   0.0034457   0.0030723  -0.0029768
   19  -0.0005285   0.0002139   0.0000069   0.0000917   0.0000972  -0.0000367
   20  -0.0009637   0.0005370  -0.0003596  -0.0001535   0.0000704   0.0000950
   21   0.0007310  -0.0009574   0.0006202  -0.0005184  -0.0000768   0.0005478
   22   0.0001492  -0.0007797   0.0002449  -0.0004882   0.0006699   0.0006022
   23   0.0005718   0.0000520   0.0001936  -0.0002578  -0.0000401   0.0000746
   24   0.0008421  -0.0000402  -0.0000428   0.0002341  -0.0001843   0.0001895
   25   0.1227657   0.0988941   0.0809888   0.0003313  -0.0006799  -0.0005500
   26   0.0988941   0.1831039   0.1204542   0.0001861  -0.0004623  -0.0000338
   27   0.0809888   0.1204542   0.1203488   0.0002373   0.0017508   0.0005489
   28   0.0003313   0.0001861   0.0002373   0.2624860  -0.0834595   0.1069545
   29  -0.0006799  -0.0004623   0.0017508  -0.0834595   0.0569038  -0.0479758
   30  -0.0005500  -0.0000338   0.0005489   0.1069545  -0.0479758   0.1027688
   31   0.0000728  -0.0005107   0.0007521  -0.0000856  -0.0031768   0.0015535
   32   0.0001243  -0.0014231   0.0014507  -0.0016076  -0.0007946   0.0002773
   33   0.0002560  -0.0005031   0.0002370  -0.0006636  -0.0004986   0.0004128
   34  -0.0015150   0.0014031   0.0017257   0.0028718   0.0111126  -0.0174970
   35   0.0053952  -0.0001602  -0.0059853   0.0012509   0.0017022   0.0170486
   36  -0.0003776   0.0008222   0.0030803   0.0020234   0.0129138  -0.0115523
   37   0.0000182  -0.0001186   0.0001490   0.0007326  -0.0012385   0.0010240
   38  -0.0012586  -0.0006014   0.0023404  -0.0014846  -0.0027875  -0.0032397
   39  -0.0005328  -0.0001339   0.0007718  -0.0009800  -0.0016200  -0.0011979
           31          32          33          34          35          36
    1  -0.0043086  -0.0008718  -0.0016364  -0.0009370   0.0018650  -0.0015525
    2  -0.0010360   0.0021078  -0.0010574  -0.0109230   0.0043430  -0.0078102
    3  -0.0014774   0.0001631   0.0049120  -0.0004858  -0.0007625   0.0031369
    4  -0.0004372  -0.0016807   0.0005946  -0.0065199  -0.0011464   0.0067439
    5  -0.0015592  -0.0033282  -0.0005942   0.0019618   0.0009260   0.0043647
    6  -0.0003861  -0.0001736   0.0001244  -0.0034998   0.0062740  -0.0063913
    7   0.0004728   0.0062414   0.0063563   0.0117823  -0.0186362   0.0323289
    8  -0.0030754  -0.0016798  -0.0041754   0.0158951  -0.0031597  -0.0205750
    9   0.0046902   0.0014704  -0.0077237   0.0114326  -0.0062190  -0.0364908
   10  -0.0010413   0.0017009   0.0012521  -0.0591030   0.0646312  -0.1029225
   11  -0.0091908   0.0003299   0.0232492  -0.0026193  -0.1836460   0.2640950
   12   0.0060161   0.0023274  -0.0123629  -0.0284338   0.2323137  -0.3953212
   13  -0.1639980   0.1402981  -0.0658609   0.0232560  -0.0076411   0.0192244
   14   0.1342172  -0.1944000   0.0428930   0.0026223  -0.0004406   0.0107086
   15  -0.0581476   0.0673204  -0.0320076  -0.0151999   0.0048868  -0.0082566
   16  -0.0255846  -0.0087646  -0.0003116  -0.0123586   0.0041689  -0.0140143
   17   0.0196756   0.0087924   0.0057475   0.0085184  -0.0031753  -0.0000804
   18  -0.0089048  -0.0058381  -0.0055990   0.0033290   0.0024704  -0.0050779
   19  -0.0004066  -0.0003576  -0.0001751   0.0004435  -0.0001173  -0.0000230
   20   0.0011442   0.0006757   0.0005950   0.0003120   0.0001310  -0.0001381
   21  -0.0004685   0.0005217   0.0009766  -0.0004107   0.0003764  -0.0002607
   22   0.0005049   0.0009102   0.0001171   0.0007976  -0.0000674  -0.0010666
   23   0.0000275   0.0003221   0.0002027  -0.0003413   0.0001564   0.0001950
   24  -0.0005611   0.0001839   0.0020558  -0.0000323  -0.0004973   0.0000008
   25   0.0000728   0.0001243   0.0002560  -0.0015150   0.0053952  -0.0003776
   26  -0.0005107  -0.0014231  -0.0005031   0.0014031  -0.0001602   0.0008222
   27   0.0007521   0.0014507   0.0002370   0.0017257  -0.0059853   0.0030803
   28  -0.0000856  -0.0016076  -0.0006636   0.0028718   0.0012509   0.0020234
   29  -0.0031768  -0.0007946  -0.0004986   0.0111126   0.0017022   0.0129138
   30   0.0015535   0.0002773   0.0004128  -0.0174970   0.0170486  -0.0115523
   31   0.1947323  -0.1367158   0.0581884  -0.0000492   0.0004665  -0.0012611
   32  -0.1367158   0.1897735  -0.0644689   0.0009411   0.0002931  -0.0026085
   33   0.0581884  -0.0644689   0.0482262   0.0025436  -0.0006257   0.0017823
   34  -0.0000492   0.0009411   0.0025436   0.1757155   0.0190768  -0.0881271
   35   0.0004665   0.0002931  -0.0006257   0.0190768   0.2442765  -0.3330645
   36  -0.0012611  -0.0026085   0.0017823  -0.0881271  -0.3330645   0.6523058
   37   0.0001282  -0.0002178  -0.0006604  -0.1343839  -0.0692462   0.1490242
   38  -0.0002665  -0.0006690  -0.0007642  -0.0479597  -0.0612464   0.0711773
   39   0.0000063  -0.0006258  -0.0010339   0.1346556   0.0837844  -0.1969553
           37          38          39
    1   0.0001984  -0.0014182  -0.0001695
    2   0.0013824   0.0033971   0.0040768
    3   0.0005473  -0.0006620   0.0001633
    4   0.0011719  -0.0008806  -0.0013077
    5  -0.0008544  -0.0016702  -0.0019533
    6   0.0017854  -0.0032976  -0.0014028
    7  -0.0013703   0.0080012   0.0053910
    8  -0.0032871  -0.0023824  -0.0037232
    9   0.0053678   0.0033547  -0.0012689
   10   0.0032261  -0.0147319   0.0125022
   11   0.0136733   0.0158388   0.0115010
   12  -0.0146560   0.0099194  -0.0053145
   13  -0.0044209  -0.0066042  -0.0101376
   14   0.0005837  -0.0020728  -0.0025705
   15   0.0043437   0.0067620   0.0069838
   16   0.0018638   0.0056599   0.0061385
   17  -0.0016768  -0.0008843  -0.0025053
   18  -0.0013149   0.0006375   0.0006717
   19  -0.0001408   0.0000333  -0.0000622
   20  -0.0000362   0.0000025   0.0000238
   21   0.0001028   0.0001935   0.0001917
   22  -0.0001374  -0.0000451   0.0000090
   23   0.0000812  -0.0000309  -0.0000117
   24  -0.0002000  -0.0001788  -0.0002112
   25   0.0000182  -0.0012586  -0.0005328
   26  -0.0001186  -0.0006014  -0.0001339
   27   0.0001490   0.0023404   0.0007718
   28   0.0007326  -0.0014846  -0.0009800
   29  -0.0012385  -0.0027875  -0.0016200
   30   0.0010240  -0.0032397  -0.0011979
   31   0.0001282  -0.0002665   0.0000063
   32  -0.0002178  -0.0006690  -0.0006258
   33  -0.0006604  -0.0007642  -0.0010339
   34  -0.1343839  -0.0479597   0.1346556
   35  -0.0692462  -0.0612464   0.0837844
   36   0.1490242   0.0711773  -0.1969553
   37   0.1331139   0.0609550  -0.1455129
   38   0.0609550   0.0531064  -0.0862424
   39  -0.1455129  -0.0862424   0.1986020
 Gradient time:  CPU 254.48 s  wall 284.59 s
 **********************************************************************
 **                                                                  **
 **                       VIBRATIONAL ANALYSIS                       **
 **                       --------------------                       **
 **                                                                  **
 **        VIBRATIONAL FREQUENCIES (CM**-1) AND NORMAL MODES         **
 **     FORCE CONSTANTS (mDYN/ANGSTROM) AND REDUCED MASSES (AMU)     **
 **                  INFRARED INTENSITIES (KM/MOL)                   **
 **                                                                  **
 **********************************************************************
 

 Mode:                 1                      2                      3
 Frequency:      -627.93                -205.76                 116.40
 Force Cnst:      0.8871                 0.0963                 0.0330
 Red. Mass:       3.8187                 3.8595                 4.1364
 IR Active:          YES                    YES                    YES
 IR Intens:       28.053                 22.435                  0.283
 Raman Active:       YES                    YES                    YES
               X      Y      Z        X      Y      Z        X      Y      Z
 C         -0.022  0.042  0.009    0.011 -0.002 -0.050   -0.098 -0.024  0.149
 C          0.013 -0.036 -0.038    0.021 -0.010 -0.060   -0.061 -0.054 -0.078
 C          0.066 -0.203  0.006   -0.033 -0.302  0.131   -0.030 -0.042 -0.180
 C          0.063  0.317 -0.019    0.034 -0.109 -0.103    0.062 -0.082 -0.139
 C         -0.150 -0.044  0.210    0.022  0.326  0.014   -0.054 -0.028 -0.007
 N         -0.028 -0.043  0.015    0.011  0.011  0.025   -0.085 -0.018  0.173
 H         -0.024  0.050  0.028    0.023 -0.023 -0.140   -0.124 -0.011  0.317
 H          0.073 -0.009 -0.039    0.172  0.031 -0.194   -0.052 -0.056 -0.111
 H         -0.109 -0.282  0.295    0.036 -0.406  0.201   -0.026 -0.001 -0.239
 H         -0.050 -0.065 -0.075    0.084 -0.056 -0.165   -0.023 -0.172 -0.034
 H         -0.031 -0.130 -0.275   -0.040  0.405  0.374   -0.020 -0.020 -0.074
 C          0.087  0.046 -0.137   -0.081  0.064  0.024    0.266  0.232  0.042
 H         -0.139 -0.415 -0.507   -0.112  0.284  0.096    0.415  0.495  0.275
 TransDip  -0.145 -0.081  0.033    0.056  0.134  0.045   -0.002  0.004  0.016

 Mode:                 4                      5                      6
 Frequency:       235.57                 387.49                 504.70
 Force Cnst:      0.1502                 0.2937                 0.5188
 Red. Mass:       4.5941                 3.3200                 3.4568
 IR Active:          YES                    YES                    YES
 IR Intens:        6.828                  7.431                  4.302
 Raman Active:       YES                    YES                    YES
               X      Y      Z        X      Y      Z        X      Y      Z
 C         -0.098 -0.010  0.137   -0.073  0.045  0.121   -0.016  0.002 -0.086
 C         -0.160  0.033  0.192    0.019 -0.020 -0.145   -0.083  0.030  0.170
 C         -0.125 -0.053  0.030    0.018 -0.065 -0.063    0.010  0.024 -0.134
 C          0.049  0.042  0.021    0.260  0.082  0.122    0.237 -0.085 -0.092
 C          0.036  0.186 -0.163    0.004 -0.024 -0.163   -0.100  0.022  0.241
 N          0.032 -0.000 -0.119   -0.054  0.017  0.003    0.016 -0.008 -0.112
 H         -0.116 -0.063  0.276   -0.116  0.107  0.375   -0.012 -0.024 -0.093
 H         -0.182  0.049  0.363    0.082  0.003 -0.176   -0.136  0.049  0.438
 H         -0.069 -0.110  0.052   -0.119 -0.083  0.090    0.076  0.120 -0.321
 H          0.034  0.275  0.221    0.278  0.391  0.302    0.194  0.063  0.092
 H          0.019  0.234  0.001   -0.006 -0.051 -0.206   -0.028  0.013  0.049
 C          0.257 -0.205 -0.147   -0.150 -0.093  0.082   -0.045 -0.044  0.018
 H          0.355 -0.286 -0.088   -0.302  0.293  0.120   -0.367  0.496 -0.008
 TransDip   0.047  0.069  0.002   -0.001  0.053  0.069   -0.033  0.054  0.021

 Mode:                 7                      8                      9
 Frequency:       580.76                 634.37                 727.16
 Force Cnst:      0.5048                 0.4557                 0.4934
 Red. Mass:       2.5400                 1.9221                 1.5837
 IR Active:          YES                    YES                    YES
 IR Intens:       22.313                 32.061                 16.187
 Raman Active:       YES                    YES                    YES
               X      Y      Z        X      Y      Z        X      Y      Z
 C          0.047 -0.012 -0.156    0.020  0.032  0.082    0.016 -0.020 -0.101
 C          0.014  0.018  0.108    0.043  0.009 -0.062   -0.005 -0.007 -0.029
 C         -0.014 -0.019  0.044    0.008 -0.064 -0.035    0.035 -0.054 -0.124
 C          0.027  0.083 -0.032   -0.130  0.035  0.022   -0.035  0.010  0.056
 C         -0.004 -0.062 -0.071   -0.001 -0.017  0.130    0.024  0.056 -0.020
 N         -0.096 -0.006  0.200    0.050 -0.003 -0.117    0.013  0.040  0.065
 H          0.089  0.011 -0.446    0.001  0.048  0.202   -0.031  0.002  0.206
 H          0.021  0.012  0.051    0.074  0.033  0.020   -0.130  0.069  0.807
 H          0.073 -0.095  0.063    0.018 -0.023 -0.091   -0.075 -0.158  0.107
 H          0.080  0.450  0.135   -0.050  0.292  0.053   -0.071 -0.135  0.013
 H          0.010 -0.039 -0.041    0.033 -0.045 -0.015    0.055 -0.002 -0.253
 C         -0.004 -0.070 -0.133   -0.047 -0.053 -0.064   -0.044  0.007  0.058
 H          0.265  0.482  0.328    0.500  0.418  0.585    0.175 -0.230  0.127
 TransDip   0.096  0.108 -0.045    0.023  0.086  0.158    0.023 -0.043  0.119

 Mode:                10                     11                     12
 Frequency:       764.59                 801.84                 823.35
 Force Cnst:      1.1545                 0.6626                 1.0567
 Red. Mass:       3.3519                 1.7490                 2.6457
 IR Active:          YES                    YES                    YES
 IR Intens:       14.073                 17.102                 10.446
 Raman Active:       YES                    YES                    YES
               X      Y      Z        X      Y      Z        X      Y      Z
 C         -0.008  0.048 -0.043    0.015 -0.012 -0.025    0.188  0.063  0.073
 C         -0.121  0.105 -0.067    0.093 -0.046 -0.121   -0.037  0.199 -0.060
 C         -0.185 -0.128  0.101   -0.052  0.033  0.159   -0.096 -0.027 -0.111
 C          0.001 -0.070 -0.045   -0.007 -0.016 -0.037   -0.053 -0.034  0.009
 C          0.143 -0.137  0.068   -0.022 -0.015  0.009   -0.008 -0.067 -0.015
 N          0.122  0.197  0.040   -0.048 -0.020  0.001   -0.001 -0.148  0.012
 H          0.001 -0.201  0.031   -0.064  0.143  0.417    0.216  0.072 -0.106
 H         -0.006  0.156 -0.077   -0.064 -0.000  0.611   -0.235  0.145  0.151
 H         -0.067 -0.038 -0.132   -0.028  0.287 -0.191   -0.011 -0.406  0.294
 H          0.009  0.078  0.050    0.078  0.241 -0.012   -0.060  0.258  0.232
 H          0.118 -0.449 -0.635   -0.034  0.044  0.186    0.042  0.126  0.372
 C          0.042 -0.018  0.016    0.058  0.004 -0.053    0.038  0.016  0.030
 H         -0.218  0.088 -0.138   -0.240  0.188 -0.206   -0.322  0.067 -0.232
 TransDip  -0.062 -0.045 -0.092    0.047  0.121 -0.026    0.051  0.090 -0.002

 Mode:                13                     14                     15
 Frequency:       848.11                 857.84                 894.51
 Force Cnst:      0.7073                 0.6288                 0.6323
 Red. Mass:       1.6689                 1.4503                 1.3413
 IR Active:          YES                    YES                    YES
 IR Intens:       23.653                 83.181                  4.113
 Raman Active:       YES                    YES                    YES
               X      Y      Z        X      Y      Z        X      Y      Z
 C         -0.034  0.010 -0.033   -0.037  0.024 -0.044   -0.016 -0.003 -0.044
 C          0.054 -0.061  0.083   -0.052  0.024  0.009   -0.009 -0.018  0.027
 C          0.015 -0.107 -0.101   -0.012 -0.030  0.002    0.024 -0.018 -0.040
 C         -0.100  0.000  0.048    0.072  0.016 -0.030   -0.054  0.063  0.062
 C          0.023 -0.009 -0.017    0.044 -0.121  0.000    0.030 -0.025 -0.030
 N          0.001  0.048  0.000    0.018  0.054 -0.004    0.032  0.052  0.006
 H         -0.034  0.035 -0.035   -0.078 -0.018  0.244   -0.056 -0.016  0.231
 H          0.274  0.006 -0.088   -0.016  0.045  0.027    0.047 -0.007 -0.059
 H          0.081  0.132 -0.472   -0.082 -0.033  0.071   -0.063 -0.058  0.095
 H         -0.010  0.578  0.286    0.148  0.038 -0.167   -0.240 -0.515  0.022
 H          0.006  0.064  0.205   -0.100  0.038  0.774   -0.068  0.024  0.335
 C          0.034  0.054  0.049   -0.052  0.045 -0.022    0.050 -0.059 -0.029
 H         -0.239 -0.149 -0.256    0.321 -0.319  0.103   -0.354  0.567 -0.063
 TransDip  -0.002  0.053 -0.147   -0.043 -0.143  0.251   -0.061 -0.019 -0.008

 Mode:                16                     17                     18
 Frequency:       923.04                 969.94                1081.43
 Force Cnst:      0.6823                 0.8423                 1.1439
 Red. Mass:       1.3593                 1.5196                 1.6601
 IR Active:          YES                    YES                    YES
 IR Intens:        4.429                  2.668                  0.901
 Raman Active:       YES                    YES                    YES
               X      Y      Z        X      Y      Z        X      Y      Z
 C          0.076 -0.024 -0.118   -0.081 -0.032 -0.005   -0.037 -0.023 -0.011
 C         -0.017  0.035  0.066    0.001 -0.062 -0.015   -0.108  0.075 -0.062
 C         -0.008  0.020  0.004    0.086  0.085 -0.013    0.166 -0.033  0.068
 C         -0.010 -0.020 -0.012   -0.043 -0.082 -0.027   -0.025  0.023  0.028
 C         -0.025  0.029  0.014    0.015 -0.001  0.043   -0.012 -0.006 -0.020
 N         -0.016 -0.045  0.010    0.009  0.073 -0.016   -0.004 -0.009  0.004
 H         -0.078  0.173  0.813   -0.083 -0.067  0.004   -0.033 -0.228  0.039
 H          0.002 -0.036 -0.435   -0.094 -0.099  0.003   -0.483 -0.073 -0.013
 H          0.062 -0.070  0.057   -0.002 -0.399  0.692    0.717 -0.093 -0.338
 H          0.019  0.116  0.027    0.103  0.456  0.085   -0.002  0.069  0.022
 H          0.030 -0.009 -0.215   -0.080 -0.113  0.015   -0.019  0.014  0.047
 C         -0.002  0.004  0.013    0.036  0.016 -0.022    0.009 -0.002  0.014
 H          0.034 -0.070  0.010   -0.129  0.096 -0.121   -0.038  0.033 -0.005
 TransDip   0.040  0.054  0.003   -0.046  0.023  0.008    0.009 -0.027 -0.010

 Mode:                19                     20                     21
 Frequency:      1122.10                1182.68                1211.77
 Force Cnst:      1.1276                 1.0728                 1.2306
 Red. Mass:       1.5201                 1.3018                 1.4224
 IR Active:          YES                    YES                    YES
 IR Intens:        9.630                 25.202                 20.967
 Raman Active:       YES                    YES                    YES
               X      Y      Z        X      Y      Z        X      Y      Z
 C         -0.123 -0.020 -0.034    0.055 -0.077  0.027   -0.100  0.065 -0.031
 C         -0.015  0.105 -0.024    0.042  0.015 -0.005   -0.005 -0.031 -0.017
 C          0.035  0.036  0.007   -0.029  0.024  0.011   -0.017  0.027  0.031
 C         -0.015 -0.004  0.012    0.039  0.003 -0.037    0.027 -0.008 -0.051
 C          0.026 -0.008  0.015   -0.059  0.023 -0.016    0.062 -0.017  0.020
 N          0.004 -0.107  0.016   -0.003  0.046 -0.010    0.056 -0.068  0.014
 H         -0.121 -0.361  0.069    0.081 -0.494  0.112   -0.138  0.519 -0.064
 H          0.703  0.456  0.100    0.233  0.104  0.046    0.023 -0.009  0.029
 H          0.047 -0.004  0.059    0.160 -0.087 -0.019    0.223 -0.128  0.013
 H          0.084  0.039 -0.148   -0.302 -0.095  0.558   -0.369 -0.151  0.616
 H          0.192  0.123 -0.051   -0.355 -0.226  0.074    0.207  0.109  0.001
 C          0.015 -0.009  0.004   -0.037  0.034 -0.035   -0.032  0.020 -0.019
 H         -0.040  0.044 -0.016    0.088 -0.091  0.001    0.070 -0.071  0.017
 TransDip   0.058  0.073 -0.035   -0.042 -0.100  0.118   -0.072  0.040  0.122

 Mode:                22                     23                     24
 Frequency:      1253.41                1275.08                1444.36
 Force Cnst:      1.3161                 1.2370                 2.8427
 Red. Mass:       1.4218                 1.2914                 2.3127
 IR Active:          YES                    YES                    YES
 IR Intens:        5.588                 29.437                  2.596
 Raman Active:       YES                    YES                    YES
               X      Y      Z        X      Y      Z        X      Y      Z
 C         -0.004 -0.046  0.012    0.010  0.004  0.004   -0.140  0.130 -0.051
 C          0.046 -0.044 -0.001    0.062 -0.025  0.009    0.211  0.055  0.043
 C         -0.143  0.055 -0.037   -0.045  0.010  0.004   -0.085 -0.005 -0.034
 C          0.011  0.055  0.026    0.008  0.005 -0.024    0.002  0.014  0.001
 C          0.022  0.008  0.017   -0.078 -0.067 -0.005    0.085  0.035  0.022
 N         -0.011  0.020 -0.009   -0.009  0.076 -0.014    0.002 -0.103  0.013
 H         -0.019  0.232 -0.033    0.034 -0.344  0.069   -0.115 -0.606  0.088
 H          0.186  0.018  0.054   -0.080 -0.100 -0.025   -0.550 -0.304 -0.094
 H          0.664 -0.482 -0.112    0.123 -0.148  0.045   -0.042 -0.054 -0.038
 H          0.164 -0.049 -0.351   -0.049 -0.046  0.045    0.006 -0.033 -0.051
 H         -0.118 -0.125  0.037    0.627  0.625 -0.055   -0.160 -0.236 -0.004
 C          0.009 -0.017  0.027   -0.002 -0.014  0.018   -0.002 -0.004  0.011
 H         -0.025 -0.015  0.008    0.008 -0.026  0.027   -0.003 -0.014  0.012
 TransDip   0.074  0.000 -0.015   -0.042 -0.144  0.088   -0.018  0.031 -0.037

 Mode:                25                     26                     27
 Frequency:      1447.60                1559.22                1617.62
 Force Cnst:      7.7833                 6.5658                10.1799
 Red. Mass:       6.3040                 4.5837                 6.6030
 IR Active:          YES                    YES                    YES
 IR Intens:       19.333                 34.280                  1.828
 Raman Active:       YES                    YES                    YES
               X      Y      Z        X      Y      Z        X      Y      Z
 C          0.006  0.265 -0.043    0.151  0.320 -0.016   -0.014  0.087 -0.018
 C         -0.070 -0.157 -0.015   -0.201 -0.268 -0.016   -0.004 -0.026  0.014
 C         -0.012  0.047  0.032    0.011  0.049  0.007   -0.061 -0.010 -0.006
 C         -0.051  0.040 -0.137    0.005 -0.011  0.026    0.060 -0.241  0.419
 C         -0.331 -0.011 -0.139    0.180  0.034  0.048   -0.161 -0.011 -0.030
 N          0.377 -0.067  0.112   -0.188 -0.055 -0.037    0.158 -0.026  0.045
 H          0.059 -0.205  0.056    0.246 -0.626  0.146   -0.001 -0.018  0.011
 H          0.229 -0.025  0.097    0.334 -0.056  0.099   -0.007 -0.036 -0.005
 H          0.108 -0.024  0.021    0.214 -0.086  0.002    0.168 -0.104 -0.106
 H          0.060  0.269 -0.245   -0.015 -0.052  0.049    0.398 -0.171 -0.033
 H         -0.489 -0.051  0.048    0.125 -0.089 -0.007   -0.001  0.121 -0.185
 C          0.026 -0.105  0.157   -0.003  0.016 -0.027   -0.071  0.233 -0.374
 H         -0.051  0.019  0.202    0.009  0.004 -0.035    0.219  0.169 -0.360
 TransDip  -0.127 -0.032  0.052    0.154  0.107 -0.000   -0.012 -0.025 -0.033

 Mode:                28                     29                     30
 Frequency:      3133.69                3145.80                3171.53
 Force Cnst:      6.2636                 6.3492                 6.4882
 Red. Mass:       1.0826                 1.0889                 1.0948
 IR Active:          YES                    YES                    YES
 IR Intens:       12.282                  4.477                  3.198
 Raman Active:       YES                    YES                    YES
               X      Y      Z        X      Y      Z        X      Y      Z
 C         -0.000  0.001 -0.000    0.000 -0.000 -0.000    0.000  0.002 -0.000
 C         -0.000 -0.001 -0.000    0.001  0.004 -0.000   -0.001 -0.000 -0.000
 C          0.006  0.008  0.005   -0.045 -0.056 -0.046    0.001  0.001  0.001
 C         -0.062  0.024 -0.034   -0.007  0.001 -0.003    0.000  0.003 -0.004
 C          0.011 -0.011  0.005    0.005 -0.003  0.002    0.057 -0.052  0.023
 N         -0.000 -0.001  0.000    0.000  0.000  0.000   -0.003 -0.002 -0.001
 H         -0.000 -0.000  0.000   -0.003 -0.001 -0.002   -0.011 -0.002 -0.001
 H         -0.005  0.012 -0.001    0.022 -0.059  0.010   -0.002  0.004 -0.001
 H         -0.067 -0.091 -0.071    0.484  0.676  0.526   -0.013 -0.021 -0.010
 H          0.755 -0.276  0.389    0.089 -0.032  0.042   -0.022  0.010 -0.010
 H         -0.128  0.129 -0.050   -0.045  0.044 -0.017   -0.616  0.617 -0.245
 C          0.017  0.011 -0.022    0.003  0.003 -0.004   -0.019 -0.014  0.029
 H         -0.218 -0.128  0.279   -0.045 -0.026  0.057    0.242  0.136 -0.306
 TransDip  -0.088  0.062 -0.032   -0.031 -0.030 -0.052    0.008 -0.017  0.054

 Mode:                31                     32                     33
 Frequency:      3179.70                3233.99                3253.78
 Force Cnst:      6.6025                 6.7018                 6.8647
 Red. Mass:       1.1084                 1.0876                 1.1005
 IR Active:          YES                    YES                    YES
 IR Intens:       11.208                  4.944                 21.297
 Raman Active:       YES                    YES                    YES
               X      Y      Z        X      Y      Z        X      Y      Z
 C          0.000  0.001 -0.000   -0.050 -0.003 -0.008   -0.071 -0.010 -0.010
 C         -0.001 -0.001  0.000    0.028 -0.061  0.010   -0.018  0.052 -0.008
 C          0.002  0.003  0.002   -0.004 -0.003 -0.003    0.004  0.002  0.002
 C          0.034 -0.018  0.025    0.000  0.000 -0.000    0.000 -0.000 -0.000
 C          0.022 -0.022  0.009    0.001  0.001  0.000    0.002 -0.001  0.001
 N         -0.001 -0.001  0.000   -0.000 -0.000 -0.000    0.001 -0.001  0.000
 H         -0.003 -0.000  0.000    0.595  0.048  0.089    0.781  0.070  0.115
 H         -0.005  0.013 -0.003   -0.319  0.715 -0.114    0.238 -0.546  0.085
 H         -0.020 -0.031 -0.023    0.027  0.033  0.028   -0.020 -0.023 -0.018
 H         -0.358  0.132 -0.183    0.000 -0.000 -0.000   -0.001  0.001 -0.000
 H         -0.249  0.251 -0.101   -0.001  0.000 -0.000   -0.008  0.008 -0.003
 C          0.038  0.030 -0.061   -0.001 -0.000  0.001    0.001  0.000 -0.000
 H         -0.484 -0.269  0.607    0.006  0.003 -0.006   -0.003 -0.001  0.003
 TransDip   0.074  0.013 -0.076   -0.050 -0.050 -0.007   -0.144  0.034 -0.004

 STANDARD THERMODYNAMIC QUANTITIES AT   298.15 K  AND     1.00 ATM

   This Molecule has  2 Imaginary Frequencies
   Zero point vibrational energy:       60.590 kcal/mol

   Atom    1 Element C  Has Mass   12.00000
   Atom    2 Element C  Has Mass   12.00000
   Atom    3 Element C  Has Mass   12.00000
   Atom    4 Element C  Has Mass   12.00000
   Atom    5 Element C  Has Mass   12.00000
   Atom    6 Element N  Has Mass   14.00307
   Atom    7 Element H  Has Mass    1.00783
   Atom    8 Element H  Has Mass    1.00783
   Atom    9 Element H  Has Mass    1.00783
   Atom   10 Element H  Has Mass    1.00783
   Atom   11 Element H  Has Mass    1.00783
   Atom   12 Element C  Has Mass   12.00000
   Atom   13 Element H  Has Mass    1.00783
   Molecular Mass:    92.050050 amu
   Principal axes and moments of inertia in amu*Bohr^2:
                             1           2           3
    Eigenvalues --      340.34178   638.19210   781.31571
          X               0.85647    -0.44551     0.26072
          Y               0.31814     0.85333     0.41306
          Z              -0.40650    -0.27083     0.87259
   Rotational Symmetry Number is   1
   The Molecule is an Asymmetric Top
   Translational Enthalpy:        0.889 kcal/mol
   Rotational Enthalpy:           0.889 kcal/mol
   Vibrational Enthalpy:         62.354 kcal/mol
   gas constant (RT):             0.592 kcal/mol
   Translational Entropy:        39.471  cal/mol.K
   Rotational Entropy:           26.631  cal/mol.K
   Vibrational Entropy:           9.468  cal/mol.K

   Total Enthalpy:               64.724 kcal/mol
   Total Entropy:                75.570  cal/mol.K
Archival summary:
1\1\c8-89\FREQ\ProcedureUnspecified\6-31G*\166(2)\hpark21\WedMar210:14:232022WedMar210:14:232022\0\\#,FREQ,ProcedureUnspecified,6-31G*,\\0,2\N\C,1,1.29625\H,2,1.09151,1,121.116\C,1,1.35402,2,112.129,3,-179.397,0\H,4,1.08318,1,120.007,2,173.851,0\C,4,1.36969,1,113.92,2,-1.21921,0\H,6,1.08324,4,123.63,1,174.331,0\C,6,1.45326,4,111.939,1,1.83268,0\H,8,1.09161,6,119.492,4,145.124,0\C,8,1.60623,6,121.013,4,-69.272,0\H,10,1.08902,8,115.008,6,165.845,0\C,10,1.31772,8,98.8634,6,-53.4211,0\H,12,1.08936,10,134.6,8,-141.37,0\\\@

 Total job time:  302.87s(wall), 257.99s(cpu) 
 Wed Mar  2 10:14:23 2022

        *************************************************************
        *                                                           *
        *  Thank you very much for using Q-Chem.  Have a nice day.  *
        *                                                           *
        *************************************************************


