
Running Job 1 of 1 qcts1.in
qchem qcts1.in_123728.0 ./qcts1.d/ 1
/home/leeping/opt/qchem/5.0.2-openmp/exe/qcprog.exe_s qcts1.in_123728.0 ./qcts1.d/
Check license passed

                  Welcome to Q-Chem
     A Quantum Leap Into The Future Of Chemistry


 Q-Chem 5.0, Q-Chem, Inc., Pleasanton, CA (2017)

 Yihan Shao,  Zhengting Gan,  E. Epifanovsky,  A. T. B. Gilbert,  M. Wormit,  
 J. Kussmann,  A. W. Lange,  A. Behn,  Jia Deng,  Xintian Feng,  D. Ghosh,  
 M. Goldey,  P. R. Horn,  L. D. Jacobson,  I. Kaliman,  T. Kus,  A. Landau,  
 Jie Liu,  E. I. Proynov,  R. M. Richard,  R. P. Steele,  E. J. Sundstrom,  
 H. L. Woodcock III,  P. M. Zimmerman,  D. Zuev,  B. Albrecht,  E. Alguire,  
 S. A. Baeppler,  D. Barton,  Z. Benda,  Y. A. Bernard,  E. J. Berquist,  
 K. B. Bravaya,  H. Burton,  D. Casanova,  Chun-Min Chang,  Yunqing Chen,  
 A. Chien,  K. D. Closser,  M. P. Coons,  S. Dasgupta,  A. L. Dempwolff,  
 M. Diedenhofen,  Hainam Do,  R. G. Edgar,  Po-Tung Fang,  S. Fatehi,  
 Qingguo Feng,  J. Fosso-Tande,  Qinghui Ge,  A. Ghysels,  G. Gidofalvi,  
 J. Gomes,  J. Gonthier,  A. Gunina,  M. W. D. Hanson-Heine,  
 P. H. P. Harbach,  A. W. Hauser,  J. E. Herr,  E. G. Hohenstein,  
 Z. C. Holden,  Kerwin Hui,  T.-C. Jagau,  Hyunjun Ji,  B. Kaduk,  
 K. Khistyaev,  Jaehoon Kim,  P. Klunzinger,  K. Koh,  D. Kosenkov,  
 L. Koulias,  T. Kowalczyk,  C. M. Krauter,  A. Kunitsa,  Ka Un Lao,  
 A. Laurent,  K. V. Lawler,  Joonho Lee,  D. Lefrancois,  S. Lehtola,  
 D. S. Levine,  Yi-Pei Li,  You-Sheng Lin,  Fenglai Liu,  E. Livshits,  
 A. Luenser,  P. Manohar,  E. Mansoor,  S. F. Manzer,  Shan-Ping Mao,  
 Yuezhi Mao,  N. Mardirossian,  A. V. Marenich,  T. Markovich,  
 L. A. Martinez-Martinez,  S. A. Maurer,  N. J. Mayhall,  S. C. McKenzie,  
 J.-M. Mewes,  A. F. Morrison,  J. W. Mullinax,  K. Nanda,  
 T. S. Nguyen-Beck,  R. Olivares-Amaya,  J. A. Parkhill,  T. M. Perrine,  
 F. Plasser,  S. Prager,  A. Prociuk,  E. Ramos,  D. R. Rehn,  F. Rob,  
 M. Schneider,  N. Sergueev,  S. M. Sharada,  S. Sharma,  D. W. Small,  
 T. Stauch,  T. Stein,  Yu-Chuan Su,  A. J. W. Thom,  A. Tkatchenko,  
 T. Tsuchimochi,  L. Vogt,  O. Vydrov,  M. A. Watson,  J. Wenzel,  
 M. de Wergifosse,  T. A. Wesolowski,  A. White,  J. Witte,  A. Yamada,  
 Jun Yang,  K. Yao,  S. Yeganeh,  S. R. Yost,  Zhi-Qiang You,  A. Zech,  
 Igor Ying Zhang,  Xing Zhang,  Yan Zhao,  Ying Zhu,  B. R. Brooks,  
 G. K. L. Chan,  C. J. Cramer,  M. S. Gordon,  W. J. Hehre,  A. Klamt,  
 M. W. Schmidt,  C. D. Sherrill,  D. G. Truhlar,  A. Aspuru-Guzik,  R. Baer,  
 A. T. Bell,  N. A. Besley,  Jeng-Da Chai,  R. A. DiStasio Jr.,  A. Dreuw,  
 B. D. Dunietz,  T. R. Furlani,  Chao-Ping Hsu,  Yousung Jung,  Jing Kong,  
 D. S. Lambrecht,  WanZhen Liang,  C. Ochsenfeld,  V. A. Rassolov,  
 L. V. Slipchenko,  J. E. Subotnik,  T. Van Voorhis,  J. M. Herbert,  
 A. I. Krylov,  P. M. W. Gill,  M. Head-Gordon

 Contributors to earlier versions of Q-Chem not listed above: 
 R. D. Adamson,  B. Austin,  J. Baker,  G. J. O. Beran,  K. Brandhorst,  
 S. T. Brown,  E. F. C. Byrd,  A. K. Chakraborty,  C.-L. Cheng,  
 Siu Hung Chien,  D. M. Chipman,  D. L. Crittenden,  H. Dachsel,  
 R. J. Doerksen,  A. D. Dutoi,  L. Fusti-Molnar,  W. A. Goddard III,  
 A. Golubeva-Zadorozhnaya,  S. R. Gwaltney,  G. Hawkins,  A. Heyden,  
 S. Hirata,  G. Kedziora,  F. J. Keil,  C. Kelley,  Jihan Kim,  R. A. King,  
 R. Z. Khaliullin,  P. P. Korambath,  W. Kurlancheek,  A. M. Lee,  M. S. Lee,  
 S. V. Levchenko,  Ching Yeh Lin,  D. Liotard,  R. C. Lochan,  I. Lotan,  
 P. E. Maslen,  N. Nair,  D. P. O'Neill,  D. Neuhauser,  E. Neuscamman,  
 C. M. Oana,  R. Olson,  B. Peters,  R. Peverati,  P. A. Pieniazek,  
 Y. M. Rhee,  J. Ritchie,  M. A. Rohrdanz,  E. Rosta,  N. J. Russ,  
 H. F. Schaefer III,  N. E. Schultz,  N. Shenvi,  A. C. Simmonett,  A. Sodt,  
 D. Stuck,  K. S. Thanthiriwatte,  V. Vanovschi,  Tao Wang,  A. Warshel,  
 C. F. Williams,  Q. Wu,  X. Xu,  W. Zhang

 Please cite Q-Chem as follows:
 Y. Shao et al., Mol. Phys. 113, 184-215 (2015)
 DOI: 10.1080/00268976.2014.952696

 Q-Chem 5.0.2 for Intel X86 EM64T Linux

 Parts of Q-Chem use Armadillo 5.200.1 (Boston Tea Smuggler).
 http://arma.sourceforge.net/

 Q-Chem begins on Wed Mar  2 10:15:41 2022  

Host: 
0

     Scratch files written to ./qcts1.d//
 Dec517 15110_ 26548  26544 5633   
Processing $rem in /home/leeping/opt/qchem/5.0.2-openmp/config/preferences.
 MEM_STATIC 2000
 MEM_TOTAL  8000
 SYMMETRY   OFF
 SYM_IGNORE TRUE 

Checking the input file for inconsistencies... 	...done.

--------------------------------------------------------------
User input:
--------------------------------------------------------------
$molecule
0 2
C        1.8262650451    0.3384259514   -0.1457453157
C        1.1048074807   -0.8258550581   -0.1442208373
C       -0.2762613671   -0.6093365677   -0.5413637350
C       -1.2947684358    0.1909641266    0.4084480984
C       -0.1325381601    1.1392240757   -0.7438618855
N        1.1005749149    1.4335507050   -0.4735534406
H        2.8953175254    0.4227638847    0.0068801724
H        1.5447020241   -1.8040152671    0.0077866732
H       -0.7952653199   -1.3753189366   -1.1206114733
H       -2.2198576205    0.5071003025   -0.0713820899
H       -0.8459094146    1.9120036941   -1.0359233193
C       -1.1325319656   -0.5072937044    1.5141132177
H       -1.7973099176   -0.8534152571    2.3046663701
$end

$rem
method                b3lyp
basis                 6-31g(d)
unrestricted          true
symmetry              off
sym_ignore            true
incdft                false
incfock               0
scf_convergence       8
thresh                14
jobtype               ts
scf_guess             read
scf_algorithm         diis
max_scf_cycles        100
geom_opt_max_cycles   500
geom_opt_dmax         100
geom_opt_tol_gradient 10
geom_opt_hessian      read
$end

--------------------------------------------------------------
 ----------------------------------------------------------------
             Standard Nuclear Orientation (Angstroms)
    I     Atom           X                Y                Z
 ----------------------------------------------------------------
    1      C       1.8262650451     0.3384259514    -0.1457453157
    2      C       1.1048074807    -0.8258550581    -0.1442208373
    3      C      -0.2762613671    -0.6093365677    -0.5413637350
    4      C      -1.2947684358     0.1909641266     0.4084480984
    5      C      -0.1325381601     1.1392240757    -0.7438618855
    6      N       1.1005749149     1.4335507050    -0.4735534406
    7      H       2.8953175254     0.4227638847     0.0068801724
    8      H       1.5447020241    -1.8040152671     0.0077866732
    9      H      -0.7952653199    -1.3753189366    -1.1206114733
   10      H      -2.2198576205     0.5071003025    -0.0713820899
   11      H      -0.8459094146     1.9120036941    -1.0359233193
   12      C      -1.1325319656    -0.5072937044     1.5141132177
   13      H      -1.7973099176    -0.8534152571     2.3046663701
 ----------------------------------------------------------------
 Nuclear Repulsion Energy =   265.7866643077 hartrees
 There are       25 alpha and       24 beta electrons
 Requested basis set is 6-31G(d)
 There are 40 shells and 117 basis functions

 Total QAlloc Memory Limit   8000 MB
 Mega-Array Size      1956 MB
 MEM_STATIC part      2000 MB
 A cutoff of  1.0D-14 yielded    804 shell pairs
 There are      7076 function pairs
 
 -------------------------------------------------------
 OpenMP Integral Computing Module                       
 Release: version 1.0, May 2013, Q-Chem Inc. Pittsburgh 
 -------------------------------------------------------
 Integral Job Info:
 Integral job number is                      11
 Integral operator is                         1
 short-range coefficients                     0
 long-range coefficients              100000000
 Omega coefficients                           0
 if combine SR and LR in K                    0
 Integral screening is                        0
 Integral computing path is                   2
 max size of driver memory is            800000
 size of driver memory is                593474
 size of scratch memory is              2361544
 max col of scratch BK array               1296
 max len of scratch array in speh3          155
 max len of scratch index in speh4           18
 max int batch size is                      520
 min int batch size is                       52
 fixed nKL is                                52
 max L of basis functions is                  2
 order of int derivative is                   0
 number of shells is                         40
 number of basis is                         117
 number of cartesian basis is               117
 number of contracted shell pairs           804
 number of primitive shell pairs           3463
 maxK2 (contraction) of shell pair           36
 max number of K2 of shell pair               1
 max number of CS2 of shell pair             87
 max number of PS2 of shell pair            414
 mem total for path MDJ                  534060
 -------------------------------------------------------
 Smallest overlap matrix eigenvalue = 1.78E-03

 Scale SEOQF with 1.000000e-01/1.000000e-01/1.000000e-01

 Standard Electronic Orientation quadrupole field applied
 Nucleus-field energy     =     0.0000000024 hartrees
 Guess MOs from SCF MO coefficient file
 Reading MOs from coefficient file
 Reading MOs from coefficient file
 An unrestricted hybrid HF-DFT SCF calculation will be
 performed using Pulay DIIS extrapolation
 Exchange:     0.2000 Hartree-Fock + 0.0800 Slater + 0.7200 B88
 Correlation:  0.1900 VWN1RPA + 0.8100 LYP
 Using SG-1 standard quadrature grid
 SCF converges when DIIS error is below 1.0E-08
Using Q-Chem read-in guess as SCF_GUESS READ specified.

 using 4 threads for integral computing
 -------------------------------------------------------
 OpenMP Integral computing Module                
 Release: version 1.0, May 2013, Q-Chem Inc. Pittsburgh 
 -------------------------------------------------------
 -------------------------------------------------------
 OpenMP BLAS3 based DFT computing Module                
 Release: version 1.0, May 2013, Q-Chem Inc. Pittsburgh 
 -------------------------------------------------------
 ---------------------------------------
  Cycle       Energy         DIIS Error
 ---------------------------------------
    1    -286.7459350839      4.27E-10
    2    -286.7459350839      7.08E-10 Convergence criterion met
 ---------------------------------------
 <S^2> = 0.7596
 SCF time:  CPU 5.78 s  wall 5.82 s
 SCF   energy in the final basis set = -286.74593508
 Total energy in the final basis set = -286.74593508
 
 --------------------------------------------------------------
 
                    Orbital Energies (a.u.)
 --------------------------------------------------------------
 
 Alpha MOs
 -- Occupied --
-14.316 -10.246 -10.231 -10.225 -10.222 -10.201 -10.186  -0.945
 -0.825  -0.747  -0.695  -0.598  -0.587  -0.519  -0.505  -0.486
 -0.435  -0.417  -0.383  -0.374  -0.343  -0.274  -0.259  -0.228
 -0.199
 -- Virtual --
 -0.057   0.026   0.065   0.089   0.115   0.133   0.137   0.167
  0.171   0.201   0.214   0.262   0.292   0.361   0.378   0.434
  0.495   0.501   0.508   0.536   0.557   0.572   0.595   0.618
  0.629   0.636   0.665   0.673   0.676   0.707   0.779   0.807
  0.834   0.843   0.849   0.860   0.877   0.894   0.913   0.945
  0.957   0.979   1.028   1.062   1.130   1.173   1.240   1.325
  1.373   1.406   1.434   1.492   1.527   1.547   1.592   1.625
  1.672   1.737   1.797   1.821   1.903   1.923   1.970   2.001
  2.027   2.098   2.116   2.170   2.190   2.260   2.281   2.368
  2.372   2.409   2.467   2.537   2.560   2.598   2.638   2.686
  2.718   2.741   2.835   2.994   3.062   3.978   4.086   4.163
  4.209   4.356   4.384   4.499
 
 Beta MOs
 -- Occupied --
-14.315 -10.246 -10.229 -10.226 -10.207 -10.202 -10.185  -0.944
 -0.817  -0.745  -0.684  -0.588  -0.585  -0.515  -0.498  -0.477
 -0.434  -0.413  -0.381  -0.371  -0.335  -0.270  -0.229  -0.222
 -- Virtual --
 -0.079  -0.037   0.028   0.069   0.093   0.117   0.138   0.141
  0.170   0.172   0.204   0.218   0.264   0.295   0.367   0.391
  0.435   0.500   0.512   0.517   0.541   0.566   0.579   0.597
  0.622   0.634   0.644   0.668   0.676   0.679   0.713   0.785
  0.810   0.837   0.844   0.850   0.865   0.880   0.905   0.918
  0.950   0.961   0.986   1.036   1.066   1.134   1.175   1.248
  1.329   1.374   1.413   1.438   1.498   1.534   1.549   1.598
  1.632   1.683   1.758   1.824   1.844   1.919   1.931   1.979
  2.008   2.034   2.103   2.121   2.177   2.196   2.263   2.287
  2.371   2.377   2.416   2.472   2.539   2.564   2.603   2.640
  2.690   2.720   2.757   2.843   2.995   3.063   3.979   4.111
  4.164   4.217   4.358   4.383   4.502
 --------------------------------------------------------------
 
          Ground-State Mulliken Net Atomic Charges

     Atom                 Charge (a.u.)    Spin (a.u.)
  --------------------------------------------------------
      1 C                     0.027765      -0.019577
      2 C                    -0.106176       0.038513
      3 C                    -0.254641       0.092333
      4 C                    -0.172629      -0.121882
      5 C                     0.039549       0.007314
      6 N                    -0.354656       0.036768
      7 H                     0.136994       0.000631
      8 H                     0.138814      -0.002001
      9 H                     0.173575      -0.008877
     10 H                     0.173859       0.054045
     11 H                     0.170444      -0.002759
     12 C                    -0.135047       0.892038
     13 H                     0.162149       0.033452
  --------------------------------------------------------
  Sum of atomic charges =    -0.000000
  Sum of spin   charges =     1.000000

 -----------------------------------------------------------------
                    Cartesian Multipole Moments
 -----------------------------------------------------------------
    Charge (ESU x 10^10)
                -0.0000
    Dipole Moment (Debye)
         X      -2.3217      Y      -1.8131      Z       0.0473
       Tot       2.9462
    Quadrupole Moments (Debye-Ang)
        XX     -36.1440     XY      -3.2218     YY     -42.0851
        XZ       0.4706     YZ      -0.3254     ZZ     -41.7023
    Octopole Moments (Debye-Ang^2)
       XXX     -14.4244    XXY      -8.0331    XYY     -12.9894
       YYY     -25.3732    XXZ       3.9271    XYZ       3.7620
       YYZ      -1.1012    XZZ     -12.7950    YZZ      -7.6529
       ZZZ       6.4369
    Hexadecapole Moments (Debye-Ang^3)
      XXXX    -360.3648   XXXY     -25.3085   XXYY    -107.7529
      XYYY     -43.0344   YYYY    -243.2102   XXXZ      50.2050
      XXYZ       8.0500   XYYZ      22.6935   YYYZ      34.5396
      XXZZ     -92.4555   XYZZ      -3.0130   YYZZ     -68.7772
      XZZZ      40.6340   YZZZ      30.5138   ZZZZ    -183.2057
 -----------------------------------------------------------------
 Calculating analytic gradient of the SCF energy
 Gradient of SCF Energy
            1           2           3           4           5           6
    1  -0.0007175   0.0064992  -0.0139823   0.0009825  -0.0086201  -0.0053721
    2   0.0032416   0.0039703  -0.0589833   0.0381264   0.0431469  -0.0161183
    3   0.0053114   0.0002234   0.0306850  -0.0157577   0.0210396  -0.0115726
            7           8           9          10          11          12
    1  -0.0004038   0.0025333   0.0015934   0.0019858   0.0017673   0.0158976
    2  -0.0013101   0.0015684  -0.0073581  -0.0057736   0.0120822  -0.0100933
    3  -0.0039978  -0.0014260   0.0025221  -0.0069072   0.0019816  -0.0187543
           13
    1  -0.0021635
    2  -0.0024992
    3  -0.0033474
 Max gradient component =       5.898E-02
 RMS gradient           =       1.623E-02
 Gradient time:  CPU 7.51 s  wall 3.95 s
 Geometry Optimization Parameters
   NAtoms,    NIC,     NZ,  NCons,   NDum,   NFix, NCnnct, MaxDiis
       13     108       0       0       0       0       0       0

 Cartesian Hessian read from HESS file


** GEOMETRY OPTIMIZATION IN DELOCALIZED INTERNAL COORDINATES **
   Searching for a Transition State

   Optimization Cycle:   1

                       Coordinates (Angstroms)
     ATOM                X               Y               Z
      1  C         1.8262650451    0.3384259514   -0.1457453157
      2  C         1.1048074807   -0.8258550581   -0.1442208373
      3  C        -0.2762613671   -0.6093365677   -0.5413637350
      4  C        -1.2947684358    0.1909641266    0.4084480984
      5  C        -0.1325381601    1.1392240757   -0.7438618855
      6  N         1.1005749149    1.4335507050   -0.4735534406
      7  H         2.8953175254    0.4227638847    0.0068801724
      8  H         1.5447020241   -1.8040152671    0.0077866732
      9  H        -0.7952653199   -1.3753189366   -1.1206114733
     10  H        -2.2198576205    0.5071003025   -0.0713820899
     11  H        -0.8459094146    1.9120036941   -1.0359233193
     12  C        -1.1325319656   -0.5072937044    1.5141132177
     13  H        -1.7973099176   -0.8534152571    2.3046663701
   Point Group: c1    Number of degrees of freedom:    33


   Energy is   -286.745935084


 Attempting to Generate Delocalized Internal Coordinates

 Transforming Cartesian Hessian to Internal Coordinates
 Hessian Transformation does not Include Derivative of B-matrix

 33 Hessian modes will be used to form the next step
  Hessian Eigenvalues:
    -0.041377   -0.003771    0.004356    0.008936    0.010769    0.011976
     0.014663    0.019369    0.023871    0.026807    0.033825    0.035464
     0.039974    0.041953    0.057405    0.073830    0.089340    0.102895
     0.117088    0.120762    0.163104    0.228250    0.323474    0.347130
     0.349640    0.353572    0.354006    0.367945    0.370855    0.404655
     0.439921    0.571760    0.631784
**WARNING** Hessian does not have the Desired Local Structure

 Transition State Search - Taking P-RFO Step
 Searching for Lamda that Maximizes Along the Lowest mode
 Value Taken    Lamda =   0.02731366
 Searching for Lamda that Minimizes Along All other modes
 Value Taken    Lamda =  -0.04273042
 Calculated Step too Large.  Step scaled by  0.089162
 Step Taken.  Stepsize is  0.100000

                             Maximum     Tolerance    Cnvgd?
         Gradient           0.031886      0.000010      NO
         Displacement       0.058926      0.001200      NO
         Energy change     *********      0.000001      NO


 New Cartesian Coordinates Obtained by Inverse Iteration

 Displacement from previous Coordinates is:  0.081058
 ----------------------------------------------------------------
             Standard Nuclear Orientation (Angstroms)
    I     Atom           X                Y                Z
 ----------------------------------------------------------------
    1      C       1.8236540013     0.3391447721    -0.1402517165
    2      C       1.1048418663    -0.8286454388    -0.1507283929
    3      C      -0.2722837969    -0.6087607372    -0.5502815889
    4      C      -1.2894892140     0.2019827408     0.4081632264
    5      C      -0.1390994696     1.1254682731    -0.7376990201
    6      N       1.0966355627     1.4302567050    -0.4667423548
    7      H       2.8912965559     0.4264517469     0.0215624556
    8      H       1.5426111932    -1.8081956226    -0.0014742397
    9      H      -0.7957686660    -1.3714812809    -1.1282647760
   10      H      -2.2195304638     0.5109014128    -0.0672878808
   11      H      -0.8521548414     1.8938683560    -1.0378944258
   12      C      -1.1233454941    -0.4953084597     1.5149153586
   13      H      -1.7901424446    -0.8468845185     2.3012157901
 ----------------------------------------------------------------
 Nuclear Repulsion Energy =   266.1978633517 hartrees
 There are       25 alpha and       24 beta electrons
 Applying Cartesian multipole field
    Component          Value
    ---------          -----
     (2,0,0)        1.00000E-11
     (0,2,0)        2.00000E-11
     (0,0,2)       -3.00000E-11
 Nucleus-field energy     =     0.0000000024 hartrees
 Requested basis set is 6-31G(d)
 There are 40 shells and 117 basis functions
 A cutoff of  1.0D-14 yielded    804 shell pairs
 There are      7076 function pairs
 Smallest overlap matrix eigenvalue = 1.76E-03
 Guess MOs from SCF MO coefficient file
 Reading MOs from coefficient file
 Reading MOs from coefficient file
 An unrestricted hybrid HF-DFT SCF calculation will be
 performed using Pulay DIIS extrapolation
 Exchange:     0.2000 Hartree-Fock + 0.0800 Slater + 0.7200 B88
 Correlation:  0.1900 VWN1RPA + 0.8100 LYP
 Using SG-1 standard quadrature grid
 SCF converges when DIIS error is below 1.0E-08
 Geometry optimization detected.  Setting ReadMinima to 0
 Setting SaveMinima to 0
Using Q-Chem read-in guess as SCF_GUESS READ specified.

 using 4 threads for integral computing
 -------------------------------------------------------
 OpenMP Integral computing Module                
 Release: version 1.0, May 2013, Q-Chem Inc. Pittsburgh 
 -------------------------------------------------------
 -------------------------------------------------------
 OpenMP BLAS3 based DFT computing Module                
 Release: version 1.0, May 2013, Q-Chem Inc. Pittsburgh 
 -------------------------------------------------------
 ---------------------------------------
  Cycle       Energy         DIIS Error
 ---------------------------------------
    1    -286.7488778452      7.53E-04
    2    -286.7472824839      1.76E-04
    3    -286.7471635312      3.28E-04
    4    -286.7473459281      4.57E-05
    5    -286.7473495941      1.58E-05
    6    -286.7473502231      8.42E-06
    7    -286.7473504721      4.79E-06
    8    -286.7473505709      1.25E-06
    9    -286.7473506010      5.58E-07
   10    -286.7473506221      2.51E-07
   11    -286.7473506298      1.59E-07
   12    -286.7473506340      9.35E-08
   13    -286.7473506365      5.75E-08
   14    -286.7473506381      5.01E-08
   15    -286.7473506388      1.51E-08
   16    -286.7473506388      2.88E-09 Convergence criterion met
 ---------------------------------------
 <S^2> = 0.7593
 SCF time:  CPU 41.82 s  wall 38.75 s
 SCF   energy in the final basis set = -286.74735064
 Total energy in the final basis set = -286.74735064
 
 --------------------------------------------------------------
 
                    Orbital Energies (a.u.)
 --------------------------------------------------------------
 
 Alpha MOs
 -- Occupied --
-14.314 -10.246 -10.232 -10.227 -10.223 -10.201 -10.185  -0.945
 -0.826  -0.747  -0.697  -0.598  -0.587  -0.520  -0.506  -0.486
 -0.434  -0.418  -0.383  -0.374  -0.344  -0.274  -0.259  -0.228
 -0.200
 -- Virtual --
 -0.057   0.027   0.068   0.089   0.115   0.133   0.138   0.168
  0.172   0.202   0.212   0.264   0.290   0.361   0.378   0.435
  0.495   0.499   0.507   0.536   0.556   0.572   0.596   0.618
  0.628   0.636   0.665   0.673   0.676   0.706   0.781   0.807
  0.834   0.842   0.849   0.859   0.877   0.894   0.914   0.946
  0.959   0.978   1.028   1.065   1.131   1.175   1.238   1.328
  1.373   1.408   1.434   1.492   1.526   1.546   1.598   1.628
  1.674   1.739   1.797   1.819   1.900   1.926   1.970   1.998
  2.023   2.095   2.118   2.177   2.198   2.258   2.279   2.369
  2.372   2.410   2.463   2.542   2.561   2.597   2.638   2.687
  2.717   2.747   2.835   2.995   3.060   3.979   4.086   4.165
  4.208   4.359   4.390   4.499
 
 Beta MOs
 -- Occupied --
-14.314 -10.246 -10.230 -10.228 -10.209 -10.201 -10.185  -0.944
 -0.817  -0.744  -0.686  -0.589  -0.585  -0.516  -0.499  -0.477
 -0.433  -0.414  -0.381  -0.371  -0.335  -0.269  -0.230  -0.220
 -- Virtual --
 -0.081  -0.037   0.029   0.072   0.093   0.118   0.139   0.141
  0.171   0.173   0.205   0.216   0.265   0.293   0.367   0.391
  0.436   0.500   0.511   0.516   0.541   0.566   0.578   0.597
  0.621   0.634   0.644   0.668   0.676   0.679   0.713   0.787
  0.809   0.836   0.844   0.850   0.864   0.880   0.905   0.918
  0.951   0.962   0.986   1.036   1.069   1.135   1.177   1.246
  1.332   1.375   1.415   1.438   1.498   1.533   1.547   1.604
  1.636   1.683   1.758   1.822   1.845   1.918   1.933   1.979
  2.006   2.029   2.100   2.123   2.182   2.203   2.261   2.285
  2.372   2.377   2.417   2.468   2.544   2.566   2.603   2.641
  2.690   2.720   2.762   2.843   2.996   3.061   3.980   4.111
  4.165   4.216   4.361   4.389   4.502
 --------------------------------------------------------------
 
          Ground-State Mulliken Net Atomic Charges

     Atom                 Charge (a.u.)    Spin (a.u.)
  --------------------------------------------------------
      1 C                     0.029008      -0.021451
      2 C                    -0.107527       0.043417
      3 C                    -0.254738       0.093025
      4 C                    -0.173508      -0.118529
      5 C                     0.041387       0.003303
      6 N                    -0.357904       0.040058
      7 H                     0.136601       0.000719
      8 H                     0.138005      -0.002205
      9 H                     0.174244      -0.008692
     10 H                     0.174316       0.054132
     11 H                     0.169834      -0.002823
     12 C                    -0.132994       0.886849
     13 H                     0.163276       0.032196
  --------------------------------------------------------
  Sum of atomic charges =    -0.000000
  Sum of spin   charges =     1.000000

 -----------------------------------------------------------------
                    Cartesian Multipole Moments
 -----------------------------------------------------------------
    Charge (ESU x 10^10)
                -0.0000
    Dipole Moment (Debye)
         X      -2.3767      Y      -1.8618      Z       0.0660
       Tot       3.0198
    Quadrupole Moments (Debye-Ang)
        XX     -36.1146     XY      -3.2122     YY     -42.1998
        XZ       0.4612     YZ      -0.2952     ZZ     -41.6532
    Octopole Moments (Debye-Ang^2)
       XXX     -14.6516    XXY      -8.0397    XYY     -13.0568
       YYY     -25.7019    XXZ       4.0318    XYZ       3.7680
       YYZ      -1.0523    XZZ     -12.8973    YZZ      -7.7356
       ZZZ       6.3921
    Hexadecapole Moments (Debye-Ang^3)
      XXXX    -358.5712   XXXY     -24.4065   XXYY    -107.1793
      XYYY     -42.0939   YYYY    -242.1076   XXXZ      49.7129
      XXYZ       7.7505   XYYZ      22.4118   YYYZ      33.5911
      XXZZ     -92.0497   XYZZ      -2.6936   YYZZ     -68.5077
      XZZZ      39.9274   YZZZ      29.3947   ZZZZ    -182.9167
 -----------------------------------------------------------------
 Calculating analytic gradient of the SCF energy
 Gradient of SCF Energy
            1           2           3           4           5           6
    1  -0.0005780   0.0059993  -0.0140148   0.0006591  -0.0077823  -0.0047550
    2   0.0031265   0.0049109  -0.0577114   0.0353728   0.0435003  -0.0164454
    3   0.0054446  -0.0001920   0.0305408  -0.0154170   0.0184134  -0.0113690
            7           8           9          10          11          12
    1  -0.0003421   0.0024330   0.0022161   0.0020963   0.0014318   0.0146922
    2  -0.0012194   0.0014811  -0.0070745  -0.0052932   0.0115116  -0.0099654
    3  -0.0038849  -0.0014827   0.0020372  -0.0068112   0.0033257  -0.0176045
           13
    1  -0.0020556
    2  -0.0021939
    3  -0.0030004
 Max gradient component =       5.771E-02
 RMS gradient           =       1.578E-02
 Gradient time:  CPU 7.94 s  wall 6.04 s
 Geometry Optimization Parameters
   NAtoms,    NIC,     NZ,  NCons,   NDum,   NFix, NCnnct, MaxDiis
       13     108       0       0       0       0       0       0

 Cartesian Hessian Update
 Hessian Updated using Powell/Murtagh-Sargent Update
  Mixing factors:     0.999990 Powell
                      0.000010 Murtagh-Sargent


** GEOMETRY OPTIMIZATION IN DELOCALIZED INTERNAL COORDINATES **
   Searching for a Transition State

   Optimization Cycle:   2

                       Coordinates (Angstroms)
     ATOM                X               Y               Z
      1  C         1.8236540013    0.3391447721   -0.1402517165
      2  C         1.1048418663   -0.8286454388   -0.1507283929
      3  C        -0.2722837969   -0.6087607372   -0.5502815889
      4  C        -1.2894892140    0.2019827408    0.4081632264
      5  C        -0.1390994696    1.1254682731   -0.7376990201
      6  N         1.0966355627    1.4302567050   -0.4667423548
      7  H         2.8912965559    0.4264517469    0.0215624556
      8  H         1.5426111932   -1.8081956226   -0.0014742397
      9  H        -0.7957686660   -1.3714812809   -1.1282647760
     10  H        -2.2195304638    0.5109014128   -0.0672878808
     11  H        -0.8521548414    1.8938683560   -1.0378944258
     12  C        -1.1233454941   -0.4953084597    1.5149153586
     13  H        -1.7901424446   -0.8468845185    2.3012157901
   Point Group: c1    Number of degrees of freedom:    33


   Energy is   -286.747350639

 Hessian Updated using Powell/Murtagh-Sargent Update
  Mixing factors:     0.999474 Powell
                      0.000526 Murtagh-Sargent

 33 Hessian modes will be used to form the next step
  Hessian Eigenvalues:
    -0.039539   -0.004038    0.003517    0.008993    0.010902    0.011917
     0.014584    0.019377    0.023871    0.026904    0.033923    0.035526
     0.039976    0.041719    0.057541    0.073641    0.089339    0.102880
     0.117153    0.120822    0.162497    0.228282    0.323472    0.347131
     0.349645    0.353595    0.354007    0.367940    0.370858    0.404670
     0.439905    0.571724    0.631792
**WARNING** Hessian does not have the Desired Local Structure

 Transition State Search - Taking P-RFO Step
 Searching for Lamda that Maximizes Along the Lowest mode
 Value Taken    Lamda =   0.02650530
 Searching for Lamda that Minimizes Along All other modes
 Value Taken    Lamda =  -0.04233895
 Calculated Step too Large.  Step scaled by  0.087562
 Step Taken.  Stepsize is  0.100000

                             Maximum     Tolerance    Cnvgd?
         Gradient           0.030052      0.000010      NO
         Displacement       0.056951      0.001200      NO
         Energy change     -0.001416      0.000001      NO


 New Cartesian Coordinates Obtained by Inverse Iteration

 Displacement from previous Coordinates is:  0.083376
 ----------------------------------------------------------------
             Standard Nuclear Orientation (Angstroms)
    I     Atom           X                Y                Z
 ----------------------------------------------------------------
    1      C       1.8204182848     0.3396983438    -0.1342527723
    2      C       1.1046532491    -0.8318500610    -0.1577630942
    3      C      -0.2682304535    -0.6087109905    -0.5603875442
    4      C      -1.2831147500     0.2122971311     0.4072942813
    5      C      -0.1462676015     1.1128115848    -0.7313423476
    6      N       1.0921407477     1.4269735408    -0.4585686701
    7      H       2.8865817028     0.4298913347     0.0369273686
    8      H       1.5403338633    -1.8127208259    -0.0108860538
    9      H      -0.7959314478    -1.3687645340    -1.1367069342
   10      H      -2.2185267380     0.5141618959    -0.0627506274
   11      H      -0.8589405137     1.8767229928    -1.0403223794
   12      C      -1.1135476862    -0.4831784191     1.5156879657
   13      H      -1.7823438681    -0.8385340443     2.2983032429
 ----------------------------------------------------------------
 Nuclear Repulsion Energy =   266.6148812090 hartrees
 There are       25 alpha and       24 beta electrons
 Applying Cartesian multipole field
    Component          Value
    ---------          -----
     (2,0,0)        1.00000E-11
     (0,2,0)        2.00000E-11
     (0,0,2)       -3.00000E-11
 Nucleus-field energy     =     0.0000000024 hartrees
 Requested basis set is 6-31G(d)
 There are 40 shells and 117 basis functions
 A cutoff of  1.0D-14 yielded    804 shell pairs
 There are      7076 function pairs
 Smallest overlap matrix eigenvalue = 1.75E-03
 Guess MOs from SCF MO coefficient file
 Reading MOs from coefficient file
 Reading MOs from coefficient file
 An unrestricted hybrid HF-DFT SCF calculation will be
 performed using Pulay DIIS extrapolation
 Exchange:     0.2000 Hartree-Fock + 0.0800 Slater + 0.7200 B88
 Correlation:  0.1900 VWN1RPA + 0.8100 LYP
 Using SG-1 standard quadrature grid
 SCF converges when DIIS error is below 1.0E-08
 Geometry optimization detected.  Setting ReadMinima to 0
 Setting SaveMinima to 0
Using Q-Chem read-in guess as SCF_GUESS READ specified.

 using 4 threads for integral computing
 -------------------------------------------------------
 OpenMP Integral computing Module                
 Release: version 1.0, May 2013, Q-Chem Inc. Pittsburgh 
 -------------------------------------------------------
 -------------------------------------------------------
 OpenMP BLAS3 based DFT computing Module                
 Release: version 1.0, May 2013, Q-Chem Inc. Pittsburgh 
 -------------------------------------------------------
 ---------------------------------------
  Cycle       Energy         DIIS Error
 ---------------------------------------
    1    -286.7505582159      7.68E-04
    2    -286.7487173574      1.70E-04
    3    -286.7486027205      3.21E-04
    4    -286.7487776425      4.34E-05
    5    -286.7487809081      1.62E-05
    6    -286.7487815380      8.66E-06
    7    -286.7487817749      4.61E-06
    8    -286.7487818554      1.15E-06
    9    -286.7487818777      5.29E-07
   10    -286.7487818925      2.41E-07
   11    -286.7487818982      1.54E-07
   12    -286.7487819016      8.67E-08
   13    -286.7487819035      5.48E-08
   14    -286.7487819046      4.81E-08
   15    -286.7487819053      1.51E-08
   16    -286.7487819053      3.81E-09 Convergence criterion met
 ---------------------------------------
 <S^2> = 0.7591
 SCF time:  CPU 41.77 s  wall 37.27 s
 SCF   energy in the final basis set = -286.74878191
 Total energy in the final basis set = -286.74878191
 
 --------------------------------------------------------------
 
                    Orbital Energies (a.u.)
 --------------------------------------------------------------
 
 Alpha MOs
 -- Occupied --
-14.313 -10.246 -10.233 -10.229 -10.224 -10.201 -10.185  -0.945
 -0.826  -0.746  -0.698  -0.599  -0.587  -0.521  -0.507  -0.486
 -0.434  -0.418  -0.382  -0.374  -0.344  -0.274  -0.259  -0.229
 -0.200
 -- Virtual --
 -0.058   0.029   0.071   0.088   0.116   0.132   0.139   0.169
  0.172   0.203   0.210   0.265   0.289   0.360   0.378   0.436
  0.495   0.498   0.506   0.535   0.556   0.571   0.596   0.618
  0.627   0.637   0.665   0.673   0.677   0.706   0.782   0.806
  0.833   0.842   0.848   0.859   0.876   0.894   0.915   0.947
  0.961   0.978   1.028   1.069   1.133   1.176   1.235   1.331
  1.374   1.409   1.435   1.492   1.524   1.546   1.604   1.632
  1.676   1.740   1.797   1.818   1.898   1.930   1.970   1.995
  2.020   2.092   2.119   2.183   2.207   2.255   2.278   2.369
  2.373   2.410   2.460   2.547   2.563   2.596   2.639   2.688
  2.717   2.752   2.837   2.996   3.058   3.979   4.086   4.166
  4.206   4.360   4.399   4.500
 
 Beta MOs
 -- Occupied --
-14.312 -10.246 -10.231 -10.230 -10.210 -10.201 -10.184  -0.944
 -0.818  -0.744  -0.687  -0.590  -0.584  -0.517  -0.499  -0.477
 -0.432  -0.414  -0.380  -0.371  -0.336  -0.268  -0.232  -0.219
 -- Virtual --
 -0.082  -0.037   0.031   0.075   0.092   0.118   0.139   0.141
  0.171   0.174   0.206   0.214   0.266   0.292   0.366   0.390
  0.437   0.500   0.511   0.515   0.540   0.566   0.577   0.597
  0.621   0.633   0.645   0.668   0.676   0.679   0.713   0.788
  0.808   0.836   0.844   0.850   0.863   0.880   0.905   0.919
  0.953   0.964   0.985   1.036   1.073   1.137   1.178   1.244
  1.334   1.376   1.416   1.440   1.498   1.531   1.548   1.608
  1.641   1.684   1.758   1.820   1.846   1.917   1.936   1.980
  2.003   2.025   2.096   2.125   2.188   2.212   2.259   2.284
  2.372   2.377   2.418   2.464   2.549   2.567   2.602   2.641
  2.691   2.720   2.767   2.844   2.996   3.059   3.980   4.111
  4.167   4.215   4.362   4.398   4.503
 --------------------------------------------------------------
 
          Ground-State Mulliken Net Atomic Charges

     Atom                 Charge (a.u.)    Spin (a.u.)
  --------------------------------------------------------
      1 C                     0.030257      -0.023053
      2 C                    -0.108919       0.047871
      3 C                    -0.254317       0.093073
      4 C                    -0.174129      -0.115540
      5 C                     0.042798       0.000060
      6 N                    -0.360923       0.042504
      7 H                     0.136248       0.000796
      8 H                     0.137306      -0.002396
      9 H                     0.174743      -0.008496
     10 H                     0.174577       0.054146
     11 H                     0.169309      -0.002841
     12 C                    -0.131264       0.883138
     13 H                     0.164315       0.030739
  --------------------------------------------------------
  Sum of atomic charges =    -0.000000
  Sum of spin   charges =     1.000000

 -----------------------------------------------------------------
                    Cartesian Multipole Moments
 -----------------------------------------------------------------
    Charge (ESU x 10^10)
                -0.0000
    Dipole Moment (Debye)
         X      -2.4251      Y      -1.9051      Z       0.0814
       Tot       3.0850
    Quadrupole Moments (Debye-Ang)
        XX     -36.0907     XY      -3.2089     YY     -42.3050
        XZ       0.4525     YZ      -0.2685     ZZ     -41.6025
    Octopole Moments (Debye-Ang^2)
       XXX     -14.8540    XXY      -8.0355    XYY     -13.1111
       YYY     -25.9946    XXZ       4.1306    XYZ       3.7573
       YYZ      -1.0287    XZZ     -12.9892    YZZ      -7.8005
       ZZZ       6.3446
    Hexadecapole Moments (Debye-Ang^3)
      XXXX    -356.5742   XXXY     -23.4940   XXYY    -106.5813
      XYYY     -41.1432   YYYY    -241.0899   XXXZ      49.1435
      XXYZ       7.4360   XYYZ      22.1080   YYYZ      32.5613
      XXZZ     -91.6010   XYZZ      -2.3773   YYZZ     -68.2575
      XZZZ      39.1442   YZZZ      28.2195   ZZZZ    -182.6480
 -----------------------------------------------------------------
 Calculating analytic gradient of the SCF energy
 Gradient of SCF Energy
            1           2           3           4           5           6
    1  -0.0004787   0.0056273  -0.0140977   0.0005672  -0.0068946  -0.0042656
    2   0.0029109   0.0057353  -0.0559613   0.0323603   0.0438613  -0.0168418
    3   0.0055668  -0.0004935   0.0302916  -0.0148445   0.0156667  -0.0111049
            7           8           9          10          11          12
    1  -0.0002534   0.0023170   0.0028470   0.0022246   0.0009512   0.0133799
    2  -0.0011421   0.0013764  -0.0068501  -0.0048037   0.0109269  -0.0097147
    3  -0.0037913  -0.0014909   0.0015339  -0.0067387   0.0046593  -0.0165887
           13
    1  -0.0019243
    2  -0.0018574
    3  -0.0026658
 Max gradient component =       5.596E-02
 RMS gradient           =       1.529E-02
 Gradient time:  CPU 7.90 s  wall 6.57 s
 Geometry Optimization Parameters
   NAtoms,    NIC,     NZ,  NCons,   NDum,   NFix, NCnnct, MaxDiis
       13     108       0       0       0       0       0       0

 Cartesian Hessian Update
 Hessian Updated using Powell/Murtagh-Sargent Update
  Mixing factors:     0.999993 Powell
                      0.000007 Murtagh-Sargent


** GEOMETRY OPTIMIZATION IN DELOCALIZED INTERNAL COORDINATES **
   Searching for a Transition State

   Optimization Cycle:   3

                       Coordinates (Angstroms)
     ATOM                X               Y               Z
      1  C         1.8204182848    0.3396983438   -0.1342527723
      2  C         1.1046532491   -0.8318500610   -0.1577630942
      3  C        -0.2682304535   -0.6087109905   -0.5603875442
      4  C        -1.2831147500    0.2122971311    0.4072942813
      5  C        -0.1462676015    1.1128115848   -0.7313423476
      6  N         1.0921407477    1.4269735408   -0.4585686701
      7  H         2.8865817028    0.4298913347    0.0369273686
      8  H         1.5403338633   -1.8127208259   -0.0108860538
      9  H        -0.7959314478   -1.3687645340   -1.1367069342
     10  H        -2.2185267380    0.5141618959   -0.0627506274
     11  H        -0.8589405137    1.8767229928   -1.0403223794
     12  C        -1.1135476862   -0.4831784191    1.5156879657
     13  H        -1.7823438681   -0.8385340443    2.2983032429
   Point Group: c1    Number of degrees of freedom:    33


   Energy is   -286.748781905

 Hessian Updated using Powell/Murtagh-Sargent Update
  Mixing factors:     0.999433 Powell
                      0.000567 Murtagh-Sargent

 33 Hessian modes will be used to form the next step
  Hessian Eigenvalues:
    -0.040769   -0.003170    0.003579    0.008995    0.011010    0.011918
     0.014609    0.019414    0.023870    0.026923    0.033920    0.035527
     0.040271    0.041752    0.057601    0.073799    0.089355    0.102892
     0.117119    0.120781    0.162234    0.228385    0.323473    0.347129
     0.349644    0.353611    0.354007    0.367940    0.370858    0.404656
     0.439925    0.571706    0.631772
**WARNING** Hessian does not have the Desired Local Structure

 Transition State Search - Taking P-RFO Step
 Searching for Lamda that Maximizes Along the Lowest mode
 Value Taken    Lamda =   0.02366596
 Searching for Lamda that Minimizes Along All other modes
 Value Taken    Lamda =  -0.04177492
 Calculated Step too Large.  Step scaled by  0.088994
 Step Taken.  Stepsize is  0.100000

                             Maximum     Tolerance    Cnvgd?
         Gradient           0.028361      0.000010      NO
         Displacement       0.057011      0.001200      NO
         Energy change     -0.001431      0.000001      NO


 New Cartesian Coordinates Obtained by Inverse Iteration

 Displacement from previous Coordinates is:  0.083052
 ----------------------------------------------------------------
             Standard Nuclear Orientation (Angstroms)
    I     Atom           X                Y                Z
 ----------------------------------------------------------------
    1      C       1.8169939921     0.3402286282    -0.1281564750
    2      C       1.1042650302    -0.8350291797    -0.1644827247
    3      C      -0.2642669312    -0.6081954319    -0.5707460963
    4      C      -1.2771941248     0.2221958222     0.4066009283
    5      C      -0.1532319363     1.1001423958    -0.7253741100
    6      N       1.0878197049     1.4240229543    -0.4504621344
    7      H       2.8815966366     0.4330664149     0.0524869200
    8      H       1.5377824299    -1.8171902837    -0.0197450702
    9      H      -0.7960343426    -1.3653485838    -1.1458675089
   10      H      -2.2180461958     0.5171310760    -0.0576442145
   11      H      -0.8650810081     1.8597380097    -1.0439053436
   12      C      -1.1035652234    -0.4714456685     1.5165849891
   13      H      -1.7738132424    -0.8305182046     2.2959432754
 ----------------------------------------------------------------
 Nuclear Repulsion Energy =   267.0187095635 hartrees
 There are       25 alpha and       24 beta electrons
 Applying Cartesian multipole field
    Component          Value
    ---------          -----
     (2,0,0)        1.00000E-11
     (0,2,0)        2.00000E-11
     (0,0,2)       -3.00000E-11
 Nucleus-field energy     =     0.0000000023 hartrees
 Requested basis set is 6-31G(d)
 There are 40 shells and 117 basis functions
 A cutoff of  1.0D-14 yielded    804 shell pairs
 There are      7076 function pairs
 Smallest overlap matrix eigenvalue = 1.73E-03
 Guess MOs from SCF MO coefficient file
 Reading MOs from coefficient file
 Reading MOs from coefficient file
 An unrestricted hybrid HF-DFT SCF calculation will be
 performed using Pulay DIIS extrapolation
 Exchange:     0.2000 Hartree-Fock + 0.0800 Slater + 0.7200 B88
 Correlation:  0.1900 VWN1RPA + 0.8100 LYP
 Using SG-1 standard quadrature grid
 SCF converges when DIIS error is below 1.0E-08
 Geometry optimization detected.  Setting ReadMinima to 0
 Setting SaveMinima to 0
Using Q-Chem read-in guess as SCF_GUESS READ specified.

 using 4 threads for integral computing
 -------------------------------------------------------
 OpenMP Integral computing Module                
 Release: version 1.0, May 2013, Q-Chem Inc. Pittsburgh 
 -------------------------------------------------------
 -------------------------------------------------------
 OpenMP BLAS3 based DFT computing Module                
 Release: version 1.0, May 2013, Q-Chem Inc. Pittsburgh 
 -------------------------------------------------------
 ---------------------------------------
  Cycle       Energy         DIIS Error
 ---------------------------------------
    1    -286.7522217880      7.75E-04
    2    -286.7503669558      1.76E-04
    3    -286.7502490464      3.28E-04
    4    -286.7504297703      4.35E-05
    5    -286.7504328813      1.76E-05
    6    -286.7504335910      8.70E-06
    7    -286.7504338172      4.41E-06
    8    -286.7504338892      1.06E-06
    9    -286.7504339076      4.92E-07
   10    -286.7504339197      2.23E-07
   11    -286.7504339249      1.46E-07
   12    -286.7504339278      8.62E-08
   13    -286.7504339295      5.53E-08
   14    -286.7504339306      4.89E-08
   15    -286.7504339312      1.65E-08
   16    -286.7504339312      4.76E-09 Convergence criterion met
 ---------------------------------------
 <S^2> = 0.7589
 SCF time:  CPU 41.81 s  wall 34.77 s
 SCF   energy in the final basis set = -286.75043393
 Total energy in the final basis set = -286.75043393
 
 --------------------------------------------------------------
 
                    Orbital Energies (a.u.)
 --------------------------------------------------------------
 
 Alpha MOs
 -- Occupied --
-14.311 -10.245 -10.233 -10.230 -10.225 -10.200 -10.185  -0.945
 -0.827  -0.746  -0.700  -0.600  -0.586  -0.522  -0.508  -0.485
 -0.433  -0.418  -0.382  -0.375  -0.345  -0.274  -0.258  -0.229
 -0.201
 -- Virtual --
 -0.058   0.030   0.074   0.088   0.116   0.131   0.140   0.170
  0.174   0.204   0.209   0.266   0.287   0.359   0.378   0.437
  0.495   0.497   0.506   0.535   0.555   0.571   0.596   0.618
  0.626   0.637   0.664   0.674   0.677   0.705   0.784   0.805
  0.832   0.841   0.848   0.858   0.876   0.894   0.916   0.948
  0.963   0.977   1.027   1.073   1.135   1.176   1.233   1.333
  1.375   1.409   1.437   1.492   1.522   1.547   1.608   1.637
  1.679   1.742   1.797   1.818   1.896   1.932   1.970   1.992
  2.017   2.088   2.119   2.188   2.216   2.253   2.277   2.369
  2.373   2.410   2.457   2.551   2.565   2.595   2.639   2.689
  2.717   2.757   2.839   2.997   3.056   3.978   4.086   4.168
  4.206   4.360   4.408   4.500
 
 Beta MOs
 -- Occupied --
-14.310 -10.245 -10.231 -10.231 -10.211 -10.201 -10.184  -0.944
 -0.819  -0.743  -0.689  -0.591  -0.583  -0.518  -0.500  -0.476
 -0.432  -0.415  -0.380  -0.371  -0.336  -0.268  -0.233  -0.217
 -- Virtual --
 -0.083  -0.037   0.032   0.078   0.092   0.119   0.138   0.142
  0.171   0.176   0.208   0.212   0.267   0.290   0.366   0.390
  0.438   0.499   0.510   0.513   0.539   0.566   0.577   0.598
  0.621   0.632   0.645   0.668   0.676   0.680   0.712   0.789
  0.807   0.835   0.843   0.850   0.863   0.880   0.905   0.919
  0.954   0.965   0.984   1.035   1.077   1.139   1.178   1.242
  1.337   1.376   1.417   1.442   1.498   1.528   1.549   1.612
  1.647   1.686   1.759   1.819   1.847   1.915   1.938   1.981
  2.000   2.022   2.093   2.125   2.192   2.221   2.257   2.284
  2.372   2.377   2.418   2.461   2.553   2.569   2.602   2.641
  2.693   2.720   2.772   2.846   2.997   3.056   3.980   4.111
  4.168   4.214   4.362   4.407   4.503
 --------------------------------------------------------------
 
          Ground-State Mulliken Net Atomic Charges

     Atom                 Charge (a.u.)    Spin (a.u.)
  --------------------------------------------------------
      1 C                     0.031561      -0.024516
      2 C                    -0.110398       0.052193
      3 C                    -0.253284       0.092508
      4 C                    -0.174502      -0.112817
      5 C                     0.043976      -0.002639
      6 N                    -0.363902       0.044630
      7 H                     0.135940       0.000866
      8 H                     0.136667      -0.002587
      9 H                     0.175205      -0.008278
     10 H                     0.174726       0.054070
     11 H                     0.168696      -0.002802
     12 C                    -0.129892       0.880160
     13 H                     0.165208       0.029212
  --------------------------------------------------------
  Sum of atomic charges =    -0.000000
  Sum of spin   charges =     1.000000

 -----------------------------------------------------------------
                    Cartesian Multipole Moments
 -----------------------------------------------------------------
    Charge (ESU x 10^10)
                -0.0000
    Dipole Moment (Debye)
         X      -2.4667      Y      -1.9470      Z       0.0906
       Tot       3.1438
    Quadrupole Moments (Debye-Ang)
        XX     -36.0724     XY      -3.2087     YY     -42.4109
        XZ       0.4502     YZ      -0.2423     ZZ     -41.5507
    Octopole Moments (Debye-Ang^2)
       XXX     -15.0309    XXY      -8.0303    XYY     -13.1569
       YYY     -26.2836    XXZ       4.2159    XYZ       3.7396
       YYZ      -1.0092    XZZ     -13.0662    YZZ      -7.8612
       ZZZ       6.2697
    Hexadecapole Moments (Debye-Ang^3)
      XXXX    -354.6061   XXXY     -22.6361   XXYY    -106.0097
      XYYY     -40.2405   YYYY    -240.1180   XXXZ      48.5971
      XXYZ       7.1452   XYYZ      21.8098   YYYZ      31.5642
      XXZZ     -91.1853   XYZZ      -2.0764   YYZZ     -68.0236
      XZZZ      38.3867   YZZZ      27.0745   ZZZZ    -182.4773
 -----------------------------------------------------------------
 Calculating analytic gradient of the SCF energy
 Gradient of SCF Energy
            1           2           3           4           5           6
    1  -0.0004059   0.0052950  -0.0142405   0.0004741  -0.0059210  -0.0038043
    2   0.0026897   0.0064512  -0.0541054   0.0294453   0.0439843  -0.0171045
    3   0.0056764  -0.0007419   0.0300492  -0.0143185   0.0130390  -0.0108774
            7           8           9          10          11          12
    1  -0.0001717   0.0022036   0.0034456   0.0023355   0.0004347   0.0121496
    2  -0.0010624   0.0012740  -0.0066331  -0.0043369   0.0103787  -0.0094518
    3  -0.0036935  -0.0015028   0.0010446  -0.0066857   0.0059483  -0.0155976
           13
    1  -0.0017948
    2  -0.0015289
    3  -0.0023402
 Max gradient component =       5.411E-02
 RMS gradient           =       1.482E-02
 Gradient time:  CPU 7.86 s  wall 7.30 s
 Geometry Optimization Parameters
   NAtoms,    NIC,     NZ,  NCons,   NDum,   NFix, NCnnct, MaxDiis
       13     108       0       0       0       0       0       0

 Cartesian Hessian Update
 Hessian Updated using Powell/Murtagh-Sargent Update
  Mixing factors:     0.994627 Powell
                      0.005373 Murtagh-Sargent


** GEOMETRY OPTIMIZATION IN DELOCALIZED INTERNAL COORDINATES **
   Searching for a Transition State

   Optimization Cycle:   4

                       Coordinates (Angstroms)
     ATOM                X               Y               Z
      1  C         1.8169939921    0.3402286282   -0.1281564750
      2  C         1.1042650302   -0.8350291797   -0.1644827247
      3  C        -0.2642669312   -0.6081954319   -0.5707460963
      4  C        -1.2771941248    0.2221958222    0.4066009283
      5  C        -0.1532319363    1.1001423958   -0.7253741100
      6  N         1.0878197049    1.4240229543   -0.4504621344
      7  H         2.8815966366    0.4330664149    0.0524869200
      8  H         1.5377824299   -1.8171902837   -0.0197450702
      9  H        -0.7960343426   -1.3653485838   -1.1458675089
     10  H        -2.2180461958    0.5171310760   -0.0576442145
     11  H        -0.8650810081    1.8597380097   -1.0439053436
     12  C        -1.1035652234   -0.4714456685    1.5165849891
     13  H        -1.7738132424   -0.8305182046    2.2959432754
   Point Group: c1    Number of degrees of freedom:    33


   Energy is   -286.750433931

 Hessian Updated using Powell/Murtagh-Sargent Update
  Mixing factors:     0.991280 Powell
                      0.008720 Murtagh-Sargent

 33 Hessian modes will be used to form the next step
  Hessian Eigenvalues:
    -0.041705   -0.002094    0.003599    0.009005    0.011107    0.011911
     0.014629    0.019420    0.023870    0.026867    0.033946    0.035515
     0.040620    0.041721    0.057729    0.073960    0.089382    0.102904
     0.117091    0.120749    0.162003    0.228473    0.323484    0.347128
     0.349645    0.353624    0.354007    0.367940    0.370859    0.404652
     0.439941    0.571800    0.631765
**WARNING** Hessian does not have the Desired Local Structure

 Transition State Search - Taking P-RFO Step
 Searching for Lamda that Maximizes Along the Lowest mode
 Value Taken    Lamda =   0.02114407
 Searching for Lamda that Minimizes Along All other modes
 Value Taken    Lamda =  -0.04094421
 Calculated Step too Large.  Step scaled by  0.090601
 Step Taken.  Stepsize is  0.100000

                             Maximum     Tolerance    Cnvgd?
         Gradient           0.026741      0.000010      NO
         Displacement       0.056369      0.001200      NO
         Energy change     -0.001652      0.000001      NO


 New Cartesian Coordinates Obtained by Inverse Iteration

 Displacement from previous Coordinates is:  0.083283
 ----------------------------------------------------------------
             Standard Nuclear Orientation (Angstroms)
    I     Atom           X                Y                Z
 ----------------------------------------------------------------
    1      C       1.8133106932     0.3407513740    -0.1218984135
    2      C       1.1036661013    -0.8382095527    -0.1710658685
    3      C      -0.2603918599    -0.6074624175    -0.5814517709
    4      C      -1.2714456380     0.2316517460     0.4061472659
    5      C      -0.1600068036     1.0876912344    -0.7200137436
    6      N       1.0835823809     1.4213920620    -0.4423159263
    7      H       2.8762232336     0.4359953801     0.0685386095
    8      H       1.5350846495    -1.8215778323    -0.0282479181
    9      H      -0.7962621496    -1.3614724174    -1.1556875922
   10      H      -2.2178749369     0.5198104610    -0.0517331038
   11      H      -0.8706100032     1.8430674507    -1.0488485967
   12      C      -1.0933577590    -0.4600933678     1.5176961598
   13      H      -1.7646931191    -0.8227461713     2.2941133335
 ----------------------------------------------------------------
 Nuclear Repulsion Energy =   267.4049516160 hartrees
 There are       25 alpha and       24 beta electrons
 Applying Cartesian multipole field
    Component          Value
    ---------          -----
     (2,0,0)        1.00000E-11
     (0,2,0)        2.00000E-11
     (0,0,2)       -3.00000E-11
 Nucleus-field energy     =     0.0000000023 hartrees
 Requested basis set is 6-31G(d)
 There are 40 shells and 117 basis functions
 A cutoff of  1.0D-14 yielded    804 shell pairs
 There are      7076 function pairs
 Smallest overlap matrix eigenvalue = 1.71E-03
 Guess MOs from SCF MO coefficient file
 Reading MOs from coefficient file
 Reading MOs from coefficient file
 An unrestricted hybrid HF-DFT SCF calculation will be
 performed using Pulay DIIS extrapolation
 Exchange:     0.2000 Hartree-Fock + 0.0800 Slater + 0.7200 B88
 Correlation:  0.1900 VWN1RPA + 0.8100 LYP
 Using SG-1 standard quadrature grid
 SCF converges when DIIS error is below 1.0E-08
 Geometry optimization detected.  Setting ReadMinima to 0
 Setting SaveMinima to 0
Using Q-Chem read-in guess as SCF_GUESS READ specified.

 using 4 threads for integral computing
 -------------------------------------------------------
 OpenMP Integral computing Module                
 Release: version 1.0, May 2013, Q-Chem Inc. Pittsburgh 
 -------------------------------------------------------
 -------------------------------------------------------
 OpenMP BLAS3 based DFT computing Module                
 Release: version 1.0, May 2013, Q-Chem Inc. Pittsburgh 
 -------------------------------------------------------
 ---------------------------------------
  Cycle       Energy         DIIS Error
 ---------------------------------------
    1    -286.7540241967      7.77E-04
    2    -286.7521956799      1.77E-04
    3    -286.7520796589      3.27E-04
    4    -286.7522589935      4.25E-05
    5    -286.7522618209      1.84E-05
    6    -286.7522625760      8.60E-06
    7    -286.7522627837      4.21E-06
    8    -286.7522628445      9.56E-07
    9    -286.7522628582      4.40E-07
   10    -286.7522628670      1.82E-07
   11    -286.7522628712      1.25E-07
   12    -286.7522628732      7.50E-08
   13    -286.7522628745      4.88E-08
   14    -286.7522628753      4.78E-08
   15    -286.7522628758      1.71E-08
   16    -286.7522628758      5.36E-09 Convergence criterion met
 ---------------------------------------
 <S^2> = 0.7588
 SCF time:  CPU 41.80 s  wall 45.04 s
 SCF   energy in the final basis set = -286.75226288
 Total energy in the final basis set = -286.75226288
 
 --------------------------------------------------------------
 
                    Orbital Energies (a.u.)
 --------------------------------------------------------------
 
 Alpha MOs
 -- Occupied --
-14.310 -10.245 -10.234 -10.232 -10.226 -10.200 -10.184  -0.945
 -0.827  -0.746  -0.701  -0.600  -0.586  -0.522  -0.509  -0.485
 -0.433  -0.418  -0.382  -0.375  -0.346  -0.274  -0.258  -0.230
 -0.201
 -- Virtual --
 -0.058   0.032   0.077   0.087   0.116   0.130   0.141   0.170
  0.175   0.205   0.208   0.267   0.286   0.358   0.377   0.437
  0.495   0.496   0.505   0.534   0.555   0.571   0.596   0.618
  0.625   0.638   0.664   0.674   0.677   0.705   0.785   0.804
  0.832   0.841   0.848   0.858   0.875   0.894   0.917   0.949
  0.964   0.976   1.027   1.077   1.137   1.176   1.232   1.335
  1.375   1.408   1.439   1.492   1.520   1.549   1.610   1.642
  1.682   1.743   1.798   1.819   1.893   1.933   1.970   1.990
  2.015   2.085   2.118   2.192   2.225   2.251   2.278   2.369
  2.372   2.410   2.455   2.554   2.567   2.594   2.639   2.691
  2.718   2.761   2.842   2.998   3.052   3.978   4.086   4.170
  4.205   4.360   4.417   4.501
 
 Beta MOs
 -- Occupied --
-14.309 -10.245 -10.233 -10.232 -10.211 -10.201 -10.183  -0.944
 -0.819  -0.743  -0.690  -0.592  -0.583  -0.519  -0.501  -0.476
 -0.431  -0.415  -0.380  -0.372  -0.337  -0.267  -0.234  -0.215
 -- Virtual --
 -0.084  -0.036   0.034   0.081   0.092   0.119   0.137   0.143
  0.171   0.177   0.209   0.211   0.268   0.289   0.365   0.389
  0.439   0.499   0.510   0.512   0.539   0.566   0.576   0.598
  0.621   0.631   0.646   0.668   0.676   0.680   0.712   0.790
  0.806   0.834   0.843   0.850   0.862   0.879   0.905   0.920
  0.955   0.967   0.983   1.036   1.081   1.141   1.178   1.241
  1.338   1.377   1.416   1.445   1.498   1.526   1.551   1.614
  1.654   1.687   1.760   1.818   1.849   1.913   1.939   1.982
  1.997   2.019   2.089   2.125   2.196   2.230   2.256   2.285
  2.372   2.377   2.418   2.459   2.556   2.571   2.601   2.641
  2.695   2.721   2.775   2.848   2.998   3.053   3.979   4.111
  4.170   4.214   4.362   4.417   4.504
 --------------------------------------------------------------
 
          Ground-State Mulliken Net Atomic Charges

     Atom                 Charge (a.u.)    Spin (a.u.)
  --------------------------------------------------------
      1 C                     0.032886      -0.025720
      2 C                    -0.111903       0.056136
      3 C                    -0.251689       0.091486
      4 C                    -0.174672      -0.110401
      5 C                     0.044827      -0.004729
      6 N                    -0.366725       0.046197
      7 H                     0.135679       0.000926
      8 H                     0.136093      -0.002765
      9 H                     0.175606      -0.008051
     10 H                     0.174753       0.053918
     11 H                     0.168045      -0.002730
     12 C                    -0.128852       0.878116
     13 H                     0.165951       0.027618
  --------------------------------------------------------
  Sum of atomic charges =    -0.000000
  Sum of spin   charges =     1.000000

 -----------------------------------------------------------------
                    Cartesian Multipole Moments
 -----------------------------------------------------------------
    Charge (ESU x 10^10)
                -0.0000
    Dipole Moment (Debye)
         X      -2.5013      Y      -1.9862      Z       0.0939
       Tot       3.1953
    Quadrupole Moments (Debye-Ang)
        XX     -36.0595     XY      -3.2104     YY     -42.5148
        XZ       0.4544     YZ      -0.2185     ZZ     -41.4980
    Octopole Moments (Debye-Ang^2)
       XXX     -15.1848    XXY      -8.0243    XYY     -13.1934
       YYY     -26.5617    XXZ       4.2910    XYZ       3.7153
       YYZ      -0.9983    XZZ     -13.1297    YZZ      -7.9150
       ZZZ       6.1709
    Hexadecapole Moments (Debye-Ang^3)
      XXXX    -352.6314   XXXY     -21.8253   XXYY    -105.4539
      XYYY     -39.3802   YYYY    -239.2031   XXXZ      48.0696
      XXYZ       6.8741   XYYZ      21.5157   YYYZ      30.5877
      XXZZ     -90.7964   XYZZ      -1.7906   YYZZ     -67.8105
      XZZZ      37.6528   YZZZ      25.9541   ZZZZ    -182.4330
 -----------------------------------------------------------------
 Calculating analytic gradient of the SCF energy
 Gradient of SCF Energy
            1           2           3           4           5           6
    1  -0.0003565   0.0049947  -0.0144420   0.0004431  -0.0049388  -0.0033489
    2   0.0024784   0.0070640  -0.0521689   0.0266496   0.0438821  -0.0172546
    3   0.0057699  -0.0009287   0.0297882  -0.0137918   0.0105199  -0.0106508
            7           8           9          10          11          12
    1  -0.0000972   0.0020936   0.0039999   0.0024263  -0.0000972   0.0109939
    2  -0.0009844   0.0011749  -0.0064181  -0.0039076   0.0098644  -0.0091582
    3  -0.0035876  -0.0015167   0.0005633  -0.0066443   0.0071554  -0.0146402
           13
    1  -0.0016710
    2  -0.0012214
    3  -0.0020364
 Max gradient component =       5.217E-02
 RMS gradient           =       1.436E-02
 Gradient time:  CPU 7.85 s  wall 2.42 s
 Geometry Optimization Parameters
   NAtoms,    NIC,     NZ,  NCons,   NDum,   NFix, NCnnct, MaxDiis
       13     108       0       0       0       0       0       0

 Cartesian Hessian Update
 Hessian Updated using Powell/Murtagh-Sargent Update
  Mixing factors:     0.981604 Powell
                      0.018396 Murtagh-Sargent


** GEOMETRY OPTIMIZATION IN DELOCALIZED INTERNAL COORDINATES **
   Searching for a Transition State

   Optimization Cycle:   5

                       Coordinates (Angstroms)
     ATOM                X               Y               Z
      1  C         1.8133106932    0.3407513740   -0.1218984135
      2  C         1.1036661013   -0.8382095527   -0.1710658685
      3  C        -0.2603918599   -0.6074624175   -0.5814517709
      4  C        -1.2714456380    0.2316517460    0.4061472659
      5  C        -0.1600068036    1.0876912344   -0.7200137436
      6  N         1.0835823809    1.4213920620   -0.4423159263
      7  H         2.8762232336    0.4359953801    0.0685386095
      8  H         1.5350846495   -1.8215778323   -0.0282479181
      9  H        -0.7962621496   -1.3614724174   -1.1556875922
     10  H        -2.2178749369    0.5198104610   -0.0517331038
     11  H        -0.8706100032    1.8430674507   -1.0488485967
     12  C        -1.0933577590   -0.4600933678    1.5176961598
     13  H        -1.7646931191   -0.8227461713    2.2941133335
   Point Group: c1    Number of degrees of freedom:    33


   Energy is   -286.752262876

 Hessian Updated using Powell/Murtagh-Sargent Update
  Mixing factors:     0.974495 Powell
                      0.025505 Murtagh-Sargent

 33 Hessian modes will be used to form the next step
  Hessian Eigenvalues:
    -0.042219   -0.001093    0.003667    0.009023    0.011199    0.011912
     0.014639    0.019440    0.023869    0.026794    0.033964    0.035501
     0.040981    0.041705    0.057816    0.074089    0.089423    0.102919
     0.117069    0.120723    0.161861    0.228546    0.323499    0.347128
     0.349646    0.353636    0.354007    0.367939    0.370859    0.404654
     0.439956    0.571973    0.631769
**WARNING** Hessian does not have the Desired Local Structure

 Transition State Search - Taking P-RFO Step
 Searching for Lamda that Maximizes Along the Lowest mode
 Value Taken    Lamda =   0.01903735
 Searching for Lamda that Minimizes Along All other modes
 Value Taken    Lamda =  -0.03989003
 Calculated Step too Large.  Step scaled by  0.092144
 Step Taken.  Stepsize is  0.100000

                             Maximum     Tolerance    Cnvgd?
         Gradient           0.025209      0.000010      NO
         Displacement       0.055477      0.001200      NO
         Energy change     -0.001829      0.000001      NO


 New Cartesian Coordinates Obtained by Inverse Iteration

 Displacement from previous Coordinates is:  0.083200
 ----------------------------------------------------------------
             Standard Nuclear Orientation (Angstroms)
    I     Atom           X                Y                Z
 ----------------------------------------------------------------
    1      C       1.8094612296     0.3412742342    -0.1155732122
    2      C       1.1029625623    -0.8414008176    -0.1775776411
    3      C      -0.2565142510    -0.6066579216    -0.5923764557
    4      C      -1.2659479946     0.2408067231     0.4059606319
    5      C      -0.1665746290     1.0755196140    -0.7151327237
    6      N       1.0794420518     1.4190579043    -0.4341160598
    7      H       2.8705708606     0.4387082485     0.0848435633
    8      H       1.5324104429    -1.8258766829    -0.0365168835
    9      H      -0.7965685710    -1.3573430595    -1.1659060757
   10      H      -2.2180242463     0.5223332857    -0.0451092123
   11      H      -0.8755886347     1.8266845134    -1.0549349982
   12      C      -1.0831292189    -0.4490622529     1.5189891464
   13      H      -1.7552748127    -0.8152458397     2.2926823557
 ----------------------------------------------------------------
 Nuclear Repulsion Energy =   267.7690382365 hartrees
 There are       25 alpha and       24 beta electrons
 Applying Cartesian multipole field
    Component          Value
    ---------          -----
     (2,0,0)        1.00000E-11
     (0,2,0)        2.00000E-11
     (0,0,2)       -3.00000E-11
 Nucleus-field energy     =     0.0000000023 hartrees
 Requested basis set is 6-31G(d)
 There are 40 shells and 117 basis functions
 A cutoff of  1.0D-14 yielded    804 shell pairs
 There are      7076 function pairs
 Smallest overlap matrix eigenvalue = 1.70E-03
 Guess MOs from SCF MO coefficient file
 Reading MOs from coefficient file
 Reading MOs from coefficient file
 An unrestricted hybrid HF-DFT SCF calculation will be
 performed using Pulay DIIS extrapolation
 Exchange:     0.2000 Hartree-Fock + 0.0800 Slater + 0.7200 B88
 Correlation:  0.1900 VWN1RPA + 0.8100 LYP
 Using SG-1 standard quadrature grid
 SCF converges when DIIS error is below 1.0E-08
 Geometry optimization detected.  Setting ReadMinima to 0
 Setting SaveMinima to 0
Using Q-Chem read-in guess as SCF_GUESS READ specified.

 using 4 threads for integral computing
 -------------------------------------------------------
 OpenMP Integral computing Module                
 Release: version 1.0, May 2013, Q-Chem Inc. Pittsburgh 
 -------------------------------------------------------
 -------------------------------------------------------
 OpenMP BLAS3 based DFT computing Module                
 Release: version 1.0, May 2013, Q-Chem Inc. Pittsburgh 
 -------------------------------------------------------
 ---------------------------------------
  Cycle       Energy         DIIS Error
 ---------------------------------------
    1    -286.7559093193      7.77E-04
    2    -286.7541480122      1.76E-04
    3    -286.7540381061      3.21E-04
    4    -286.7542104726      4.08E-05
    5    -286.7542129658      1.85E-05
    6    -286.7542137134      8.56E-06
    7    -286.7542139071      4.04E-06
    8    -286.7542139582      8.89E-07
    9    -286.7542139679      4.04E-07
   10    -286.7542139737      1.60E-07
   11    -286.7542139765      1.14E-07
   12    -286.7542139776      5.29E-08
   13    -286.7542139787      5.63E-08
   14    -286.7542139790      3.69E-08
   15    -286.7542139794      1.96E-08
   16    -286.7542139795      5.55E-09 Convergence criterion met
 ---------------------------------------
 <S^2> = 0.7586
 SCF time:  CPU 42.38 s  wall 48.31 s
 SCF   energy in the final basis set = -286.75421398
 Total energy in the final basis set = -286.75421398
 
 --------------------------------------------------------------
 
                    Orbital Energies (a.u.)
 --------------------------------------------------------------
 
 Alpha MOs
 -- Occupied --
-14.308 -10.244 -10.234 -10.233 -10.226 -10.200 -10.184  -0.946
 -0.827  -0.746  -0.703  -0.601  -0.585  -0.523  -0.510  -0.484
 -0.433  -0.418  -0.382  -0.375  -0.346  -0.275  -0.257  -0.230
 -0.201
 -- Virtual --
 -0.058   0.033   0.079   0.087   0.117   0.129   0.142   0.170
  0.177   0.205   0.208   0.267   0.285   0.358   0.377   0.438
  0.494   0.496   0.505   0.533   0.554   0.570   0.596   0.617
  0.624   0.639   0.663   0.674   0.678   0.704   0.787   0.802
  0.831   0.840   0.848   0.857   0.874   0.894   0.918   0.950
  0.966   0.975   1.027   1.080   1.140   1.174   1.232   1.337
  1.376   1.407   1.442   1.491   1.518   1.551   1.612   1.648
  1.686   1.745   1.800   1.821   1.891   1.932   1.971   1.989
  2.012   2.081   2.117   2.196   2.233   2.249   2.279   2.369
  2.371   2.409   2.453   2.557   2.569   2.593   2.639   2.693
  2.719   2.764   2.845   2.999   3.049   3.978   4.086   4.172
  4.206   4.360   4.426   4.502
 
 Beta MOs
 -- Occupied --
-14.307 -10.245 -10.234 -10.232 -10.212 -10.201 -10.183  -0.944
 -0.820  -0.743  -0.691  -0.593  -0.582  -0.520  -0.502  -0.476
 -0.431  -0.415  -0.380  -0.372  -0.337  -0.267  -0.235  -0.214
 -- Virtual --
 -0.085  -0.036   0.035   0.083   0.091   0.119   0.137   0.144
  0.171   0.179   0.209   0.211   0.269   0.287   0.364   0.389
  0.440   0.499   0.509   0.512   0.538   0.566   0.575   0.598
  0.620   0.631   0.646   0.667   0.677   0.681   0.712   0.792
  0.805   0.833   0.842   0.849   0.861   0.878   0.905   0.921
  0.956   0.968   0.982   1.036   1.084   1.143   1.178   1.241
  1.340   1.377   1.415   1.448   1.497   1.524   1.553   1.615
  1.661   1.690   1.762   1.818   1.851   1.911   1.940   1.983
  1.994   2.016   2.085   2.124   2.200   2.238   2.255   2.287
  2.372   2.376   2.418   2.457   2.559   2.573   2.600   2.642
  2.697   2.722   2.778   2.851   2.999   3.050   3.979   4.111
  4.172   4.214   4.362   4.425   4.505
 --------------------------------------------------------------
 
          Ground-State Mulliken Net Atomic Charges

     Atom                 Charge (a.u.)    Spin (a.u.)
  --------------------------------------------------------
      1 C                     0.034214      -0.026610
      2 C                    -0.113402       0.059562
      3 C                    -0.249597       0.090175
      4 C                    -0.174688      -0.108291
      5 C                     0.045342      -0.006195
      6 N                    -0.369362       0.047122
      7 H                     0.135463       0.000972
      8 H                     0.135577      -0.002924
      9 H                     0.175943      -0.007824
     10 H                     0.174674       0.053717
     11 H                     0.167379      -0.002646
     12 C                    -0.128096       0.876957
     13 H                     0.166552       0.025986
  --------------------------------------------------------
  Sum of atomic charges =    -0.000000
  Sum of spin   charges =     1.000000

 -----------------------------------------------------------------
                    Cartesian Multipole Moments
 -----------------------------------------------------------------
    Charge (ESU x 10^10)
                 0.0000
    Dipole Moment (Debye)
         X      -2.5292      Y      -2.0226      Z       0.0916
       Tot       3.2398
    Quadrupole Moments (Debye-Ang)
        XX     -36.0506     XY      -3.2133     YY     -42.6156
        XZ       0.4644     YZ      -0.1977     ZZ     -41.4451
    Octopole Moments (Debye-Ang^2)
       XXX     -15.3182    XXY      -8.0178    XYY     -13.2209
       YYY     -26.8283    XXZ       4.3554    XYZ       3.6855
       YYZ      -0.9964    XZZ     -13.1805    YZZ      -7.9627
       ZZZ       6.0492
    Hexadecapole Moments (Debye-Ang^3)
      XXXX    -350.6860   XXXY     -21.0539   XXYY    -104.9182
      XYYY     -38.5543   YYYY    -238.3479   XXXZ      47.5675
      XXYZ       6.6164   XYYZ      21.2292   YYYZ      29.6247
      XXZZ     -90.4369   XYZZ      -1.5171   YYZZ     -67.6184
      XZZZ      36.9566   YZZZ      24.8512   ZZZZ    -182.5000
 -----------------------------------------------------------------
 Calculating analytic gradient of the SCF energy
 Gradient of SCF Energy
            1           2           3           4           5           6
    1  -0.0003281   0.0047236  -0.0147057   0.0004715  -0.0039501  -0.0029009
    2   0.0022767   0.0075742  -0.0501413   0.0239809   0.0435441  -0.0172925
    3   0.0058437  -0.0010558   0.0295113  -0.0132842   0.0081293  -0.0104251
            7           8           9          10          11          12
    1  -0.0000294   0.0019862   0.0045124   0.0024940  -0.0006419   0.0099231
    2  -0.0009075   0.0010799  -0.0062029  -0.0035159   0.0093818  -0.0088429
    3  -0.0034741  -0.0015314   0.0000872  -0.0066084   0.0082719  -0.0137097
           13
    1  -0.0015547
    2  -0.0009347
    3  -0.0017546
 Max gradient component =       5.014E-02
 RMS gradient           =       1.390E-02
 Gradient time:  CPU 7.74 s  wall 4.31 s
 Geometry Optimization Parameters
   NAtoms,    NIC,     NZ,  NCons,   NDum,   NFix, NCnnct, MaxDiis
       13     108       0       0       0       0       0       0

 Cartesian Hessian Update
 Hessian Updated using Powell/Murtagh-Sargent Update
  Mixing factors:     0.971878 Powell
                      0.028122 Murtagh-Sargent


** GEOMETRY OPTIMIZATION IN DELOCALIZED INTERNAL COORDINATES **
   Searching for a Transition State

   Optimization Cycle:   6

                       Coordinates (Angstroms)
     ATOM                X               Y               Z
      1  C         1.8094612296    0.3412742342   -0.1155732122
      2  C         1.1029625623   -0.8414008176   -0.1775776411
      3  C        -0.2565142510   -0.6066579216   -0.5923764557
      4  C        -1.2659479946    0.2408067231    0.4059606319
      5  C        -0.1665746290    1.0755196140   -0.7151327237
      6  N         1.0794420518    1.4190579043   -0.4341160598
      7  H         2.8705708606    0.4387082485    0.0848435633
      8  H         1.5324104429   -1.8258766829   -0.0365168835
      9  H        -0.7965685710   -1.3573430595   -1.1659060757
     10  H        -2.2180242463    0.5223332857   -0.0451092123
     11  H        -0.8755886347    1.8266845134   -1.0549349982
     12  C        -1.0831292189   -0.4490622529    1.5189891464
     13  H        -1.7552748127   -0.8152458397    2.2926823557
   Point Group: c1    Number of degrees of freedom:    33


   Energy is   -286.754213979

 Hessian Updated using Powell/Murtagh-Sargent Update
  Mixing factors:     0.959147 Powell
                      0.040853 Murtagh-Sargent

 33 Hessian modes will be used to form the next step
  Hessian Eigenvalues:
    -0.042451   -0.000154    0.003760    0.009054    0.011287    0.011932
     0.014637    0.019474    0.023870    0.026707    0.033978    0.035485
     0.041331    0.041714    0.057876    0.074188    0.089478    0.102933
     0.117054    0.120707    0.161828    0.228603    0.323514    0.347127
     0.349648    0.353647    0.354008    0.367939    0.370859    0.404657
     0.439972    0.572161    0.631776
**WARNING** Hessian does not have the Desired Local Structure

 Transition State Search - Taking P-RFO Step
 Searching for Lamda that Maximizes Along the Lowest mode
 Value Taken    Lamda =   0.01722407
 Searching for Lamda that Minimizes Along All other modes
 Value Taken    Lamda =  -0.03868827
 Calculated Step too Large.  Step scaled by  0.093670
 Step Taken.  Stepsize is  0.100000

                             Maximum     Tolerance    Cnvgd?
         Gradient           0.023758      0.000010      NO
         Displacement       0.054334      0.001200      NO
         Energy change     -0.001951      0.000001      NO


 New Cartesian Coordinates Obtained by Inverse Iteration

 Displacement from previous Coordinates is:  0.082921
 ----------------------------------------------------------------
             Standard Nuclear Orientation (Angstroms)
    I     Atom           X                Y                Z
 ----------------------------------------------------------------
    1      C       1.8055127895     0.3417993336    -0.1092463986
    2      C       1.1022473266    -0.8446157900    -0.1841107168
    3      C      -0.2525523059    -0.6059075679    -0.6034549091
    4      C      -1.2607533408     0.2497342015     0.4060706250
    5      C      -0.1729240741     1.0636875999    -0.7106335372
    6      N       1.0753928718     1.4170015934    -0.4258249030
    7      H       2.8647138376     0.4412268267     0.1012584716
    8      H       1.5299105398    -1.8300852540    -0.0446911957
    9      H      -0.7969223486    -1.3531155878    -1.1763586283
   10      H      -2.2184916040     0.5247769962    -0.0378309851
   11      H      -0.8800518968     1.8105727673    -1.0620296921
   12      C      -1.0730660525    -0.4382897641     1.5204733975
   13      H      -1.7457909537    -0.8079874058     2.2916109068
 ----------------------------------------------------------------
 Nuclear Repulsion Energy =   268.1064609838 hartrees
 There are       25 alpha and       24 beta electrons
 Applying Cartesian multipole field
    Component          Value
    ---------          -----
     (2,0,0)        1.00000E-11
     (0,2,0)        2.00000E-11
     (0,0,2)       -3.00000E-11
 Nucleus-field energy     =     0.0000000022 hartrees
 Requested basis set is 6-31G(d)
 There are 40 shells and 117 basis functions
 A cutoff of  1.0D-14 yielded    805 shell pairs
 There are      7077 function pairs
 Smallest overlap matrix eigenvalue = 1.69E-03
 Guess MOs from SCF MO coefficient file
 Reading MOs from coefficient file
 Reading MOs from coefficient file
[...]
 Value Taken    Lamda =   0.00000000
 Searching for Lamda that Minimizes Along All other modes
 Value Taken    Lamda =   0.00000000
 Step Taken.  Stepsize is  0.001205

                             Maximum     Tolerance    Cnvgd?
         Gradient           0.000018      0.000010      NO
         Displacement       0.000553      0.001200     YES
         Energy change     -0.000000      0.000001     YES


 New Cartesian Coordinates Obtained by Inverse Iteration

 Displacement from previous Coordinates is:  0.001150
 ----------------------------------------------------------------
             Standard Nuclear Orientation (Angstroms)
    I     Atom           X                Y                Z
 ----------------------------------------------------------------
    1      C       1.7688905851     0.2991778373    -0.0192515042
    2      C       1.1575412203    -0.8918493987    -0.4172879622
    3      C      -0.1263394556    -0.5180149341    -0.8803221795
    4      C      -1.3058432277     0.0589573387     0.4392140055
    5      C      -0.1618106675     0.9447461255    -0.7043042405
    6      N       1.0051264986     1.4029508509    -0.1909472624
    7      H       2.7631091029     0.3969380248     0.4082854622
    8      H       1.5495446507    -1.8965828980    -0.3324179653
    9      H      -0.7922114606    -1.1075734751    -1.5003215341
   10      H      -2.2946341619     0.1752079283    -0.0106027073
   11      H      -0.8618603385     1.6254355191    -1.1775627827
   12      C      -1.1121103456    -0.1872009528     1.7035902191
   13      H      -1.6121776112    -0.3333940169     2.6471608868
 ----------------------------------------------------------------
 Nuclear Repulsion Energy =   266.0464238851 hartrees
 There are       25 alpha and       24 beta electrons
 Applying Cartesian multipole field
    Component          Value
    ---------          -----
     (2,0,0)        1.00000E-11
     (0,2,0)        2.00000E-11
     (0,0,2)       -3.00000E-11
 Nucleus-field energy     =     0.0000000009 hartrees
 Requested basis set is 6-31G(d)
 There are 40 shells and 117 basis functions
 A cutoff of  1.0D-14 yielded    804 shell pairs
 There are      7076 function pairs
 Smallest overlap matrix eigenvalue = 1.48E-03
 Guess MOs from SCF MO coefficient file
 Reading MOs from coefficient file
 Reading MOs from coefficient file
 An unrestricted hybrid HF-DFT SCF calculation will be
 performed using Pulay DIIS extrapolation
 Exchange:     0.2000 Hartree-Fock + 0.0800 Slater + 0.7200 B88
 Correlation:  0.1900 VWN1RPA + 0.8100 LYP
 Using SG-1 standard quadrature grid
 SCF converges when DIIS error is below 1.0E-08
 Geometry optimization detected.  Setting ReadMinima to 0
 Setting SaveMinima to 0
Using Q-Chem read-in guess as SCF_GUESS READ specified.

 using 4 threads for integral computing
 -------------------------------------------------------
 OpenMP Integral computing Module                
 Release: version 1.0, May 2013, Q-Chem Inc. Pittsburgh 
 -------------------------------------------------------
 -------------------------------------------------------
 OpenMP BLAS3 based DFT computing Module                
 Release: version 1.0, May 2013, Q-Chem Inc. Pittsburgh 
 -------------------------------------------------------
 ---------------------------------------
  Cycle       Energy         DIIS Error
 ---------------------------------------
    1    -286.7927313337      6.77E-06
    2    -286.7927523844      9.28E-07
    3    -286.7927523821      1.76E-06
    4    -286.7927523878      1.92E-07
    5    -286.7927523880      1.22E-07
    6    -286.7927523882      4.92E-08
    7    -286.7927523882      2.80E-08
    8    -286.7927523882      1.84E-08
    9    -286.7927523882      9.39E-09 Convergence criterion met
 ---------------------------------------
 <S^2> = 0.7755
 SCF time:  CPU 23.58 s  wall 21.51 s
 SCF   energy in the final basis set = -286.79275239
 Total energy in the final basis set = -286.79275239
 
 --------------------------------------------------------------
 
                    Orbital Energies (a.u.)
 --------------------------------------------------------------
 
 Alpha MOs
 -- Occupied --
-14.299 -10.237 -10.234 -10.223 -10.220 -10.205 -10.174  -0.944
 -0.801  -0.748  -0.715  -0.589  -0.566  -0.538  -0.517  -0.479
 -0.437  -0.407  -0.384  -0.377  -0.325  -0.288  -0.252  -0.234
 -0.212
 -- Virtual --
 -0.039   0.012   0.095   0.109   0.114   0.142   0.152   0.164
  0.174   0.191   0.234   0.241   0.296   0.370   0.390   0.459
  0.464   0.487   0.512   0.526   0.556   0.579   0.594   0.621
  0.639   0.648   0.652   0.670   0.699   0.713   0.779   0.805
  0.817   0.825   0.846   0.856   0.877   0.896   0.918   0.943
  0.996   1.005   1.025   1.067   1.106   1.150   1.296   1.334
  1.382   1.383   1.407   1.463   1.547   1.559   1.593   1.611
  1.699   1.708   1.769   1.832   1.909   1.974   1.990   2.026
  2.049   2.065   2.134   2.207   2.233   2.247   2.267   2.350
  2.380   2.400   2.435   2.580   2.599   2.618   2.659   2.709
  2.741   2.806   2.878   2.953   3.027   3.954   4.046   4.179
  4.233   4.345   4.439   4.499
 
 Beta MOs
 -- Occupied --
-14.300 -10.239 -10.232 -10.219 -10.207 -10.205 -10.175  -0.944
 -0.794  -0.742  -0.705  -0.579  -0.565  -0.528  -0.516  -0.468
 -0.431  -0.407  -0.383  -0.374  -0.320  -0.280  -0.249  -0.208
 -- Virtual --
 -0.092  -0.026   0.019   0.102   0.113   0.119   0.144   0.153
  0.168   0.176   0.197   0.235   0.243   0.297   0.372   0.405
  0.461   0.472   0.504   0.522   0.539   0.562   0.591   0.597
  0.620   0.641   0.654   0.662   0.674   0.701   0.716   0.782
  0.805   0.819   0.826   0.846   0.858   0.882   0.911   0.919
  0.947   1.001   1.013   1.028   1.074   1.113   1.152   1.299
  1.336   1.384   1.392   1.410   1.463   1.549   1.566   1.597
  1.612   1.710   1.765   1.800   1.851   1.912   1.978   2.014
  2.026   2.050   2.066   2.148   2.210   2.235   2.250   2.273
  2.353   2.383   2.401   2.439   2.580   2.601   2.622   2.660
  2.719   2.748   2.822   2.879   2.953   3.027   3.956   4.064
  4.188   4.241   4.345   4.440   4.500
 --------------------------------------------------------------
 
          Ground-State Mulliken Net Atomic Charges

     Atom                 Charge (a.u.)    Spin (a.u.)
  --------------------------------------------------------
      1 C                     0.020289       0.046049
      2 C                    -0.124590      -0.062297
      3 C                    -0.173559       0.106059
      4 C                    -0.208343      -0.203068
      5 C                     0.028439       0.068620
      6 N                    -0.390564      -0.054092
      7 H                     0.133321      -0.001737
      8 H                     0.130019       0.002628
      9 H                     0.167071      -0.006435
     10 H                     0.178197       0.073518
     11 H                     0.163962      -0.004885
     12 C                    -0.108884       1.051788
     13 H                     0.184640      -0.016148
  --------------------------------------------------------
  Sum of atomic charges =     0.000000
  Sum of spin   charges =     1.000000

 -----------------------------------------------------------------
                    Cartesian Multipole Moments
 -----------------------------------------------------------------
    Charge (ESU x 10^10)
                -0.0000
    Dipole Moment (Debye)
         X      -2.4965      Y      -2.0955      Z       0.0377
       Tot       3.2596
    Quadrupole Moments (Debye-Ang)
        XX     -36.4582     XY      -3.2581     YY     -44.6624
        XZ       0.6936     YZ      -0.5784     ZZ     -37.9465
    Octopole Moments (Debye-Ang^2)
       XXX     -17.2352    XXY      -7.5860    XYY     -10.8398
       YYY     -27.1287    XXZ       5.0018    XYZ       1.7850
       YYZ      -3.3344    XZZ     -15.5488    YZZ      -6.8710
       ZZZ      10.7788
    Hexadecapole Moments (Debye-Ang^3)
      XXXX    -351.0807   XXXY     -12.9561   XXYY    -102.8463
      XYYY     -30.8795   YYYY    -218.4538   XXXZ      53.8485
      XXYZ       1.5742   XYYZ      20.8945   YYYZ       6.7414
      XXZZ     -92.9553   XYZZ       0.2591   YYZZ     -71.7762
      XZZZ      31.9254   YZZZ       2.0467   ZZZZ    -198.8715
 -----------------------------------------------------------------
 Calculating analytic gradient of the SCF energy
 Gradient of SCF Energy
            1           2           3           4           5           6
    1   0.0000005   0.0000035  -0.0000072  -0.0000025   0.0000078  -0.0000078
    2   0.0000015  -0.0000006   0.0000083  -0.0000084  -0.0000002  -0.0000002
    3   0.0000027   0.0000077  -0.0000019  -0.0000127   0.0000079  -0.0000020
            7           8           9          10          11          12
    1  -0.0000016   0.0000035   0.0000024  -0.0000004   0.0000044   0.0000036
    2   0.0000038   0.0000013  -0.0000094  -0.0000019  -0.0000047   0.0000126
    3   0.0000059   0.0000074   0.0000056  -0.0000052  -0.0000112   0.0000003
           13
    1  -0.0000060
    2  -0.0000020
    3  -0.0000046
 Max gradient component =       1.268E-05
 RMS gradient           =       5.790E-06
 Gradient time:  CPU 7.48 s  wall 2.06 s
 Geometry Optimization Parameters
   NAtoms,    NIC,     NZ,  NCons,   NDum,   NFix, NCnnct, MaxDiis
       13     108       0       0       0       0       0       0

 Cartesian Hessian Update
 Hessian Updated using Powell/Murtagh-Sargent Update
**WARNING** Small Scalar Product
 Hessian Update Skipped this cycle


** GEOMETRY OPTIMIZATION IN DELOCALIZED INTERNAL COORDINATES **
   Searching for a Transition State

   Optimization Cycle:  43

                       Coordinates (Angstroms)
     ATOM                X               Y               Z
      1  C         1.7688905851    0.2991778373   -0.0192515042
      2  C         1.1575412203   -0.8918493987   -0.4172879622
      3  C        -0.1263394556   -0.5180149341   -0.8803221795
      4  C        -1.3058432277    0.0589573387    0.4392140055
      5  C        -0.1618106675    0.9447461255   -0.7043042405
      6  N         1.0051264986    1.4029508509   -0.1909472624
      7  H         2.7631091029    0.3969380248    0.4082854622
      8  H         1.5495446507   -1.8965828980   -0.3324179653
      9  H        -0.7922114606   -1.1075734751   -1.5003215341
     10  H        -2.2946341619    0.1752079283   -0.0106027073
     11  H        -0.8618603385    1.6254355191   -1.1775627827
     12  C        -1.1121103456   -0.1872009528    1.7035902191
     13  H        -1.6121776112   -0.3333940169    2.6471608868
   Point Group: c1    Number of degrees of freedom:    33


   Energy is   -286.792752388

 Hessian Updated using Powell/Murtagh-Sargent Update
**WARNING** Small Scalar Product
 Hessian Update Skipped this cycle

 33 Hessian modes will be used to form the next step
  Hessian Eigenvalues:
    -0.055586    0.002358    0.008846    0.010532    0.014090    0.016015
     0.021100    0.024384    0.029950    0.032285    0.036236    0.040996
     0.045771    0.055623    0.068747    0.075975    0.102920    0.108137
     0.117887    0.122602    0.161787    0.235966    0.328137    0.347101
     0.349896    0.353779    0.353966    0.368349    0.370943    0.406449
     0.444796    0.573203    0.632281

 Transition State Search - Taking P-RFO Step
 Searching for Lamda that Maximizes Along the Lowest mode
 Value Taken    Lamda =   0.00000000
 Searching for Lamda that Minimizes Along All other modes
 Value Taken    Lamda =   0.00000000
 Step Taken.  Stepsize is  0.000631

                             Maximum     Tolerance    Cnvgd?
         Gradient           0.000009      0.000010     YES
         Displacement       0.000271      0.001200     YES
         Energy change     -0.000000      0.000001     YES


                       Distance Matrix (Angstroms)
             C (  1)   C (  2)   C (  3)   C (  4)   C (  5)   N (  6)
   C (  2)  1.396684
   C (  3)  2.236324  1.415098
   C (  4)  3.117994  2.775949  1.861532
   C (  5)  2.147944  2.279507  1.473740  1.844198
   N (  6)  1.353192  2.310967  2.333573  2.746635  1.354706
   H (  7)  1.086653  2.218196  3.293412  4.083082  3.176965  2.112261
   H (  8)  2.228800  1.081831  2.238132  3.545814  3.337692  3.347137
   H (  9)  3.275937  2.240766  1.084142  2.320864  2.289774  3.353747
   H ( 10)  4.065425  3.636141  2.436898  1.092500  2.371149  3.525379
   H ( 11)  3.165674  3.315528  2.285546  2.294546  1.085072  2.123335
   C ( 12)  3.391889  3.185274  2.785280  1.302603  2.825302  3.255848
   H ( 13)  4.352186  4.168220  3.832093  2.263362  3.869047  4.233206
             H (  7)   H (  8)   H (  9)   H ( 10)   H ( 11)   C ( 12)
   H (  8)  2.698447
   H (  9)  4.306581  2.733195
   H ( 10)  5.079901  4.378766  2.474281
   H ( 11)  4.143009  4.351294  2.752883  2.348999
   C ( 12)  4.127512  3.761878  3.348801  2.113802  3.413110
   H ( 13)  4.968811  4.617135  4.298059  2.790722  4.362167  1.077852

 
 Final energy is   -286.792752388239     


 ******************************
 **  OPTIMIZATION CONVERGED  **
 ******************************

                       Coordinates (Angstroms)
     ATOM                X               Y               Z
      1  C         1.7688905851    0.2991778373   -0.0192515042
      2  C         1.1575412203   -0.8918493987   -0.4172879622
      3  C        -0.1263394556   -0.5180149341   -0.8803221795
      4  C        -1.3058432277    0.0589573387    0.4392140055
      5  C        -0.1618106675    0.9447461255   -0.7043042405
      6  N         1.0051264986    1.4029508509   -0.1909472624
      7  H         2.7631091029    0.3969380248    0.4082854622
      8  H         1.5495446507   -1.8965828980   -0.3324179653
      9  H        -0.7922114606   -1.1075734751   -1.5003215341
     10  H        -2.2946341619    0.1752079283   -0.0106027073
     11  H        -0.8618603385    1.6254355191   -1.1775627827
     12  C        -1.1121103456   -0.1872009528    1.7035902191
     13  H        -1.6121776112   -0.3333940169    2.6471608868

Z-matrix Print:
$molecule
0 2
N 
C  1 1.353192
H  2 1.086653 1 119.534249
C  1 1.354706 2 104.973805 3 -178.631435 0
H  4 1.085072 1 120.586508 2 -164.072344 0
C  2 1.396684 1 114.353260 3 179.372055 0
H  6 1.081831 2 127.663078 1 -176.809463 0
C  6 1.415098 2 105.372940 1 -0.452257 0
H  8 1.084142 6 126.920492 2 162.777307 0
C  4 1.844198 1 117.506348 2 73.757950 0
H  10 1.092500 4 104.776271 1 155.735806 0
C  10 1.302603 4 126.896452 1 -0.459246 0
H  12 1.077852 10 143.741494 4 150.498338 0
$end

 
 --------------------------------------------------------------
 
                    Orbital Energies (a.u.)
 --------------------------------------------------------------
 
 Alpha MOs
 -- Occupied --
-14.299 -10.237 -10.234 -10.223 -10.220 -10.205 -10.174  -0.944
 -0.801  -0.748  -0.715  -0.589  -0.566  -0.538  -0.517  -0.479
 -0.437  -0.407  -0.384  -0.377  -0.325  -0.288  -0.252  -0.234
 -0.212
 -- Virtual --
 -0.039   0.012   0.095   0.109   0.114   0.142   0.152   0.164
  0.174   0.191   0.234   0.241   0.296   0.370   0.390   0.459
  0.464   0.487   0.512   0.526   0.556   0.579   0.594   0.621
  0.639   0.648   0.652   0.670   0.699   0.713   0.779   0.805
  0.817   0.825   0.846   0.856   0.877   0.896   0.918   0.943
  0.996   1.005   1.025   1.067   1.106   1.150   1.296   1.334
  1.382   1.383   1.407   1.463   1.547   1.559   1.593   1.611
  1.699   1.708   1.769   1.832   1.909   1.974   1.990   2.026
  2.049   2.065   2.134   2.207   2.233   2.247   2.267   2.350
  2.380   2.400   2.435   2.580   2.599   2.618   2.659   2.709
  2.741   2.806   2.878   2.953   3.027   3.954   4.046   4.179
  4.233   4.345   4.439   4.499
 
 Beta MOs
 -- Occupied --
-14.300 -10.239 -10.232 -10.219 -10.207 -10.205 -10.175  -0.944
 -0.794  -0.742  -0.705  -0.579  -0.565  -0.528  -0.516  -0.468
 -0.431  -0.407  -0.383  -0.374  -0.320  -0.280  -0.249  -0.208
 -- Virtual --
 -0.092  -0.026   0.019   0.102   0.113   0.119   0.144   0.153
  0.168   0.176   0.197   0.235   0.243   0.297   0.372   0.405
  0.461   0.472   0.504   0.522   0.539   0.562   0.591   0.597
  0.620   0.641   0.654   0.662   0.674   0.701   0.716   0.782
  0.805   0.819   0.826   0.846   0.858   0.882   0.911   0.919
  0.947   1.001   1.013   1.028   1.074   1.113   1.152   1.299
  1.336   1.384   1.392   1.410   1.463   1.549   1.566   1.597
  1.612   1.710   1.765   1.800   1.851   1.912   1.978   2.014
  2.026   2.050   2.066   2.148   2.210   2.235   2.250   2.273
  2.353   2.383   2.401   2.439   2.580   2.601   2.622   2.660
  2.719   2.748   2.822   2.879   2.953   3.027   3.956   4.064
  4.188   4.241   4.345   4.440   4.500
 --------------------------------------------------------------
 
          Ground-State Mulliken Net Atomic Charges

     Atom                 Charge (a.u.)    Spin (a.u.)
  --------------------------------------------------------
      1 C                     0.020289       0.046049
      2 C                    -0.124590      -0.062297
      3 C                    -0.173559       0.106059
      4 C                    -0.208343      -0.203068
      5 C                     0.028439       0.068620
      6 N                    -0.390564      -0.054092
      7 H                     0.133321      -0.001737
      8 H                     0.130019       0.002628
      9 H                     0.167071      -0.006435
     10 H                     0.178197       0.073518
     11 H                     0.163962      -0.004885
     12 C                    -0.108884       1.051788
     13 H                     0.184640      -0.016148
  --------------------------------------------------------
  Sum of atomic charges =     0.000000
  Sum of spin   charges =     1.000000

 -----------------------------------------------------------------
                    Cartesian Multipole Moments
 -----------------------------------------------------------------
    Charge (ESU x 10^10)
                -0.0000
    Dipole Moment (Debye)
         X      -2.4965      Y      -2.0955      Z       0.0377
       Tot       3.2596
    Quadrupole Moments (Debye-Ang)
        XX     -36.4582     XY      -3.2581     YY     -44.6624
        XZ       0.6936     YZ      -0.5784     ZZ     -37.9465
    Octopole Moments (Debye-Ang^2)
       XXX     -17.2352    XXY      -7.5860    XYY     -10.8398
       YYY     -27.1287    XXZ       5.0018    XYZ       1.7850
       YYZ      -3.3344    XZZ     -15.5488    YZZ      -6.8710
       ZZZ      10.7788
    Hexadecapole Moments (Debye-Ang^3)
      XXXX    -351.0807   XXXY     -12.9561   XXYY    -102.8463
      XYYY     -30.8795   YYYY    -218.4538   XXXZ      53.8485
      XXYZ       1.5742   XYYZ      20.8945   YYYZ       6.7414
      XXZZ     -92.9553   XYZZ       0.2591   YYZZ     -71.7762
      XZZZ      31.9254   YZZZ       2.0467   ZZZZ    -198.8715
 -----------------------------------------------------------------
Archival summary:
1\1\c8-89\TS\ProcedureUnspecified\6-31G*\166(2)\hpark21\WedMar210:46:092022WedMar210:46:092022\0\\#,TS,ProcedureUnspecified,6-31G*,\\0,2\N\C,1,1.35319\H,2,1.08665,1,119.534\C,1,1.35471,2,104.974,3,-178.631,0\H,4,1.08507,1,120.587,2,-164.072,0\C,2,1.39668,1,114.353,3,179.372,0\H,6,1.08183,2,127.663,1,-176.809,0\C,6,1.4151,2,105.373,1,-0.452257,0\H,8,1.08414,6,126.92,2,162.777,0\C,4,1.8442,1,117.506,2,73.7579,0\H,10,1.0925,4,104.776,1,155.736,0\C,10,1.3026,4,126.896,1,-0.459246,0\H,12,1.07785,10,143.741,4,150.498,0\\\@

 Total job time:  1828.17s(wall), 1982.90s(cpu) 
 Wed Mar  2 10:46:09 2022

        *************************************************************
        *                                                           *
        *  Thank you very much for using Q-Chem.  Have a nice day.  *
        *                                                           *
        *************************************************************


