
Running Job 1 of 1 qcts2.in
qchem qcts2.in_126338.0 ./qcts2.d/ 1
/home/leeping/opt/qchem/5.0.2-openmp/exe/qcprog.exe_s qcts2.in_126338.0 ./qcts2.d/
Check license passed

                  Welcome to Q-Chem
     A Quantum Leap Into The Future Of Chemistry


 Q-Chem 5.0, Q-Chem, Inc., Pleasanton, CA (2017)

 Yihan Shao,  Zhengting Gan,  E. Epifanovsky,  A. T. B. Gilbert,  M. Wormit,  
 J. Kussmann,  A. W. Lange,  A. Behn,  Jia Deng,  Xintian Feng,  D. Ghosh,  
 M. Goldey,  P. R. Horn,  L. D. Jacobson,  I. Kaliman,  T. Kus,  A. Landau,  
 Jie Liu,  E. I. Proynov,  R. M. Richard,  R. P. Steele,  E. J. Sundstrom,  
 H. L. Woodcock III,  P. M. Zimmerman,  D. Zuev,  B. Albrecht,  E. Alguire,  
 S. A. Baeppler,  D. Barton,  Z. Benda,  Y. A. Bernard,  E. J. Berquist,  
 K. B. Bravaya,  H. Burton,  D. Casanova,  Chun-Min Chang,  Yunqing Chen,  
 A. Chien,  K. D. Closser,  M. P. Coons,  S. Dasgupta,  A. L. Dempwolff,  
 M. Diedenhofen,  Hainam Do,  R. G. Edgar,  Po-Tung Fang,  S. Fatehi,  
 Qingguo Feng,  J. Fosso-Tande,  Qinghui Ge,  A. Ghysels,  G. Gidofalvi,  
 J. Gomes,  J. Gonthier,  A. Gunina,  M. W. D. Hanson-Heine,  
 P. H. P. Harbach,  A. W. Hauser,  J. E. Herr,  E. G. Hohenstein,  
 Z. C. Holden,  Kerwin Hui,  T.-C. Jagau,  Hyunjun Ji,  B. Kaduk,  
 K. Khistyaev,  Jaehoon Kim,  P. Klunzinger,  K. Koh,  D. Kosenkov,  
 L. Koulias,  T. Kowalczyk,  C. M. Krauter,  A. Kunitsa,  Ka Un Lao,  
 A. Laurent,  K. V. Lawler,  Joonho Lee,  D. Lefrancois,  S. Lehtola,  
 D. S. Levine,  Yi-Pei Li,  You-Sheng Lin,  Fenglai Liu,  E. Livshits,  
 A. Luenser,  P. Manohar,  E. Mansoor,  S. F. Manzer,  Shan-Ping Mao,  
 Yuezhi Mao,  N. Mardirossian,  A. V. Marenich,  T. Markovich,  
 L. A. Martinez-Martinez,  S. A. Maurer,  N. J. Mayhall,  S. C. McKenzie,  
 J.-M. Mewes,  A. F. Morrison,  J. W. Mullinax,  K. Nanda,  
 T. S. Nguyen-Beck,  R. Olivares-Amaya,  J. A. Parkhill,  T. M. Perrine,  
 F. Plasser,  S. Prager,  A. Prociuk,  E. Ramos,  D. R. Rehn,  F. Rob,  
 M. Schneider,  N. Sergueev,  S. M. Sharada,  S. Sharma,  D. W. Small,  
 T. Stauch,  T. Stein,  Yu-Chuan Su,  A. J. W. Thom,  A. Tkatchenko,  
 T. Tsuchimochi,  L. Vogt,  O. Vydrov,  M. A. Watson,  J. Wenzel,  
 M. de Wergifosse,  T. A. Wesolowski,  A. White,  J. Witte,  A. Yamada,  
 Jun Yang,  K. Yao,  S. Yeganeh,  S. R. Yost,  Zhi-Qiang You,  A. Zech,  
 Igor Ying Zhang,  Xing Zhang,  Yan Zhao,  Ying Zhu,  B. R. Brooks,  
 G. K. L. Chan,  C. J. Cramer,  M. S. Gordon,  W. J. Hehre,  A. Klamt,  
 M. W. Schmidt,  C. D. Sherrill,  D. G. Truhlar,  A. Aspuru-Guzik,  R. Baer,  
 A. T. Bell,  N. A. Besley,  Jeng-Da Chai,  R. A. DiStasio Jr.,  A. Dreuw,  
 B. D. Dunietz,  T. R. Furlani,  Chao-Ping Hsu,  Yousung Jung,  Jing Kong,  
 D. S. Lambrecht,  WanZhen Liang,  C. Ochsenfeld,  V. A. Rassolov,  
 L. V. Slipchenko,  J. E. Subotnik,  T. Van Voorhis,  J. M. Herbert,  
 A. I. Krylov,  P. M. W. Gill,  M. Head-Gordon

 Contributors to earlier versions of Q-Chem not listed above: 
 R. D. Adamson,  B. Austin,  J. Baker,  G. J. O. Beran,  K. Brandhorst,  
 S. T. Brown,  E. F. C. Byrd,  A. K. Chakraborty,  C.-L. Cheng,  
 Siu Hung Chien,  D. M. Chipman,  D. L. Crittenden,  H. Dachsel,  
 R. J. Doerksen,  A. D. Dutoi,  L. Fusti-Molnar,  W. A. Goddard III,  
 A. Golubeva-Zadorozhnaya,  S. R. Gwaltney,  G. Hawkins,  A. Heyden,  
 S. Hirata,  G. Kedziora,  F. J. Keil,  C. Kelley,  Jihan Kim,  R. A. King,  
 R. Z. Khaliullin,  P. P. Korambath,  W. Kurlancheek,  A. M. Lee,  M. S. Lee,  
 S. V. Levchenko,  Ching Yeh Lin,  D. Liotard,  R. C. Lochan,  I. Lotan,  
 P. E. Maslen,  N. Nair,  D. P. O'Neill,  D. Neuhauser,  E. Neuscamman,  
 C. M. Oana,  R. Olson,  B. Peters,  R. Peverati,  P. A. Pieniazek,  
 Y. M. Rhee,  J. Ritchie,  M. A. Rohrdanz,  E. Rosta,  N. J. Russ,  
 H. F. Schaefer III,  N. E. Schultz,  N. Shenvi,  A. C. Simmonett,  A. Sodt,  
 D. Stuck,  K. S. Thanthiriwatte,  V. Vanovschi,  Tao Wang,  A. Warshel,  
 C. F. Williams,  Q. Wu,  X. Xu,  W. Zhang

 Please cite Q-Chem as follows:
 Y. Shao et al., Mol. Phys. 113, 184-215 (2015)
 DOI: 10.1080/00268976.2014.952696

 Q-Chem 5.0.2 for Intel X86 EM64T Linux

 Parts of Q-Chem use Armadillo 5.200.1 (Boston Tea Smuggler).
 http://arma.sourceforge.net/

 Q-Chem begins on Wed Mar  2 10:50:54 2022  

Host: 
0

     Scratch files written to ./qcts2.d//
 Dec517 15110_ 26548  26544 5633   
Processing $rem in /home/leeping/opt/qchem/5.0.2-openmp/config/preferences.
 MEM_STATIC 2000
 MEM_TOTAL  8000
 SYMMETRY   OFF
 SYM_IGNORE TRUE 

Checking the input file for inconsistencies... 	...done.

--------------------------------------------------------------
User input:
--------------------------------------------------------------
$molecule
0 2
C        1.7688905851    0.2991778373   -0.0192515042
C        1.1575412203   -0.8918493987   -0.4172879622
C       -0.1263394556   -0.5180149341   -0.8803221795
C       -1.3058432277    0.0589573387    0.4392140055
C       -0.1618106675    0.9447461255   -0.7043042405
N        1.0051264986    1.4029508509   -0.1909472624
H        2.7631091029    0.3969380248    0.4082854622
H        1.5495446507   -1.8965828980   -0.3324179653
H       -0.7922114606   -1.1075734751   -1.5003215341
H       -2.2946341619    0.1752079283   -0.0106027073
H       -0.8618603385    1.6254355191   -1.1775627827
C       -1.1121103456   -0.1872009528    1.7035902191
H       -1.6121776112   -0.3333940169    2.6471608868
$end

$rem
method                b3lyp
basis                 6-31+g(d,p)
unrestricted          true
symmetry              off
sym_ignore            true
incdft                false
incfock               0
scf_convergence       8
thresh                14
jobtype               sp
scf_guess             core
scf_guess_mix         5
scf_algorithm         diis
max_scf_cycles        100
$end

--------------------------------------------------------------
 ----------------------------------------------------------------
             Standard Nuclear Orientation (Angstroms)
    I     Atom           X                Y                Z
 ----------------------------------------------------------------
    1      C       1.7688905851     0.2991778373    -0.0192515042
    2      C       1.1575412203    -0.8918493987    -0.4172879622
    3      C      -0.1263394556    -0.5180149341    -0.8803221795
    4      C      -1.3058432277     0.0589573387     0.4392140055
    5      C      -0.1618106675     0.9447461255    -0.7043042405
    6      N       1.0051264986     1.4029508509    -0.1909472624
    7      H       2.7631091029     0.3969380248     0.4082854622
    8      H       1.5495446507    -1.8965828980    -0.3324179653
    9      H      -0.7922114606    -1.1075734751    -1.5003215341
   10      H      -2.2946341619     0.1752079283    -0.0106027073
   11      H      -0.8618603385     1.6254355191    -1.1775627827
   12      C      -1.1121103456    -0.1872009528     1.7035902191
   13      H      -1.6121776112    -0.3333940169     2.6471608868
 ----------------------------------------------------------------
 Nuclear Repulsion Energy =   266.0464238868 hartrees
 There are       25 alpha and       24 beta electrons
 Requested basis set is 6-31+G(d,p)
 There are 53 shells and 163 basis functions

 Total QAlloc Memory Limit   8000 MB
 Mega-Array Size      1956 MB
 MEM_STATIC part      2000 MB

                       Distance Matrix (Angstroms)
             C (  1)   C (  2)   C (  3)   C (  4)   C (  5)   N (  6)
   C (  2)  1.396684
   C (  3)  2.236324  1.415098
   C (  4)  3.117994  2.775949  1.861532
   C (  5)  2.147944  2.279507  1.473740  1.844198
   N (  6)  1.353192  2.310967  2.333573  2.746635  1.354706
   H (  7)  1.086653  2.218196  3.293412  4.083082  3.176965  2.112261
   H (  8)  2.228800  1.081831  2.238132  3.545814  3.337692  3.347137
   H (  9)  3.275937  2.240766  1.084142  2.320864  2.289774  3.353747
   H ( 10)  4.065425  3.636141  2.436898  1.092500  2.371149  3.525379
   H ( 11)  3.165674  3.315528  2.285546  2.294546  1.085072  2.123335
   C ( 12)  3.391889  3.185274  2.785280  1.302603  2.825302  3.255848
   H ( 13)  4.352186  4.168220  3.832093  2.263362  3.869047  4.233206
             H (  7)   H (  8)   H (  9)   H ( 10)   H ( 11)   C ( 12)
   H (  8)  2.698447
   H (  9)  4.306581  2.733195
   H ( 10)  5.079901  4.378766  2.474281
   H ( 11)  4.143009  4.351294  2.752883  2.348999
   C ( 12)  4.127512  3.761878  3.348801  2.113802  3.413110
   H ( 13)  4.968811  4.617135  4.298059  2.790722  4.362167  1.077852

 
 A cutoff of  1.0D-14 yielded   1385 shell pairs
 There are     13455 function pairs
 
 -------------------------------------------------------
 OpenMP Integral Computing Module                       
 Release: version 1.0, May 2013, Q-Chem Inc. Pittsburgh 
 -------------------------------------------------------
 Integral Job Info:
 Integral job number is                      11
 Integral operator is                         1
 short-range coefficients                     0
 long-range coefficients              100000000
 Omega coefficients                           0
 if combine SR and LR in K                    0
 Integral screening is                        0
 Integral computing path is                   2
 max size of driver memory is            800000
 size of driver memory is                593474
 size of scratch memory is              2361544
 max col of scratch BK array               1296
 max len of scratch array in speh3          155
 max len of scratch index in speh4           18
 max int batch size is                      520
 min int batch size is                       52
 fixed nKL is                                52
 max L of basis functions is                  2
 order of int derivative is                   0
 number of shells is                         53
 number of basis is                         163
 number of cartesian basis is               163
 number of contracted shell pairs          1385
 number of primitive shell pairs           4667
 maxK2 (contraction) of shell pair           36
 max number of K2 of shell pair               1
 max number of CS2 of shell pair            130
 max number of PS2 of shell pair            738
 mem total for path MDJ                  535308
 -------------------------------------------------------
 Smallest overlap matrix eigenvalue = 1.97E-05

 Scale SEOQF with 1.000000e-01/1.000000e-01/1.000000e-01

 Standard Electronic Orientation quadrupole field applied
 Nucleus-field energy     =     0.0000000009 hartrees
 Guess MOs from core Hamiltonian diagonalization
 Mixing HOMO and LUMO in initial guess
 Adding  50% of the LUMO to the HOMO
 An unrestricted hybrid HF-DFT SCF calculation will be
 performed using Pulay DIIS extrapolation
 Exchange:     0.2000 Hartree-Fock + 0.0800 Slater + 0.7200 B88
 Correlation:  0.1900 VWN1RPA + 0.8100 LYP
 Using SG-1 standard quadrature grid
 SCF converges when DIIS error is below 1.0E-08
 using 4 threads for integral computing
 -------------------------------------------------------
 OpenMP Integral computing Module                
 Release: version 1.0, May 2013, Q-Chem Inc. Pittsburgh 
 -------------------------------------------------------
 -------------------------------------------------------
 OpenMP BLAS3 based DFT computing Module                
 Release: version 1.0, May 2013, Q-Chem Inc. Pittsburgh 
 -------------------------------------------------------
 ---------------------------------------
  Cycle       Energy         DIIS Error
 ---------------------------------------
    1    -226.6388740109      1.04E-01
    2    -184.0040849212      9.79E-02
    3    -249.3041108618      6.84E-02
    4    -237.0600631575      8.78E-02
    5    -285.2216759423      1.73E-02
    6    -282.5432169735      2.66E-02
    7    -286.6007159163      7.14E-03
    8    -286.7428583299      4.36E-03
    9    -286.7977090465      2.15E-03
   10    -286.8133419277      6.89E-04
   11    -286.8152846803      5.35E-04
   12    -286.8162923438      2.82E-04
   13    -286.8168362340      7.81E-05
   14    -286.8168858350      3.38E-05
   15    -286.8168968102      1.00E-05
   16    -286.8169030681      3.52E-06
   17    -286.8169073419      1.89E-06
   18    -286.8169100324      1.17E-06
   19    -286.8169113301      5.97E-07
   20    -286.8169117661      1.93E-07
   21    -286.8169118183      7.91E-08
   22    -286.8169118311      4.04E-08
   23    -286.8169118357      1.65E-08
   24    -286.8169118363      3.98E-09 Convergence criterion met
 ---------------------------------------
 <S^2> = 0.7731
 SCF time:  CPU 123.06 s  wall 62.03 s
 SCF   energy in the final basis set = -286.81691184
 Total energy in the final basis set = -286.81691184
 
 --------------------------------------------------------------
 
                    Orbital Energies (a.u.)
 --------------------------------------------------------------
 
 Alpha MOs
 -- Occupied --
-14.315 -10.249 -10.245 -10.235 -10.232 -10.217 -10.186  -0.958
 -0.814  -0.760  -0.726  -0.599  -0.576  -0.547  -0.527  -0.488
 -0.448  -0.418  -0.394  -0.387  -0.337  -0.300  -0.265  -0.246
 -0.225
 -- Virtual --
 -0.057  -0.014   0.003   0.020   0.022   0.029   0.047   0.049
  0.063   0.068   0.078   0.088   0.094   0.102   0.104   0.119
  0.121   0.126   0.132   0.139   0.155   0.160   0.175   0.180
  0.189   0.197   0.202   0.211   0.212   0.230   0.242   0.250
  0.265   0.269   0.275   0.279   0.284   0.308   0.321   0.332
  0.407   0.431   0.460   0.493   0.595   0.630   0.666   0.677
  0.701   0.719   0.732   0.745   0.754   0.761   0.774   0.786
  0.827   0.853   0.882   0.890   0.896   0.924   0.952   0.967
  1.023   1.033   1.041   1.062   1.070   1.100   1.117   1.142
  1.179   1.213   1.290   1.319   1.358   1.368   1.386   1.406
  1.479   1.523   1.533   1.593   1.643   1.675   1.719   1.789
  1.867   1.872   1.924   1.955   1.981   2.013   2.032   2.043
  2.076   2.163   2.170   2.219   2.232   2.311   2.333   2.385
  2.404   2.421   2.434   2.468   2.482   2.506   2.545   2.569
  2.579   2.609   2.615   2.663   2.684   2.737   2.744   2.763
  2.827   2.900   2.942   3.043   3.195   3.260   3.293   3.316
  3.570   3.609   3.752   4.183   4.263   4.410   4.491   4.577
  4.601   4.756
 
 Beta MOs
 -- Occupied --
-14.316 -10.251 -10.244 -10.230 -10.220 -10.216 -10.186  -0.958
 -0.806  -0.754  -0.716  -0.590  -0.575  -0.537  -0.526  -0.478
 -0.442  -0.418  -0.393  -0.385  -0.332  -0.293  -0.263  -0.221
 -- Virtual --
 -0.111  -0.046  -0.011   0.008   0.021   0.023   0.030   0.046
  0.049   0.063   0.069   0.079   0.091   0.099   0.102   0.105
  0.122   0.124   0.129   0.137   0.141   0.155   0.160   0.176
  0.180   0.191   0.198   0.203   0.212   0.216   0.232   0.243
  0.250   0.266   0.270   0.277   0.281   0.289   0.310   0.321
  0.332   0.411   0.436   0.464   0.496   0.599   0.654   0.671
  0.688   0.708   0.730   0.734   0.747   0.757   0.764   0.778
  0.790   0.829   0.855   0.883   0.892   0.897   0.931   0.959
  0.970   1.026   1.039   1.047   1.065   1.076   1.102   1.125
  1.145   1.180   1.215   1.294   1.320   1.360   1.370   1.394
  1.410   1.482   1.528   1.537   1.597   1.685   1.691   1.751
  1.794   1.869   1.873   1.941   1.964   1.981   2.020   2.035
  2.046   2.086   2.164   2.174   2.226   2.235   2.313   2.337
  2.387   2.407   2.424   2.436   2.474   2.484   2.508   2.547
  2.570   2.582   2.611   2.616   2.684   2.687   2.738   2.747
  2.769   2.828   2.908   2.946   3.043   3.195   3.261   3.301
  3.319   3.572   3.623   3.752   4.182   4.274   4.415   4.493
  4.592   4.606   4.758
 --------------------------------------------------------------
 
          Ground-State Mulliken Net Atomic Charges

     Atom                 Charge (a.u.)    Spin (a.u.)
  --------------------------------------------------------
      1 C                    -0.077924       0.011751
      2 C                    -0.069256      -0.048744
      3 C                    -0.041024       0.114464
      4 C                    -0.164429      -0.332629
      5 C                    -0.178241       0.098409
      6 N                    -0.227565      -0.047739
      7 H                     0.124710      -0.001548
      8 H                     0.126982       0.002692
      9 H                     0.157372      -0.007074
     10 H                     0.170772       0.073490
     11 H                     0.155753      -0.005294
     12 C                    -0.147464       1.153458
     13 H                     0.170315      -0.011235
  --------------------------------------------------------
  Sum of atomic charges =     0.000000
  Sum of spin   charges =     1.000000

 -----------------------------------------------------------------
                    Cartesian Multipole Moments
 -----------------------------------------------------------------
    Charge (ESU x 10^10)
                 0.0000
    Dipole Moment (Debye)
         X      -2.6633      Y      -2.2491      Z      -0.0329
       Tot       3.4861
    Quadrupole Moments (Debye-Ang)
        XX     -37.6223     XY      -3.6052     YY     -46.5634
        XZ       0.9787     YZ      -0.6702     ZZ     -39.4281
    Octopole Moments (Debye-Ang^2)
       XXX     -17.9078    XXY      -7.9238    XYY     -11.9233
       YYY     -29.7023    XXZ       5.2580    XYZ       1.8027
       YYZ      -4.0297    XZZ     -16.8633    YZZ      -7.1397
       ZZZ      10.4257
    Hexadecapole Moments (Debye-Ang^3)
      XXXX    -367.2015   XXXY     -14.2529   XXYY    -110.2360
      XYYY     -35.4099   YYYY    -238.2140   XXXZ      58.7115
      XXYZ       1.3988   XYYZ      23.0805   YYYZ       6.8034
      XXZZ     -99.5551   XYZZ       0.5688   YYZZ     -78.2757
      XZZZ      34.0351   YZZZ       1.1888   ZZZZ    -214.5257
 -----------------------------------------------------------------
Archival summary:
1\1\c8-89\SP\ProcedureUnspecified\6-31+G**\166(2)\hpark21\WedMar210:52:082022WedMar210:52:082022\0\\#,ProcedureUnspecified,6-31+G**,\\0,2\N\C,1,1.35319\H,2,1.08665,1,119.534\C,1,1.35471,2,104.974,3,-178.631,0\H,4,1.08507,1,120.587,2,-164.072,0\C,2,1.39668,1,114.353,3,179.372,0\H,6,1.08183,2,127.663,1,-176.809,0\C,6,1.4151,2,105.373,1,-0.452257,0\H,8,1.08414,6,126.92,2,162.777,0\C,4,1.8442,1,117.506,2,73.7579,0\H,10,1.0925,4,104.776,1,155.736,0\C,10,1.3026,4,126.896,1,-0.459246,0\H,12,1.07785,10,143.741,4,150.498,0\\\@

 Total job time:  73.92s(wall), 125.03s(cpu) 
 Wed Mar  2 10:52:08 2022

        *************************************************************
        *                                                           *
        *  Thank you very much for using Q-Chem.  Have a nice day.  *
        *                                                           *
        *************************************************************


