13   
From optimize.out: Frame 2 / 3, Energy=    -286.8383134969
C        1.5482631015    0.2439600781   -0.2499162964
C        0.5831613954   -0.9257548257   -0.0945058348
C       -0.7090733236   -0.3596409117   -0.7859874656
C       -1.1198146451    0.1988849191    0.5900884062
C       -0.4422720388    1.0837288812   -0.5510927869
N        0.9666768840    1.3699051016   -0.4517862960
H        2.6206041138    0.1766951608   -0.0731473905
H        0.9604500354   -1.9282857562   -0.3077102016
H       -1.3183502057   -0.8222857861   -1.5565333331
H       -2.0927552132    0.5054232907    0.9613640526
H       -1.0832845491    1.8562957945   -0.9634132650
C       -0.1337518241   -0.6625006690    1.2284612501
H        0.2201462699   -0.7364252773    2.2541791605
13   
From optimize.out: Frame 1 / 2, Energy=    -286.9243488101
C        1.4820991299    0.2725424787   -0.7656308041
C        1.0840257784   -1.0146457698   -0.4541019803
C       -0.1320596948   -1.4384496080    0.1910028003
C       -1.2190331892    0.7946116283    0.5410725102
C       -0.2920239079    1.6649143012    0.0010751015
N        0.9149157957    1.4872326232   -0.5873994130
H        2.4545514498    0.3436145674   -1.2579293577
H        1.7798790837   -1.8022204571   -0.7330779992
H       -0.2403507677   -2.5109582831    0.3402085090
H       -2.1144497973    1.2568458348    0.9497509139
H       -0.5713653482    2.7196519059    0.0483175314
C       -1.1473142860   -0.6418809140    0.6292035782
H       -1.9988742464   -1.1312583075    1.0975086099
