13   
Frame   0 IRC: Energy =  -286.8593580000 ; +0.0000 kcal/mol
C       -0.0525200000    0.0538150000   -0.0000000000
C       -0.0272720000   -0.1153870000   -0.0000000000
C       -0.0622110000    0.0864180000   -0.0000000000
C       -0.0534230000   -0.1550440000    0.0000000000
C       -0.2909270000    0.1042510000   -0.0000000000
N       -0.1710370000    0.0356720000   -0.0000000000
H        0.1312020000    0.0010530000   -0.0000000000
H        0.1337330000    0.0236090000   -0.0000000000
H        0.1333030000    0.0003000000   -0.0000000000
H        0.1385930000    0.0052080000    0.0000000000
H        0.1442230000    0.0035240000   -0.0000000000
C       -0.1544720000    0.9795650000    0.0000000000
H        0.1308100000   -0.0229840000    0.0000000000
13   
Frame   1 IRC: Energy =  -286.8593550000 ; +0.0019 kcal/mol
C       -0.0524720000    0.0540290000   -0.0000000000
C       -0.0275540000   -0.1153690000   -0.0000000000
C       -0.0622360000    0.0866740000   -0.0000000000
C       -0.0534810000   -0.1551100000    0.0000000000
C       -0.2907230000    0.1042490000   -0.0000000000
N       -0.1710120000    0.0355970000   -0.0000000000
H        0.1312110000    0.0010420000   -0.0000000000
H        0.1337220000    0.0235830000   -0.0000000000
H        0.1333520000    0.0002930000   -0.0000000000
H        0.1385930000    0.0051980000    0.0000000000
H        0.1442080000    0.0035300000   -0.0000000000
C       -0.1544340000    0.9792890000    0.0000000000
H        0.1308250000   -0.0230050000    0.0000000000
13   
Frame   2 IRC: Energy =  -286.8593340000 ; +0.0151 kcal/mol
C       -0.0516900000    0.0538640000   -0.0000000000
C       -0.0280680000   -0.1156190000   -0.0000000000
C       -0.0619570000    0.0882070000   -0.0000000000
C       -0.0544400000   -0.1549170000    0.0000000000
C       -0.2907040000    0.1032780000   -0.0000000000
N       -0.1712890000    0.0355000000   -0.0000000000
H        0.1311600000    0.0010700000   -0.0000000000
H        0.1336090000    0.0234490000   -0.0000000000
H        0.1334310000    0.0003410000   -0.0000000000
H        0.1385340000    0.0051610000    0.0000000000
H        0.1441980000    0.0035810000   -0.0000000000
C       -0.1537950000    0.9795040000    0.0000000000
H        0.1310120000   -0.0234200000    0.0000000000
13   
Frame   3 IRC: Energy =  -286.8593290000 ; +0.0182 kcal/mol
C       -0.0515800000    0.0540710000   -0.0000000000
C       -0.0284020000   -0.1155960000   -0.0000000000
C       -0.0620190000    0.0885390000   -0.0000000000
C       -0.0545430000   -0.1549930000    0.0000000000
C       -0.2904710000    0.1032450000   -0.0000000000
N       -0.1712490000    0.0353990000   -0.0000000000
H        0.1311640000    0.0010590000   -0.0000000000
H        0.1335930000    0.0234070000   -0.0000000000
H        0.1334930000    0.0003330000   -0.0000000000
H        0.1385360000    0.0051500000    0.0000000000
H        0.1441820000    0.0035870000   -0.0000000000
C       -0.1537420000    0.9792440000    0.0000000000
H        0.1310380000   -0.0234460000    0.0000000000
13   
Frame   4 IRC: Energy =  -286.8593030000 ; +0.0345 kcal/mol
C       -0.0509020000    0.0539130000   -0.0000000000
C       -0.0289610000   -0.1158610000   -0.0000000000
C       -0.0616150000    0.0901310000   -0.0000000000
C       -0.0555040000   -0.1547600000    0.0000000000
C       -0.2903850000    0.1022210000   -0.0000000000
N       -0.1716200000    0.0353780000   -0.0000000000
H        0.1311400000    0.0010820000   -0.0000000000
H        0.1334830000    0.0232880000   -0.0000000000
H        0.1335570000    0.0003850000   -0.0000000000
H        0.1384750000    0.0051070000    0.0000000000
H        0.1441680000    0.0036400000   -0.0000000000
C       -0.1530750000    0.9793900000    0.0000000000
H        0.1312390000   -0.0239140000    0.0000000000
13   
Frame   5 IRC: Energy =  -286.8592970000 ; +0.0383 kcal/mol
C       -0.0506760000    0.0540850000   -0.0000000000
C       -0.0293120000   -0.1158560000   -0.0000000000
C       -0.0616930000    0.0904850000   -0.0000000000
C       -0.0556570000   -0.1548350000    0.0000000000
C       -0.2901420000    0.1022280000   -0.0000000000
N       -0.1715610000    0.0352620000   -0.0000000000
H        0.1311140000    0.0010790000   -0.0000000000
H        0.1334600000    0.0232480000   -0.0000000000
H        0.1336120000    0.0003850000   -0.0000000000
H        0.1384680000    0.0051000000    0.0000000000
H        0.1441540000    0.0036460000   -0.0000000000
C       -0.1530250000    0.9791390000    0.0000000000
H        0.1312580000   -0.0239650000    0.0000000000
13   
Frame   6 IRC: Energy =  -286.8592760000 ; +0.0515 kcal/mol
C       -0.0502170000    0.0538010000   -0.0000000000
C       -0.0296060000   -0.1160410000   -0.0000000000
C       -0.0614400000    0.0915400000   -0.0000000000
C       -0.0563420000   -0.1546040000    0.0000000000
C       -0.2901560000    0.1013510000   -0.0000000000
N       -0.1718470000    0.0353040000   -0.0000000000
H        0.1311060000    0.0011000000   -0.0000000000
H        0.1333840000    0.0231560000   -0.0000000000
H        0.1336450000    0.0004200000   -0.0000000000
H        0.1384260000    0.0050710000    0.0000000000
H        0.1441530000    0.0036820000   -0.0000000000
C       -0.1525290000    0.9795190000    0.0000000000
H        0.1314230000   -0.0242980000    0.0000000000
13   
Frame   7 IRC: Energy =  -286.8592680000 ; +0.0565 kcal/mol
C       -0.0503530000    0.0534940000   -0.0000000000
C       -0.0292600000   -0.1161290000   -0.0000000000
C       -0.0611940000    0.0915710000   -0.0000000000
C       -0.0565430000   -0.1544220000    0.0000000000
C       -0.2904430000    0.1010180000   -0.0000000000
N       -0.1720470000    0.0354680000   -0.0000000000
H        0.1311340000    0.0011130000   -0.0000000000
H        0.1333800000    0.0231720000   -0.0000000000
H        0.1335840000    0.0004380000   -0.0000000000
H        0.1384120000    0.0050680000    0.0000000000
H        0.1441690000    0.0036910000   -0.0000000000
C       -0.1523050000    0.9798980000    0.0000000000
H        0.1314670000   -0.0243800000    0.0000000000
13   
Frame   8 IRC: Energy =  -286.8591820000 ; +0.1104 kcal/mol
C       -0.0483780000    0.0538390000   -0.0000000000
C       -0.0320220000   -0.1164480000   -0.0000000000
C       -0.0607640000    0.0959120000   -0.0000000000
C       -0.0588810000   -0.1542280000    0.0000000000
C       -0.2890120000    0.0990110000   -0.0000000000
N       -0.1725120000    0.0349910000   -0.0000000000
H        0.1310580000    0.0011210000   -0.0000000000
H        0.1330990000    0.0227670000   -0.0000000000
H        0.1339480000    0.0005200000   -0.0000000000
H        0.1383110000    0.0049460000    0.0000000000
H        0.1440850000    0.0038010000   -0.0000000000
C       -0.1509050000    0.9792280000    0.0000000000
H        0.1319740000   -0.0254580000    0.0000000000
13   
Frame   9 IRC: Energy =  -286.8591660000 ; +0.1205 kcal/mol
C       -0.0480680000    0.0534940000   -0.0000000000
C       -0.0320620000   -0.1165620000   -0.0000000000
C       -0.0605630000    0.0963170000   -0.0000000000
C       -0.0592370000   -0.1540230000    0.0000000000
C       -0.2891560000    0.0985220000   -0.0000000000
N       -0.1726930000    0.0350510000   -0.0000000000
H        0.1310330000    0.0011440000   -0.0000000000
H        0.1330600000    0.0227330000   -0.0000000000
H        0.1339160000    0.0005510000   -0.0000000000
H        0.1382860000    0.0049370000    0.0000000000
H        0.1440930000    0.0038170000   -0.0000000000
C       -0.1506660000    0.9796790000    0.0000000000
H        0.1320560000   -0.0256600000    0.0000000000
13   
Frame  10 IRC: Energy =  -286.8591370000 ; +0.1387 kcal/mol
C       -0.0477030000    0.0539020000   -0.0000000000
C       -0.0330600000   -0.1165400000   -0.0000000000
C       -0.0604480000    0.0976520000   -0.0000000000
C       -0.0601200000   -0.1540620000    0.0000000000
C       -0.2884490000    0.0981060000   -0.0000000000
N       -0.1727560000    0.0348030000   -0.0000000000
H        0.1310490000    0.0011250000   -0.0000000000
H        0.1329890000    0.0226070000   -0.0000000000
H        0.1340690000    0.0005580000   -0.0000000000
H        0.1382600000    0.0048920000    0.0000000000
H        0.1440590000    0.0038480000   -0.0000000000
C       -0.1500900000    0.9790040000    0.0000000000
H        0.1322000000   -0.0258950000    0.0000000000
13   
Frame  11 IRC: Energy =  -286.8591160000 ; +0.1519 kcal/mol
C       -0.0473110000    0.0534610000   -0.0000000000
C       -0.0330980000   -0.1166190000   -0.0000000000
C       -0.0602700000    0.0980820000   -0.0000000000
C       -0.0605810000   -0.1538080000    0.0000000000
C       -0.2886610000    0.0974820000   -0.0000000000
N       -0.1729290000    0.0348140000   -0.0000000000
H        0.1310250000    0.0011550000   -0.0000000000
H        0.1329470000    0.0225470000   -0.0000000000
H        0.1340480000    0.0005870000   -0.0000000000
H        0.1382290000    0.0048820000    0.0000000000
H        0.1440750000    0.0038670000   -0.0000000000
C       -0.1497770000    0.9796410000    0.0000000000
H        0.1323050000   -0.0260920000    0.0000000000
13   
Frame  12 IRC: Energy =  -286.8591010000 ; +0.1613 kcal/mol
C       -0.0474940000    0.0530870000   -0.0000000000
C       -0.0328550000   -0.1166300000   -0.0000000000
C       -0.0599350000    0.0980530000   -0.0000000000
C       -0.0604970000   -0.1535780000    0.0000000000
C       -0.2890020000    0.0970080000   -0.0000000000
N       -0.1732270000    0.0350200000   -0.0000000000
H        0.1311180000    0.0011510000   -0.0000000000
H        0.1329520000    0.0225420000   -0.0000000000
H        0.1339700000    0.0005890000   -0.0000000000
H        0.1382050000    0.0048650000    0.0000000000
H        0.1440750000    0.0038630000   -0.0000000000
C       -0.1496440000    0.9802140000    0.0000000000
H        0.1323340000   -0.0261850000    0.0000000000
13   
Frame  13 IRC: Energy =  -286.8588010000 ; +0.3495 kcal/mol
C       -0.0425870000    0.0513440000   -0.0000000000
C       -0.0403850000   -0.1174340000   -0.0000000000
C       -0.0593080000    0.1091660000   -0.0000000000
C       -0.0676600000   -0.1522920000    0.0000000000
C       -0.2835480000    0.0906340000   -0.0000000000
N       -0.1748040000    0.0351870000   -0.0000000000
H        0.1309200000    0.0012400000   -0.0000000000
H        0.1322850000    0.0214970000   -0.0000000000
H        0.1346170000    0.0009330000   -0.0000000000
H        0.1379460000    0.0045400000    0.0000000000
H        0.1439890000    0.0040500000   -0.0000000000
C       -0.1454830000    0.9809370000    0.0000000000
H        0.1340190000   -0.0298010000    0.0000000000
13   
Frame  14 IRC: Energy =  -286.8587740000 ; +0.3665 kcal/mol
C       -0.0424010000    0.0506950000   -0.0000000000
C       -0.0403320000   -0.1175440000   -0.0000000000
C       -0.0590000000    0.1095690000   -0.0000000000
C       -0.0682070000   -0.1519190000    0.0000000000
C       -0.2836880000    0.0898710000   -0.0000000000
N       -0.1751020000    0.0354170000   -0.0000000000
H        0.1309240000    0.0012730000   -0.0000000000
H        0.1322500000    0.0214700000   -0.0000000000
H        0.1345380000    0.0009810000   -0.0000000000
H        0.1379170000    0.0045280000    0.0000000000
H        0.1440150000    0.0040660000   -0.0000000000
C       -0.1450710000    0.9817020000    0.0000000000
H        0.1341560000   -0.0301100000    0.0000000000
13   
Frame  15 IRC: Energy =  -286.8586650000 ; +0.4349 kcal/mol
C       -0.0407860000    0.0499920000   -0.0000000000
C       -0.0433990000   -0.1175680000   -0.0000000000
C       -0.0589940000    0.1131960000   -0.0000000000
C       -0.0706150000   -0.1514940000    0.0000000000
C       -0.2813000000    0.0878500000   -0.0000000000
N       -0.1754620000    0.0354020000   -0.0000000000
H        0.1308740000    0.0012840000   -0.0000000000
H        0.1320490000    0.0210690000   -0.0000000000
H        0.1347740000    0.0010990000   -0.0000000000
H        0.1378540000    0.0044060000    0.0000000000
H        0.1439850000    0.0040940000   -0.0000000000
C       -0.1436670000    0.9819540000    0.0000000000
H        0.1346870000   -0.0312840000    0.0000000000
13   
Frame  16 IRC: Energy =  -286.8586290000 ; +0.4575 kcal/mol
C       -0.0403630000    0.0491410000   -0.0000000000
C       -0.0435600000   -0.1176790000   -0.0000000000
C       -0.0587770000    0.1137630000   -0.0000000000
C       -0.0713360000   -0.1510290000    0.0000000000
C       -0.2812920000    0.0868740000   -0.0000000000
N       -0.1757400000    0.0356510000   -0.0000000000
H        0.1308520000    0.0013310000   -0.0000000000
H        0.1319930000    0.0210110000   -0.0000000000
H        0.1346850000    0.0011620000   -0.0000000000
H        0.1378160000    0.0043900000    0.0000000000
H        0.1440180000    0.0041100000   -0.0000000000
C       -0.1431580000    0.9829770000    0.0000000000
H        0.1348620000   -0.0317000000    0.0000000000
13   
Frame  17 IRC: Energy =  -286.8585280000 ; +0.5208 kcal/mol
C       -0.0393580000    0.0484870000   -0.0000000000
C       -0.0464260000   -0.1175680000   -0.0000000000
C       -0.0585750000    0.1171340000   -0.0000000000
C       -0.0734910000   -0.1505760000    0.0000000000
C       -0.2789220000    0.0849640000   -0.0000000000
N       -0.1761860000    0.0357270000   -0.0000000000
H        0.1308960000    0.0013100000   -0.0000000000
H        0.1318440000    0.0206460000   -0.0000000000
H        0.1349090000    0.0012750000   -0.0000000000
H        0.1377920000    0.0042610000    0.0000000000
H        0.1439790000    0.0041240000   -0.0000000000
C       -0.1418000000    0.9829660000    0.0000000000
H        0.1353370000   -0.0327500000    0.0000000000
13   
Frame  18 IRC: Energy =  -286.8584890000 ; +0.5453 kcal/mol
C       -0.0388820000    0.0474670000   -0.0000000000
C       -0.0466430000   -0.1176810000   -0.0000000000
C       -0.0583270000    0.1176920000   -0.0000000000
C       -0.0742240000   -0.1500170000    0.0000000000
C       -0.2788990000    0.0838130000   -0.0000000000
N       -0.1764700000    0.0360500000   -0.0000000000
H        0.1308710000    0.0013610000   -0.0000000000
H        0.1317840000    0.0205770000   -0.0000000000
H        0.1347930000    0.0013420000   -0.0000000000
H        0.1377630000    0.0042410000    0.0000000000
H        0.1440100000    0.0041380000   -0.0000000000
C       -0.1413020000    0.9842260000    0.0000000000
H        0.1355260000   -0.0332090000    0.0000000000
13   
Frame  19 IRC: Energy =  -286.8583890000 ; +0.6081 kcal/mol
C       -0.0376930000    0.0467890000   -0.0000000000
C       -0.0496770000   -0.1174700000   -0.0000000000
C       -0.0583960000    0.1208510000   -0.0000000000
C       -0.0766970000   -0.1496470000    0.0000000000
C       -0.2762350000    0.0822380000   -0.0000000000
N       -0.1767220000    0.0358990000   -0.0000000000
H        0.1308530000    0.0013510000   -0.0000000000
H        0.1316400000    0.0201950000   -0.0000000000
H        0.1350190000    0.0014890000   -0.0000000000
H        0.1377140000    0.0041210000    0.0000000000
H        0.1440070000    0.0041340000   -0.0000000000
C       -0.1397870000    0.9842770000    0.0000000000
H        0.1359740000   -0.0342250000    0.0000000000
13   
Frame  20 IRC: Energy =  -286.8583350000 ; +0.6419 kcal/mol
C       -0.0373330000    0.0456390000   -0.0000000000
C       -0.0500670000   -0.1175110000   -0.0000000000
C       -0.0584150000    0.1218790000   -0.0000000000
C       -0.0780350000   -0.1491630000    0.0000000000
C       -0.2757970000    0.0808750000   -0.0000000000
N       -0.1769540000    0.0361470000   -0.0000000000
H        0.1308600000    0.0013880000   -0.0000000000
H        0.1315950000    0.0200420000   -0.0000000000
H        0.1350090000    0.0015680000   -0.0000000000
H        0.1377180000    0.0040820000    0.0000000000
H        0.1440770000    0.0041210000   -0.0000000000
C       -0.1390200000    0.9857890000    0.0000000000
H        0.1363620000   -0.0348550000    0.0000000000
13   
Frame  21 IRC: Energy =  -286.8582800000 ; +0.6765 kcal/mol
C       -0.0379890000    0.0446380000   -0.0000000000
C       -0.0491120000   -0.1175250000   -0.0000000000
C       -0.0579540000    0.1216570000   -0.0000000000
C       -0.0781370000   -0.1486150000    0.0000000000
C       -0.2765580000    0.0799160000   -0.0000000000
N       -0.1773840000    0.0366360000   -0.0000000000
H        0.1310050000    0.0014100000   -0.0000000000
H        0.1316390000    0.0200460000   -0.0000000000
H        0.1348770000    0.0016020000   -0.0000000000
H        0.1377290000    0.0040760000    0.0000000000
H        0.1441160000    0.0041080000   -0.0000000000
C       -0.1387570000    0.9871700000    0.0000000000
H        0.1365260000   -0.0351200000    0.0000000000
13   
Frame  22 IRC: Energy =  -286.8579450000 ; +0.8867 kcal/mol
C       -0.0327190000    0.0387490000   -0.0000000000
C       -0.0610020000   -0.1162250000   -0.0000000000
C       -0.0566870000    0.1328290000   -0.0000000000
C       -0.0858930000   -0.1449050000    0.0000000000
C       -0.2680490000    0.0711590000   -0.0000000000
N       -0.1784540000    0.0373050000   -0.0000000000
H        0.1309270000    0.0014840000   -0.0000000000
H        0.1311150000    0.0185720000   -0.0000000000
H        0.1352460000    0.0022690000   -0.0000000000
H        0.1377350000    0.0035830000    0.0000000000
H        0.1440950000    0.0041310000   -0.0000000000
C       -0.1339940000    0.9899860000    0.0000000000
H        0.1376810000   -0.0389380000    0.0000000000
13   
Frame  23 IRC: Energy =  -286.8579170000 ; +0.9042 kcal/mol
C       -0.0320910000    0.0377480000   -0.0000000000
C       -0.0613020000   -0.1161050000   -0.0000000000
C       -0.0567150000    0.1330710000   -0.0000000000
C       -0.0862660000   -0.1442850000    0.0000000000
C       -0.2679840000    0.0702200000   -0.0000000000
N       -0.1785080000    0.0374710000   -0.0000000000
H        0.1308560000    0.0015440000   -0.0000000000
H        0.1310770000    0.0184930000   -0.0000000000
H        0.1351520000    0.0023440000   -0.0000000000
H        0.1377000000    0.0035680000    0.0000000000
H        0.1441170000    0.0041350000   -0.0000000000
C       -0.1336980000    0.9910170000    0.0000000000
H        0.1376620000   -0.0392220000    0.0000000000
13   
Frame  24 IRC: Energy =  -286.8577640000 ; +1.0003 kcal/mol
C       -0.0305720000    0.0345200000   -0.0000000000
C       -0.0664040000   -0.1151540000   -0.0000000000
C       -0.0553530000    0.1371610000   -0.0000000000
C       -0.0900860000   -0.1422990000    0.0000000000
C       -0.2647160000    0.0661920000   -0.0000000000
N       -0.1789010000    0.0376780000   -0.0000000000
H        0.1309970000    0.0015310000   -0.0000000000
H        0.1310120000    0.0177730000   -0.0000000000
H        0.1353410000    0.0026900000   -0.0000000000
H        0.1378790000    0.0033080000    0.0000000000
H        0.1441690000    0.0040840000   -0.0000000000
C       -0.1316110000    0.9932770000    0.0000000000
H        0.1382440000   -0.0407630000    0.0000000000
13   
Frame  25 IRC: Energy =  -286.8577460000 ; +1.0115 kcal/mol
C       -0.0311560000    0.0345990000   -0.0000000000
C       -0.0667490000   -0.1150100000   -0.0000000000
C       -0.0551640000    0.1376870000   -0.0000000000
C       -0.0903640000   -0.1422620000    0.0000000000
C       -0.2642180000    0.0660260000   -0.0000000000
N       -0.1789810000    0.0377190000   -0.0000000000
H        0.1311260000    0.0014900000   -0.0000000000
H        0.1310500000    0.0177140000   -0.0000000000
H        0.1354260000    0.0026990000   -0.0000000000
H        0.1379190000    0.0032730000    0.0000000000
H        0.1441380000    0.0040700000   -0.0000000000
C       -0.1313610000    0.9928190000    0.0000000000
H        0.1383330000   -0.0408230000    0.0000000000
13   
Frame  26 IRC: Energy =  -286.8574690000 ; +1.1854 kcal/mol
C       -0.0313620000    0.0264070000   -0.0000000000
C       -0.0708290000   -0.1120840000   -0.0000000000
C       -0.0604780000    0.1479660000   -0.0000000000
C       -0.0960280000   -0.1375670000    0.0000000000
C       -0.2551650000    0.0559140000   -0.0000000000
N       -0.1785800000    0.0395590000   -0.0000000000
H        0.1311000000    0.0016280000   -0.0000000000
H        0.1309690000    0.0160470000   -0.0000000000
H        0.1350760000    0.0036380000   -0.0000000000
H        0.1378200000    0.0027820000    0.0000000000
H        0.1443490000    0.0038410000   -0.0000000000
C       -0.1256490000    0.9947080000    0.0000000000
H        0.1387770000   -0.0428390000    0.0000000000
13   
Frame  27 IRC: Energy =  -286.8574510000 ; +1.1967 kcal/mol
C       -0.0317930000    0.0263240000   -0.0000000000
C       -0.0711920000   -0.1119280000   -0.0000000000
C       -0.0607060000    0.1485060000   -0.0000000000
C       -0.0961040000   -0.1374360000    0.0000000000
C       -0.2545680000    0.0555480000   -0.0000000000
N       -0.1785070000    0.0396930000   -0.0000000000
H        0.1311940000    0.0016100000   -0.0000000000
H        0.1309730000    0.0159670000   -0.0000000000
H        0.1351270000    0.0036590000   -0.0000000000
H        0.1378410000    0.0027470000    0.0000000000
H        0.1443290000    0.0038180000   -0.0000000000
C       -0.1253990000    0.9943670000    0.0000000000
H        0.1388050000   -0.0428760000    0.0000000000
13   
Frame  28 IRC: Energy =  -286.8573680000 ; +1.2487 kcal/mol
C       -0.0321170000    0.0244990000   -0.0000000000
C       -0.0711440000   -0.1111910000   -0.0000000000
C       -0.0624320000    0.1508980000   -0.0000000000
C       -0.0972500000   -0.1365190000    0.0000000000
C       -0.2526460000    0.0533940000   -0.0000000000
N       -0.1784540000    0.0400350000   -0.0000000000
H        0.1311430000    0.0016400000   -0.0000000000
H        0.1309930000    0.0156170000   -0.0000000000
H        0.1349800000    0.0038890000   -0.0000000000
H        0.1377750000    0.0026630000    0.0000000000
H        0.1444050000    0.0037660000   -0.0000000000
C       -0.1241230000    0.9944600000    0.0000000000
H        0.1388700000   -0.0431510000    0.0000000000
13   
Frame  29 IRC: Energy =  -286.8573330000 ; +1.2707 kcal/mol
C       -0.0323720000    0.0243090000   -0.0000000000
C       -0.0716050000   -0.1109960000   -0.0000000000
C       -0.0633830000    0.1517960000   -0.0000000000
C       -0.0973390000   -0.1364100000    0.0000000000
C       -0.2515930000    0.0528730000   -0.0000000000
N       -0.1780790000    0.0401090000   -0.0000000000
H        0.1311450000    0.0016420000   -0.0000000000
H        0.1309640000    0.0154710000   -0.0000000000
H        0.1350180000    0.0039380000   -0.0000000000
H        0.1377780000    0.0026250000    0.0000000000
H        0.1443850000    0.0037300000   -0.0000000000
C       -0.1238160000    0.9941150000    0.0000000000
H        0.1388960000   -0.0432020000    0.0000000000
13   
Frame  30 IRC: Energy =  -286.8572510000 ; +1.3222 kcal/mol
C       -0.0329880000    0.0231450000   -0.0000000000
C       -0.0709580000   -0.1104720000   -0.0000000000
C       -0.0647650000    0.1537320000   -0.0000000000
C       -0.0980720000   -0.1359180000    0.0000000000
C       -0.2502580000    0.0514410000   -0.0000000000
N       -0.1782150000    0.0404140000   -0.0000000000
H        0.1311420000    0.0016490000   -0.0000000000
H        0.1310040000    0.0152630000   -0.0000000000
H        0.1349070000    0.0040930000   -0.0000000000
H        0.1376930000    0.0025800000    0.0000000000
H        0.1444520000    0.0036920000   -0.0000000000
C       -0.1228800000    0.9937070000    0.0000000000
H        0.1389400000   -0.0433270000    0.0000000000
13   
Frame  31 IRC: Energy =  -286.8571890000 ; +1.3611 kcal/mol
C       -0.0336080000    0.0230220000   -0.0000000000
C       -0.0712660000   -0.1102290000   -0.0000000000
C       -0.0663150000    0.1549460000   -0.0000000000
C       -0.0978820000   -0.1358530000    0.0000000000
C       -0.2489020000    0.0507680000   -0.0000000000
N       -0.1777030000    0.0406220000   -0.0000000000
H        0.1311780000    0.0016480000   -0.0000000000
H        0.1309460000    0.0150860000   -0.0000000000
H        0.1349280000    0.0041280000   -0.0000000000
H        0.1376950000    0.0025410000    0.0000000000
H        0.1444250000    0.0036490000   -0.0000000000
C       -0.1224960000    0.9930350000    0.0000000000
H        0.1390000000   -0.0433620000    0.0000000000
13   
Frame  32 IRC: Energy =  -286.8570680000 ; +1.4370 kcal/mol
C       -0.0343650000    0.0221270000   -0.0000000000
C       -0.0701350000   -0.1097530000   -0.0000000000
C       -0.0679590000    0.1573600000   -0.0000000000
C       -0.0985580000   -0.1356790000    0.0000000000
C       -0.2475140000    0.0495710000   -0.0000000000
N       -0.1778920000    0.0408520000   -0.0000000000
H        0.1311460000    0.0016450000   -0.0000000000
H        0.1309950000    0.0149110000   -0.0000000000
H        0.1348470000    0.0042730000   -0.0000000000
H        0.1375540000    0.0025190000    0.0000000000
H        0.1445000000    0.0036080000   -0.0000000000
C       -0.1216420000    0.9919860000    0.0000000000
H        0.1390230000   -0.0434200000    0.0000000000
13   
Frame  33 IRC: Energy =  -286.8569330000 ; +1.5217 kcal/mol
C       -0.0355170000    0.0220730000   -0.0000000000
C       -0.0699000000   -0.1094050000   -0.0000000000
C       -0.0708250000    0.1595780000   -0.0000000000
C       -0.0979230000   -0.1357620000    0.0000000000
C       -0.2455670000    0.0486040000   -0.0000000000
N       -0.1772400000    0.0412710000   -0.0000000000
H        0.1312110000    0.0016380000   -0.0000000000
H        0.1308850000    0.0146890000   -0.0000000000
H        0.1347970000    0.0042650000   -0.0000000000
H        0.1375310000    0.0024900000    0.0000000000
H        0.1444680000    0.0035600000   -0.0000000000
C       -0.1210830000    0.9904310000    0.0000000000
H        0.1391620000   -0.0434340000    0.0000000000
13   
Frame  34 IRC: Energy =  -286.8566800000 ; +1.6805 kcal/mol
C       -0.0365100000    0.0216350000   -0.0000000000
C       -0.0682590000   -0.1089400000   -0.0000000000
C       -0.0726500000    0.1630230000   -0.0000000000
C       -0.0982930000   -0.1359730000    0.0000000000
C       -0.2442850000    0.0474130000   -0.0000000000
N       -0.1773720000    0.0414670000   -0.0000000000
H        0.1311740000    0.0016210000   -0.0000000000
H        0.1309240000    0.0145230000   -0.0000000000
H        0.1349160000    0.0043870000   -0.0000000000
H        0.1372830000    0.0024950000    0.0000000000
H        0.1445860000    0.0035040000   -0.0000000000
C       -0.1206010000    0.9882350000    0.0000000000
H        0.1390870000   -0.0433900000    0.0000000000
13   
Frame  35 IRC: Energy =  -286.8564350000 ; +1.8342 kcal/mol
C       -0.0378900000    0.0218780000   -0.0000000000
C       -0.0670430000   -0.1085780000   -0.0000000000
C       -0.0775470000    0.1671770000   -0.0000000000
C       -0.0968600000   -0.1365610000    0.0000000000
C       -0.2416720000    0.0464140000   -0.0000000000
N       -0.1767430000    0.0420290000   -0.0000000000
H        0.1312280000    0.0016130000   -0.0000000000
H        0.1307510000    0.0143250000   -0.0000000000
H        0.1347840000    0.0042050000   -0.0000000000
H        0.1372970000    0.0025130000    0.0000000000
H        0.1445560000    0.0034760000   -0.0000000000
C       -0.1202300000    0.9848580000    0.0000000000
H        0.1393690000   -0.0433500000    0.0000000000
13   
Frame  36 IRC: Energy =  -286.8559620000 ; +2.1310 kcal/mol
C       -0.0383170000    0.0228970000   -0.0000000000
C       -0.0667840000   -0.1082570000   -0.0000000000
C       -0.0763330000    0.1688250000   -0.0000000000
C       -0.0966710000   -0.1370530000    0.0000000000
C       -0.2425280000    0.0464440000   -0.0000000000
N       -0.1765620000    0.0416180000   -0.0000000000
H        0.1312040000    0.0015610000   -0.0000000000
H        0.1307260000    0.0142260000   -0.0000000000
H        0.1347870000    0.0044510000   -0.0000000000
H        0.1367810000    0.0025450000    0.0000000000
H        0.1448260000    0.0034200000   -0.0000000000
C       -0.1201250000    0.9824990000    0.0000000000
H        0.1389960000   -0.0431750000    0.0000000000
13   
Frame  37 IRC: Energy =  -286.8544640000 ; +3.0710 kcal/mol
C       -0.0413440000    0.0221380000   -0.0000000000
C       -0.0539620000   -0.1062420000   -0.0000000000
C       -0.0948350000    0.2036660000   -0.0000000000
C       -0.0905540000   -0.1408380000    0.0000000000
C       -0.2380190000    0.0366320000   -0.0000000000
N       -0.1751960000    0.0452130000   -0.0000000000
H        0.1313660000    0.0016050000   -0.0000000000
H        0.1300820000    0.0136380000   -0.0000000000
H        0.1367220000    0.0021460000   -0.0000000000
H        0.1369940000    0.0029980000    0.0000000000
H        0.1442660000    0.0035450000   -0.0000000000
C       -0.1245800000    0.9573070000    0.0000000000
H        0.1390610000   -0.0418090000    0.0000000000
13   
Frame  38 IRC: Energy =  -286.8518900000 ; +4.6862 kcal/mol
C       -0.0499540000    0.0190140000   -0.0000000000
C       -0.0336050000   -0.1041370000   -0.0000000000
C       -0.1221470000    0.2788790000   -0.0000000000
C       -0.0934780000   -0.1574200000    0.0000000000
C       -0.2169650000    0.0223870000   -0.0000000000
N       -0.1753180000    0.0509760000   -0.0000000000
H        0.1316910000    0.0015450000   -0.0000000000
H        0.1296820000    0.0129940000   -0.0000000000
H        0.1404210000   -0.0031120000   -0.0000000000
H        0.1377050000    0.0041920000    0.0000000000
H        0.1430520000    0.0037370000   -0.0000000000
C       -0.1297330000    0.9099410000    0.0000000000
H        0.1386490000   -0.0389960000    0.0000000000
13   