
Running Job 1 of 1 irc_reactant.in
qchem irc_reactant.in_30010.0 ./irc_reactant.d/ 1
/home/leeping/opt/qchem/5.0.2-openmp/exe/qcprog.exe_s irc_reactant.in_30010.0 ./irc_reactant.d/
Check license passed

                  Welcome to Q-Chem
     A Quantum Leap Into The Future Of Chemistry


 Q-Chem 5.0, Q-Chem, Inc., Pleasanton, CA (2017)

 Yihan Shao,  Zhengting Gan,  E. Epifanovsky,  A. T. B. Gilbert,  M. Wormit,  
 J. Kussmann,  A. W. Lange,  A. Behn,  Jia Deng,  Xintian Feng,  D. Ghosh,  
 M. Goldey,  P. R. Horn,  L. D. Jacobson,  I. Kaliman,  T. Kus,  A. Landau,  
 Jie Liu,  E. I. Proynov,  R. M. Richard,  R. P. Steele,  E. J. Sundstrom,  
 H. L. Woodcock III,  P. M. Zimmerman,  D. Zuev,  B. Albrecht,  E. Alguire,  
 S. A. Baeppler,  D. Barton,  Z. Benda,  Y. A. Bernard,  E. J. Berquist,  
 K. B. Bravaya,  H. Burton,  D. Casanova,  Chun-Min Chang,  Yunqing Chen,  
 A. Chien,  K. D. Closser,  M. P. Coons,  S. Dasgupta,  A. L. Dempwolff,  
 M. Diedenhofen,  Hainam Do,  R. G. Edgar,  Po-Tung Fang,  S. Fatehi,  
 Qingguo Feng,  J. Fosso-Tande,  Qinghui Ge,  A. Ghysels,  G. Gidofalvi,  
 J. Gomes,  J. Gonthier,  A. Gunina,  M. W. D. Hanson-Heine,  
 P. H. P. Harbach,  A. W. Hauser,  J. E. Herr,  E. G. Hohenstein,  
 Z. C. Holden,  Kerwin Hui,  T.-C. Jagau,  Hyunjun Ji,  B. Kaduk,  
 K. Khistyaev,  Jaehoon Kim,  P. Klunzinger,  K. Koh,  D. Kosenkov,  
 L. Koulias,  T. Kowalczyk,  C. M. Krauter,  A. Kunitsa,  Ka Un Lao,  
 A. Laurent,  K. V. Lawler,  Joonho Lee,  D. Lefrancois,  S. Lehtola,  
 D. S. Levine,  Yi-Pei Li,  You-Sheng Lin,  Fenglai Liu,  E. Livshits,  
 A. Luenser,  P. Manohar,  E. Mansoor,  S. F. Manzer,  Shan-Ping Mao,  
 Yuezhi Mao,  N. Mardirossian,  A. V. Marenich,  T. Markovich,  
 L. A. Martinez-Martinez,  S. A. Maurer,  N. J. Mayhall,  S. C. McKenzie,  
 J.-M. Mewes,  A. F. Morrison,  J. W. Mullinax,  K. Nanda,  
 T. S. Nguyen-Beck,  R. Olivares-Amaya,  J. A. Parkhill,  T. M. Perrine,  
 F. Plasser,  S. Prager,  A. Prociuk,  E. Ramos,  D. R. Rehn,  F. Rob,  
 M. Schneider,  N. Sergueev,  S. M. Sharada,  S. Sharma,  D. W. Small,  
 T. Stauch,  T. Stein,  Yu-Chuan Su,  A. J. W. Thom,  A. Tkatchenko,  
 T. Tsuchimochi,  L. Vogt,  O. Vydrov,  M. A. Watson,  J. Wenzel,  
 M. de Wergifosse,  T. A. Wesolowski,  A. White,  J. Witte,  A. Yamada,  
 Jun Yang,  K. Yao,  S. Yeganeh,  S. R. Yost,  Zhi-Qiang You,  A. Zech,  
 Igor Ying Zhang,  Xing Zhang,  Yan Zhao,  Ying Zhu,  B. R. Brooks,  
 G. K. L. Chan,  C. J. Cramer,  M. S. Gordon,  W. J. Hehre,  A. Klamt,  
 M. W. Schmidt,  C. D. Sherrill,  D. G. Truhlar,  A. Aspuru-Guzik,  R. Baer,  
 A. T. Bell,  N. A. Besley,  Jeng-Da Chai,  R. A. DiStasio Jr.,  A. Dreuw,  
 B. D. Dunietz,  T. R. Furlani,  Chao-Ping Hsu,  Yousung Jung,  Jing Kong,  
 D. S. Lambrecht,  WanZhen Liang,  C. Ochsenfeld,  V. A. Rassolov,  
 L. V. Slipchenko,  J. E. Subotnik,  T. Van Voorhis,  J. M. Herbert,  
 A. I. Krylov,  P. M. W. Gill,  M. Head-Gordon

 Contributors to earlier versions of Q-Chem not listed above: 
 R. D. Adamson,  B. Austin,  J. Baker,  G. J. O. Beran,  K. Brandhorst,  
 S. T. Brown,  E. F. C. Byrd,  A. K. Chakraborty,  C.-L. Cheng,  
 Siu Hung Chien,  D. M. Chipman,  D. L. Crittenden,  H. Dachsel,  
 R. J. Doerksen,  A. D. Dutoi,  L. Fusti-Molnar,  W. A. Goddard III,  
 A. Golubeva-Zadorozhnaya,  S. R. Gwaltney,  G. Hawkins,  A. Heyden,  
 S. Hirata,  G. Kedziora,  F. J. Keil,  C. Kelley,  Jihan Kim,  R. A. King,  
 R. Z. Khaliullin,  P. P. Korambath,  W. Kurlancheek,  A. M. Lee,  M. S. Lee,  
 S. V. Levchenko,  Ching Yeh Lin,  D. Liotard,  R. C. Lochan,  I. Lotan,  
 P. E. Maslen,  N. Nair,  D. P. O'Neill,  D. Neuhauser,  E. Neuscamman,  
 C. M. Oana,  R. Olson,  B. Peters,  R. Peverati,  P. A. Pieniazek,  
 Y. M. Rhee,  J. Ritchie,  M. A. Rohrdanz,  E. Rosta,  N. J. Russ,  
 H. F. Schaefer III,  N. E. Schultz,  N. Shenvi,  A. C. Simmonett,  A. Sodt,  
 D. Stuck,  K. S. Thanthiriwatte,  V. Vanovschi,  Tao Wang,  A. Warshel,  
 C. F. Williams,  Q. Wu,  X. Xu,  W. Zhang

 Please cite Q-Chem as follows:
 Y. Shao et al., Mol. Phys. 113, 184-215 (2015)
 DOI: 10.1080/00268976.2014.952696

 Q-Chem 5.0.2 for Intel X86 EM64T Linux

 Parts of Q-Chem use Armadillo 5.200.1 (Boston Tea Smuggler).
 http://arma.sourceforge.net/

 Q-Chem begins on Thu Mar  3 03:05:53 2022  

Host: 
0

     Scratch files written to ./irc_reactant.d//
 Dec517 15110_ 26548  26544 5633   
Processing $rem in /home/leeping/opt/qchem/5.0.2-openmp/config/preferences.
 MEM_STATIC 2000
 MEM_TOTAL  8000
 SYMMETRY   OFF
 SYM_IGNORE TRUE 

Checking the input file for inconsistencies... 	...done.

--------------------------------------------------------------
User input:
--------------------------------------------------------------
$molecule
0 2
C        1.5541132433    0.2415235810   -0.2638844686
C        0.5854097382   -0.9226157514   -0.0869818864
C       -0.7100649454   -0.3597972546   -0.7781308664
C       -1.1088851381    0.2205773147    0.5997869101
C       -0.4400536824    1.0844860564   -0.5660152606
N        0.9701299836    1.3653741336   -0.4821585222
H        2.6272127396    0.1777765488   -0.0961249413
H        0.9602179414   -1.9270140793   -0.2913735758
H       -1.3320117197   -0.8360200804   -1.5289853752
H       -2.0752665720    0.5388622148    0.9756842447
H       -1.0819433246    1.8535053793   -0.9813204834
C       -0.1286393712   -0.6465084497    1.2342527627
H        0.1797811073   -0.7901496126    2.2652514623
$end

$rem
method                b3lyp
basis                 6-31+g(d,p)
unrestricted          true
symmetry              off
sym_ignore            true
incdft                false
incfock               0
scf_convergence       6
thresh                14
jobtype               sp
scf_guess             read
scf_algorithm         diis
max_scf_cycles        100
stability_analysis    true
max_cis_cycles        100
cis_n_roots           4
$end

--------------------------------------------------------------
 ----------------------------------------------------------------
             Standard Nuclear Orientation (Angstroms)
    I     Atom           X                Y                Z
 ----------------------------------------------------------------
    1      C       1.5541132433     0.2415235810    -0.2638844686
    2      C       0.5854097382    -0.9226157514    -0.0869818864
    3      C      -0.7100649454    -0.3597972546    -0.7781308664
    4      C      -1.1088851381     0.2205773147     0.5997869101
    5      C      -0.4400536824     1.0844860564    -0.5660152606
    6      N       0.9701299836     1.3653741336    -0.4821585222
    7      H       2.6272127396     0.1777765488    -0.0961249413
    8      H       0.9602179414    -1.9270140793    -0.2913735758
    9      H      -1.3320117197    -0.8360200804    -1.5289853752
   10      H      -2.0752665720     0.5388622148     0.9756842447
   11      H      -1.0819433246     1.8535053793    -0.9813204834
   12      C      -0.1286393712    -0.6465084497     1.2342527627
   13      H       0.1797811073    -0.7901496126     2.2652514623
 ----------------------------------------------------------------
 Nuclear Repulsion Energy =   282.0300544749 hartrees
 There are       25 alpha and       24 beta electrons
 Requested basis set is 6-31+G(d,p)
 There are 53 shells and 163 basis functions

 Total QAlloc Memory Limit   8000 MB
 Mega-Array Size      1956 MB
 MEM_STATIC part      2000 MB

                       Distance Matrix (Angstroms)
             C (  1)   C (  2)   C (  3)   C (  4)   C (  5)   N (  6)
   C (  2)  1.524763
   C (  3)  2.398445  1.572484
   C (  4)  2.799630  2.156195  1.547433
   C (  5)  2.185994  2.304237  1.484538  1.597739
   N (  6)  1.285193  2.353523  2.426287  2.608346  1.440329
   H (  7)  1.088003  2.319463  3.448411  3.800599  3.232807  2.074930
   H (  8)  2.248560  1.091363  2.341569  3.112475  3.332465  3.297926
   H (  9)  3.330360  2.400704  1.085075  2.387018  2.326208  3.352885
   H ( 10)  3.846731  3.216267  2.397338  1.084665  2.312675  3.476042
   H ( 11)  3.172065  3.359577  2.253506  2.273121  1.084385  2.167588
   C ( 12)  2.421709  1.527011  2.114225  1.454396  2.516801  2.863745
   H ( 13)  3.057723  2.390624  3.199876  2.335809  3.451742  3.580390
             H (  7)   H (  8)   H (  9)   H ( 10)   H ( 11)   C ( 12)
   H (  8)  2.692051
   H (  9)  4.330858  2.824229
   H ( 10)  4.836576  4.110979  2.952304
   H ( 11)  4.165270  4.351870  2.756087  2.558290
   C ( 12)  3.169238  2.269987  3.019852  2.293756  3.473848
   H ( 13)  3.535944  2.904802  4.084587  2.917961  4.372767  1.085686

 
 A cutoff of  1.0D-14 yielded   1403 shell pairs
 There are     13511 function pairs
 Smallest overlap matrix eigenvalue = 2.39E-05

 Scale SEOQF with 1.000000e-01/1.000000e-01/1.000000e-01

 Standard Electronic Orientation quadrupole field applied
 Nucleus-field energy     =     0.0000000014 hartrees
 Guess MOs from SCF MO coefficient file
 Reading MOs from coefficient file
 Reading MOs from coefficient file
 An unrestricted hybrid HF-DFT SCF calculation will be
 performed using Pulay DIIS extrapolation
 Exchange:     0.2000 Hartree-Fock + 0.0800 Slater + 0.7200 B88
 Correlation:  0.1900 VWN1RPA + 0.8100 LYP
 Using SG-1 standard quadrature grid
 SCF converges when DIIS error is below 1.0E-06
Using Q-Chem read-in guess as SCF_GUESS READ specified.

 -------------------------------------------------------
 OpenMP BLAS3 based DFT computing Module                
 -------------------------------------------------------
 ---------------------------------------
  Cycle       Energy         DIIS Error
 ---------------------------------------
    1    -286.8593580719      1.05E-09
    2    -286.8593580719      1.09E-09 Convergence criterion met
 ---------------------------------------
 <S^2> = 0.7568
 SCF time:  CPU 6.40 s  wall 8.27 s
 SCF   energy in the final basis set = -286.85935807
 Total energy in the final basis set = -286.85935807
 
 Direct TDDFT/TDA calculation will be performed
 Exchange:     0.2000 Hartree-Fock + 0.0800 Slater + 0.7200 B88
 Correlation:  0.1900 VWN1RPA + 0.8100 LYP
 Using SG-1 standard quadrature grid
 CIS energy converged when residual is below 10e- 6
 ---------------------------------------------------
 Iter    Rts Conv    Rts Left    Ttl Dev     Max Dev
 ---------------------------------------------------
   1         0           4      0.003352    0.001244
   2         0           4      0.001082    0.000388
   3         0           4      0.000574    0.000297
   4         0           4      0.000267    0.000136
   5         0           4      0.000103    0.000057
   6         0           4      0.000036    0.000016
   7         0           4      0.000012    0.000006
   8         2           2      0.000005    0.000002
   9         4           0      0.000001    0.000001    Roots Converged
 ---------------------------------------------------
 
 ---------------------------------------------------
         TDDFT/TDA Excitation Energies              
 ---------------------------------------------------

 Excited state   1: excitation energy (eV) =    3.4314
 Total energy for state  1:                  -286.73325659 au
    <S**2>     :  0.9300
    Trans. Mom.:  0.3574 X   0.1687 Y  -0.1821 Z
    Strength   :     0.0159155812
    S(  1) --> V(  1) amplitude =  0.9243 alpha
    D( 23) --> S(  1) amplitude =  0.3273 beta

 Excited state   2: excitation energy (eV) =    3.6277
 Total energy for state  2:                  -286.72604163 au
    <S**2>     :  1.2346
    Trans. Mom.:  0.0316 X  -0.0614 Y  -0.0552 Z
    Strength   :     0.0006943849
    D( 24) --> V(  1) amplitude = -0.2654 alpha
    D( 24) --> S(  1) amplitude =  0.9227 beta
    D( 24) --> V(  1) amplitude =  0.1525 beta

 Excited state   3: excitation energy (eV) =    4.1454
 Total energy for state  3:                  -286.70701689 au
    <S**2>     :  0.9400
    Trans. Mom.: -0.2798 X  -0.2749 Y   0.3306 Z
    Strength   :     0.0267288572
    S(  1) --> V(  1) amplitude = -0.3366 alpha
    D( 23) --> S(  1) amplitude =  0.8881 beta
    D( 23) --> V(  1) amplitude =  0.1768 beta

 Excited state   4: excitation energy (eV) =    4.3049
 Total energy for state  4:                  -286.70115503 au
    <S**2>     :  0.8080
    Trans. Mom.:  0.1071 X   0.0970 Y   0.0666 Z
    Strength   :     0.0026698124
    S(  1) --> V(  2) amplitude =  0.9832 alpha
 
 ---------------------------------------------------

 Stability analysis will be performed
 ---------------------------------------------------
 Iter    Rts Conv    Rts Left    Ttl Dev     Max Dev
 ---------------------------------------------------
   1         0           8      0.003850    0.000659
   2         0           8      0.001868    0.000912
   3         0           8      0.001036    0.000520
   4         0           8      0.000678    0.000287
   5         4           4      0.000527    0.000245
   6         4           4      0.000207    0.000098
   7         4           4      0.000083    0.000042
   8         5           3      0.000028    0.000015
   9         6           2      0.000011    0.000005
  10         7           1      0.000005    0.000002
  11         8           0      0.000003    0.000001    Roots Converged
 UKS-> UKS   stable,    smallest eigenvalue:      0.0993719
 UKS->CUKS   stable,    smallest eigenvalue:      0.1262034
 ---------------------------------------------------
  SETman timing summary (seconds)
  CPU time               189.37s
  System time              0.00s
  Wall time              203.81s
 
 --------------------------------------------------------------
 
                    Orbital Energies (a.u.)
 --------------------------------------------------------------
 
 Alpha MOs
 -- Occupied --
-14.334 -10.234 -10.230 -10.220 -10.219 -10.219 -10.216  -0.979
 -0.867  -0.759  -0.674  -0.615  -0.580  -0.544  -0.524  -0.475
 -0.448  -0.415  -0.410  -0.366  -0.346  -0.309  -0.285  -0.267
 -0.188
 -- Virtual --
 -0.018   0.002   0.016   0.020   0.032   0.045   0.047   0.060
  0.072   0.074   0.080   0.092   0.103   0.108   0.111   0.115
  0.125   0.138   0.146   0.162   0.165   0.175   0.183   0.186
  0.188   0.194   0.211   0.215   0.227   0.240   0.246   0.254
  0.260   0.264   0.283   0.293   0.300   0.322   0.332   0.338
  0.358   0.386   0.421   0.456   0.617   0.663   0.674   0.689
  0.706   0.724   0.731   0.744   0.751   0.764   0.788   0.792
  0.804   0.812   0.832   0.872   0.903   0.919   0.932   0.981
  0.991   1.030   1.042   1.044   1.079   1.088   1.103   1.154
  1.229   1.260   1.324   1.388   1.414   1.471   1.484   1.495
  1.545   1.579   1.645   1.686   1.690   1.777   1.801   1.850
  1.908   1.914   1.959   1.979   2.022   2.080   2.118   2.143
  2.162   2.183   2.229   2.304   2.347   2.361   2.368   2.399
  2.416   2.449   2.465   2.482   2.499   2.512   2.543   2.561
  2.566   2.587   2.616   2.641   2.684   2.717   2.765   2.804
  2.822   2.875   2.998   3.045   3.094   3.271   3.333   3.361
  3.528   3.552   3.659   4.180   4.428   4.456   4.601   4.616
  4.659   4.877
 
 Beta MOs
 -- Occupied --
-14.333 -10.232 -10.229 -10.221 -10.220 -10.217 -10.204  -0.975
 -0.861  -0.751  -0.662  -0.611  -0.576  -0.537  -0.518  -0.469
 -0.444  -0.412  -0.404  -0.358  -0.342  -0.302  -0.274  -0.262
 -- Virtual --
 -0.075  -0.007   0.003   0.016   0.020   0.035   0.046   0.048
  0.060   0.073   0.078   0.082   0.094   0.104   0.109   0.112
  0.117   0.129   0.140   0.148   0.162   0.167   0.177   0.184
  0.187   0.191   0.195   0.212   0.220   0.233   0.242   0.249
  0.256   0.263   0.266   0.286   0.296   0.303   0.323   0.334
  0.341   0.362   0.389   0.426   0.461   0.620   0.669   0.688
  0.698   0.710   0.729   0.742   0.751   0.756   0.773   0.791
  0.801   0.808   0.814   0.838   0.874   0.906   0.921   0.935
  0.984   0.995   1.032   1.046   1.047   1.082   1.093   1.110
  1.162   1.231   1.266   1.330   1.391   1.417   1.478   1.494
  1.501   1.550   1.585   1.648   1.689   1.698   1.783   1.807
  1.864   1.912   1.924   1.968   1.985   2.026   2.086   2.133
  2.153   2.169   2.187   2.232   2.309   2.352   2.363   2.372
  2.403   2.421   2.458   2.467   2.487   2.506   2.518   2.546
  2.565   2.574   2.593   2.623   2.646   2.688   2.722   2.772
  2.808   2.825   2.878   3.000   3.049   3.096   3.272   3.335
  3.365   3.530   3.556   3.664   4.182   4.445   4.458   4.603
  4.620   4.664   4.882
 --------------------------------------------------------------
 
          Ground-State Mulliken Net Atomic Charges

     Atom                 Charge (a.u.)    Spin (a.u.)
  --------------------------------------------------------
      1 C                    -0.052521       0.053815
      2 C                    -0.027272      -0.115387
      3 C                    -0.062211       0.086418
      4 C                    -0.053423      -0.155043
      5 C                    -0.290927       0.104250
      6 N                    -0.171037       0.035672
      7 H                     0.131202       0.001053
      8 H                     0.133733       0.023609
      9 H                     0.133303       0.000300
     10 H                     0.138593       0.005208
     11 H                     0.144223       0.003524
     12 C                    -0.154472       0.979564
     13 H                     0.130810      -0.022984
  --------------------------------------------------------
  Sum of atomic charges =    -0.000000
  Sum of spin   charges =     1.000000

 -----------------------------------------------------------------
                    Cartesian Multipole Moments
 -----------------------------------------------------------------
    Charge (ESU x 10^10)
                -0.0000
    Dipole Moment (Debye)
         X      -1.1042      Y      -2.0086      Z       0.1287
       Tot       2.2957
    Quadrupole Moments (Debye-Ang)
        XX     -38.7246     XY      -5.3424     YY     -45.3060
        XZ       1.9014     YZ       1.2357     ZZ     -41.0319
    Octopole Moments (Debye-Ang^2)
       XXX      -8.4285    XXY      -6.8469    XYY     -10.5664
       YYY     -23.6105    XXZ       1.7439    XYZ       0.8258
       YYZ      -0.0230    XZZ      -6.7804    YZZ      -7.1300
       ZZZ       7.8721
    Hexadecapole Moments (Debye-Ang^3)
      XXXX    -264.7335   XXXY     -16.0914   XXYY     -94.8385
      XYYY     -29.4823   YYYY    -251.9287   XXXZ      13.8444
      XXYZ      14.5136   XYYZ      11.9582   YYYZ      35.1074
      XXZZ     -80.3300   XYZZ      -6.0688   YYZZ     -72.8512
      XZZZ      18.5839   YZZZ      29.9839   ZZZZ    -181.8558
 -----------------------------------------------------------------
Archival summary:
1\1\c8-66\SP\ProcedureUnspecified\6-31+G**\166(2)\hpark21\ThuMar303:09:282022ThuMar303:09:282022\0\\#,ProcedureUnspecified,6-31+G**,\\0,2\N\C,1,1.28519\H,2,1.088,1,121.708\C,1,1.44033,2,106.513,3,-176.162,0\H,4,1.08439,1,117.616,2,-165.484,0\C,4,1.48454,1,112.094,2,-16.7315,0\H,6,1.08508,4,129.058,1,-128.722,0\C,2,1.52476,1,113.495,3,172.494,0\H,8,1.09136,2,117.564,1,156.32,0\C,8,1.52701,2,105.035,1,-68.3293,0\H,10,1.08569,8,131.674,2,-78.6654,0\C,10,1.4544,8,92.6085,2,84.6829,0\H,12,1.08466,10,128.627,8,161.742,0\\\@

 Total job time:  215.17s(wall), 196.01s(cpu) 
 Thu Mar  3 03:09:28 2022

        *************************************************************
        *                                                           *
        *  Thank you very much for using Q-Chem.  Have a nice day.  *
        *                                                           *
        *************************************************************


