13   
Frame   0 IRC: Energy =  -286.8593580000 ; +0.0000 kcal/mol
C        1.5541132433    0.2415235810   -0.2638844686
C        0.5854097382   -0.9226157514   -0.0869818864
C       -0.7100649454   -0.3597972546   -0.7781308664
C       -1.1088851381    0.2205773147    0.5997869101
C       -0.4400536824    1.0844860564   -0.5660152606
N        0.9701299836    1.3653741336   -0.4821585222
H        2.6272127396    0.1777765488   -0.0961249413
H        0.9602179414   -1.9270140793   -0.2913735758
H       -1.3320117197   -0.8360200804   -1.5289853752
H       -2.0752665720    0.5388622148    0.9756842447
H       -1.0819433246    1.8535053793   -0.9813204834
C       -0.1286393712   -0.6465084497    1.2342527627
H        0.1797811073   -0.7901496126    2.2652514623
13   
Frame   1 IRC: Energy =  -286.8585301525 ; +0.5195 kcal/mol
C        1.5616617437    0.2579995501   -0.2828855683
C        0.6000486501   -0.9092702596   -0.0754071480
C       -0.7028780411   -0.3610201311   -0.7649098438
C       -1.0892135145    0.2511229810    0.6107437037
C       -0.4389158166    1.0878876130   -0.5766885281
N        0.9704511273    1.3752625592   -0.5161159061
H        2.6372013380    0.2035953854   -0.1278249247
H        0.9780116651   -1.9148505436   -0.2654134333
H       -1.3373151357   -0.8576001218   -1.4918122452
H       -2.0534096052    0.5691123534    0.9923057209
H       -1.0881712791    1.8428951504   -1.0064563241
C       -0.1092482769   -0.6164620562    1.2419190789
H        0.0717771448   -0.9286724802    2.2625454182
13   
Frame   2 IRC: Energy =  -286.8574876982 ; +1.1736 kcal/mol
C        1.5656520002    0.2704247428   -0.2987206732
C        0.6116518782   -0.8986938683   -0.0675053415
C       -0.7007690504   -0.3692425210   -0.7504794411
C       -1.0692281264    0.2796660419    0.6204742428
C       -0.4430186309    1.0846303000   -0.5827700323
N        0.9682751672    1.3807545431   -0.5436779997
H        2.6405223647    0.2239728229   -0.1368251594
H        0.9882591816   -1.9070724577   -0.2424984693
H       -1.3361719268   -0.8746267534   -1.4708336569
H       -2.0252090834    0.6012638886    1.0187826193
H       -1.0999722717    1.8250394933   -1.0258980497
C       -0.0689114596   -0.5675781710    1.2565959562
H       -0.0310800425   -1.0485380612    2.2233560048
13   
Frame   3 IRC: Energy =  -286.8548996505 ; +2.7977 kcal/mol
C        1.5558519741    0.2779285775   -0.2928642320
C        0.6098380346   -0.9040893980   -0.0740076240
C       -0.6938076987   -0.3848754203   -0.7762956259
C       -1.0578935932    0.3047978704    0.6324797574
C       -0.4561127670    1.0681128026   -0.5826875097
N        0.9522090324    1.3847521946   -0.5377074271
H        2.6304616592    0.2416369433   -0.1296172747
H        1.0035451729   -1.9084698394   -0.2343175642
H       -1.2945888012   -0.9053955399   -1.5199390973
H       -1.9525391032    0.6953967637    1.1113172358
H       -1.1304309667    1.7886155534   -1.0316789810
C       -0.0862941006   -0.5823452726    1.2380156482
H       -0.0802388427   -1.0760652353    2.1973026947
13   
Frame   4 IRC: Energy =  -286.8482841129 ; +6.9490 kcal/mol (Transition State)
C        1.5517048364    0.2821378149   -0.2884863185
C        0.6074296892   -0.9043897397   -0.0816037520
C       -0.6182835207   -0.4058195503   -0.8891354739
C       -1.0257855595    0.3760826525    0.7043766334
C       -0.4832854354    1.0371045215   -0.5645031114
N        0.9373733667    1.3859067133   -0.5235970844
H        2.6280380935    0.2454700977   -0.1353652573
H        1.0082874551   -1.9079108128   -0.2199109241
H       -1.2945744370   -0.9411065156   -1.5444174351
H       -1.9401092425    0.7338369257    1.1729623261
H       -1.1389142939    1.7693884560   -1.0248701384
C       -0.1336955885   -0.5942538655    1.2143573993
H       -0.0981853637   -1.0764466978    2.1801931363
13   
Frame   5 IRC: Energy =  -286.8549802392 ; +2.7471 kcal/mol
C        1.5496431896    0.2851420967   -0.2848985031
C        0.6025142599   -0.9019675166   -0.0905222023
C       -0.5285562387   -0.4236578369   -1.0197251084
C       -1.0004107030    0.4300198268    0.7906041909
C       -0.5161232517    0.9994346704   -0.5493243538
N        0.9267150145    1.3816439056   -0.5150768614
H        2.6274751586    0.2471921029   -0.1400961627
H        1.0105468864   -1.9055222274   -0.2098018485
H       -1.3002401036   -0.9645516365   -1.5446234703
H       -1.9352643983    0.7593589304    1.2194453487
H       -1.1419659004    1.7577297004   -1.0184427425
C       -0.1799462627   -0.5844922447    1.1992037085
H       -0.1143876505   -1.0803297710    2.1632580049
13   
Frame   6 IRC: Energy =  -286.8666277552 ; -4.5618 kcal/mol
C        1.5478457775    0.2919227228   -0.2710995904
C        0.6017859295   -0.9004122182   -0.1028815651
C       -0.4444856960   -0.4273498353   -1.1335005112
C       -0.9994648485    0.4657850298    0.8342608658
C       -0.5422186907    0.9637745812   -0.5497271614
N        0.9137267742    1.3789326291   -0.5030792834
H        2.6279114466    0.2523536125   -0.1470146550
H        1.0182863269   -1.9031552776   -0.1918838382
H       -1.2917866546   -0.9905561404   -1.5173258807
H       -1.9126640378    0.8116179650    1.2989365646
H       -1.1511282148    1.7363122766   -1.0143834182
C       -0.2215887500   -0.5827254839    1.1701393495
H       -0.1462193622   -1.0964998616    2.1275591238
13   
Frame   7 IRC: Energy =  -286.8716741694 ; -7.7285 kcal/mol
C        1.5415752843    0.3071122264   -0.2561544572
C        0.6041968189   -0.9005329073   -0.1097549797
C       -0.4153310619   -0.4341698637   -1.1630653709
C       -1.0077522001    0.4727057889    0.8297861978
C       -0.5558073777    0.9527424823   -0.5590415627
N        0.9004800092    1.3877617527   -0.4913296023
H        2.6239354614    0.2706096098   -0.1485482013
H        1.0372960684   -1.8978912194   -0.1771510100
H       -1.2649334149   -1.0290184021   -1.4923467478
H       -1.8290152843    0.9019783967    1.3926472395
H       -1.1705482567    1.7123601586   -1.0364233379
C       -0.2582096715   -0.6023431752    1.1357384925
H       -0.2058863751   -1.1413148476    2.0756433397
13   
Frame   8 IRC: Energy =  -286.8734940000 ; -8.8705 kcal/mol
C        1.5299432550    0.3207314569   -0.2492136289
C        0.6035286103   -0.9025959185   -0.1118451021
C       -0.4103013280   -0.4479274052   -1.1680764778
C       -0.9933647908    0.4872922764    0.8378133396
C       -0.5668027988    0.9431467886   -0.5674267019
N        0.8835803280    1.3938248232   -0.5007765495
H        2.6110447613    0.3018232013   -0.1283136080
H        1.0583803962   -1.8904705964   -0.1779463258
H       -1.2443001340   -1.0652283302   -1.4947895181
H       -1.7183281797    0.9945191054    1.4633798527
H       -1.1944526739    1.6839278907   -1.0581252484
C       -0.2807650243   -0.6180638706    1.1206762912
H       -0.2781624213   -1.2009794217    2.0346436770
