
Running Job 1 of 1 qcfsm.in
qchem qcfsm.in_7918.0 ./qcfsm.d/ 1
/home/leeping/opt/qchem/5.0.2-openmp/exe/qcprog.exe_s qcfsm.in_7918.0 ./qcfsm.d/
Check license passed

                  Welcome to Q-Chem
     A Quantum Leap Into The Future Of Chemistry


 Q-Chem 5.0, Q-Chem, Inc., Pleasanton, CA (2017)

 Yihan Shao,  Zhengting Gan,  E. Epifanovsky,  A. T. B. Gilbert,  M. Wormit,  
 J. Kussmann,  A. W. Lange,  A. Behn,  Jia Deng,  Xintian Feng,  D. Ghosh,  
 M. Goldey,  P. R. Horn,  L. D. Jacobson,  I. Kaliman,  T. Kus,  A. Landau,  
 Jie Liu,  E. I. Proynov,  R. M. Richard,  R. P. Steele,  E. J. Sundstrom,  
 H. L. Woodcock III,  P. M. Zimmerman,  D. Zuev,  B. Albrecht,  E. Alguire,  
 S. A. Baeppler,  D. Barton,  Z. Benda,  Y. A. Bernard,  E. J. Berquist,  
 K. B. Bravaya,  H. Burton,  D. Casanova,  Chun-Min Chang,  Yunqing Chen,  
 A. Chien,  K. D. Closser,  M. P. Coons,  S. Dasgupta,  A. L. Dempwolff,  
 M. Diedenhofen,  Hainam Do,  R. G. Edgar,  Po-Tung Fang,  S. Fatehi,  
 Qingguo Feng,  J. Fosso-Tande,  Qinghui Ge,  A. Ghysels,  G. Gidofalvi,  
 J. Gomes,  J. Gonthier,  A. Gunina,  M. W. D. Hanson-Heine,  
 P. H. P. Harbach,  A. W. Hauser,  J. E. Herr,  E. G. Hohenstein,  
 Z. C. Holden,  Kerwin Hui,  T.-C. Jagau,  Hyunjun Ji,  B. Kaduk,  
 K. Khistyaev,  Jaehoon Kim,  P. Klunzinger,  K. Koh,  D. Kosenkov,  
 L. Koulias,  T. Kowalczyk,  C. M. Krauter,  A. Kunitsa,  Ka Un Lao,  
 A. Laurent,  K. V. Lawler,  Joonho Lee,  D. Lefrancois,  S. Lehtola,  
 D. S. Levine,  Yi-Pei Li,  You-Sheng Lin,  Fenglai Liu,  E. Livshits,  
 A. Luenser,  P. Manohar,  E. Mansoor,  S. F. Manzer,  Shan-Ping Mao,  
 Yuezhi Mao,  N. Mardirossian,  A. V. Marenich,  T. Markovich,  
 L. A. Martinez-Martinez,  S. A. Maurer,  N. J. Mayhall,  S. C. McKenzie,  
 J.-M. Mewes,  A. F. Morrison,  J. W. Mullinax,  K. Nanda,  
 T. S. Nguyen-Beck,  R. Olivares-Amaya,  J. A. Parkhill,  T. M. Perrine,  
 F. Plasser,  S. Prager,  A. Prociuk,  E. Ramos,  D. R. Rehn,  F. Rob,  
 M. Schneider,  N. Sergueev,  S. M. Sharada,  S. Sharma,  D. W. Small,  
 T. Stauch,  T. Stein,  Yu-Chuan Su,  A. J. W. Thom,  A. Tkatchenko,  
 T. Tsuchimochi,  L. Vogt,  O. Vydrov,  M. A. Watson,  J. Wenzel,  
 M. de Wergifosse,  T. A. Wesolowski,  A. White,  J. Witte,  A. Yamada,  
 Jun Yang,  K. Yao,  S. Yeganeh,  S. R. Yost,  Zhi-Qiang You,  A. Zech,  
 Igor Ying Zhang,  Xing Zhang,  Yan Zhao,  Ying Zhu,  B. R. Brooks,  
 G. K. L. Chan,  C. J. Cramer,  M. S. Gordon,  W. J. Hehre,  A. Klamt,  
 M. W. Schmidt,  C. D. Sherrill,  D. G. Truhlar,  A. Aspuru-Guzik,  R. Baer,  
 A. T. Bell,  N. A. Besley,  Jeng-Da Chai,  R. A. DiStasio Jr.,  A. Dreuw,  
 B. D. Dunietz,  T. R. Furlani,  Chao-Ping Hsu,  Yousung Jung,  Jing Kong,  
 D. S. Lambrecht,  WanZhen Liang,  C. Ochsenfeld,  V. A. Rassolov,  
 L. V. Slipchenko,  J. E. Subotnik,  T. Van Voorhis,  J. M. Herbert,  
 A. I. Krylov,  P. M. W. Gill,  M. Head-Gordon

 Contributors to earlier versions of Q-Chem not listed above: 
 R. D. Adamson,  B. Austin,  J. Baker,  G. J. O. Beran,  K. Brandhorst,  
 S. T. Brown,  E. F. C. Byrd,  A. K. Chakraborty,  C.-L. Cheng,  
 Siu Hung Chien,  D. M. Chipman,  D. L. Crittenden,  H. Dachsel,  
 R. J. Doerksen,  A. D. Dutoi,  L. Fusti-Molnar,  W. A. Goddard III,  
 A. Golubeva-Zadorozhnaya,  S. R. Gwaltney,  G. Hawkins,  A. Heyden,  
 S. Hirata,  G. Kedziora,  F. J. Keil,  C. Kelley,  Jihan Kim,  R. A. King,  
 R. Z. Khaliullin,  P. P. Korambath,  W. Kurlancheek,  A. M. Lee,  M. S. Lee,  
 S. V. Levchenko,  Ching Yeh Lin,  D. Liotard,  R. C. Lochan,  I. Lotan,  
 P. E. Maslen,  N. Nair,  D. P. O'Neill,  D. Neuhauser,  E. Neuscamman,  
 C. M. Oana,  R. Olson,  B. Peters,  R. Peverati,  P. A. Pieniazek,  
 Y. M. Rhee,  J. Ritchie,  M. A. Rohrdanz,  E. Rosta,  N. J. Russ,  
 H. F. Schaefer III,  N. E. Schultz,  N. Shenvi,  A. C. Simmonett,  A. Sodt,  
 D. Stuck,  K. S. Thanthiriwatte,  V. Vanovschi,  Tao Wang,  A. Warshel,  
 C. F. Williams,  Q. Wu,  X. Xu,  W. Zhang

 Please cite Q-Chem as follows:
 Y. Shao et al., Mol. Phys. 113, 184-215 (2015)
 DOI: 10.1080/00268976.2014.952696

 Q-Chem 5.0.2 for Intel X86 EM64T Linux

 Parts of Q-Chem use Armadillo 5.200.1 (Boston Tea Smuggler).
 http://arma.sourceforge.net/

 Q-Chem begins on Wed Mar  2 22:35:18 2022  

Host: 
0

     Scratch files written to ./qcfsm.d//
 Dec517 15110_ 26548  26544 5633   
Processing $rem in /home/leeping/opt/qchem/5.0.2-openmp/config/preferences.
 MEM_STATIC 2000
 MEM_TOTAL  8000
 SYMMETRY   OFF
 SYM_IGNORE TRUE 
 Now reading second FSM geometry

Checking the input file for inconsistencies... 	...done.

--------------------------------------------------------------
User input:
--------------------------------------------------------------
$molecule
0 2
C        1.5486951731    0.2442336635   -0.2494075832
C        0.5832877847   -0.9254885455   -0.0949144588
C       -0.7096484807   -0.3596107883   -0.7855341012
C       -1.1193955337    0.1992909432    0.5904615686
C       -0.4422521773    1.0835525612   -0.5517996318
N        0.9671171309    1.3696570034   -0.4538244963
H        2.6208252181    0.1780447767   -0.0708608150
H        0.9605783932   -1.9279423739   -0.3083543462
H       -1.3195292186   -0.8226233496   -1.5554190234
H       -2.0921367155    0.5063234239    0.9619766907
H       -1.0832887086    1.8560368313   -0.9641885398
C       -0.1340248975   -0.6634536071    1.2281084250
H        0.2197720324   -0.7380205390    2.2537563110
****
C        1.4825262366    0.2724595264   -0.7649623947
C        1.0842505515   -1.0146957399   -0.4537000461
C       -0.1315368792   -1.4385824429    0.1917562246
C       -1.2193666095    0.7947875889    0.5407952649
C       -0.2920915918    1.6651961865    0.0005430056
N        0.9151843555    1.4874212231   -0.5873220825
H        2.4543706808    0.3437696155   -1.2585250186
H        1.7794107539   -1.8025664178   -0.7335498454
H       -0.2407532086   -2.5112209868    0.3392405509
H       -2.1154014306    1.2563521990    0.9489891892
H       -0.5710466372    2.7200982700    0.0486551365
C       -1.1467847616   -0.6418090736    0.6301777699
H       -1.9987614597   -1.1312099485    1.0979022460
$end

$rem
method                b3lyp
basis                 6-31g(d)
unrestricted          true
symmetry              off
sym_ignore            true
incdft                false
incfock               0
scf_convergence       8
thresh                14
jobtype               fsm
scf_algorithm         rca_diis
thresh_rca_switch     4
max_scf_cycles        300
fsm_nnode             21
fsm_ngrad             6
fsm_mode              2
fsm_opt_mode          2
$end

--------------------------------------------------------------
 ----------------------------------------------------------------
             Standard Nuclear Orientation (Angstroms)
    I     Atom           X                Y                Z
 ----------------------------------------------------------------
    1      C       1.5486951731     0.2442336635    -0.2494075832
    2      C       0.5832877847    -0.9254885455    -0.0949144588
    3      C      -0.7096484807    -0.3596107883    -0.7855341012
    4      C      -1.1193955337     0.1992909432     0.5904615686
    5      C      -0.4422521773     1.0835525612    -0.5517996318
    6      N       0.9671171309     1.3696570034    -0.4538244963
    7      H       2.6208252181     0.1780447767    -0.0708608150
    8      H       0.9605783932    -1.9279423739    -0.3083543462
    9      H      -1.3195292186    -0.8226233496    -1.5554190234
   10      H      -2.0921367155     0.5063234239     0.9619766907
   11      H      -1.0832887086     1.8560368313    -0.9641885398
   12      C      -0.1340248975    -0.6634536071     1.2281084250
   13      H       0.2197720324    -0.7380205390     2.2537563110
 ----------------------------------------------------------------
 Nuclear Repulsion Energy =   282.1903129743 hartrees
 There are       25 alpha and       24 beta electrons
 Requested basis set is 6-31G(d)
 There are 40 shells and 117 basis functions

 Total QAlloc Memory Limit   8000 MB
 Mega-Array Size      1956 MB
 MEM_STATIC part      2000 MB
 beginning FSman 

*******************************************
*******************************************
******** Starting FSM Calculation *********
*******************************************
*******************************************
-FSM parameters:
 Maximum displacement of each coordinate during optimization (Angstrom)      0.05
 Maximum optimization steps for each new node                                6
 The scaling factor for optimization (hartrees/Angstrom^2)                   1.75
 The number of LST interpolations used for reparameterization                100
-Aligning product structure to maximum coincidence with the reactant structure
 Total R --> P Distance 4.950893
 New node interpolation distace (Angstroms): 0.24
-Performing force calculation on reactant structure in state:0
 ----------------------------------------------------------------
             Standard Nuclear Orientation (Angstroms)
    I     Atom           X                Y                Z
 ----------------------------------------------------------------
    1      C       1.5486951731     0.2442336635    -0.2494075832
    2      C       0.5832877847    -0.9254885455    -0.0949144588
    3      C      -0.7096484807    -0.3596107883    -0.7855341012
    4      C      -1.1193955337     0.1992909432     0.5904615686
    5      C      -0.4422521773     1.0835525612    -0.5517996318
    6      N       0.9671171309     1.3696570034    -0.4538244963
    7      H       2.6208252181     0.1780447767    -0.0708608150
    8      H       0.9605783932    -1.9279423739    -0.3083543462
    9      H      -1.3195292186    -0.8226233496    -1.5554190234
   10      H      -2.0921367155     0.5063234239     0.9619766907
   11      H      -1.0832887086     1.8560368313    -0.9641885398
   12      C      -0.1340248975    -0.6634536071     1.2281084250
   13      H       0.2197720324    -0.7380205390     2.2537563110
 ----------------------------------------------------------------
 Nuclear Repulsion Energy =   282.1903129743 hartrees
 There are       25 alpha and       24 beta electrons

                       Distance Matrix (Angstroms)
             C (  1)   C (  2)   C (  3)   C (  4)   C (  5)   N (  6)
   C (  2)  1.524510
   C (  3)  2.398369  1.571260
   C (  4)  2.797518  2.152673  1.540658
   C (  5)  2.181689  2.301461  1.486221  1.595369
   N (  6)  1.283198  2.354535  2.431448  2.610330  1.441450
   H (  7)  1.088909  2.317309  3.448461  3.798296  3.230122  2.073970
   H (  8)  2.251156  1.092162  2.340304  3.107939  3.331111  3.300813
   H (  9)  3.327245  2.400910  1.085844  2.385197  2.326021  3.353857
   H ( 10)  3.846011  3.213254  2.390588  1.085596  2.312322  3.479780
   H ( 11)  3.167990  3.357082  2.254023  2.272234  1.085230  2.168225
   C ( 12)  2.416298  1.527609  2.116228  1.456666  2.512988  2.859187
   H ( 13)  2.999448  2.384018  3.200672  2.332053  3.409919  3.511670
             H (  7)   H (  8)   H (  9)   H ( 10)   H ( 11)   C ( 12)
   H (  8)  2.692212
   H (  9)  4.328007  2.824144
   H ( 10)  4.835962  4.105906  2.949628
   H ( 11)  4.163430  4.350403  2.753286  2.559221
   C ( 12)  3.159848  2.271080  3.029650  2.296390  3.472045
   H ( 13)  3.465267  2.920466  4.109309  2.926091  4.333852  1.087514

 
 Requested basis set is 6-31G(d)
 There are 40 shells and 117 basis functions
 A cutoff of  1.0D-14 yielded    812 shell pairs
 There are      7084 function pairs
 
 -------------------------------------------------------
 OpenMP Integral Computing Module                       
 Release: version 1.0, May 2013, Q-Chem Inc. Pittsburgh 
 -------------------------------------------------------
 Integral Job Info:
 Integral job number is                      11
 Integral operator is                         1
 short-range coefficients                     0
 long-range coefficients              100000000
 Omega coefficients                           0
 if combine SR and LR in K                    0
 Integral screening is                        0
 Integral computing path is                   2
 max size of driver memory is            800000
 size of driver memory is                593474
 size of scratch memory is              2361544
 max col of scratch BK array               1296
 max len of scratch array in speh3          155
 max len of scratch index in speh4           18
 max int batch size is                      520
 min int batch size is                       52
 fixed nKL is                                52
 max L of basis functions is                  2
 order of int derivative is                   0
 number of shells is                         40
 number of basis is                         117
 number of cartesian basis is               117
 number of contracted shell pairs           812
 number of primitive shell pairs           3615
 maxK2 (contraction) of shell pair           36
 max number of K2 of shell pair               1
 max number of CS2 of shell pair             84
 max number of PS2 of shell pair            426
 mem total for path MDJ                  535308
 -------------------------------------------------------
 Smallest overlap matrix eigenvalue = 1.65E-03

 Scale SEOQF with 1.000000e-01/1.000000e-01/1.000000e-01

 Standard Electronic Orientation quadrupole field applied
 Nucleus-field energy     =     0.0000000015 hartrees
 Guess from superposition of atomic densities
 Warning:  Energy on first SCF cycle will be non-variational
 SAD guess density has 49.000000 electrons
 An unrestricted hybrid HF-DFT SCF calculation will be
 performed using Relaxed Constraint Minimization + Pulay DIIS
 Exchange:     0.2000 Hartree-Fock + 0.0800 Slater + 0.7200 B88
 Correlation:  0.1900 VWN1RPA + 0.8100 LYP
 Using SG-1 standard quadrature grid
 SCF converges when DIIS error is below 1.0E-08
 using 4 threads for integral computing
 -------------------------------------------------------
 OpenMP Integral computing Module                
 Release: version 1.0, May 2013, Q-Chem Inc. Pittsburgh 
 -------------------------------------------------------
 -------------------------------------------------------
 OpenMP BLAS3 based DFT computing Module                
 Release: version 1.0, May 2013, Q-Chem Inc. Pittsburgh 
 -------------------------------------------------------
 -------------------------------------------------------
 OpenMP BLAS3 based DFT computing Module                
 Release: version 1.0, May 2013, Q-Chem Inc. Pittsburgh 
 -------------------------------------------------------
 ---------------------------------------
  Cycle       Energy         DIIS Error
 ---------------------------------------
    1    -288.6019099347      7.56E-02
    2    -286.7555306985      6.38E-03
    3    -286.7882897345      1.81E-03
    4    -286.8321863688      1.80E-03
    5    -286.8342669230      5.61E-04
    6    -286.8374160636      4.25E-04
    7    -286.8377347225      1.55E-04
    8    -286.8381195823      3.42E-04
    9    -286.8381884708      9.36E-05 Done RCA. Switching to DIIS
   10    -286.8382435135      2.07E-04
   11    -286.8383138216      1.89E-06
   12    -286.8383138619      8.16E-07
   13    -286.8383138757      3.90E-07
   14    -286.8383138811      1.47E-07
   15    -286.8383138841      7.18E-08
   16    -286.8383138850      4.12E-08
   17    -286.8383138855      2.45E-08
   18    -286.8383138856      9.84E-09 Convergence criterion met
 ---------------------------------------
 <S^2> = 0.7566
 SCF time:  CPU 55.96 s  wall 18.65 s
 SCF   energy in the final basis set = -286.83831389
 Total energy in the final basis set = -286.83831389
 
 --------------------------------------------------------------
 
                    Orbital Energies (a.u.)
 --------------------------------------------------------------
 
 Alpha MOs
 -- Occupied --
-14.320 -10.224 -10.220 -10.210 -10.209 -10.208 -10.206  -0.968
 -0.856  -0.749  -0.664  -0.606  -0.571  -0.535  -0.517  -0.466
 -0.439  -0.405  -0.400  -0.356  -0.337  -0.298  -0.274  -0.256
 -0.182
 -- Virtual --
  0.004   0.100   0.114   0.128   0.150   0.150   0.153   0.162
  0.177   0.200   0.221   0.262   0.280   0.296   0.348   0.391
  0.494   0.513   0.524   0.543   0.558   0.573   0.601   0.604
  0.606   0.659   0.675   0.678   0.720   0.741   0.770   0.777
  0.805   0.807   0.822   0.842   0.854   0.877   0.888   0.936
  0.954   0.973   1.043   1.096   1.206   1.237   1.328   1.390
  1.446   1.475   1.504   1.517   1.587   1.632   1.672   1.713
  1.742   1.828   1.873   1.881   1.932   1.954   1.988   2.027
  2.060   2.168   2.207   2.217   2.232   2.254   2.363   2.380
  2.456   2.490   2.502   2.542   2.590   2.626   2.664   2.676
  2.718   2.808   2.841   2.914   2.963   3.959   4.194   4.239
  4.362   4.433   4.508   4.640
 
 Beta MOs
 -- Occupied --
-14.319 -10.222 -10.219 -10.211 -10.209 -10.207 -10.193  -0.964
 -0.850  -0.741  -0.652  -0.601  -0.567  -0.528  -0.511  -0.461
 -0.434  -0.402  -0.394  -0.348  -0.332  -0.291  -0.262  -0.251
 -- Virtual --
 -0.062   0.020   0.102   0.118   0.134   0.151   0.156   0.157
  0.165   0.181   0.204   0.227   0.267   0.284   0.298   0.359
  0.394   0.497   0.519   0.532   0.553   0.561   0.578   0.607
  0.610   0.622   0.669   0.679   0.683   0.729   0.745   0.775
  0.786   0.808   0.809   0.824   0.844   0.858   0.882   0.892
  0.940   0.958   0.977   1.047   1.108   1.208   1.243   1.335
  1.392   1.450   1.480   1.514   1.525   1.594   1.640   1.677
  1.716   1.751   1.835   1.878   1.894   1.940   1.970   1.994
  2.035   2.068   2.172   2.222   2.226   2.242   2.270   2.368
  2.390   2.463   2.497   2.510   2.546   2.594   2.633   2.666
  2.684   2.725   2.813   2.845   2.917   2.965   3.961   4.208
  4.245   4.368   4.438   4.511   4.644
 --------------------------------------------------------------
 
          Ground-State Mulliken Net Atomic Charges

     Atom                 Charge (a.u.)    Spin (a.u.)
  --------------------------------------------------------
      1 C                     0.088679       0.046531
      2 C                    -0.258586      -0.065662
      3 C                    -0.108001       0.078139
      4 C                    -0.163334      -0.095696
      5 C                    -0.019139       0.096314
      6 N                    -0.342093       0.039632
      7 H                     0.143042       0.001400
      8 H                     0.142887       0.022631
      9 H                     0.148132      -0.000816
     10 H                     0.147237       0.005297
     11 H                     0.151384       0.002887
     12 C                    -0.066443       0.888639
     13 H                     0.136234      -0.019295
  --------------------------------------------------------
  Sum of atomic charges =     0.000000
  Sum of spin   charges =     1.000000

 -----------------------------------------------------------------
                    Cartesian Multipole Moments
 -----------------------------------------------------------------
    Charge (ESU x 10^10)
                -0.0000
    Dipole Moment (Debye)
         X      -0.9587      Y      -1.8079      Z       0.1099
       Tot       2.0493
    Quadrupole Moments (Debye-Ang)
        XX     -37.7191     XY      -4.6408     YY     -43.8150
        XZ       1.7594     YZ       1.0444     ZZ     -39.7858
    Octopole Moments (Debye-Ang^2)
       XXX      -7.5601    XXY      -6.0931    XYY      -9.3359
       YYY     -21.1113    XXZ       1.7920    XYZ       0.7640
       YYZ      -0.0782    XZZ      -5.6665    YZZ      -6.1911
       ZZZ       7.0393
    Hexadecapole Moments (Debye-Ang^3)
      XXXX    -253.7845   XXXY     -13.2363   XXYY     -88.9578
      XYYY     -24.4732   YYYY    -234.3838   XXXZ      11.9595
      XXYZ      12.8034   XYYZ       9.8641   YYYZ      31.5381
      XXZZ     -74.7728   XYZZ      -4.3273   YYZZ     -67.4832
      XZZZ      16.7069   YZZZ      27.9392   ZZZZ    -167.5967
 -----------------------------------------------------------------
 Calculating analytic gradient of the SCF energy
 Gradient of SCF Energy
            1           2           3           4           5           6
    1   0.0000879   0.0000102  -0.0000626  -0.0000146   0.0000004  -0.0000211
    2   0.0001478   0.0000433  -0.0001699   0.0001108   0.0000426  -0.0000677
    3   0.0001837  -0.0001030   0.0000141  -0.0000481   0.0001365  -0.0001421
            7           8           9          10          11          12
    1   0.0000107   0.0000295  -0.0000039  -0.0000066  -0.0000272  -0.0000155
    2   0.0000292   0.0000315   0.0000268  -0.0000472  -0.0000168  -0.0001060
    3   0.0000276  -0.0000249  -0.0000095   0.0000379  -0.0000000  -0.0000322
           13
    1   0.0000130
    2  -0.0000243
    3  -0.0000400
 Max gradient component =       1.837E-04
 RMS gradient           =       7.053E-05
 Gradient time:  CPU 7.87 s  wall 2.02 s
-Performing force calculation on product structure in state0
 ----------------------------------------------------------------
             Standard Nuclear Orientation (Angstroms)
    I     Atom           X                Y                Z
 ----------------------------------------------------------------
    1      C       1.4825686265     0.2724442898    -0.7648856633
    2      C       1.0843243937    -1.0146962825    -0.4535223242
    3      C      -0.1314907729    -1.4385686733     0.1918910999
    4      C      -1.2194374577     0.7947912619     0.5406300908
    5      C      -0.2921605721     1.6651841357     0.0003557053
    6      N       0.9151639803     1.4874002801    -0.5874068642
    7      H       2.4544447469     0.3437451822    -1.2583872393
    8      H       1.7795368498    -1.8025662018    -0.7332444242
    9      H      -0.2406730406    -2.5111969601     0.3394752107
   10      H      -2.1155200275     1.2563596534     0.9487149076
   11      H      -0.5711626680     2.7200794810     0.0483425917
   12      C      -1.1468024031    -0.6417934332     0.6301615946
   13      H      -1.9987916549    -1.1311827335     1.0978753143
 ----------------------------------------------------------------
 Nuclear Repulsion Energy =   260.7257906948 hartrees
 There are       25 alpha and       24 beta electrons

                       Distance Matrix (Angstroms)
             C (  1)   C (  2)   C (  3)   C (  4)   C (  5)   N (  6)
   C (  2)  1.382851
   C (  3)  2.539326  1.440289
   C (  4)  3.045990  3.093526  2.508614
   C (  5)  2.382222  3.046715  3.113805  1.381782
   N (  6)  1.352614  2.511380  3.203761  2.511712  1.354513
   H (  7)  1.092324  2.090550  3.459337  4.115497  3.297647  2.031637
   H (  8)  2.096392  1.087338  2.154158  4.166878  4.105532  3.404745
   H (  9)  3.455117  2.150344  1.088225  3.453694  4.190443  4.264253
   H ( 10)  4.104968  4.166890  3.431005  1.087448  2.095510  3.405598
   H ( 11)  3.296979  4.115951  4.184289  2.090297  1.092222  2.032939
   C ( 12)  3.113773  2.508257  1.363008  1.441203  2.539530  3.204316
   H ( 13)  4.190455  3.453405  2.098120  2.151114  3.454968  4.264773
             H (  7)   H (  8)   H (  9)   H ( 10)   H ( 11)   C ( 12)
   H (  8)  2.310396
   H (  9)  4.238811  2.394605
   H ( 10)  5.156427  5.230438  4.252141
   H ( 11)  4.063103  5.156645  5.249784  2.310451
   C ( 12)  4.184123  3.430704  2.097675  2.154733  3.460067
   H ( 13)  5.249638  4.252002  2.360210  2.395043  4.239324  1.088184

 
 Applying Cartesian multipole field
    Component          Value
    ---------          -----
     (2,0,0)        1.00000E-11
     (0,2,0)        2.00000E-11
     (0,0,2)       -3.00000E-11
 Nucleus-field energy     =     0.0000000060 hartrees
 Requested basis set is 6-31G(d)
 There are 40 shells and 117 basis functions
 A cutoff of  1.0D-14 yielded    791 shell pairs
 There are      7063 function pairs
 Smallest overlap matrix eigenvalue = 1.33E-03
 Guess from superposition of atomic densities
 Warning:  Energy on first SCF cycle will be non-variational
 SAD guess density has 49.000000 electrons
 An unrestricted hybrid HF-DFT SCF calculation will be
 performed using Relaxed Constraint Minimization + Pulay DIIS
 Exchange:     0.2000 Hartree-Fock + 0.0800 Slater + 0.7200 B88
 Correlation:  0.1900 VWN1RPA + 0.8100 LYP
 Using SG-1 standard quadrature grid
 SCF converges when DIIS error is below 1.0E-08
 using 4 threads for integral computing
 -------------------------------------------------------
 OpenMP Integral computing Module                
 Release: version 1.0, May 2013, Q-Chem Inc. Pittsburgh 
 -------------------------------------------------------
 -------------------------------------------------------
 OpenMP BLAS3 based DFT computing Module                
 Release: version 1.0, May 2013, Q-Chem Inc. Pittsburgh 
 -------------------------------------------------------
 -------------------------------------------------------
 OpenMP BLAS3 based DFT computing Module                
 Release: version 1.0, May 2013, Q-Chem Inc. Pittsburgh 
 -------------------------------------------------------
 ---------------------------------------
  Cycle       Energy         DIIS Error
 ---------------------------------------
    1    -288.3972357870      7.27E-02
    2    -286.8383692889      6.58E-03
    3    -286.8780265044      1.46E-03
    4    -286.9201273402      1.54E-03
    5    -286.9215845068      4.35E-04
    6    -286.9237013576      4.03E-04
    7    -286.9239227878      9.97E-05 Done RCA. Switching to DIIS
    8    -286.9242546737      2.04E-04
    9    -286.9243411773      1.56E-05
   10    -286.9243486218      4.19E-06
   11    -286.9243496252      7.40E-07
   12    -286.9243497248      4.85E-07
   13    -286.9243497488      3.86E-07
   14    -286.9243497503      9.38E-08
   15    -286.9243497504      2.73E-08
   16    -286.9243497504      2.63E-08
   17    -286.9243497504      1.58E-08
   18    -286.9243497505      8.37E-09 Convergence criterion met
 ---------------------------------------
 <S^2> = 0.7684
 SCF time:  CPU 51.42 s  wall 20.38 s
 SCF   energy in the final basis set = -286.92434975
 Total energy in the final basis set = -286.92434975
 
 --------------------------------------------------------------
 
                    Orbital Energies (a.u.)
 --------------------------------------------------------------
 
 Alpha MOs
 -- Occupied --
-14.322 -10.232 -10.232 -10.212 -10.211 -10.201 -10.200  -0.922
 -0.818  -0.784  -0.693  -0.667  -0.551  -0.537  -0.518  -0.449
 -0.439  -0.414  -0.394  -0.386  -0.349  -0.322  -0.299  -0.251
 -0.162
 -- Virtual --
 -0.072   0.077   0.097   0.101   0.117   0.142   0.181   0.184
  0.193   0.213   0.266   0.320   0.356   0.390   0.412   0.483
  0.496   0.521   0.547   0.576   0.584   0.587   0.591   0.610
  0.619   0.624   0.646   0.658   0.714   0.718   0.833   0.840
  0.847   0.854   0.868   0.872   0.885   0.922   0.965   0.975
  1.024   1.027   1.043   1.127   1.177   1.185   1.300   1.303
  1.326   1.401   1.429   1.480   1.482   1.546   1.574   1.586
  1.682   1.732   1.769   1.829   1.850   1.919   1.925   2.030
  2.046   2.048   2.100   2.141   2.142   2.191   2.247   2.391
  2.410   2.414   2.446   2.545   2.577   2.601   2.614   2.739
  2.749   2.807   3.052   3.250   3.250   4.018   4.046   4.102
  4.196   4.239   4.532   4.595
 
 Beta MOs
 -- Occupied --
-14.314 -10.233 -10.233 -10.210 -10.210 -10.196 -10.196  -0.911
 -0.809  -0.777  -0.681  -0.665  -0.546  -0.535  -0.514  -0.447
 -0.438  -0.411  -0.383  -0.373  -0.348  -0.295  -0.276  -0.241
 -- Virtual --
 -0.078  -0.070   0.078   0.118   0.124   0.125   0.142   0.182
  0.187   0.196   0.219   0.268   0.324   0.360   0.393   0.415
  0.486   0.504   0.525   0.551   0.587   0.588   0.592   0.596
  0.614   0.624   0.629   0.649   0.676   0.716   0.729   0.834
  0.843   0.846   0.869   0.875   0.880   0.887   0.925   0.967
  0.979   1.026   1.030   1.045   1.133   1.180   1.189   1.311
  1.315   1.333   1.411   1.429   1.489   1.492   1.560   1.582
  1.597   1.685   1.737   1.781   1.831   1.853   1.922   1.933
  2.036   2.058   2.061   2.110   2.141   2.147   2.203   2.259
  2.399   2.422   2.426   2.448   2.558   2.578   2.611   2.624
  2.742   2.761   2.810   3.054   3.252   3.254   4.030   4.053
  4.109   4.200   4.239   4.537   4.601
 --------------------------------------------------------------
 
          Ground-State Mulliken Net Atomic Charges

     Atom                 Charge (a.u.)    Spin (a.u.)
  --------------------------------------------------------
      1 C                     0.036367      -0.114977
      2 C                    -0.132056       0.351009
      3 C                    -0.110752       0.088638
      4 C                    -0.131163       0.342998
      5 C                     0.035047      -0.110214
      6 N                    -0.423420       0.386794
      7 H                     0.142537       0.003518
      8 H                     0.134294      -0.018519
      9 H                     0.141994      -0.006393
     10 H                     0.134432      -0.018150
     11 H                     0.142665       0.003282
     12 C                    -0.111852       0.098899
     13 H                     0.141908      -0.006884
  --------------------------------------------------------
  Sum of atomic charges =    -0.000000
  Sum of spin   charges =     1.000000

 -----------------------------------------------------------------
                    Cartesian Multipole Moments
 -----------------------------------------------------------------
    Charge (ESU x 10^10)
                -0.0000
    Dipole Moment (Debye)
         X      -1.1145      Y      -1.8114      Z       0.7140
       Tot       2.2435
    Quadrupole Moments (Debye-Ang)
        XX     -38.0795     XY      -3.5510     YY     -39.5995
        XZ      -2.3331     YZ       1.4501     ZZ     -42.3206
    Octopole Moments (Debye-Ang^2)
       XXX     -10.0170    XXY      -9.2754    XYY     -11.3374
       YYY     -24.6254    XXZ       2.8082    XYZ       2.9273
       YYZ       6.9574    XZZ      -3.6950    YZZ      -6.7784
       ZZZ       6.2628
    Hexadecapole Moments (Debye-Ang^3)
      XXXX    -318.8500   XXXY      -0.2031   XXYY    -127.6189
      XYYY     -15.7004   YYYY    -393.9335   XXXZ      57.3606
      XXYZ       7.7185   XYYZ      25.1560   YYYZ      21.0898
      XXZZ     -70.8392   XYZZ       0.9638   YYZZ     -94.5148
      XZZZ      74.3815   YZZZ      14.5167   ZZZZ    -123.0898
 -----------------------------------------------------------------
 Calculating analytic gradient of the SCF energy
 Gradient of SCF Energy
            1           2           3           4           5           6
    1  -0.0000004  -0.0000287   0.0000227   0.0000649  -0.0001748   0.0001393
    2   0.0002495  -0.0001253   0.0000344  -0.0000025   0.0000113  -0.0001481
    3   0.0000822   0.0000028   0.0000057  -0.0000011  -0.0000215  -0.0000545
            7           8           9          10          11          12
    1  -0.0000053  -0.0000118   0.0000017   0.0000052   0.0000227  -0.0000289
    2  -0.0000123   0.0000052  -0.0000101   0.0000175   0.0000065  -0.0000157
    3  -0.0000339  -0.0000235  -0.0000219   0.0000232   0.0000405   0.0000265
           13
    1  -0.0000066
    2  -0.0000105
    3  -0.0000243
 Max gradient component =       2.495E-04
 RMS gradient           =       6.701E-05
 Gradient time:  CPU 7.78 s  wall 2.82 s

STARTING FREEZING STRING ITERATION # 1
 The distance between the innermost nodes (Angstroms): 4.951
-Adding two new nodes
 The distance between the previous and current R_nodes (Angstroms): 0.2456
 The distance between the previous and current P_nodes (Angstroms): 0.2499
-Optimizing new reactant side node
 Using BFGS, step: 2 E_tol 0.0860
 max_steps 6, node_spacing 0.2358, sigma 0.7000
 ----------------------------------------------------------------
             Standard Nuclear Orientation (Angstroms)
    I     Atom           X                Y                Z
 ----------------------------------------------------------------
    1      C       1.5527042762     0.2489012981    -0.2720005626
    2      C       0.6215317645    -0.9350847173    -0.1213427625
    3      C      -0.6967862518    -0.4234053363    -0.7781023274
    4      C      -1.1249609400     0.2512680181     0.6020938221
    5      C      -0.4411557365     1.1202488344    -0.5276043141
    6      N       0.9688519290     1.3808104515    -0.4552767529
    7      H       2.6304404361     0.1880611446    -0.1306878497
    8      H       1.0220267672    -1.9269717896    -0.3407366512
    9      H      -1.3039675403    -0.9414234752    -1.5138571484
   10      H      -2.0980288421     0.5618986121     0.9697392484
   11      H      -1.0685058824     1.9134324778    -0.9221093136
   12      C      -0.1852064726    -0.6713450120     1.2152864457
   13      H       0.1144101343    -0.7727000463     2.2552809489
 ----------------------------------------------------------------
 Nuclear Repulsion Energy =   279.7302489627 hartrees
 There are       25 alpha and       24 beta electrons

                       Distance Matrix (Angstroms)
             C (  1)   C (  2)   C (  3)   C (  4)   C (  5)   N (  6)
   C (  2)  1.513804
   C (  3)  2.401737  1.559202
   C (  4)  2.816725  2.231822  1.594823
   C (  5)  2.190903  2.349202  1.584602  1.580802
   N (  6)  1.286737  2.365484  2.476643  2.603450  1.435704
   H (  7)  1.088662  2.301577  3.444339  3.826748  3.234381  2.070962
   H (  8)  2.240707  1.091957  2.325149  3.200502  3.385465  3.310192
   H (  9)  3.334615  2.376275  1.085517  2.435530  2.442874  3.417466
   H ( 10)  3.868816  3.290506  2.447295  1.085595  2.301960  3.479518
   H ( 11)  3.172388  3.407566  2.370596  2.255920  1.085515  2.156953
   C ( 12)  2.465605  1.583339  2.072869  1.452707  2.512566  2.886862
   H ( 13)  3.082128  2.435545  3.159345  2.305988  3.411211  3.565782
             H (  7)   H (  8)   H (  9)   H ( 10)   H ( 11)   C ( 12)
   H (  8)  2.665423
   H (  9)  4.320701  2.785277
   H ( 10)  4.869201  4.200782  3.009778
   H ( 11)  4.157578  4.411012  2.925032  2.542765
   C ( 12)  3.236988  2.335641  2.961890  2.289121  3.468393
   H ( 13)  3.598099  2.982519  4.030715  2.885941  4.325553  1.087029

 
 Applying Cartesian multipole field
    Component          Value
    ---------          -----
     (2,0,0)        1.00000E-11
     (0,2,0)        2.00000E-11
     (0,0,2)       -3.00000E-11
 Nucleus-field energy     =     0.0000000017 hartrees
 Requested basis set is 6-31G(d)
 There are 40 shells and 117 basis functions
 A cutoff of  1.0D-14 yielded    812 shell pairs
 There are      7084 function pairs
 Smallest overlap matrix eigenvalue = 1.90E-03
 Guess from superposition of atomic densities
 Warning:  Energy on first SCF cycle will be non-variational
 SAD guess density has 49.000000 electrons
 An unrestricted hybrid HF-DFT SCF calculation will be
 performed using Relaxed Constraint Minimization + Pulay DIIS
 Exchange:     0.2000 Hartree-Fock + 0.0800 Slater + 0.7200 B88
 Correlation:  0.1900 VWN1RPA + 0.8100 LYP
 Using SG-1 standard quadrature grid
 SCF converges when DIIS error is below 1.0E-08
 using 4 threads for integral computing
 -------------------------------------------------------
 OpenMP Integral computing Module                
 Release: version 1.0, May 2013, Q-Chem Inc. Pittsburgh 
 -------------------------------------------------------
 -------------------------------------------------------
 OpenMP BLAS3 based DFT computing Module                
 Release: version 1.0, May 2013, Q-Chem Inc. Pittsburgh 
 -------------------------------------------------------
 -------------------------------------------------------
 OpenMP BLAS3 based DFT computing Module                
 Release: version 1.0, May 2013, Q-Chem Inc. Pittsburgh 
 -------------------------------------------------------
 ---------------------------------------
  Cycle       Energy         DIIS Error
 ---------------------------------------
    1    -288.4491410149      7.32E-02
    2    -286.7528761157      6.11E-03
    3    -286.7832968802      1.75E-03
    4    -286.8232262250      1.82E-03
    5    -286.8253157681      5.65E-04
    6    -286.8284124532      3.78E-04
    7    -286.8287834455      2.23E-04
    8    -286.8290577676      2.78E-04
    9    -286.8291685813      4.10E-05 Done RCA. Switching to DIIS
   10    -286.8294040424      8.91E-05
   11    -286.8294181446      1.70E-06
   12    -286.8294181833      6.46E-07
   13    -286.8294181934      3.33E-07
   14    -286.8294181956      1.03E-07
   15    -286.8294181965      3.54E-08
   16    -286.8294181967      2.22E-08
   17    -286.8294181968      1.47E-08
   18    -286.8294181969      5.91E-09 Convergence criterion met
 ---------------------------------------
 <S^2> = 0.7566
 SCF time:  CPU 56.57 s  wall 18.99 s
 SCF   energy in the final basis set = -286.82941820
 Total energy in the final basis set = -286.82941820
 
 --------------------------------------------------------------
 
                    Orbital Energies (a.u.)
 --------------------------------------------------------------
 
 Alpha MOs
 -- Occupied --
-14.321 -10.229 -10.220 -10.218 -10.212 -10.211 -10.208  -0.959
 -0.849  -0.740  -0.665  -0.604  -0.579  -0.531  -0.512  -0.464
 -0.435  -0.406  -0.399  -0.359  -0.344  -0.285  -0.273  -0.255
 -0.178
 -- Virtual --
 -0.002   0.096   0.103   0.128   0.146   0.148   0.151   0.163
  0.179   0.190   0.206   0.260   0.276   0.294   0.341   0.393
  0.498   0.508   0.518   0.535   0.556   0.573   0.582   0.590
  0.605   0.655   0.669   0.675   0.712   0.738   0.770   0.780
  0.805   0.815   0.830   0.841   0.856   0.877   0.893   0.938
  0.956   0.971   1.048   1.091   1.188   1.208   1.340   1.385
  1.437   1.463   1.501   1.522   1.573   1.615   1.644   1.708
  1.723   1.815   1.848   1.875   1.915   1.935   1.960   2.024
  2.064   2.141   2.191   2.203   2.231   2.260   2.339   2.351
  2.443   2.469   2.499   2.530   2.589   2.613   2.636   2.659
  2.679   2.772   2.819   2.918   2.960   3.956   4.181   4.235
  4.330   4.430   4.487   4.600
 
 Beta MOs
 -- Occupied --
-14.320 -10.228 -10.220 -10.215 -10.213 -10.212 -10.196  -0.955
 -0.842  -0.736  -0.651  -0.599  -0.575  -0.525  -0.506  -0.457
 -0.431  -0.403  -0.393  -0.353  -0.338  -0.277  -0.262  -0.248
 -- Virtual --
 -0.055   0.012   0.100   0.106   0.133   0.148   0.153   0.155
  0.167   0.184   0.192   0.213   0.263   0.281   0.297   0.353
  0.395   0.501   0.512   0.525   0.545   0.560   0.579   0.587
  0.599   0.616   0.665   0.673   0.680   0.722   0.741   0.773
  0.790   0.808   0.817   0.831   0.844   0.860   0.885   0.896
  0.941   0.959   0.975   1.051   1.105   1.191   1.213   1.348
  1.386   1.440   1.468   1.509   1.530   1.581   1.623   1.649
  1.713   1.733   1.827   1.855   1.885   1.920   1.945   1.970
  2.030   2.074   2.150   2.195   2.214   2.255   2.266   2.344
  2.361   2.453   2.474   2.504   2.536   2.592   2.617   2.645
  2.662   2.686   2.777   2.824   2.920   2.962   3.958   4.193
  4.241   4.339   4.434   4.490   4.604
 --------------------------------------------------------------
 
          Ground-State Mulliken Net Atomic Charges

     Atom                 Charge (a.u.)    Spin (a.u.)
  --------------------------------------------------------
      1 C                     0.096103       0.026974
      2 C                    -0.251667      -0.063338
      3 C                    -0.124902       0.120604
      4 C                    -0.158069      -0.091430
      5 C                    -0.013034       0.067105
      6 N                    -0.342987       0.035050
      7 H                     0.142496       0.001653
      8 H                     0.143854       0.015917
      9 H                     0.150860      -0.003107
     10 H                     0.151561       0.005305
     11 H                     0.151587       0.005215
     12 C                    -0.078264       0.890791
     13 H                     0.132463      -0.010737
  --------------------------------------------------------
  Sum of atomic charges =    -0.000000
  Sum of spin   charges =     1.000000

 -----------------------------------------------------------------
                    Cartesian Multipole Moments
 -----------------------------------------------------------------
    Charge (ESU x 10^10)
                 0.0000
    Dipole Moment (Debye)
         X      -1.0252      Y      -1.7393      Z       0.1067
       Tot       2.0218
    Quadrupole Moments (Debye-Ang)
        XX     -37.6746     XY      -4.7605     YY     -43.5134
        XZ       1.3120     YZ       1.4178     ZZ     -40.2609
    Octopole Moments (Debye-Ang^2)
       XXX      -7.4819    XXY      -6.1485    XYY      -9.6129
       YYY     -20.8341    XXZ       1.8075    XYZ       0.5771
       YYZ      -0.3838    XZZ      -5.7701    YZZ      -6.5005
       ZZZ       7.6910
    Hexadecapole Moments (Debye-Ang^3)
      XXXX    -255.8803   XXXY     -13.4998   XXYY     -90.1530
      XYYY     -25.2300   YYYY    -242.1546   XXXZ      14.2983
      XXYZ      12.9262   XYYZ      11.1511   YYYZ      30.4036
      XXZZ     -75.2761   XYZZ      -3.7945   YYZZ     -68.4881
      XZZZ      19.0650   YZZZ      26.8226   ZZZZ    -168.4475
 -----------------------------------------------------------------
 Calculating analytic gradient of the SCF energy
 Gradient of SCF Energy
            1           2           3           4           5           6
    1  -0.0006921   0.0212236   0.0028470  -0.0140080   0.0047453   0.0001805
    2  -0.0040409  -0.0098093  -0.0436970   0.0128055   0.0336238   0.0052171
    3  -0.0002601  -0.0176342  -0.0035398   0.0197353   0.0035159  -0.0019917
            7           8           9          10          11          12
    1  -0.0002450   0.0019104   0.0018540   0.0002344   0.0011136  -0.0170158
    2  -0.0000855  -0.0001451  -0.0039628   0.0017911   0.0034713   0.0028746
    3  -0.0009459  -0.0030385   0.0007837  -0.0000899   0.0037384   0.0014897
           13
    1  -0.0021479
    2   0.0019572
    3  -0.0017629
 Max gradient component =       4.370E-02
 RMS gradient           =       1.147E-02
 Gradient time:  CPU 7.76 s  wall 2.26 s
 ----------------------------------------------------------------
             Standard Nuclear Orientation (Angstroms)
    I     Atom           X                Y                Z
 ----------------------------------------------------------------
    1      C       1.5541442586     0.2541024010    -0.2748678069
    2      C       0.6043132279    -0.9257064858    -0.1058654723
    3      C      -0.6979879590    -0.3858452958    -0.7724133588
    4      C      -1.1101689917     0.2455201555     0.5823881186
    5      C      -0.4460435635     1.0892243207    -0.5276881197
    6      N       0.9689883314     1.3768465960    -0.4530896148
    7      H       2.6322109287     0.1897865190    -0.1389487346
    8      H       1.0296032345    -1.9264331253    -0.3423386642
    9      H      -1.3032985658    -0.9555900920    -1.5077290663
   10      H      -2.0987132646     0.5690192920     0.9714121418
   11      H      -1.0671451344     1.9188347878    -0.9193847544
   12      C      -0.1744965350    -0.6753357936     1.2118411794
   13      H       0.0999458977    -0.7807315881     2.2573673279
 ----------------------------------------------------------------
 Nuclear Repulsion Energy =   281.5656305452 hartrees
 There are       25 alpha and       24 beta electrons

                       Distance Matrix (Angstroms)
             C (  1)   C (  2)   C (  3)   C (  4)   C (  5)   N (  6)
   C (  2)  1.524037
   C (  3)  2.393571  1.559399
   C (  4)  2.798844  2.187445  1.550485
   C (  5)  2.182223  2.311088  1.516310  1.544399
   N (  6)  1.278564  2.356969  2.447010  2.583604  1.445893
   H (  7)  1.088503  2.314690  3.438438  3.811672  3.230442  2.067391
   H (  8)  2.243754  1.112765  2.354346  3.186083  3.362451  3.305692
   H (  9)  3.338904  2.367509  1.109819  2.418379  2.424177  3.422837
   H ( 10)  3.872435  3.271251  2.432021  1.110500  2.291120  3.477439
   H ( 11)  3.171418  3.398088  2.338681  2.248812  1.107902  2.158013
   C ( 12)  2.462186  1.550994  2.072466  1.455909  2.492664  2.879410
   H ( 13)  3.098030  2.420800  3.157880  2.307190  3.398731  3.571688
             H (  7)   H (  8)   H (  9)   H ( 10)   H ( 11)   C ( 12)
   H (  8)  2.662349
   H (  9)  4.321306  2.782643
   H ( 10)  4.874255  4.211839  3.017161
   H ( 11)  4.157394  4.417626  2.943507  2.541898
   C ( 12)  3.232751  2.330360  2.957837  2.304091  3.473999
   H ( 13)  3.618923  2.989208  4.021893  2.882639  4.329147  1.086072

 
 Applying Cartesian multipole field
    Component          Value
    ---------          -----
     (2,0,0)        1.00000E-11
     (0,2,0)        2.00000E-11
     (0,0,2)       -3.00000E-11
 Nucleus-field energy     =     0.0000000017 hartrees
 Requested basis set is 6-31G(d)
 There are 40 shells and 117 basis functions
 A cutoff of  1.0D-14 yielded    812 shell pairs
 There are      7084 function pairs
 Smallest overlap matrix eigenvalue = 1.80E-03
 Guess from superposition of atomic densities
 Warning:  Energy on first SCF cycle will be non-variational
 SAD guess density has 49.000000 electrons
 An unrestricted hybrid HF-DFT SCF calculation will be
 performed using Relaxed Constraint Minimization + Pulay DIIS
 Exchange:     0.2000 Hartree-Fock + 0.0800 Slater + 0.7200 B88
 Correlation:  0.1900 VWN1RPA + 0.8100 LYP
 Using SG-1 standard quadrature grid
 SCF converges when DIIS error is below 1.0E-08
 using 4 threads for integral computing
 -------------------------------------------------------
 OpenMP Integral computing Module                
 Release: version 1.0, May 2013, Q-Chem Inc. Pittsburgh 
 -------------------------------------------------------
 -------------------------------------------------------
 OpenMP BLAS3 based DFT computing Module                
 Release: version 1.0, May 2013, Q-Chem Inc. Pittsburgh 
 -------------------------------------------------------
 -------------------------------------------------------
 OpenMP BLAS3 based DFT computing Module                
 Release: version 1.0, May 2013, Q-Chem Inc. Pittsburgh 
 -------------------------------------------------------
 ---------------------------------------
  Cycle       Energy         DIIS Error
 ---------------------------------------
    1    -288.5643212279      7.51E-02
    2    -286.7514686593      6.32E-03
    3    -286.7837886643      1.76E-03
    4    -286.8270999507      1.74E-03
    5    -286.8290466518      5.36E-04
    6    -286.8319933059      4.19E-04
    7    -286.8322821358      1.40E-04
    8    -286.8326546624      3.04E-04
    9    -286.8327087610      8.30E-05 Done RCA. Switching to DIIS
   10    -286.8327534383      1.83E-04
   11    -286.8328073900      1.77E-06
   12    -286.8328074223      6.87E-07
   13    -286.8328074309      3.04E-07
   14    -286.8328074331      8.75E-08
   15    -286.8328074340      3.85E-08
   16    -286.8328074342      2.02E-08
   17    -286.8328074344      1.53E-08
   18    -286.8328074345      9.79E-09 Convergence criterion met
 ---------------------------------------
 <S^2> = 0.7560
 SCF time:  CPU 55.21 s  wall 17.38 s
 SCF   energy in the final basis set = -286.83280743
 Total energy in the final basis set = -286.83280743
 
 --------------------------------------------------------------
 
                    Orbital Energies (a.u.)
 --------------------------------------------------------------
 
 Alpha MOs
 -- Occupied --
-14.320 -10.228 -10.220 -10.216 -10.212 -10.209 -10.206  -0.968
 -0.858  -0.746  -0.664  -0.604  -0.576  -0.532  -0.509  -0.464
 -0.438  -0.403  -0.399  -0.354  -0.342  -0.292  -0.274  -0.262
 -0.178
 -- Virtual --
  0.001   0.092   0.108   0.131   0.144   0.149   0.151   0.163
  0.174   0.198   0.217   0.269   0.278   0.299   0.342   0.390
  0.498   0.506   0.522   0.541   0.556   0.574   0.596   0.599
  0.607   0.655   0.675   0.676   0.716   0.737   0.765   0.781
  0.800   0.808   0.815   0.838   0.849   0.876   0.889   0.928
  0.947   0.970   1.054   1.096   1.198   1.219   1.336   1.382
  1.447   1.464   1.502   1.520   1.590   1.636   1.651   1.711
  1.738   1.821   1.852   1.880   1.915   1.949   1.968   2.030
  2.067   2.167   2.200   2.212   2.241   2.257   2.362   2.364
  2.459   2.481   2.504   2.528   2.595   2.632   2.648   2.668
  2.702   2.804   2.834   2.911   2.967   3.958   4.183   4.240
  4.347   4.432   4.504   4.612
 
 Beta MOs
 -- Occupied --
-14.319 -10.226 -10.219 -10.213 -10.213 -10.210 -10.193  -0.965
 -0.852  -0.739  -0.650  -0.600  -0.571  -0.526  -0.503  -0.458
 -0.434  -0.401  -0.393  -0.348  -0.337  -0.283  -0.263  -0.255
 -- Virtual --
 -0.054   0.014   0.094   0.113   0.134   0.147   0.153   0.156
  0.166   0.180   0.201   0.223   0.273   0.283   0.302   0.354
  0.392   0.502   0.510   0.530   0.554   0.559   0.580   0.601
  0.609   0.617   0.668   0.679   0.680   0.725   0.741   0.768
  0.789   0.803   0.811   0.816   0.840   0.853   0.883   0.892
  0.931   0.950   0.974   1.057   1.111   1.202   1.223   1.342
  1.384   1.450   1.469   1.512   1.526   1.598   1.644   1.655
  1.715   1.747   1.830   1.862   1.884   1.924   1.963   1.976
  2.037   2.075   2.174   2.207   2.223   2.260   2.266   2.367
  2.374   2.467   2.487   2.511   2.533   2.598   2.637   2.657
  2.669   2.711   2.809   2.838   2.913   2.969   3.960   4.194
  4.249   4.355   4.436   4.507   4.616
 --------------------------------------------------------------
 
          Ground-State Mulliken Net Atomic Charges

     Atom                 Charge (a.u.)    Spin (a.u.)
  --------------------------------------------------------
      1 C                     0.094579       0.032012
      2 C                    -0.257752      -0.065635
      3 C                    -0.113431       0.101798
      4 C                    -0.155495      -0.084861
      5 C                    -0.016859       0.065383
      6 N                    -0.341160       0.035421
      7 H                     0.142528       0.002370
      8 H                     0.140044       0.019755
      9 H                     0.150472      -0.002142
     10 H                     0.148175       0.006385
     11 H                     0.150300       0.005589
     12 C                    -0.073732       0.897684
     13 H                     0.132332      -0.013758
  --------------------------------------------------------
  Sum of atomic charges =     0.000000
  Sum of spin   charges =     1.000000

 -----------------------------------------------------------------
                    Cartesian Multipole Moments
 -----------------------------------------------------------------
    Charge (ESU x 10^10)
                 0.0000
    Dipole Moment (Debye)
         X      -0.9633      Y      -1.7392      Z       0.1127
       Tot       1.9914
    Quadrupole Moments (Debye-Ang)
        XX     -37.7510     XY      -4.6173     YY     -43.5784
        XZ       1.2641     YZ       1.3706     ZZ     -40.1930
    Octopole Moments (Debye-Ang^2)
       XXX      -6.9730    XXY      -6.2350    XYY      -9.6751
       YYY     -20.8027    XXZ       1.7674    XYZ       0.5651
       YYZ      -0.1856    XZZ      -5.6380    YZZ      -6.5625
       ZZZ       7.9205
    Hexadecapole Moments (Debye-Ang^3)
      XXXX    -255.5868   XXXY     -13.0295   XXYY     -89.4732
      XYYY     -24.7984   YYYY    -239.7641   XXXZ      13.5553
      XXYZ      13.0685   XYYZ      10.9098   YYYZ      30.9253
      XXZZ     -75.1399   XYZZ      -3.6837   YYZZ     -67.6915
      XZZZ      18.0657   YZZZ      26.9932   ZZZZ    -166.7536
 -----------------------------------------------------------------
 Calculating analytic gradient of the SCF energy
 Gradient of SCF Energy
            1           2           3           4           5           6
    1  -0.0012454   0.0008773   0.0106798   0.0127219   0.0037205   0.0022919
    2   0.0031689   0.0052646  -0.0042304   0.0064048  -0.0096136  -0.0007966
    3  -0.0038034  -0.0072080   0.0189267  -0.0100478   0.0142331   0.0007267
            7           8           9          10          11          12
    1  -0.0005018   0.0085936  -0.0053756  -0.0128764  -0.0048623  -0.0106642
    2   0.0003251  -0.0100632  -0.0142581   0.0064486   0.0150041   0.0002793
    3  -0.0009623  -0.0048875  -0.0079614   0.0063902  -0.0012400  -0.0027366
           13
    1  -0.0033592
    2   0.0020664
    3  -0.0014296
 Max gradient component =       1.893E-02
 RMS gradient           =       7.761E-03
 Gradient time:  CPU 7.62 s  wall 2.02 s
 FSM gradient convergence criteria satisfied
done with opt_step_by_gradient, Reactant, iter1
-Optimizing new product side node
 Using BFGS, step: 2 E_tol 0.0860359
 max_steps 6, node_spacing 0.2357568, sigma 0.7000000
 ----------------------------------------------------------------
             Standard Nuclear Orientation (Angstroms)
    I     Atom           X                Y                Z
 ----------------------------------------------------------------
    1      C       1.4962363751     0.2803991596    -0.7436568319
    2      C       1.0866554947    -1.0053827626    -0.4327785983
    3      C      -0.1722338317    -1.4426174496     0.1013415375
    4      C      -1.2234486123     0.7839234464     0.5350939346
    5      C      -0.3023766044     1.6508308365    -0.0353782358
    6      N       0.9261145027     1.4878490047    -0.5822151876
    7      H       2.4826814050     0.3539164030    -1.2073875588
    8      H       1.7755829021    -1.7965658194    -0.7229973761
    9      H      -0.2884583688    -2.5190536342     0.2192109700
   10      H      -2.1171555884     1.2529086765     0.9417470709
   11      H      -0.5937190584     2.7033891435    -0.0108333416
   12      C      -1.1200052213    -0.6337967091     0.7127014304
   13      H      -1.9547649675    -1.1150765773     1.2197322499
 ----------------------------------------------------------------
 Nuclear Repulsion Energy =   260.6729414065 hartrees
 There are       25 alpha and       24 beta electrons

                       Distance Matrix (Angstroms)
             C (  1)   C (  2)   C (  3)   C (  4)   C (  5)   N (  6)
   C (  2)  1.384788
   C (  3)  2.542951  1.435709
   C (  4)  3.047200  3.078145  2.500136
   C (  5)  2.369546  3.023708  3.099202  1.387566
   N (  6)  1.345005  2.502860  3.203319  2.522799  1.354542
   H (  7)  1.092486  2.096807  3.462496  4.117833  3.288182  2.024733
   H (  8)  2.095768  1.088494  2.144482  4.151615  4.083538  3.395408
   H (  9)  3.456759  2.146445  1.089090  3.447267  4.177672  4.262950
   H ( 10)  4.104018  4.153746  3.428537  1.088130  2.099176  3.411620
   H ( 11)  3.282655  4.093493  4.168885  2.092593  1.092411  2.028277
   C ( 12)  3.130727  2.513872  1.387884  1.432542  2.539225  3.219440
   H ( 13)  4.208522  3.463100  2.129671  2.147034  3.457735  4.280386
             H (  7)   H (  8)   H (  9)   H ( 10)   H ( 11)   C ( 12)
   H (  8)  2.314994
   H (  9)  4.238910  2.381179
   H ( 10)  5.156110  5.217670  4.253692
   H ( 11)  4.051667  5.135208  5.236412  2.309147
   C ( 12)  4.200199  3.434777  2.118772  2.146259  3.455038
   H ( 13)  5.266857  4.260765  2.397660  2.389770  4.236439  1.088822

 
 Applying Cartesian multipole field
    Component          Value
    ---------          -----
     (2,0,0)        1.00000E-11
     (0,2,0)        2.00000E-11
     (0,0,2)       -3.00000E-11
 Nucleus-field energy     =     0.0000000060 hartrees
 Requested basis set is 6-31G(d)
 There are 40 shells and 117 basis functions
 A cutoff of  1.0D-14 yielded    791 shell pairs
 There are      7063 function pairs
 Smallest overlap matrix eigenvalue = 1.76E-03
 Guess from superposition of atomic densities
 Warning:  Energy on first SCF cycle will be non-variational
 SAD guess density has 49.000000 electrons
 An unrestricted hybrid HF-DFT SCF calculation will be
 performed using Relaxed Constraint Minimization + Pulay DIIS
 Exchange:     0.2000 Hartree-Fock + 0.0800 Slater + 0.7200 B88
 Correlation:  0.1900 VWN1RPA + 0.8100 LYP
 Using SG-1 standard quadrature grid
 SCF converges when DIIS error is below 1.0E-08
 using 4 threads for integral computing
 -------------------------------------------------------
 OpenMP Integral computing Module                
 Release: version 1.0, May 2013, Q-Chem Inc. Pittsburgh 
 -------------------------------------------------------
 -------------------------------------------------------
 OpenMP BLAS3 based DFT computing Module                
 Release: version 1.0, May 2013, Q-Chem Inc. Pittsburgh 
 -------------------------------------------------------
 -------------------------------------------------------
 OpenMP BLAS3 based DFT computing Module                
 Release: version 1.0, May 2013, Q-Chem Inc. Pittsburgh 
 -------------------------------------------------------
 ---------------------------------------
  Cycle       Energy         DIIS Error
 ---------------------------------------
    1    -288.3831195976      7.25E-02
    2    -286.8342479515      6.58E-03
    3    -286.8735326555      1.46E-03
    4    -286.9156737480      1.53E-03
    5    -286.9171263220      4.45E-04
    6    -286.9192358075      3.86E-04
    7    -286.9194667868      1.20E-04
    8    -286.9197758236      2.49E-04
    9    -286.9198171825      6.60E-05 Done RCA. Switching to DIIS
   10    -286.9198751635      1.20E-04
   11    -286.9199064779      3.50E-06
   12    -286.9199068711      1.04E-06
   13    -286.9199069380      9.72E-07
   14    -286.9199069602      2.50E-07
   15    -286.9199069659      2.14E-07
   16    -286.9199069670      1.40E-07
   17    -286.9199069683      1.04E-07
   18    -286.9199069694      7.36E-08
   19    -286.9199069697      2.15E-08
   20    -286.9199069697      7.59E-09 Convergence criterion met
 ---------------------------------------
 <S^2> = 0.7676
 SCF time:  CPU 57.93 s  wall 18.35 s
 SCF   energy in the final basis set = -286.91990697
 Total energy in the final basis set = -286.91990697
 
 --------------------------------------------------------------
 
                    Orbital Energies (a.u.)
 --------------------------------------------------------------
 
 Alpha MOs
 -- Occupied --
-14.321 -10.233 -10.232 -10.215 -10.214 -10.201 -10.200  -0.924
 -0.817  -0.784  -0.690  -0.669  -0.552  -0.535  -0.517  -0.448
 -0.439  -0.416  -0.394  -0.384  -0.351  -0.320  -0.298  -0.251
 -0.159
 -- Virtual --
 -0.076   0.076   0.092   0.097   0.117   0.143   0.179   0.185
  0.194   0.218   0.263   0.321   0.353   0.395   0.402   0.487
  0.497   0.516   0.545   0.575   0.579   0.585   0.591   0.608
  0.619   0.620   0.646   0.658   0.704   0.717   0.811   0.841
  0.844   0.849   0.867   0.871   0.886   0.922   0.947   0.989
  1.014   1.025   1.032   1.126   1.155   1.181   1.231   1.287
  1.340   1.352   1.437   1.464   1.477   1.551   1.569   1.585
  1.699   1.736   1.778   1.829   1.847   1.916   1.920   2.010
  2.041   2.065   2.121   2.140   2.148   2.192   2.248   2.376
  2.399   2.415   2.443   2.555   2.556   2.598   2.604   2.734
  2.751   2.792   3.039   3.205   3.251   4.024   4.045   4.104
  4.193   4.240   4.537   4.565
 
 Beta MOs
 -- Occupied --
-14.314 -10.234 -10.234 -10.213 -10.212 -10.196 -10.195  -0.913
 -0.808  -0.777  -0.678  -0.667  -0.547  -0.533  -0.514  -0.446
 -0.438  -0.412  -0.380  -0.373  -0.350  -0.293  -0.275  -0.242
 -- Virtual --
 -0.076  -0.073   0.077   0.116   0.118   0.123   0.143   0.181
  0.188   0.196   0.223   0.265   0.326   0.357   0.397   0.405
  0.489   0.505   0.519   0.549   0.583   0.586   0.591   0.596
  0.613   0.623   0.625   0.649   0.674   0.707   0.727   0.813
  0.844   0.844   0.868   0.870   0.878   0.888   0.925   0.951
  0.993   1.018   1.027   1.034   1.132   1.159   1.184   1.238
  1.297   1.349   1.362   1.439   1.471   1.489   1.563   1.577
  1.595   1.707   1.740   1.791   1.831   1.851   1.918   1.929
  2.017   2.053   2.073   2.130   2.143   2.153   2.204   2.260
  2.389   2.406   2.425   2.445   2.566   2.568   2.601   2.614
  2.742   2.759   2.794   3.041   3.208   3.254   4.035   4.051
  4.110   4.197   4.241   4.542   4.571
 --------------------------------------------------------------
 
          Ground-State Mulliken Net Atomic Charges

     Atom                 Charge (a.u.)    Spin (a.u.)
  --------------------------------------------------------
      1 C                     0.040313      -0.113452
      2 C                    -0.135196       0.350287
      3 C                    -0.113523       0.088496
      4 C                    -0.132713       0.326231
      5 C                     0.035919      -0.100034
      6 N                    -0.421674       0.375187
      7 H                     0.143036       0.003602
      8 H                     0.133603      -0.018532
      9 H                     0.142087      -0.005651
     10 H                     0.135119      -0.017423
     11 H                     0.142539       0.002938
     12 C                    -0.112704       0.115192
     13 H                     0.143197      -0.006842
  --------------------------------------------------------
  Sum of atomic charges =     0.000000
  Sum of spin   charges =     1.000000

 -----------------------------------------------------------------
                    Cartesian Multipole Moments
 -----------------------------------------------------------------
    Charge (ESU x 10^10)
                 0.0000
    Dipole Moment (Debye)
         X      -1.1328      Y      -1.8111      Z       0.6889
       Tot       2.2446
    Quadrupole Moments (Debye-Ang)
        XX     -38.1640     XY      -3.4889     YY     -39.7177
        XZ      -2.4327     YZ       1.4406     ZZ     -42.2166
    Octopole Moments (Debye-Ang^2)
       XXX      -9.4324    XXY      -8.9904    XYY     -11.5782
       YYY     -24.7981    XXZ       3.0733    XYZ       3.0438
       YYZ       6.3401    XZZ      -4.0969    YZZ      -6.7873
       ZZZ       6.6100
    Hexadecapole Moments (Debye-Ang^3)
      XXXX    -320.0450   XXXY      -1.4630   XXYY    -127.7280
      XYYY     -16.6156   YYYY    -392.0437   XXXZ      57.2483
      XXYZ       7.4517   XYYZ      25.3172   YYYZ      21.4507
      XXZZ     -70.9500   XYZZ       0.9265   YYZZ     -94.2610
      XZZZ      74.1568   YZZZ      14.3635   ZZZZ    -123.5861
 -----------------------------------------------------------------
 Calculating analytic gradient of the SCF energy
 Gradient of SCF Energy
            1           2           3           4           5           6
    1  -0.0028103   0.0016126   0.0066213  -0.0059055   0.0030702   0.0036244
    2   0.0034956   0.0024290  -0.0098583  -0.0092334  -0.0007367  -0.0028836
    3  -0.0023743   0.0141656  -0.0291409  -0.0056785  -0.0049745   0.0015587
            7           8           9          10          11          12
    1  -0.0005203  -0.0002550   0.0005338  -0.0003272   0.0013486  -0.0060543
    2   0.0009925  -0.0006008  -0.0005240  -0.0004479   0.0004083   0.0160532
    3  -0.0009575  -0.0006534   0.0006423   0.0006003   0.0012578   0.0246971
           13
    1  -0.0009382
    2   0.0009061
    3   0.0008571
 Max gradient component =       2.914E-02
 RMS gradient           =       7.764E-03
 Gradient time:  CPU 7.87 s  wall 2.06 s
 ----------------------------------------------------------------
             Standard Nuclear Orientation (Angstroms)
    I     Atom           X                Y                Z
 ----------------------------------------------------------------
    1      C       1.5007808080     0.2763838909    -0.7383512114
    2      C       1.0862068145    -1.0075023436    -0.4440088517
    3      C      -0.1889668160    -1.4297058176     0.1227327240
    4      C      -1.2171299975     0.7938996252     0.5391619519
    5      C      -0.3076661616     1.6505691442    -0.0327822755
    6      N       0.9223929845     1.4916887139    -0.5834340069
    7      H       2.4849007522     0.3531057170    -1.2026261307
    8      H       1.7755902388    -1.7951495375    -0.7193725361
    9      H      -0.2951282827    -2.5181142147     0.2057686488
   10      H      -2.1172347368     1.2522086158     0.9388821755
   11      H      -0.5975544550     2.7014783086    -0.0171999484
   12      C      -1.1033304507    -0.6530609990     0.6966479649
   13      H      -1.9477526010    -1.1150784086     1.2291617200
 ----------------------------------------------------------------
 Nuclear Repulsion Energy =   260.9353047686 hartrees
 There are       25 alpha and       24 beta electrons

                       Distance Matrix (Angstroms)
             C (  1)   C (  2)   C (  3)   C (  4)   C (  5)   N (  6)
   C (  2)  1.380896
   C (  3)  2.550971  1.457916
   C (  4)  3.047442  3.084969  2.484945
   C (  5)  2.378380  3.029411  3.086482  1.374091
   N (  6)  1.354805  2.508432  3.204425  2.514894  1.357021
   H (  7)  1.090839  2.093585  3.476285  4.114992  3.293991  2.030074
   H (  8)  2.089768  1.082341  2.168450  4.152524  4.084647  3.398489
   H (  9)  3.453386  2.147614  1.096722  3.454081  4.175522  4.264237
   H ( 10)  4.105531  4.157008  3.402496  1.086284  2.092214  3.407952
   H ( 11)  3.286967  4.095578  4.153698  2.081410  1.090270  2.023475
   C ( 12)  3.115202  2.494153  1.329894  1.459948  2.543985  3.215916
   H ( 13)  4.207096  3.466408  2.101548  2.157338  3.454156  4.280009
             H (  7)   H (  8)   H (  9)   H ( 10)   H ( 11)   C ( 12)
   H (  8)  2.313365
   H (  9)  4.237457  2.380428
   H ( 10)  5.155007  5.214431  4.251219
   H ( 11)  4.052360  5.132692  5.233099  2.307359
   C ( 12)  4.182704  3.405534  2.091071  2.171804  3.466745
   H ( 13)  5.264748  4.257061  2.397292  2.391032  4.235866  1.100036

 
 Applying Cartesian multipole field
    Component          Value
    ---------          -----
     (2,0,0)        1.00000E-11
     (0,2,0)        2.00000E-11
     (0,0,2)       -3.00000E-11
 Nucleus-field energy     =     0.0000000060 hartrees
 Requested basis set is 6-31G(d)
 There are 40 shells and 117 basis functions
 A cutoff of  1.0D-14 yielded    791 shell pairs
 There are      7063 function pairs
 Smallest overlap matrix eigenvalue = 1.50E-03
 Guess from superposition of atomic densities
 Warning:  Energy on first SCF cycle will be non-variational
 SAD guess density has 49.000000 electrons
 An unrestricted hybrid HF-DFT SCF calculation will be
 performed using Relaxed Constraint Minimization + Pulay DIIS
 Exchange:     0.2000 Hartree-Fock + 0.0800 Slater + 0.7200 B88
 Correlation:  0.1900 VWN1RPA + 0.8100 LYP
 Using SG-1 standard quadrature grid
 SCF converges when DIIS error is below 1.0E-08
 using 4 threads for integral computing
 -------------------------------------------------------
 OpenMP Integral computing Module                
 Release: version 1.0, May 2013, Q-Chem Inc. Pittsburgh 
 -------------------------------------------------------
 -------------------------------------------------------
 OpenMP BLAS3 based DFT computing Module                
 Release: version 1.0, May 2013, Q-Chem Inc. Pittsburgh 
 -------------------------------------------------------
 -------------------------------------------------------
 OpenMP BLAS3 based DFT computing Module                
 Release: version 1.0, May 2013, Q-Chem Inc. Pittsburgh 
 -------------------------------------------------------
 ---------------------------------------
  Cycle       Energy         DIIS Error
 ---------------------------------------
    1    -288.4029810572      7.29E-02
    2    -286.8337467663      6.56E-03
    3    -286.8735123312      1.47E-03
    4    -286.9151599067      1.61E-03
    5    -286.9167597715      4.61E-04
    6    -286.9190627724      3.87E-04
    7    -286.9193295233      1.50E-04
    8    -286.9196367968      3.09E-04
    9    -286.9196990967      8.24E-05 Done RCA. Switching to DIIS
   10    -286.9197796344      1.51E-04
   11    -286.9198260716      3.26E-06
   12    -286.9198263933      1.39E-06
   13    -286.9198264494      6.06E-07
   14    -286.9198264810      2.72E-07
   15    -286.9198264830      1.74E-07
   16    -286.9198264835      4.34E-08
   17    -286.9198264835      2.72E-08
   18    -286.9198264835      1.18E-08
   19    -286.9198264835      1.05E-08
   20    -286.9198264836      3.20E-09 Convergence criterion met
 ---------------------------------------
 <S^2> = 0.7705
 SCF time:  CPU 60.35 s  wall 21.71 s
 SCF   energy in the final basis set = -286.91982648
 Total energy in the final basis set = -286.91982648
 
 --------------------------------------------------------------
 
                    Orbital Energies (a.u.)
 --------------------------------------------------------------
 
 Alpha MOs
 -- Occupied --
-14.323 -10.230 -10.229 -10.211 -10.210 -10.202 -10.202  -0.921
 -0.821  -0.783  -0.696  -0.663  -0.550  -0.535  -0.519  -0.448
 -0.439  -0.413  -0.394  -0.392  -0.344  -0.322  -0.298  -0.252
 -0.166
 -- Virtual --
 -0.067   0.074   0.096   0.098   0.118   0.141   0.179   0.184
  0.194   0.209   0.273   0.318   0.356   0.390   0.413   0.482
  0.495   0.516   0.546   0.576   0.580   0.586   0.591   0.611
  0.618   0.636   0.649   0.658   0.708   0.717   0.821   0.835
  0.847   0.850   0.867   0.872   0.883   0.923   0.954   0.979
  1.016   1.028   1.045   1.127   1.173   1.184   1.273   1.289
  1.337   1.349   1.438   1.468   1.480   1.550   1.574   1.586
  1.691   1.726   1.776   1.825   1.854   1.916   1.925   2.025
  2.033   2.068   2.112   2.145   2.147   2.197   2.247   2.385
  2.409   2.414   2.457   2.556   2.572   2.600   2.606   2.732
  2.753   2.813   3.040   3.234   3.244   4.016   4.050   4.098
  4.207   4.235   4.535   4.573
 
 Beta MOs
 -- Occupied --
-14.315 -10.232 -10.230 -10.210 -10.209 -10.197 -10.197  -0.910
 -0.812  -0.776  -0.684  -0.661  -0.545  -0.533  -0.516  -0.446
 -0.437  -0.409  -0.388  -0.373  -0.342  -0.296  -0.274  -0.243
 -- Virtual --
 -0.081  -0.065   0.076   0.119   0.121   0.123   0.141   0.181
  0.188   0.196   0.214   0.275   0.323   0.360   0.393   0.415
  0.485   0.503   0.519   0.550   0.583   0.586   0.591   0.596
  0.614   0.622   0.640   0.651   0.675   0.711   0.727   0.823
  0.838   0.846   0.868   0.872   0.881   0.886   0.926   0.958
  0.983   1.020   1.030   1.048   1.133   1.176   1.188   1.281
  1.299   1.346   1.358   1.441   1.475   1.492   1.563   1.582
  1.597   1.698   1.732   1.787   1.828   1.857   1.918   1.934
  2.038   2.040   2.077   2.123   2.145   2.152   2.208   2.259
  2.394   2.419   2.425   2.460   2.569   2.581   2.608   2.612
  2.738   2.763   2.815   3.042   3.237   3.247   4.028   4.057
  4.105   4.211   4.235   4.540   4.579
 --------------------------------------------------------------
 
          Ground-State Mulliken Net Atomic Charges

     Atom                 Charge (a.u.)    Spin (a.u.)
  --------------------------------------------------------
      1 C                     0.034645      -0.128008
      2 C                    -0.133919       0.370073
      3 C                    -0.108854       0.073453
      4 C                    -0.130598       0.350291
      5 C                     0.032227      -0.117216
      6 N                    -0.420710       0.395933
      7 H                     0.142157       0.004256
      8 H                     0.135811      -0.019332
      9 H                     0.140180      -0.005143
     10 H                     0.136535      -0.018439
     11 H                     0.140665       0.003764
     12 C                    -0.109286       0.096609
     13 H                     0.141148      -0.006239
  --------------------------------------------------------
  Sum of atomic charges =    -0.000000
  Sum of spin   charges =     1.000000

 -----------------------------------------------------------------
                    Cartesian Multipole Moments
 -----------------------------------------------------------------
    Charge (ESU x 10^10)
                -0.0000
    Dipole Moment (Debye)
         X      -1.1285      Y      -1.8535      Z       0.6998
       Tot       2.2800
    Quadrupole Moments (Debye-Ang)
        XX     -38.0615     XY      -3.6120     YY     -39.8069
        XZ      -2.3903     YZ       1.5093     ZZ     -42.1940
    Octopole Moments (Debye-Ang^2)
       XXX      -9.4811    XXY      -8.9803    XYY     -11.3650
       YYY     -25.0211    XXZ       3.0445    XYZ       2.9771
       YYZ       6.1366    XZZ      -4.1767    YZZ      -6.8641
       ZZZ       6.7036
    Hexadecapole Moments (Debye-Ang^3)
      XXXX    -318.4559   XXXY      -2.4158   XXYY    -127.2950
      XYYY     -17.0790   YYYY    -393.6228   XXXZ      57.1067
      XXYZ       7.7192   XYYZ      25.2871   YYYZ      21.9622
      XXZZ     -70.7027   XYZZ       0.7770   YYZZ     -94.2840
      XZZZ      73.9576   YZZZ      14.5276   ZZZZ    -123.1909
 -----------------------------------------------------------------
 Calculating analytic gradient of the SCF energy
 Gradient of SCF Energy
            1           2           3           4           5           6
    1   0.0007116   0.0133036  -0.0396594  -0.0038700  -0.0045973   0.0012676
    2  -0.0033992  -0.0015673   0.0261292   0.0117836  -0.0073301   0.0049130
    3  -0.0006895   0.0053707   0.0034533  -0.0077347  -0.0000288   0.0007576
            7           8           9          10          11          12
    1  -0.0014965  -0.0013072   0.0011459   0.0004105   0.0018888   0.0381469
    2   0.0005440   0.0031276  -0.0051045   0.0000384  -0.0012005  -0.0274334
    3  -0.0009221   0.0003900  -0.0014613  -0.0003488   0.0010056  -0.0051601
           13
    1  -0.0059444
    2  -0.0005007
    3   0.0053681
 Max gradient component =       3.966E-02
 RMS gradient           =       1.149E-02
 Gradient time:  CPU 7.11 s  wall 2.39 s
WARNING!!!!! energy has increased from optimization step!
 ----------------------------------------------------------------
             Standard Nuclear Orientation (Angstroms)
    I     Atom           X                Y                Z
 ----------------------------------------------------------------
    1      C       1.5006031714     0.2795808862    -0.7366802906
    2      C       1.0752811866    -1.0056611182    -0.4454800338
    3      C      -0.1580828871    -1.4524970342     0.1121672832
    4      C      -1.2143040059     0.7826909260     0.5444578374
    5      C      -0.3042744064     1.6564351443    -0.0345317018
    6      N       0.9217098344     1.4874486341    -0.5837354867
    7      H       2.4869418313     0.3528424085    -1.2001605859
    8      H       1.7765711770    -1.7975900857    -0.7184181141
    9      H      -0.2989914778    -2.5135040090     0.2010364069
   10      H      -2.1178155859     1.2515727532     0.9382221851
   11      H      -0.6002085281     2.7018733282    -0.0203264740
   12      C      -1.1325670963    -0.6283823055     0.7085568145
   13      H      -1.9397553358    -1.1140872727     1.2294725236
 ----------------------------------------------------------------
 Nuclear Repulsion Energy =   260.6225090614 hartrees
 There are       25 alpha and       24 beta electrons

                       Distance Matrix (Angstroms)
             C (  1)   C (  2)   C (  3)   C (  4)   C (  5)   N (  6)
   C (  2)  1.384754
   C (  3)  2.543988  1.425419
   C (  4)  3.043872  3.069264  2.509690
   C (  5)  2.376199  3.026352  3.115823  1.388096
   N (  6)  1.348130  2.501658  3.208351  2.516358  1.353964
   H (  7)  1.092266  2.099490  3.460868  4.114327  3.293772  2.029104
   H (  8)  2.095503  1.092453  2.133506  4.147052  4.089977  3.397117
   H (  9)  3.452416  2.140140  1.074006  3.438115  4.176591  4.256008
   H ( 10)  4.104025  4.147964  3.440191  1.091437  2.097402  3.407449
   H ( 11)  3.285433  4.090701  4.179931  2.092691  1.086609  2.026942
   C ( 12)  3.137944  2.519670  1.408710  1.422933  2.541385  3.219754
   H ( 13)  4.200492  3.450749  2.130082  2.143197  3.456631  4.271264
             H (  7)   H (  8)   H (  9)   H ( 10)   H ( 11)   C ( 12)
   H (  8)  2.315397
   H (  9)  4.235649  2.380313
   H ( 10)  5.155986  5.216138  4.245865
   H ( 11)  4.054683  5.136301  5.228756  2.307665
   C ( 12)  4.207951  3.444763  2.122760  2.134875  3.450403
   H ( 13)  5.258388  4.251181  2.389174  2.390163  4.232959  1.076483

 
 Applying Cartesian multipole field
    Component          Value
    ---------          -----
     (2,0,0)        1.00000E-11
     (0,2,0)        2.00000E-11
     (0,0,2)       -3.00000E-11
 Nucleus-field energy     =     0.0000000060 hartrees
 Requested basis set is 6-31G(d)
 There are 40 shells and 117 basis functions
 A cutoff of  1.0D-14 yielded    791 shell pairs
 There are      7063 function pairs
 Smallest overlap matrix eigenvalue = 1.56E-03
 Guess from superposition of atomic densities
 Warning:  Energy on first SCF cycle will be non-variational
 SAD guess density has 49.000000 electrons
 An unrestricted hybrid HF-DFT SCF calculation will be
 performed using Relaxed Constraint Minimization + Pulay DIIS
 Exchange:     0.2000 Hartree-Fock + 0.0800 Slater + 0.7200 B88
 Correlation:  0.1900 VWN1RPA + 0.8100 LYP
 Using SG-1 standard quadrature grid
 SCF converges when DIIS error is below 1.0E-08
 using 4 threads for integral computing
 -------------------------------------------------------
 OpenMP Integral computing Module                
 Release: version 1.0, May 2013, Q-Chem Inc. Pittsburgh 
 -------------------------------------------------------
 -------------------------------------------------------
 OpenMP BLAS3 based DFT computing Module                
 Release: version 1.0, May 2013, Q-Chem Inc. Pittsburgh 
 -------------------------------------------------------
 -------------------------------------------------------
 OpenMP BLAS3 based DFT computing Module                
 Release: version 1.0, May 2013, Q-Chem Inc. Pittsburgh 
 -------------------------------------------------------
 ---------------------------------------
  Cycle       Energy         DIIS Error
 ---------------------------------------
    1    -288.3855031587      7.25E-02
    2    -286.8333699655      6.61E-03
    3    -286.8728450127      1.47E-03
    4    -286.9153644781      1.53E-03
    5    -286.9168060207      4.44E-04
    6    -286.9188998103      3.90E-04
    7    -286.9191254465      1.14E-04
    8    -286.9194344343      2.35E-04
    9    -286.9194711406      6.23E-05 Done RCA. Switching to DIIS
   10    -286.9195236456      1.12E-04
   11    -286.9195511169      3.54E-06
   12    -286.9195514905      1.07E-06
   13    -286.9195515623      9.44E-07
   14    -286.9195515841      2.47E-07
   15    -286.9195515898      2.66E-07
   16    -286.9195515911      1.57E-07
   17    -286.9195515924      1.19E-07
   18    -286.9195515937      1.08E-07
   19    -286.9195515946      2.80E-08
   20    -286.9195515946      9.15E-09 Convergence criterion met
 ---------------------------------------
 <S^2> = 0.7663
 SCF time:  CPU 59.69 s  wall 23.34 s
 SCF   energy in the final basis set = -286.91955159
 Total energy in the final basis set = -286.91955159
 
 --------------------------------------------------------------
 
                    Orbital Energies (a.u.)
 --------------------------------------------------------------
 
 Alpha MOs
 -- Occupied --
-14.320 -10.233 -10.233 -10.215 -10.214 -10.199 -10.199  -0.923
 -0.816  -0.785  -0.688  -0.671  -0.553  -0.537  -0.516  -0.448
 -0.441  -0.418  -0.394  -0.380  -0.355  -0.318  -0.299  -0.250
 -0.156
 -- Virtual --
 -0.078   0.077   0.094   0.098   0.117   0.145   0.180   0.185
  0.194   0.220   0.260   0.323   0.352   0.397   0.404   0.487
  0.497   0.518   0.544   0.575   0.580   0.585   0.592   0.608
  0.617   0.622   0.645   0.660   0.705   0.715   0.829   0.844
[...]
      3 C                    -0.140466       0.227946
      4 C                    -0.144160      -0.057101
      5 C                     0.004216       0.016922
      6 N                    -0.340910       0.005667
      7 H                     0.146089       0.003048
      8 H                     0.141191       0.007804
      9 H                     0.167134      -0.005006
     10 H                     0.153544       0.004716
     11 H                     0.154355       0.009727
     12 C                    -0.122642       0.864568
     13 H                     0.134560      -0.030954
  --------------------------------------------------------
  Sum of atomic charges =    -0.000000
  Sum of spin   charges =     1.000000

 -----------------------------------------------------------------
                    Cartesian Multipole Moments
 -----------------------------------------------------------------
    Charge (ESU x 10^10)
                -0.0000
    Dipole Moment (Debye)
         X      -1.0428      Y      -1.5087      Z       0.1886
       Tot       1.8437
    Quadrupole Moments (Debye-Ang)
        XX     -37.6302     XY      -4.4043     YY     -41.6564
        XZ      -1.2363     YZ       1.8593     ZZ     -42.5478
    Octopole Moments (Debye-Ang^2)
       XXX      -5.3812    XXY      -6.7880    XYY     -12.0922
       YYY     -21.8878    XXZ       2.1707    XYZ       1.3942
       YYZ       1.5387    XZZ      -6.1784    YZZ      -8.2555
       ZZZ      11.6201
    Hexadecapole Moments (Debye-Ang^3)
      XXXX    -262.9463   XXXY     -16.3896   XXYY     -92.3190
      XYYY     -27.7513   YYYY    -260.4222   XXXZ      20.7909
      XXYZ      13.6762   XYYZ      14.3880   YYYZ      33.5862
      XXZZ     -75.7043   XYZZ      -2.8084   YYZZ     -70.4198
      XZZZ      23.0596   YZZZ      24.0138   ZZZZ    -172.7048
 -----------------------------------------------------------------
 Calculating analytic gradient of the SCF energy
 Gradient of SCF Energy
            1           2           3           4           5           6
    1  -0.0052149   0.0246526   0.0049889  -0.0051216  -0.0046676   0.0020099
    2  -0.0052470  -0.0099762  -0.0326556   0.0182112   0.0123480   0.0060237
    3  -0.0054942  -0.0187692   0.0078800   0.0140581   0.0023207   0.0042031
            7           8           9          10          11          12
    1   0.0023908   0.0164585   0.0122972  -0.0028143   0.0087632  -0.0328661
    2   0.0025336   0.0030672  -0.0340326   0.0173904   0.0171873   0.0021990
    3  -0.0108419  -0.0125797   0.0077984   0.0044084   0.0184142  -0.0267919
           13
    1  -0.0208766
    2   0.0029511
    3   0.0153940
 Max gradient component =       3.403E-02
 RMS gradient           =       1.481E-02
 Gradient time:  CPU 7.49 s  wall 2.04 s
 ----------------------------------------------------------------
             Standard Nuclear Orientation (Angstroms)
    I     Atom           X                Y                Z
 ----------------------------------------------------------------
    1      C       1.5789639609     0.3015096660    -0.3621958812
    2      C       0.7139995277    -0.8936537508    -0.1093813868
    3      C      -0.6492702573    -0.5457526398    -0.7641818784
    4      C      -1.0875902051     0.3686826267     0.5776426453
    5      C      -0.4347139422     1.1825069481    -0.4973769753
    6      N       0.9714597259     1.4185128414    -0.5190707060
    7      H       2.6645875651     0.2664807458    -0.5072387716
    8      H       1.2577560744    -1.8075760628    -0.4061315644
    9      H      -1.1505879932    -1.4944381564    -1.0964807335
   10      H      -2.0325423200     0.8082038406     0.9416432110
   11      H      -0.9652712654     2.1217143621    -0.7147906681
   12      C      -0.3125176885    -0.6671109543     1.1919260203
   13      H      -0.6006216888    -1.0936665792     2.1782937765
 ----------------------------------------------------------------
 Nuclear Repulsion Energy =   276.6537467931 hartrees
 There are       25 alpha and       24 beta electrons

                       Distance Matrix (Angstroms)
             C (  1)   C (  2)   C (  3)   C (  4)   C (  5)   N (  6)
   C (  2)  1.496828
   C (  3)  2.417535  1.551871
   C (  4)  2.828130  2.304609  1.681906
   C (  5)  2.202119  2.404273  1.761846  1.498074
   N (  6)  1.281159  2.362254  2.558356  2.558244  1.426006
   H (  7)  1.095830  2.304126  3.421607  3.907205  3.231853  2.047926
   H (  8)  2.133857  1.104077  2.314551  3.347322  3.437059  3.240736
   H (  9)  3.348889  2.193626  1.123275  2.505569  2.835037  3.649900
   H ( 10)  3.872946  3.397715  2.580015  1.103907  2.182645  3.395613
   H ( 11)  3.148111  3.504128  2.686573  2.181391  1.100396  2.069716
   C ( 12)  2.632722  1.672860  1.988590  1.432114  2.507940  2.987630
   H ( 13)  3.626458  2.646071  2.993449  2.222091  3.516775  4.007276
             H (  7)   H (  8)   H (  9)   H ( 10)   H ( 11)   C ( 12)
   H (  8)  2.508208
   H (  9)  4.243066  2.524828
   H ( 10)  4.945276  4.414166  3.199055
   H ( 11)  4.081770  4.525091  3.640960  2.368153
   C ( 12)  3.552733  2.514002  2.573643  2.279842  3.440814
   H ( 13)  4.441135  3.262283  3.344732  2.682688  4.340689  1.112598

 
 Applying Cartesian multipole field
    Component          Value
    ---------          -----
     (2,0,0)        1.00000E-11
     (0,2,0)        2.00000E-11
     (0,0,2)       -3.00000E-11
 Nucleus-field energy     =     0.0000000023 hartrees
 Requested basis set is 6-31G(d)
 There are 40 shells and 117 basis functions
 A cutoff of  1.0D-14 yielded    810 shell pairs
 There are      7082 function pairs
 Smallest overlap matrix eigenvalue = 1.92E-03
 Guess from superposition of atomic densities
 Warning:  Energy on first SCF cycle will be non-variational
 SAD guess density has 49.000000 electrons
 An unrestricted hybrid HF-DFT SCF calculation will be
 performed using Relaxed Constraint Minimization + Pulay DIIS
 Exchange:     0.2000 Hartree-Fock + 0.0800 Slater + 0.7200 B88
 Correlation:  0.1900 VWN1RPA + 0.8100 LYP
 Using SG-1 standard quadrature grid
 SCF converges when DIIS error is below 1.0E-08
 using 4 threads for integral computing
 -------------------------------------------------------
 OpenMP Integral computing Module                
 Release: version 1.0, May 2013, Q-Chem Inc. Pittsburgh 
 -------------------------------------------------------
 -------------------------------------------------------
 OpenMP BLAS3 based DFT computing Module                
 Release: version 1.0, May 2013, Q-Chem Inc. Pittsburgh 
 -------------------------------------------------------
 -------------------------------------------------------
 OpenMP BLAS3 based DFT computing Module                
 Release: version 1.0, May 2013, Q-Chem Inc. Pittsburgh 
 -------------------------------------------------------
 ---------------------------------------
  Cycle       Energy         DIIS Error
 ---------------------------------------
    1    -288.3159974818      7.15E-02
    2    -286.6650790561      6.27E-03
    3    -286.6963371059      1.79E-03
    4    -286.7384035406      1.73E-03
    5    -286.7404237794      5.58E-04
    6    -286.7435070004      4.40E-04
    7    -286.7438241205      1.45E-04
    8    -286.7441966479      3.44E-04
    9    -286.7442708257      9.60E-05 Done RCA. Switching to DIIS
   10    -286.7443389960      2.11E-04
   11    -286.7444271511      6.94E-06
   12    -286.7444302398      3.41E-06
   13    -286.7444309589      1.75E-06
   14    -286.7444310566      6.17E-07
   15    -286.7444310735      1.42E-07
   16    -286.7444310783      8.91E-08
   17    -286.7444310801      3.22E-08
   18    -286.7444310809      1.43E-08
   19    -286.7444310814      4.58E-09 Convergence criterion met
 ---------------------------------------
 <S^2> = 0.7586
 SCF time:  CPU 57.82 s  wall 20.09 s
 SCF   energy in the final basis set = -286.74443108
 Total energy in the final basis set = -286.74443108
 
 --------------------------------------------------------------
 
                    Orbital Energies (a.u.)
 --------------------------------------------------------------
 
 Alpha MOs
 -- Occupied --
-14.325 -10.248 -10.237 -10.225 -10.220 -10.214 -10.201  -0.957
 -0.850  -0.745  -0.658  -0.608  -0.595  -0.531  -0.492  -0.449
 -0.431  -0.414  -0.398  -0.357  -0.347  -0.293  -0.275  -0.255
 -0.122
 -- Virtual --
 -0.034   0.048   0.066   0.090   0.115   0.139   0.157   0.161
  0.178   0.181   0.204   0.255   0.284   0.303   0.351   0.391
  0.493   0.508   0.510   0.541   0.561   0.579   0.587   0.601
  0.616   0.643   0.665   0.675   0.684   0.732   0.760   0.786
  0.812   0.825   0.841   0.845   0.855   0.862   0.897   0.931
  0.971   1.003   1.040   1.100   1.179   1.236   1.278   1.320
  1.388   1.428   1.495   1.552   1.571   1.602   1.622   1.682
  1.729   1.769   1.823   1.847   1.902   1.937   1.954   2.022
  2.048   2.122   2.177   2.220   2.246   2.287   2.338   2.363
  2.369   2.424   2.477   2.498   2.554   2.564   2.617   2.662
  2.678   2.772   2.798   2.931   2.984   3.948   4.141   4.178
  4.306   4.409   4.498   4.525
 
 Beta MOs
 -- Occupied --
-14.325 -10.248 -10.232 -10.224 -10.221 -10.215 -10.189  -0.955
 -0.840  -0.743  -0.645  -0.602  -0.586  -0.528  -0.489  -0.442
 -0.426  -0.412  -0.395  -0.353  -0.339  -0.285  -0.261  -0.245
 -- Virtual --
 -0.029   0.000   0.054   0.073   0.093   0.126   0.141   0.160
  0.164   0.182   0.184   0.207   0.258   0.286   0.307   0.360
  0.393   0.500   0.513   0.519   0.555   0.565   0.582   0.592
  0.605   0.625   0.659   0.668   0.680   0.699   0.736   0.763
  0.788   0.812   0.829   0.844   0.849   0.858   0.863   0.899
  0.934   0.973   1.014   1.043   1.111   1.182   1.242   1.284
  1.327   1.390   1.432   1.499   1.557   1.581   1.607   1.635
  1.687   1.743   1.776   1.839   1.852   1.906   1.943   1.966
  2.030   2.057   2.129   2.187   2.224   2.260   2.293   2.353
  2.372   2.378   2.433   2.481   2.504   2.562   2.571   2.623
  2.667   2.685   2.776   2.804   2.932   2.986   3.948   4.152
  4.180   4.322   4.413   4.502   4.527
 --------------------------------------------------------------
 
          Ground-State Mulliken Net Atomic Charges

     Atom                 Charge (a.u.)    Spin (a.u.)
  --------------------------------------------------------
      1 C                     0.119737       0.000684
      2 C                    -0.272802      -0.049613
      3 C                    -0.140904       0.239553
      4 C                    -0.143961      -0.060643
      5 C                     0.003862       0.011987
      6 N                    -0.340744       0.006138
      7 H                     0.146073       0.003029
      8 H                     0.141101       0.007930
      9 H                     0.167474      -0.006064
     10 H                     0.153671       0.004930
     11 H                     0.154648       0.009407
     12 C                    -0.122138       0.862393
     13 H                     0.133983      -0.029731
  --------------------------------------------------------
  Sum of atomic charges =     0.000000
  Sum of spin   charges =     1.000000

 -----------------------------------------------------------------
                    Cartesian Multipole Moments
 -----------------------------------------------------------------
    Charge (ESU x 10^10)
                 0.0000
    Dipole Moment (Debye)
         X      -1.0445      Y      -1.5066      Z       0.1864
       Tot       1.8427
    Quadrupole Moments (Debye-Ang)
        XX     -37.6136     XY      -4.4134     YY     -41.6750
        XZ      -1.2160     YZ       1.8573     ZZ     -42.5477
    Octopole Moments (Debye-Ang^2)
       XXX      -5.4199    XXY      -6.7842    XYY     -12.0925
       YYY     -21.8858    XXZ       2.1613    XYZ       1.3748
       YYZ       1.5044    XZZ      -6.1522    YZZ      -8.2355
       ZZZ      11.6248
    Hexadecapole Moments (Debye-Ang^3)
      XXXX    -262.6251   XXXY     -16.3229   XXYY     -92.1865
      XYYY     -27.7085   YYYY    -259.9318   XXXZ      20.7602
      XXYZ      13.6799   XYYZ      14.3931   YYYZ      33.5762
      XXZZ     -75.7414   XYZZ      -2.8084   YYZZ     -70.3846
      XZZZ      23.0577   YZZZ      24.0277   ZZZZ    -173.0845
 -----------------------------------------------------------------
 Calculating analytic gradient of the SCF energy
 Gradient of SCF Energy
            1           2           3           4           5           6
    1  -0.0052741   0.0247437   0.0044964  -0.0051367  -0.0046178   0.0022285
    2  -0.0052182  -0.0097594  -0.0330156   0.0181821   0.0125478   0.0060916
    3  -0.0054978  -0.0188245   0.0090051   0.0135521   0.0022981   0.0042163
            7           8           9          10          11          12
    1   0.0023433   0.0164884   0.0122230  -0.0028646   0.0088099  -0.0326067
    2   0.0024664   0.0029568  -0.0341510   0.0170975   0.0176205   0.0024505
    3  -0.0108591  -0.0126104   0.0077433   0.0041269   0.0185136  -0.0266600
           13
    1  -0.0208333
    2   0.0027311
    3   0.0149963
 Max gradient component =       3.415E-02
 RMS gradient           =       1.482E-02
 Gradient time:  CPU 8.00 s  wall 2.26 s
 E1 = -286.7432109, E2 = -286.7444311, Emax = -286.7438185
 Iteration 5, Curvature = -0.1342452
 Curvature, final (in Hartree/Bohr^2) = -0.0375925
 ----------------------------------------------------------------
             Standard Nuclear Orientation (Angstroms)
    I     Atom           X                Y                Z
 ----------------------------------------------------------------
    1      C       1.5790687663     0.3015271515    -0.3623353320
    2      C       0.7146566607    -0.8936403231    -0.1095721735
    3      C      -0.6501570564    -0.5474579210    -0.7628080378
    4      C      -1.0880079095     0.3684034142     0.5763303749
    5      C      -0.4340896812     1.1845174803    -0.4965065173
    6      N       0.9715397850     1.4186529484    -0.5193795785
    7      H       2.6646056214     0.2667377491    -0.5084102883
    8      H       1.2587448903    -1.8072321618    -0.4064271778
    9      H      -1.1500743851    -1.4971048538    -1.0949895398
   10      H      -2.0323756028     0.8087872328     0.9412603617
   11      H      -0.9647871747     2.1233955503    -0.7140171716
   12      C      -0.3127007774    -0.6667898655     1.1919415159
   13      H      -0.6029215709    -1.0944503661     2.1773527630
 ----------------------------------------------------------------
 Nuclear Repulsion Energy =   276.6182471339 hartrees
 There are       25 alpha and       24 beta electrons
 Requested basis set is 6-31G(d)
 There are 40 shells and 117 basis functions
 Geometry Optimization Parameters
   NAtoms,    NIC,     NZ,  NCons,   NDum,   NFix, NCnnct, MaxDiis
       13     157       0       0       0       0       0       0


** GEOMETRY OPTIMIZATION IN DELOCALIZED INTERNAL COORDINATES **
   Searching for a Minimum

   Optimization Cycle:   1

                       Coordinates (Angstroms)
     ATOM                X               Y               Z
      1  C         1.5790687663    0.3015271515   -0.3623353320
      2  C         0.7146566607   -0.8936403231   -0.1095721735
      3  C        -0.6501570564   -0.5474579210   -0.7628080378
      4  C        -1.0880079095    0.3684034142    0.5763303749
      5  C        -0.4340896812    1.1845174803   -0.4965065173
      6  N         0.9715397850    1.4186529484   -0.5193795785
      7  H         2.6646056214    0.2667377491   -0.5084102883
      8  H         1.2587448903   -1.8072321618   -0.4064271778
      9  H        -1.1500743851   -1.4971048538   -1.0949895398
     10  H        -2.0323756028    0.8087872328    0.9412603617
     11  H        -0.9647871747    2.1233955503   -0.7140171716
     12  C        -0.3127007774   -0.6667898655    1.1919415159
     13  H        -0.6029215709   -1.0944503661    2.1773527630
   Point Group: c1    Number of degrees of freedom:    33


   Energy is   -286.744431081


 Attempting to Generate Delocalized Internal Coordinates

 33 Hessian modes will be used to form the next step
  Hessian Eigenvalues:
     0.009712    0.014305    0.015500    0.016028    0.017428    0.021376
     0.021920    0.023750    0.028985    0.033030    0.041231    0.043072
     0.051970    0.070083    0.075471    0.106481    0.111495    0.141014
     0.158541    0.159400    0.166127    0.213572    0.229015    0.296607
     0.303316    0.312187    0.323132    0.332374    0.332442    0.336599
     0.341426    0.386137    0.631151

 Minimum Search - Taking Simple RFO Step
 Searching for Lamda that Minimizes Along All modes
 Value Taken    Lamda =  -0.05211000
 Calculated Step too Large.  Step scaled by  0.470437
 Step Taken.  Stepsize is  0.300000

                             Maximum     Tolerance    Cnvgd?
         Gradient           0.051387      0.000300      NO
         Displacement       0.145219      0.001200      NO
         Energy change     *********      0.000001      NO


 New Cartesian Coordinates Obtained by Inverse Iteration

 Displacement from previous Coordinates is:  0.333693
 ----------------------------------------------------------------
             Standard Nuclear Orientation (Angstroms)
    I     Atom           X                Y                Z
 ----------------------------------------------------------------
    1      C       1.5753940496     0.3026002019    -0.3376283870
    2      C       0.6964419381    -0.8837774370    -0.1030823725
    3      C      -0.6579932585    -0.5131472538    -0.7732836692
    4      C      -1.0725664756     0.3577637640     0.5739822870
    5      C      -0.4365494371     1.1756736260    -0.5134848970
    6      N       0.9689809395     1.4159967701    -0.5247814761
    7      H       2.6623446401     0.2552341940    -0.4477773501
    8      H       1.2131780232    -1.8119151227    -0.3813275166
    9      H      -1.1863796843    -1.4248638423    -1.1188534293
   10      H      -2.0198436179     0.7702726045     0.9431619268
   11      H      -0.9912882395     2.0857608403    -0.7672912407
   12      C      -0.2729048906    -0.6630405235     1.1923951228
   13      H      -0.5253124213    -1.1012117864     2.1704102009
 ----------------------------------------------------------------
 Nuclear Repulsion Energy =   278.0625976821 hartrees
 There are       25 alpha and       24 beta electrons

































 Eigenvalues after right structure
 -0.0751711 -0.0000000 -0.0000000 0.0000000 0.0000000 0.0000000 0.0001285 0.0210926 0.0317978 0.0416464 0.0533933 0.0598145 0.0628756 0.0688649 0.0750191 0.0894031 0.1076687 0.1250377 0.1445234 0.1631702 0.2264539 0.2280870 0.2538027 0.2671698 0.3128968 0.3711742 0.4204446 0.4652810 0.5674244 0.6891945 0.7093892 0.9627778 0.9852965 1.0494952 1.1110014 1.1388724 1.3142197 1.3514960 1.7643175
Archival summary:
1\1\c8-66\JobtypUnspecified\ProcedureUnspecified\6-31G*\166(2)\hpark21\WedMar223:00:522022WedMar223:00:522022\0\\#,JobtypUnspecified,ProcedureUnspecified,6-31G*,\\0,2\N\C,1,1.28157\H,2,1.09354,1,119.554\C,1,1.42597,2,108.592,3,171.75,0\H,4,1.09563,1,110.93,2,-174.478,0\C,2,1.49501,1,115.731,3,-174.441,0\H,6,1.09812,2,110.751,1,155.43,0\C,4,1.50202,1,120.989,2,48.1028,0\H,8,1.09717,4,113.858,1,137.936,0\C,8,1.43664,4,117.573,1,-29.1268,0\H,10,1.10101,8,122.517,4,161.321,0\C,6,1.55597,2,104.784,1,24.5123,0\H,12,1.10898,6,110.68,2,151.308,0\\\@

 Total job time:  1534.55s(wall), 4426.11s(cpu) 
 Wed Mar  2 23:00:52 2022

        *************************************************************
        *                                                           *
        *  Thank you very much for using Q-Chem.  Have a nice day.  *
        *                                                           *
        *************************************************************


