
Running Job 1 of 1 qcts1.in
qchem qcts1.in_13217.0 ./qcts1.d/ 1
/home/leeping/opt/qchem/5.0.2-openmp/exe/qcprog.exe_s qcts1.in_13217.0 ./qcts1.d/
Check license passed

                  Welcome to Q-Chem
     A Quantum Leap Into The Future Of Chemistry


 Q-Chem 5.0, Q-Chem, Inc., Pleasanton, CA (2017)

 Yihan Shao,  Zhengting Gan,  E. Epifanovsky,  A. T. B. Gilbert,  M. Wormit,  
 J. Kussmann,  A. W. Lange,  A. Behn,  Jia Deng,  Xintian Feng,  D. Ghosh,  
 M. Goldey,  P. R. Horn,  L. D. Jacobson,  I. Kaliman,  T. Kus,  A. Landau,  
 Jie Liu,  E. I. Proynov,  R. M. Richard,  R. P. Steele,  E. J. Sundstrom,  
 H. L. Woodcock III,  P. M. Zimmerman,  D. Zuev,  B. Albrecht,  E. Alguire,  
 S. A. Baeppler,  D. Barton,  Z. Benda,  Y. A. Bernard,  E. J. Berquist,  
 K. B. Bravaya,  H. Burton,  D. Casanova,  Chun-Min Chang,  Yunqing Chen,  
 A. Chien,  K. D. Closser,  M. P. Coons,  S. Dasgupta,  A. L. Dempwolff,  
 M. Diedenhofen,  Hainam Do,  R. G. Edgar,  Po-Tung Fang,  S. Fatehi,  
 Qingguo Feng,  J. Fosso-Tande,  Qinghui Ge,  A. Ghysels,  G. Gidofalvi,  
 J. Gomes,  J. Gonthier,  A. Gunina,  M. W. D. Hanson-Heine,  
 P. H. P. Harbach,  A. W. Hauser,  J. E. Herr,  E. G. Hohenstein,  
 Z. C. Holden,  Kerwin Hui,  T.-C. Jagau,  Hyunjun Ji,  B. Kaduk,  
 K. Khistyaev,  Jaehoon Kim,  P. Klunzinger,  K. Koh,  D. Kosenkov,  
 L. Koulias,  T. Kowalczyk,  C. M. Krauter,  A. Kunitsa,  Ka Un Lao,  
 A. Laurent,  K. V. Lawler,  Joonho Lee,  D. Lefrancois,  S. Lehtola,  
 D. S. Levine,  Yi-Pei Li,  You-Sheng Lin,  Fenglai Liu,  E. Livshits,  
 A. Luenser,  P. Manohar,  E. Mansoor,  S. F. Manzer,  Shan-Ping Mao,  
 Yuezhi Mao,  N. Mardirossian,  A. V. Marenich,  T. Markovich,  
 L. A. Martinez-Martinez,  S. A. Maurer,  N. J. Mayhall,  S. C. McKenzie,  
 J.-M. Mewes,  A. F. Morrison,  J. W. Mullinax,  K. Nanda,  
 T. S. Nguyen-Beck,  R. Olivares-Amaya,  J. A. Parkhill,  T. M. Perrine,  
 F. Plasser,  S. Prager,  A. Prociuk,  E. Ramos,  D. R. Rehn,  F. Rob,  
 M. Schneider,  N. Sergueev,  S. M. Sharada,  S. Sharma,  D. W. Small,  
 T. Stauch,  T. Stein,  Yu-Chuan Su,  A. J. W. Thom,  A. Tkatchenko,  
 T. Tsuchimochi,  L. Vogt,  O. Vydrov,  M. A. Watson,  J. Wenzel,  
 M. de Wergifosse,  T. A. Wesolowski,  A. White,  J. Witte,  A. Yamada,  
 Jun Yang,  K. Yao,  S. Yeganeh,  S. R. Yost,  Zhi-Qiang You,  A. Zech,  
 Igor Ying Zhang,  Xing Zhang,  Yan Zhao,  Ying Zhu,  B. R. Brooks,  
 G. K. L. Chan,  C. J. Cramer,  M. S. Gordon,  W. J. Hehre,  A. Klamt,  
 M. W. Schmidt,  C. D. Sherrill,  D. G. Truhlar,  A. Aspuru-Guzik,  R. Baer,  
 A. T. Bell,  N. A. Besley,  Jeng-Da Chai,  R. A. DiStasio Jr.,  A. Dreuw,  
 B. D. Dunietz,  T. R. Furlani,  Chao-Ping Hsu,  Yousung Jung,  Jing Kong,  
 D. S. Lambrecht,  WanZhen Liang,  C. Ochsenfeld,  V. A. Rassolov,  
 L. V. Slipchenko,  J. E. Subotnik,  T. Van Voorhis,  J. M. Herbert,  
 A. I. Krylov,  P. M. W. Gill,  M. Head-Gordon

 Contributors to earlier versions of Q-Chem not listed above: 
 R. D. Adamson,  B. Austin,  J. Baker,  G. J. O. Beran,  K. Brandhorst,  
 S. T. Brown,  E. F. C. Byrd,  A. K. Chakraborty,  C.-L. Cheng,  
 Siu Hung Chien,  D. M. Chipman,  D. L. Crittenden,  H. Dachsel,  
 R. J. Doerksen,  A. D. Dutoi,  L. Fusti-Molnar,  W. A. Goddard III,  
 A. Golubeva-Zadorozhnaya,  S. R. Gwaltney,  G. Hawkins,  A. Heyden,  
 S. Hirata,  G. Kedziora,  F. J. Keil,  C. Kelley,  Jihan Kim,  R. A. King,  
 R. Z. Khaliullin,  P. P. Korambath,  W. Kurlancheek,  A. M. Lee,  M. S. Lee,  
 S. V. Levchenko,  Ching Yeh Lin,  D. Liotard,  R. C. Lochan,  I. Lotan,  
 P. E. Maslen,  N. Nair,  D. P. O'Neill,  D. Neuhauser,  E. Neuscamman,  
 C. M. Oana,  R. Olson,  B. Peters,  R. Peverati,  P. A. Pieniazek,  
 Y. M. Rhee,  J. Ritchie,  M. A. Rohrdanz,  E. Rosta,  N. J. Russ,  
 H. F. Schaefer III,  N. E. Schultz,  N. Shenvi,  A. C. Simmonett,  A. Sodt,  
 D. Stuck,  K. S. Thanthiriwatte,  V. Vanovschi,  Tao Wang,  A. Warshel,  
 C. F. Williams,  Q. Wu,  X. Xu,  W. Zhang

 Please cite Q-Chem as follows:
 Y. Shao et al., Mol. Phys. 113, 184-215 (2015)
 DOI: 10.1080/00268976.2014.952696

 Q-Chem 5.0.2 for Intel X86 EM64T Linux

 Parts of Q-Chem use Armadillo 5.200.1 (Boston Tea Smuggler).
 http://arma.sourceforge.net/

 Q-Chem begins on Wed Mar  2 23:08:17 2022  

Host: 
0

     Scratch files written to ./qcts1.d//
 Dec517 15110_ 26548  26544 5633   
Processing $rem in /home/leeping/opt/qchem/5.0.2-openmp/config/preferences.
 MEM_STATIC 2000
 MEM_TOTAL  8000
 SYMMETRY   OFF
 SYM_IGNORE TRUE 

Checking the input file for inconsistencies... 	...done.

--------------------------------------------------------------
User input:
--------------------------------------------------------------
$molecule
0 2
C        1.5753940496    0.3026002019   -0.3376283870
C        0.6964419381   -0.8837774370   -0.1030823725
C       -0.6579932585   -0.5131472538   -0.7732836692
C       -1.0725664756    0.3577637640    0.5739822870
C       -0.4365494371    1.1756736260   -0.5134848970
N        0.9689809395    1.4159967701   -0.5247814761
H        2.6623446401    0.2552341940   -0.4477773501
H        1.2131780232   -1.8119151227   -0.3813275166
H       -1.1863796843   -1.4248638423   -1.1188534293
H       -2.0198436179    0.7702726045    0.9431619268
H       -0.9912882395    2.0857608403   -0.7672912407
C       -0.2729048906   -0.6630405235    1.1923951228
H       -0.5253124213   -1.1012117864    2.1704102009
$end

$rem
method                b3lyp
basis                 6-31g(d)
unrestricted          true
symmetry              off
sym_ignore            true
incdft                false
incfock               0
scf_convergence       8
thresh                14
jobtype               ts
scf_guess             read
scf_algorithm         diis
max_scf_cycles        100
geom_opt_max_cycles   500
geom_opt_dmax         100
geom_opt_tol_gradient 10
geom_opt_hessian      read
$end

--------------------------------------------------------------
 ----------------------------------------------------------------
             Standard Nuclear Orientation (Angstroms)
    I     Atom           X                Y                Z
 ----------------------------------------------------------------
    1      C       1.5753940496     0.3026002019    -0.3376283870
    2      C       0.6964419381    -0.8837774370    -0.1030823725
    3      C      -0.6579932585    -0.5131472538    -0.7732836692
    4      C      -1.0725664756     0.3577637640     0.5739822870
    5      C      -0.4365494371     1.1756736260    -0.5134848970
    6      N       0.9689809395     1.4159967701    -0.5247814761
    7      H       2.6623446401     0.2552341940    -0.4477773501
    8      H       1.2131780232    -1.8119151227    -0.3813275166
    9      H      -1.1863796843    -1.4248638423    -1.1188534293
   10      H      -2.0198436179     0.7702726045     0.9431619268
   11      H      -0.9912882395     2.0857608403    -0.7672912407
   12      C      -0.2729048906    -0.6630405235     1.1923951228
   13      H      -0.5253124213    -1.1012117864     2.1704102009
 ----------------------------------------------------------------
 Nuclear Repulsion Energy =   278.0625976819 hartrees
 There are       25 alpha and       24 beta electrons
 Requested basis set is 6-31G(d)
 There are 40 shells and 117 basis functions

 Total QAlloc Memory Limit   8000 MB
 Mega-Array Size      1956 MB
 MEM_STATIC part      2000 MB
 A cutoff of  1.0D-14 yielded    810 shell pairs
 There are      7082 function pairs
 
 -------------------------------------------------------
 OpenMP Integral Computing Module                       
 Release: version 1.0, May 2013, Q-Chem Inc. Pittsburgh 
 -------------------------------------------------------
 Integral Job Info:
 Integral job number is                      11
 Integral operator is                         1
 short-range coefficients                     0
 long-range coefficients              100000000
 Omega coefficients                           0
 if combine SR and LR in K                    0
 Integral screening is                        0
 Integral computing path is                   2
 max size of driver memory is            800000
 size of driver memory is                593474
 size of scratch memory is              2361544
 max col of scratch BK array               1296
 max len of scratch array in speh3          155
 max len of scratch index in speh4           18
 max int batch size is                      520
 min int batch size is                       52
 fixed nKL is                                52
 max L of basis functions is                  2
 order of int derivative is                   0
 number of shells is                         40
 number of basis is                         117
 number of cartesian basis is               117
 number of contracted shell pairs           810
 number of primitive shell pairs           3582
 maxK2 (contraction) of shell pair           36
 max number of K2 of shell pair               1
 max number of CS2 of shell pair             84
 max number of PS2 of shell pair            402
 mem total for path MDJ                  535308
 -------------------------------------------------------
 Smallest overlap matrix eigenvalue = 1.85E-03

 Scale SEOQF with 1.000000e-01/1.000000e-01/1.000000e-01

 Standard Electronic Orientation quadrupole field applied
 Nucleus-field energy     =     0.0000000022 hartrees
 Guess MOs from SCF MO coefficient file
 Reading MOs from coefficient file
 Reading MOs from coefficient file
 An unrestricted hybrid HF-DFT SCF calculation will be
 performed using Pulay DIIS extrapolation
 Exchange:     0.2000 Hartree-Fock + 0.0800 Slater + 0.7200 B88
 Correlation:  0.1900 VWN1RPA + 0.8100 LYP
 Using SG-1 standard quadrature grid
 SCF converges when DIIS error is below 1.0E-08
Using Q-Chem read-in guess as SCF_GUESS READ specified.

 using 4 threads for integral computing
 -------------------------------------------------------
 OpenMP Integral computing Module                
 Release: version 1.0, May 2013, Q-Chem Inc. Pittsburgh 
 -------------------------------------------------------
 -------------------------------------------------------
 OpenMP BLAS3 based DFT computing Module                
 Release: version 1.0, May 2013, Q-Chem Inc. Pittsburgh 
 -------------------------------------------------------
 ---------------------------------------
  Cycle       Energy         DIIS Error
 ---------------------------------------
    1    -286.7668447184      5.64E-10
    2    -286.7668447184      6.03E-10 Convergence criterion met
 ---------------------------------------
 <S^2> = 0.7588
 SCF time:  CPU 5.03 s  wall 2.62 s
 SCF   energy in the final basis set = -286.76684472
 Total energy in the final basis set = -286.76684472
 
 --------------------------------------------------------------
 
                    Orbital Energies (a.u.)
 --------------------------------------------------------------
 
 Alpha MOs
 -- Occupied --
-14.324 -10.246 -10.232 -10.223 -10.216 -10.211 -10.198  -0.960
 -0.851  -0.745  -0.658  -0.606  -0.597  -0.533  -0.494  -0.452
 -0.433  -0.414  -0.400  -0.355  -0.347  -0.294  -0.275  -0.258
 -0.128
 -- Virtual --
 -0.027   0.062   0.074   0.094   0.129   0.143   0.158   0.163
  0.177   0.182   0.206   0.259   0.288   0.304   0.350   0.391
  0.495   0.509   0.513   0.541   0.558   0.578   0.586   0.602
  0.616   0.644   0.666   0.674   0.686   0.735   0.762   0.791
  0.815   0.827   0.843   0.851   0.857   0.864   0.909   0.932
  0.971   0.996   1.043   1.105   1.175   1.234   1.283   1.331
  1.389   1.441   1.502   1.549   1.576   1.617   1.650   1.691
  1.725   1.773   1.825   1.860   1.910   1.948   1.955   2.023
  2.054   2.144   2.191   2.224   2.253   2.288   2.335   2.360
  2.380   2.438   2.486   2.512   2.558   2.578   2.618   2.664
  2.688   2.784   2.809   2.935   2.986   3.951   4.163   4.187
  4.315   4.418   4.510   4.544
 
 Beta MOs
 -- Occupied --
-14.324 -10.246 -10.227 -10.223 -10.216 -10.212 -10.186  -0.957
 -0.842  -0.743  -0.645  -0.600  -0.590  -0.530  -0.490  -0.444
 -0.429  -0.412  -0.396  -0.351  -0.340  -0.283  -0.261  -0.249
 -- Virtual --
 -0.023  -0.003   0.067   0.081   0.098   0.138   0.145   0.161
  0.167   0.181   0.185   0.209   0.261   0.290   0.308   0.360
  0.393   0.502   0.513   0.521   0.556   0.562   0.582   0.590
  0.606   0.624   0.661   0.669   0.680   0.700   0.739   0.766
  0.793   0.815   0.830   0.846   0.857   0.858   0.866   0.911
  0.934   0.973   1.006   1.047   1.115   1.178   1.240   1.288
  1.338   1.391   1.445   1.506   1.554   1.584   1.623   1.661
  1.697   1.740   1.781   1.840   1.864   1.914   1.953   1.967
  2.031   2.064   2.151   2.199   2.230   2.272   2.290   2.352
  2.369   2.388   2.445   2.488   2.518   2.569   2.581   2.623
  2.667   2.698   2.788   2.815   2.936   2.988   3.952   4.174
  4.189   4.330   4.423   4.513   4.546
 --------------------------------------------------------------
 
          Ground-State Mulliken Net Atomic Charges

     Atom                 Charge (a.u.)    Spin (a.u.)
  --------------------------------------------------------
      1 C                     0.118301       0.003666
      2 C                    -0.274988      -0.051632
      3 C                    -0.135720       0.238057
      4 C                    -0.149207      -0.065513
      5 C                     0.002994       0.008728
      6 N                    -0.341313       0.009341
      7 H                     0.146175       0.002912
      8 H                     0.138883       0.008709
      9 H                     0.166035      -0.007099
     10 H                     0.150955       0.004729
     11 H                     0.154968       0.008072
     12 C                    -0.111670       0.872608
     13 H                     0.134587      -0.032577
  --------------------------------------------------------
  Sum of atomic charges =    -0.000000
  Sum of spin   charges =     1.000000

 -----------------------------------------------------------------
                    Cartesian Multipole Moments
 -----------------------------------------------------------------
    Charge (ESU x 10^10)
                -0.0000
    Dipole Moment (Debye)
         X      -1.0853      Y      -1.5963      Z       0.2187
       Tot       1.9426
    Quadrupole Moments (Debye-Ang)
        XX     -37.5545     XY      -4.3355     YY     -41.7715
        XZ      -0.8530     YZ       1.6049     ZZ     -42.3140
    Octopole Moments (Debye-Ang^2)
       XXX      -5.9845    XXY      -7.0875    XYY     -12.2294
       YYY     -22.6519    XXZ       2.1670    XYZ       1.4439
       YYZ       1.5920    XZZ      -6.3598    YZZ      -8.4909
       ZZZ      11.7401
    Hexadecapole Moments (Debye-Ang^3)
      XXXX    -258.7925   XXXY     -15.6902   XXYY     -91.0715
      XYYY     -27.3790   YYYY    -256.0169   XXXZ      19.0679
      XXYZ      13.8496   XYYZ      13.9405   YYYZ      33.5227
      XXZZ     -75.5528   XYZZ      -2.9726   YYZZ     -69.1817
      XZZZ      20.7634   YZZZ      24.7489   ZZZZ    -172.3206
 -----------------------------------------------------------------
 Calculating analytic gradient of the SCF energy
 Gradient of SCF Energy
            1           2           3           4           5           6
    1  -0.0035345   0.0238336  -0.0006311  -0.0019067  -0.0029539  -0.0009770
    2  -0.0065813  -0.0027323  -0.0379633   0.0169721   0.0196265   0.0039562
    3  -0.0005620  -0.0188168   0.0043417   0.0084954   0.0044747   0.0023047
            7           8           9          10          11          12
    1   0.0015155   0.0122221   0.0123486  -0.0002378   0.0074449  -0.0300749
    2   0.0010337   0.0038062  -0.0275863   0.0133479   0.0152190  -0.0025708
    3  -0.0101180  -0.0096717   0.0096076   0.0030328   0.0156563  -0.0186971
           13
    1  -0.0170487
    2   0.0034723
    3   0.0099524
 Max gradient component =       3.796E-02
 RMS gradient           =       1.339E-02
 Gradient time:  CPU 7.92 s  wall 2.23 s
 Geometry Optimization Parameters
   NAtoms,    NIC,     NZ,  NCons,   NDum,   NFix, NCnnct, MaxDiis
       13     157       0       0       0       0       0       0

 Cartesian Hessian read from HESS file


** GEOMETRY OPTIMIZATION IN DELOCALIZED INTERNAL COORDINATES **
   Searching for a Transition State

   Optimization Cycle:   1

                       Coordinates (Angstroms)
     ATOM                X               Y               Z
      1  C         1.5753940496    0.3026002019   -0.3376283870
      2  C         0.6964419381   -0.8837774370   -0.1030823725
      3  C        -0.6579932585   -0.5131472538   -0.7732836692
      4  C        -1.0725664756    0.3577637640    0.5739822870
      5  C        -0.4365494371    1.1756736260   -0.5134848970
      6  N         0.9689809395    1.4159967701   -0.5247814761
      7  H         2.6623446401    0.2552341940   -0.4477773501
      8  H         1.2131780232   -1.8119151227   -0.3813275166
      9  H        -1.1863796843   -1.4248638423   -1.1188534293
     10  H        -2.0198436179    0.7702726045    0.9431619268
     11  H        -0.9912882395    2.0857608403   -0.7672912407
     12  C        -0.2729048906   -0.6630405235    1.1923951228
     13  H        -0.5253124213   -1.1012117864    2.1704102009
   Point Group: c1    Number of degrees of freedom:    33


   Energy is   -286.766844718


 Attempting to Generate Delocalized Internal Coordinates

 Transforming Cartesian Hessian to Internal Coordinates
 Hessian Transformation does not Include Derivative of B-matrix

 33 Hessian modes will be used to form the next step
  Hessian Eigenvalues:
    -0.005460   -0.000808    0.001627    0.010404    0.010951    0.013420
     0.016003    0.017684    0.020344    0.022756    0.026164    0.027935
     0.028853    0.034498    0.038770    0.047629    0.067637    0.077483
     0.084209    0.109670    0.125893    0.158640    0.220916    0.231162
     0.239781    0.307221    0.316174    0.329025    0.335043    0.337587
     0.343314    0.346852    0.565948
**WARNING** Hessian does not have the Desired Local Structure

 Transition State Search - Taking P-RFO Step
 Searching for Lamda that Maximizes Along the Lowest mode
 Value Taken    Lamda =   0.01307964
 Searching for Lamda that Minimizes Along All other modes
 Value Taken    Lamda =  -0.05712716
 Calculated Step too Large.  Step scaled by  0.085680
 Step Taken.  Stepsize is  0.100000

                             Maximum     Tolerance    Cnvgd?
         Gradient           0.042640      0.000010      NO
         Displacement       0.060007      0.001200      NO
         Energy change     *********      0.000001      NO


 New Cartesian Coordinates Obtained by Inverse Iteration

 Displacement from previous Coordinates is:  0.067196
 ----------------------------------------------------------------
             Standard Nuclear Orientation (Angstroms)
    I     Atom           X                Y                Z
 ----------------------------------------------------------------
    1      C       1.5761008324     0.3034472230    -0.3349586255
    2      C       0.6948324469    -0.8812321467    -0.0991939460
    3      C      -0.6640495464    -0.5064032261    -0.7662132868
    4      C      -1.0713652868     0.3533051645     0.5682384770
    5      C      -0.4346512862     1.1785069482    -0.5149284056
    6      N       0.9712249238     1.4163930085    -0.5267122133
    7      H       2.6628489587     0.2531554038    -0.4430207375
    8      H       1.2064359394    -1.8120455982    -0.3757718901
    9      H      -1.1961070650    -1.4132989363    -1.1139114347
   10      H      -2.0229066458     0.7570212197     0.9332855594
   11      H      -0.9920793073     2.0844529947    -0.7738368458
   12      C      -0.2615312606    -0.6592241197     1.1946884690
   13      H      -0.5152511373    -1.1087319004     2.1647740789
 ----------------------------------------------------------------
 Nuclear Repulsion Energy =   278.3343261770 hartrees
 There are       25 alpha and       24 beta electrons
 Applying Cartesian multipole field
    Component          Value
    ---------          -----
     (2,0,0)        1.00000E-11
     (0,2,0)        2.00000E-11
     (0,0,2)       -3.00000E-11
 Nucleus-field energy     =     0.0000000022 hartrees
 Requested basis set is 6-31G(d)
 There are 40 shells and 117 basis functions
 A cutoff of  1.0D-14 yielded    810 shell pairs
 There are      7082 function pairs
 Smallest overlap matrix eigenvalue = 1.86E-03
 Guess MOs from SCF MO coefficient file
 Reading MOs from coefficient file
 Reading MOs from coefficient file
 An unrestricted hybrid HF-DFT SCF calculation will be
 performed using Pulay DIIS extrapolation
 Exchange:     0.2000 Hartree-Fock + 0.0800 Slater + 0.7200 B88
 Correlation:  0.1900 VWN1RPA + 0.8100 LYP
 Using SG-1 standard quadrature grid
 SCF converges when DIIS error is below 1.0E-08
 Geometry optimization detected.  Setting ReadMinima to 0
 Setting SaveMinima to 0
Using Q-Chem read-in guess as SCF_GUESS READ specified.

 using 4 threads for integral computing
 -------------------------------------------------------
 OpenMP Integral computing Module                
 Release: version 1.0, May 2013, Q-Chem Inc. Pittsburgh 
 -------------------------------------------------------
 -------------------------------------------------------
 OpenMP BLAS3 based DFT computing Module                
 Release: version 1.0, May 2013, Q-Chem Inc. Pittsburgh 
 -------------------------------------------------------
 ---------------------------------------
  Cycle       Energy         DIIS Error
 ---------------------------------------
    1    -286.7779045342      6.21E-04
    2    -286.7705024498      1.37E-04
    3    -286.7705058338      1.58E-04
    4    -286.7705504870      4.41E-05
    5    -286.7705548754      1.14E-05
    6    -286.7705558833      8.84E-06
    7    -286.7705567601      4.32E-06
    8    -286.7705570001      1.68E-06
    9    -286.7705570999      1.08E-06
   10    -286.7705571278      2.67E-07
   11    -286.7705571341      1.10E-07
   12    -286.7705571357      5.40E-08
   13    -286.7705571361      1.92E-08
   14    -286.7705571362      7.65E-09 Convergence criterion met
 ---------------------------------------
 <S^2> = 0.7578
 SCF time:  CPU 35.59 s  wall 11.20 s
 SCF   energy in the final basis set = -286.77055714
 Total energy in the final basis set = -286.77055714
 
 --------------------------------------------------------------
 
                    Orbital Energies (a.u.)
 --------------------------------------------------------------
 
 Alpha MOs
 -- Occupied --
-14.324 -10.245 -10.231 -10.223 -10.215 -10.210 -10.198  -0.960
 -0.853  -0.745  -0.657  -0.607  -0.598  -0.534  -0.494  -0.452
 -0.434  -0.414  -0.399  -0.354  -0.348  -0.295  -0.274  -0.257
 -0.130
 -- Virtual --
 -0.027   0.064   0.078   0.096   0.132   0.143   0.158   0.163
  0.177   0.183   0.206   0.259   0.288   0.304   0.350   0.392
  0.495   0.509   0.515   0.541   0.556   0.578   0.585   0.602
  0.615   0.644   0.665   0.674   0.686   0.736   0.763   0.792
  0.815   0.828   0.843   0.852   0.857   0.864   0.910   0.932
  0.971   0.994   1.043   1.108   1.172   1.233   1.282   1.331
  1.388   1.448   1.505   1.549   1.577   1.618   1.659   1.696
  1.724   1.772   1.825   1.862   1.911   1.947   1.956   2.025
  2.054   2.149   2.192   2.225   2.254   2.290   2.332   2.363
  2.383   2.439   2.488   2.516   2.554   2.583   2.617   2.663
  2.691   2.785   2.811   2.936   2.987   3.952   4.167   4.188
  4.317   4.422   4.511   4.546
 
 Beta MOs
 -- Occupied --
-14.324 -10.245 -10.227 -10.223 -10.216 -10.211 -10.185  -0.957
 -0.844  -0.743  -0.643  -0.600  -0.591  -0.530  -0.490  -0.445
 -0.430  -0.412  -0.396  -0.349  -0.341  -0.284  -0.261  -0.249
 -- Virtual --
 -0.023  -0.004   0.069   0.085   0.101   0.140   0.147   0.161
  0.167   0.180   0.185   0.210   0.261   0.291   0.308   0.360
  0.393   0.502   0.514   0.522   0.555   0.561   0.582   0.590
  0.606   0.624   0.662   0.668   0.680   0.700   0.740   0.766
  0.794   0.816   0.831   0.846   0.858   0.858   0.866   0.913
  0.935   0.973   1.005   1.049   1.118   1.175   1.239   1.287
  1.338   1.390   1.452   1.509   1.554   1.584   1.624   1.668
  1.703   1.740   1.780   1.839   1.866   1.915   1.952   1.968
  2.033   2.064   2.155   2.200   2.232   2.273   2.292   2.348
  2.372   2.392   2.447   2.490   2.522   2.566   2.587   2.622
  2.667   2.701   2.789   2.817   2.937   2.989   3.953   4.178
  4.190   4.332   4.427   4.514   4.549
 --------------------------------------------------------------
 
          Ground-State Mulliken Net Atomic Charges

     Atom                 Charge (a.u.)    Spin (a.u.)
  --------------------------------------------------------
      1 C                     0.118987       0.003926
      2 C                    -0.276119      -0.050061
      3 C                    -0.133050       0.215000
      4 C                    -0.150253      -0.059236
      5 C                     0.001790       0.013914
      6 N                    -0.341643       0.009263
      7 H                     0.146079       0.003074
      8 H                     0.138439       0.008782
      9 H                     0.165189      -0.005462
     10 H                     0.150233       0.004305
     11 H                     0.154828       0.008264
     12 C                    -0.109978       0.883892
     13 H                     0.135498      -0.035660
  --------------------------------------------------------
  Sum of atomic charges =     0.000000
  Sum of spin   charges =     1.000000

 -----------------------------------------------------------------
                    Cartesian Multipole Moments
 -----------------------------------------------------------------
    Charge (ESU x 10^10)
                -0.0000
    Dipole Moment (Debye)
         X      -1.0985      Y      -1.6320      Z       0.2171
       Tot       1.9792
    Quadrupole Moments (Debye-Ang)
        XX     -37.5428     XY      -4.2849     YY     -41.7712
        XZ      -0.8097     YZ       1.5281     ZZ     -42.2918
    Octopole Moments (Debye-Ang^2)
       XXX      -6.2258    XXY      -7.2305    XYY     -12.2871
       YYY     -22.9080    XXZ       2.1287    XYZ       1.5126
       YYZ       1.6691    XZZ      -6.4276    YZZ      -8.6173
       ZZZ      11.5860
    Hexadecapole Moments (Debye-Ang^3)
      XXXX    -258.7372   XXXY     -15.7003   XXYY     -91.1015
      XYYY     -27.4056   YYYY    -255.5304   XXXZ      18.7258
      XXYZ      13.9257   XYYZ      13.8258   YYYZ      33.6739
      XXZZ     -75.5334   XYZZ      -3.0002   YYZZ     -68.9214
      XZZZ      20.3156   YZZZ      25.0639   ZZZZ    -171.4913
 -----------------------------------------------------------------
 Calculating analytic gradient of the SCF energy
 Gradient of SCF Energy
            1           2           3           4           5           6
    1  -0.0034327   0.0231497  -0.0012992  -0.0010796  -0.0028992  -0.0009557
    2  -0.0060962  -0.0016139  -0.0373187   0.0166297   0.0198418   0.0033647
    3  -0.0000642  -0.0177243   0.0030065   0.0069776   0.0049844   0.0021868
            7           8           9          10          11          12
    1   0.0013551   0.0116030   0.0120237  -0.0000378   0.0072766  -0.0295730
    2   0.0008835   0.0037481  -0.0265525   0.0127702   0.0145546  -0.0040967
    3  -0.0099660  -0.0091556   0.0103448   0.0028356   0.0150862  -0.0179517
           13
    1  -0.0161311
    2   0.0038854
    3   0.0094400
 Max gradient component =       3.732E-02
 RMS gradient           =       1.302E-02
 Gradient time:  CPU 7.70 s  wall 2.04 s
 Geometry Optimization Parameters
   NAtoms,    NIC,     NZ,  NCons,   NDum,   NFix, NCnnct, MaxDiis
       13     157       0       0       0       0       0       0

 Cartesian Hessian Update
 Hessian Updated using Powell/Murtagh-Sargent Update
  Mixing factors:     0.788342 Powell
                      0.211658 Murtagh-Sargent


** GEOMETRY OPTIMIZATION IN DELOCALIZED INTERNAL COORDINATES **
   Searching for a Transition State

   Optimization Cycle:   2

                       Coordinates (Angstroms)
     ATOM                X               Y               Z
      1  C         1.5761008324    0.3034472230   -0.3349586255
      2  C         0.6948324469   -0.8812321467   -0.0991939460
      3  C        -0.6640495464   -0.5064032261   -0.7662132868
      4  C        -1.0713652868    0.3533051645    0.5682384770
      5  C        -0.4346512862    1.1785069482   -0.5149284056
      6  N         0.9712249238    1.4163930085   -0.5267122133
      7  H         2.6628489587    0.2531554038   -0.4430207375
      8  H         1.2064359394   -1.8120455982   -0.3757718901
      9  H        -1.1961070650   -1.4132989363   -1.1139114347
     10  H        -2.0229066458    0.7570212197    0.9332855594
     11  H        -0.9920793073    2.0844529947   -0.7738368458
     12  C        -0.2615312606   -0.6592241197    1.1946884690
     13  H        -0.5152511373   -1.1087319004    2.1647740789
   Point Group: c1    Number of degrees of freedom:    33


   Energy is   -286.770557136

 Hessian Updated using Powell/Murtagh-Sargent Update
  Mixing factors:     0.950851 Powell
                      0.049149 Murtagh-Sargent

 33 Hessian modes will be used to form the next step
  Hessian Eigenvalues:
    -0.006312   -0.001116    0.001644    0.010410    0.010972    0.013378
     0.015835    0.017503    0.021249    0.022757    0.026170    0.027918
     0.029076    0.034578    0.039486    0.047810    0.067738    0.077936
     0.084964    0.109781    0.125883    0.158621    0.220944    0.231278
     0.239799    0.307243    0.316313    0.329135    0.335115    0.337658
     0.343420    0.346860    0.565983
**WARNING** Hessian does not have the Desired Local Structure

 Transition State Search - Taking P-RFO Step
 Searching for Lamda that Maximizes Along the Lowest mode
 Value Taken    Lamda =   0.00959275
 Searching for Lamda that Minimizes Along All other modes
 Value Taken    Lamda =  -0.05546608
 Calculated Step too Large.  Step scaled by  0.088602
 Step Taken.  Stepsize is  0.100000

                             Maximum     Tolerance    Cnvgd?
         Gradient           0.040946      0.000010      NO
         Displacement       0.064526      0.001200      NO
         Energy change     -0.003712      0.000001      NO


 New Cartesian Coordinates Obtained by Inverse Iteration

 Displacement from previous Coordinates is:  0.065458
 ----------------------------------------------------------------
             Standard Nuclear Orientation (Angstroms)
    I     Atom           X                Y                Z
 ----------------------------------------------------------------
    1      C       1.5768323040     0.3043775754    -0.3322333605
    2      C       0.6930055491    -0.8788890490    -0.0951848935
    3      C      -0.6679378841    -0.4993952144    -0.7607526612
    4      C      -1.0694287021     0.3504444815     0.5648145973
    5      C      -0.4334074244     1.1788152229    -0.5172893188
    6      N       0.9729500347     1.4164605547    -0.5291070230
    7      H       2.6634771282     0.2516892003    -0.4373122208
    8      H       1.1989008730    -1.8127751988    -0.3701445551
    9      H      -1.2054986573    -1.3994760787    -1.1126153484
   10      H      -2.0248949673     0.7455697911     0.9267275303
   11      H      -0.9945999335     2.0798940580    -0.7819341689
   12      C      -0.2498852239    -0.6543621583     1.1982484449
   13      H      -0.5060115307    -1.1170071497     2.1592221765
 ----------------------------------------------------------------
 Nuclear Repulsion Energy =   278.6035945815 hartrees
 There are       25 alpha and       24 beta electrons
 Applying Cartesian multipole field
    Component          Value
    ---------          -----
     (2,0,0)        1.00000E-11
     (0,2,0)        2.00000E-11
     (0,0,2)       -3.00000E-11
 Nucleus-field energy     =     0.0000000022 hartrees
 Requested basis set is 6-31G(d)
 There are 40 shells and 117 basis functions
 A cutoff of  1.0D-14 yielded    810 shell pairs
 There are      7082 function pairs
 Smallest overlap matrix eigenvalue = 1.86E-03
 Guess MOs from SCF MO coefficient file
 Reading MOs from coefficient file
 Reading MOs from coefficient file
 An unrestricted hybrid HF-DFT SCF calculation will be
 performed using Pulay DIIS extrapolation
 Exchange:     0.2000 Hartree-Fock + 0.0800 Slater + 0.7200 B88
 Correlation:  0.1900 VWN1RPA + 0.8100 LYP
 Using SG-1 standard quadrature grid
 SCF converges when DIIS error is below 1.0E-08
 Geometry optimization detected.  Setting ReadMinima to 0
 Setting SaveMinima to 0
Using Q-Chem read-in guess as SCF_GUESS READ specified.

 using 4 threads for integral computing
 -------------------------------------------------------
 OpenMP Integral computing Module                
 Release: version 1.0, May 2013, Q-Chem Inc. Pittsburgh 
 -------------------------------------------------------
 -------------------------------------------------------
 OpenMP BLAS3 based DFT computing Module                
 Release: version 1.0, May 2013, Q-Chem Inc. Pittsburgh 
 -------------------------------------------------------
 ---------------------------------------
  Cycle       Energy         DIIS Error
 ---------------------------------------
    1    -286.7816635024      5.37E-04
    2    -286.7745078501      1.37E-04
    3    -286.7744947774      1.77E-04
    4    -286.7745513622      3.81E-05
    5    -286.7745542855      1.21E-05
    6    -286.7745548860      6.66E-06
    7    -286.7745552808      3.87E-06
    8    -286.7745554044      1.23E-06
    9    -286.7745554530      8.27E-07
   10    -286.7745554675      2.34E-07
   11    -286.7745554712      1.03E-07
   12    -286.7745554721      4.40E-08
   13    -286.7745554723      1.53E-08
   14    -286.7745554724      4.83E-09 Convergence criterion met
 ---------------------------------------
 <S^2> = 0.7573
 SCF time:  CPU 35.30 s  wall 10.97 s
 SCF   energy in the final basis set = -286.77455547
 Total energy in the final basis set = -286.77455547
 
 --------------------------------------------------------------
 
                    Orbital Energies (a.u.)
 --------------------------------------------------------------
 
 Alpha MOs
 -- Occupied --
-14.324 -10.245 -10.231 -10.223 -10.215 -10.209 -10.197  -0.961
 -0.854  -0.745  -0.657  -0.607  -0.598  -0.534  -0.494  -0.453
 -0.434  -0.415  -0.399  -0.353  -0.348  -0.296  -0.274  -0.257
 -0.131
 -- Virtual --
 -0.026   0.066   0.081   0.098   0.134   0.144   0.158   0.163
  0.177   0.184   0.207   0.259   0.288   0.304   0.350   0.392
  0.496   0.509   0.516   0.540   0.555   0.578   0.585   0.603
  0.614   0.644   0.665   0.674   0.687   0.736   0.763   0.793
  0.815   0.829   0.843   0.853   0.857   0.865   0.912   0.933
  0.971   0.995   1.043   1.112   1.169   1.231   1.281   1.332
  1.387   1.453   1.507   1.548   1.578   1.620   1.664   1.704
  1.724   1.772   1.824   1.864   1.911   1.948   1.957   2.027
  2.054   2.152   2.194   2.225   2.257   2.290   2.330   2.365
  2.386   2.441   2.490   2.520   2.552   2.588   2.617   2.663
  2.694   2.786   2.814   2.937   2.988   3.953   4.171   4.190
  4.318   4.426   4.513   4.549
 
 Beta MOs
 -- Occupied --
-14.324 -10.244 -10.227 -10.223 -10.215 -10.209 -10.185  -0.958
 -0.845  -0.742  -0.643  -0.600  -0.592  -0.531  -0.490  -0.445
 -0.430  -0.412  -0.395  -0.349  -0.341  -0.284  -0.261  -0.250
 -- Virtual --
 -0.022  -0.005   0.071   0.087   0.103   0.141   0.149   0.161
  0.167   0.180   0.186   0.210   0.261   0.291   0.308   0.360
  0.394   0.503   0.514   0.524   0.554   0.560   0.582   0.590
  0.607   0.623   0.663   0.669   0.680   0.699   0.741   0.766
  0.795   0.816   0.832   0.846   0.858   0.860   0.867   0.915
  0.935   0.973   1.005   1.050   1.121   1.172   1.238   1.286
  1.339   1.389   1.457   1.512   1.553   1.585   1.626   1.673
  1.711   1.740   1.779   1.839   1.869   1.916   1.953   1.969
  2.034   2.064   2.159   2.201   2.233   2.275   2.293   2.345
  2.373   2.396   2.448   2.492   2.525   2.563   2.591   2.622
  2.666   2.704   2.790   2.820   2.938   2.990   3.954   4.182
  4.192   4.332   4.430   4.515   4.553
 --------------------------------------------------------------
 
          Ground-State Mulliken Net Atomic Charges

     Atom                 Charge (a.u.)    Spin (a.u.)
  --------------------------------------------------------
      1 C                     0.119204       0.004496
      2 C                    -0.276935      -0.048901
      3 C                    -0.130777       0.199769
      4 C                    -0.151322      -0.055501
      5 C                     0.000595       0.017000
      6 N                    -0.341785       0.009247
      7 H                     0.145985       0.003143
      8 H                     0.138076       0.008818
      9 H                     0.164359      -0.004417
     10 H                     0.149658       0.003969
     11 H                     0.154713       0.008225
     12 C                    -0.108109       0.892529
     13 H                     0.136339      -0.038376
  --------------------------------------------------------
  Sum of atomic charges =    -0.000000
  Sum of spin   charges =     1.000000

 -----------------------------------------------------------------
                    Cartesian Multipole Moments
 -----------------------------------------------------------------
    Charge (ESU x 10^10)
                -0.0000
    Dipole Moment (Debye)
         X      -1.1162      Y      -1.6702      Z       0.2137
       Tot       2.0202
    Quadrupole Moments (Debye-Ang)
        XX     -37.5233     XY      -4.2376     YY     -41.7762
        XZ      -0.7642     YZ       1.4547     ZZ     -42.2713
    Octopole Moments (Debye-Ang^2)
       XXX      -6.4974    XXY      -7.3585    XYY     -12.3509
       YYY     -23.2009    XXZ       2.0857    XYZ       1.5759
       YYZ       1.7400    XZZ      -6.5229    YZZ      -8.7472
       ZZZ      11.3955
    Hexadecapole Moments (Debye-Ang^3)
      XXXX    -258.4898   XXXY     -15.6356   XXYY     -91.0375
      XYYY     -27.3629   YYYY    -254.8235   XXXZ      18.4196
      XXYZ      13.9927   XYYZ      13.7178   YYYZ      33.7887
      XXZZ     -75.5305   XYZZ      -3.0066   YYZZ     -68.6521
      XZZZ      19.9066   YZZZ      25.3333   ZZZZ    -171.1179
 -----------------------------------------------------------------
 Calculating analytic gradient of the SCF energy
 Gradient of SCF Energy
            1           2           3           4           5           6
    1  -0.0033281   0.0223617  -0.0018897  -0.0003139  -0.0026305  -0.0009549
    2  -0.0055917  -0.0004649  -0.0367333   0.0164138   0.0200593   0.0028102
    3   0.0005202  -0.0167211   0.0023504   0.0049643   0.0054903   0.0020029
            7           8           9          10          11          12
    1   0.0012140   0.0109581   0.0115870   0.0000093   0.0070048  -0.0288439
    2   0.0007424   0.0036090  -0.0255571   0.0121144   0.0140145  -0.0056037
    3  -0.0098233  -0.0087524   0.0108282   0.0026418   0.0145628  -0.0170099
           13
    1  -0.0151739
    2   0.0041872
    3   0.0089458
 Max gradient component =       3.673E-02
 RMS gradient           =       1.264E-02
 Gradient time:  CPU 7.61 s  wall 2.28 s
 Geometry Optimization Parameters
   NAtoms,    NIC,     NZ,  NCons,   NDum,   NFix, NCnnct, MaxDiis
       13     157       0       0       0       0       0       0

 Cartesian Hessian Update
 Hessian Updated using Powell/Murtagh-Sargent Update
  Mixing factors:     0.850766 Powell
                      0.149234 Murtagh-Sargent


** GEOMETRY OPTIMIZATION IN DELOCALIZED INTERNAL COORDINATES **
   Searching for a Transition State

   Optimization Cycle:   3

                       Coordinates (Angstroms)
     ATOM                X               Y               Z
      1  C         1.5768323040    0.3043775754   -0.3322333605
      2  C         0.6930055491   -0.8788890490   -0.0951848935
      3  C        -0.6679378841   -0.4993952144   -0.7607526612
      4  C        -1.0694287021    0.3504444815    0.5648145973
      5  C        -0.4334074244    1.1788152229   -0.5172893188
      6  N         0.9729500347    1.4164605547   -0.5291070230
      7  H         2.6634771282    0.2516892003   -0.4373122208
      8  H         1.1989008730   -1.8127751988   -0.3701445551
      9  H        -1.2054986573   -1.3994760787   -1.1126153484
     10  H        -2.0248949673    0.7455697911    0.9267275303
     11  H        -0.9945999335    2.0798940580   -0.7819341689
     12  C        -0.2498852239   -0.6543621583    1.1982484449
     13  H        -0.5060115307   -1.1170071497    2.1592221765
   Point Group: c1    Number of degrees of freedom:    33


   Energy is   -286.774555472

 Hessian Updated using Powell/Murtagh-Sargent Update
  Mixing factors:     0.778573 Powell
                      0.221427 Murtagh-Sargent

 33 Hessian modes will be used to form the next step
  Hessian Eigenvalues:
    -0.005328   -0.001625    0.001664    0.010377    0.010973    0.013329
     0.015867    0.017612    0.021569    0.022932    0.026181    0.027907
     0.029406    0.034579    0.039902    0.048064    0.067861    0.078326
     0.085414    0.109782    0.125882    0.159135    0.220949    0.231320
     0.239798    0.307247    0.316506    0.329245    0.335124    0.337666
     0.343450    0.346869    0.566010
**WARNING** Hessian does not have the Desired Local Structure

 Transition State Search - Taking P-RFO Step
 Searching for Lamda that Maximizes Along the Lowest mode
 Value Taken    Lamda =   0.00718980
 Searching for Lamda that Minimizes Along All other modes
 Value Taken    Lamda =  -0.05405735
 Calculated Step too Large.  Step scaled by  0.088764
 Step Taken.  Stepsize is  0.100000

                             Maximum     Tolerance    Cnvgd?
         Gradient           0.039147      0.000010      NO
         Displacement       0.066539      0.001200      NO
         Energy change     -0.003998      0.000001      NO


 New Cartesian Coordinates Obtained by Inverse Iteration

 Displacement from previous Coordinates is:  0.064550
 ----------------------------------------------------------------
             Standard Nuclear Orientation (Angstroms)
    I     Atom           X                Y                Z
 ----------------------------------------------------------------
    1      C       1.5774534070     0.3053087106    -0.3297164902
    2      C       0.6909988858    -0.8767105467    -0.0913282775
    3      C      -0.6701740839    -0.4918858551    -0.7575329390
    4      C      -1.0668260259     0.3488335095     0.5640691724
    5      C      -0.4329594799     1.1768115933    -0.5203583178
    6      N       0.9740310757     1.4161304655    -0.5319780484
    7      H       2.6640851657     0.2507586283    -0.4309785178
    8      H       1.1912906445    -1.8138158090    -0.3638793053
    9      H      -1.2136367929    -1.3843544687    -1.1147200757
   10      H      -2.0251250281     0.7365753573     0.9244698709
   11      H      -0.9986049857     2.0722800592    -0.7913884703
   12      C      -0.2384706286    -0.6489153716     1.2024238324
   13      H      -0.4985605879    -1.1256702375     2.1533567654
 ----------------------------------------------------------------
 Nuclear Repulsion Energy =   278.8648710415 hartrees
 There are       25 alpha and       24 beta electrons
 Applying Cartesian multipole field
    Component          Value
    ---------          -----
     (2,0,0)        1.00000E-11
     (0,2,0)        2.00000E-11
     (0,0,2)       -3.00000E-11
 Nucleus-field energy     =     0.0000000021 hartrees
 Requested basis set is 6-31G(d)
 There are 40 shells and 117 basis functions
 A cutoff of  1.0D-14 yielded    810 shell pairs
 There are      7082 function pairs
 Smallest overlap matrix eigenvalue = 1.86E-03
 Guess MOs from SCF MO coefficient file
 Reading MOs from coefficient file
 Reading MOs from coefficient file
 An unrestricted hybrid HF-DFT SCF calculation will be
 performed using Pulay DIIS extrapolation
 Exchange:     0.2000 Hartree-Fock + 0.0800 Slater + 0.7200 B88
 Correlation:  0.1900 VWN1RPA + 0.8100 LYP
 Using SG-1 standard quadrature grid
 SCF converges when DIIS error is below 1.0E-08
 Geometry optimization detected.  Setting ReadMinima to 0
 Setting SaveMinima to 0
Using Q-Chem read-in guess as SCF_GUESS READ specified.

 using 4 threads for integral computing
 -------------------------------------------------------
 OpenMP Integral computing Module                
 Release: version 1.0, May 2013, Q-Chem Inc. Pittsburgh 
 -------------------------------------------------------
 -------------------------------------------------------
 OpenMP BLAS3 based DFT computing Module                
 Release: version 1.0, May 2013, Q-Chem Inc. Pittsburgh 
 -------------------------------------------------------
 ---------------------------------------
  Cycle       Energy         DIIS Error
 ---------------------------------------
    1    -286.7854056739      4.75E-04
    2    -286.7786148493      1.35E-04
    3    -286.7785950585      1.83E-04
    4    -286.7786551758      3.15E-05
    5    -286.7786569640      1.25E-05
    6    -286.7786573664      5.32E-06
    7    -286.7786575201      3.18E-06
    8    -286.7786575692      8.36E-07
    9    -286.7786575838      5.68E-07
   10    -286.7786575886      1.78E-07
   11    -286.7786575900      8.76E-08
   12    -286.7786575904      3.59E-08
   13    -286.7786575905      1.17E-08
   14    -286.7786575905      3.05E-09 Convergence criterion met
 ---------------------------------------
 <S^2> = 0.7570
 SCF time:  CPU 35.57 s  wall 12.36 s
 SCF   energy in the final basis set = -286.77865759
 Total energy in the final basis set = -286.77865759
 
 --------------------------------------------------------------
 
                    Orbital Energies (a.u.)
 --------------------------------------------------------------
 
 Alpha MOs
 -- Occupied --
-14.324 -10.244 -10.230 -10.223 -10.214 -10.209 -10.197  -0.961
 -0.854  -0.745  -0.657  -0.607  -0.598  -0.535  -0.495  -0.453
 -0.435  -0.415  -0.399  -0.353  -0.348  -0.297  -0.274  -0.257
 -0.132
 -- Virtual --
 -0.024   0.069   0.082   0.100   0.137   0.145   0.157   0.163
  0.177   0.185   0.207   0.259   0.287   0.304   0.350   0.392
  0.496   0.509   0.517   0.540   0.554   0.578   0.585   0.603
  0.614   0.644   0.665   0.674   0.687   0.737   0.764   0.794
  0.815   0.829   0.842   0.854   0.858   0.866   0.914   0.933
  0.970   0.997   1.043   1.116   1.167   1.228   1.279   1.335
  1.387   1.456   1.509   1.547   1.579   1.621   1.668   1.711
  1.723   1.772   1.824   1.867   1.913   1.949   1.958   2.028
  2.053   2.155   2.196   2.225   2.259   2.290   2.328   2.366
  2.389   2.443   2.492   2.522   2.550   2.592   2.617   2.664
  2.697   2.788   2.815   2.937   2.988   3.954   4.175   4.192
  4.318   4.428   4.515   4.553
 
 Beta MOs
 -- Occupied --
-14.324 -10.243 -10.226 -10.223 -10.214 -10.209 -10.185  -0.958
 -0.846  -0.742  -0.642  -0.600  -0.592  -0.531  -0.490  -0.445
 -0.431  -0.412  -0.395  -0.348  -0.341  -0.284  -0.262  -0.251
 -- Virtual --
 -0.021  -0.005   0.073   0.089   0.105   0.143   0.150   0.160
  0.166   0.180   0.187   0.210   0.261   0.290   0.308   0.360
  0.394   0.503   0.513   0.525   0.554   0.559   0.582   0.590
  0.607   0.622   0.663   0.669   0.680   0.699   0.742   0.767
  0.796   0.816   0.832   0.845   0.858   0.861   0.868   0.917
  0.935   0.972   1.007   1.050   1.125   1.170   1.235   1.284
  1.342   1.390   1.460   1.513   1.552   1.586   1.628   1.675
  1.718   1.741   1.779   1.839   1.871   1.917   1.954   1.970
  2.035   2.064   2.162   2.203   2.233   2.276   2.294   2.343
  2.375   2.399   2.450   2.495   2.528   2.562   2.595   2.622
  2.667   2.707   2.792   2.822   2.938   2.990   3.955   4.186
  4.195   4.333   4.433   4.517   4.556
 --------------------------------------------------------------
 
          Ground-State Mulliken Net Atomic Charges

     Atom                 Charge (a.u.)    Spin (a.u.)
  --------------------------------------------------------
      1 C                     0.119099       0.005211
      2 C                    -0.277601      -0.048142
      3 C                    -0.129027       0.191785
      4 C                    -0.152341      -0.053945
      5 C                    -0.000493       0.018123
      6 N                    -0.341760       0.009262
      7 H                     0.145909       0.003133
      8 H                     0.137767       0.008827
      9 H                     0.163642      -0.003891
     10 H                     0.149217       0.003715
     11 H                     0.154650       0.008009
     12 C                    -0.106094       0.898581
     13 H                     0.137031      -0.040668
  --------------------------------------------------------
  Sum of atomic charges =     0.000000
  Sum of spin   charges =     1.000000

 -----------------------------------------------------------------
                    Cartesian Multipole Moments
 -----------------------------------------------------------------
    Charge (ESU x 10^10)
                -0.0000
    Dipole Moment (Debye)
         X      -1.1358      Y      -1.7074      Z       0.2072
       Tot       2.0611
    Quadrupole Moments (Debye-Ang)
        XX     -37.4998     XY      -4.1967     YY     -41.7849
        XZ      -0.7196     YZ       1.3884     ZZ     -42.2529
    Octopole Moments (Debye-Ang^2)
       XXX      -6.7582    XXY      -7.4665    XYY     -12.4141
       YYY     -23.5129    XXZ       2.0487    XYZ       1.6323
       YYZ       1.8062    XZZ      -6.6407    YZZ      -8.8655
       ZZZ      11.1810
    Hexadecapole Moments (Debye-Ang^3)
      XXXX    -258.0866   XXXY     -15.5119   XXYY     -90.8801
      XYYY     -27.2578   YYYY    -253.9060   XXXZ      18.1558
      XXYZ      14.0458   XYYZ      13.6240   YYYZ      33.8675
      XXZZ     -75.5373   XYZZ      -2.9965   YYZZ     -68.3853
      XZZZ      19.5402   YZZZ      25.5649   ZZZZ    -171.2011
 -----------------------------------------------------------------
 Calculating analytic gradient of the SCF energy
 Gradient of SCF Energy
            1           2           3           4           5           6
    1  -0.0032201   0.0216250  -0.0025467   0.0004439  -0.0022882  -0.0009850
    2  -0.0050983   0.0006275  -0.0361628   0.0160866   0.0204328   0.0022041
    3   0.0011247  -0.0158500   0.0018113   0.0031929   0.0059465   0.0017899
            7           8           9          10          11          12
    1   0.0010882   0.0103401   0.0111827   0.0000281   0.0067220  -0.0280957
    2   0.0006047   0.0034654  -0.0246611   0.0114355   0.0134975  -0.0068624
    3  -0.0096809  -0.0083652   0.0111285   0.0024623   0.0140691  -0.0161132
           13
    1  -0.0142942
    2   0.0044307
    3   0.0084839
 Max gradient component =       3.616E-02
 RMS gradient           =       1.231E-02
 Gradient time:  CPU 7.93 s  wall 2.02 s
 Geometry Optimization Parameters
   NAtoms,    NIC,     NZ,  NCons,   NDum,   NFix, NCnnct, MaxDiis
       13     157       0       0       0       0       0       0

 Cartesian Hessian Update
 Hessian Updated using Powell/Murtagh-Sargent Update
  Mixing factors:     0.865362 Powell
                      0.134638 Murtagh-Sargent


** GEOMETRY OPTIMIZATION IN DELOCALIZED INTERNAL COORDINATES **
   Searching for a Transition State

   Optimization Cycle:   4

                       Coordinates (Angstroms)
     ATOM                X               Y               Z
      1  C         1.5774534070    0.3053087106   -0.3297164902
      2  C         0.6909988858   -0.8767105467   -0.0913282775
      3  C        -0.6701740839   -0.4918858551   -0.7575329390
      4  C        -1.0668260259    0.3488335095    0.5640691724
      5  C        -0.4329594799    1.1768115933   -0.5203583178
      6  N         0.9740310757    1.4161304655   -0.5319780484
      7  H         2.6640851657    0.2507586283   -0.4309785178
      8  H         1.1912906445   -1.8138158090   -0.3638793053
      9  H        -1.2136367929   -1.3843544687   -1.1147200757
     10  H        -2.0251250281    0.7365753573    0.9244698709
     11  H        -0.9986049857    2.0722800592   -0.7913884703
     12  C        -0.2384706286   -0.6489153716    1.2024238324
     13  H        -0.4985605879   -1.1256702375    2.1533567654
   Point Group: c1    Number of degrees of freedom:    33


   Energy is   -286.778657591

 Hessian Updated using Powell/Murtagh-Sargent Update
  Mixing factors:     0.816113 Powell
                      0.183887 Murtagh-Sargent

 33 Hessian modes will be used to form the next step
  Hessian Eigenvalues:
    -0.005069   -0.001837    0.001684    0.010366    0.010989    0.013303
     0.015903    0.017767    0.021650    0.023047    0.026178    0.027891
     0.029459    0.034592    0.040144    0.048097    0.067944    0.078493
     0.085691    0.109782    0.125886    0.159504    0.220949    0.231355
     0.239805    0.307275    0.316665    0.329353    0.335137    0.337666
     0.343524    0.346883    0.566087
**WARNING** Hessian does not have the Desired Local Structure

 Transition State Search - Taking P-RFO Step
 Searching for Lamda that Maximizes Along the Lowest mode
 Value Taken    Lamda =   0.00723681
 Searching for Lamda that Minimizes Along All other modes
 Value Taken    Lamda =  -0.05195860
 Calculated Step too Large.  Step scaled by  0.088085
 Step Taken.  Stepsize is  0.100000

                             Maximum     Tolerance    Cnvgd?
         Gradient           0.037489      0.000010      NO
         Displacement       0.067377      0.001200      NO
         Energy change     -0.004102      0.000001      NO


 New Cartesian Coordinates Obtained by Inverse Iteration

 Displacement from previous Coordinates is:  0.063010
 ----------------------------------------------------------------
             Standard Nuclear Orientation (Angstroms)
    I     Atom           X                Y                Z
 ----------------------------------------------------------------
    1      C       1.5780612068     0.3062195181    -0.3274607179
    2      C       0.6891688305    -0.8746145197    -0.0877306110
    3      C      -0.6720513429    -0.4845944669    -0.7546637982
    4      C      -1.0641880464     0.3475460664     0.5641022020
    5      C      -0.4326971943     1.1744762443    -0.5234339455
    6      N       0.9749463161     1.4157318829    -0.5349928234
    7      H       2.6647080594     0.2499865449    -0.4248272709
    8      H       1.1840986219    -1.8148925818    -0.3576111535
    9      H      -1.2212350604    -1.3694910433    -1.1175902347
   10      H      -2.0249640557     0.7284243184     0.9233785425
   11      H      -1.0027481364     2.0643142709    -0.8010244085
   12      C      -0.2274501896    -0.6433013462     1.2069124994
   13      H      -0.4921474433    -1.1344588529     2.1473809187
 ----------------------------------------------------------------
 Nuclear Repulsion Energy =   279.1033902097 hartrees
 There are       25 alpha and       24 beta electrons
 Applying Cartesian multipole field
    Component          Value
    ---------          -----
     (2,0,0)        1.00000E-11
     (0,2,0)        2.00000E-11
     (0,0,2)       -3.00000E-11
 Nucleus-field energy     =     0.0000000021 hartrees
 Requested basis set is 6-31G(d)
 There are 40 shells and 117 basis functions
 A cutoff of  1.0D-14 yielded    810 shell pairs
 There are      7082 function pairs
 Smallest overlap matrix eigenvalue = 1.86E-03
 Guess MOs from SCF MO coefficient file
 Reading MOs from coefficient file
 Reading MOs from coefficient file
 An unrestricted hybrid HF-DFT SCF calculation will be
 performed using Pulay DIIS extrapolation
 Exchange:     0.2000 Hartree-Fock + 0.0800 Slater + 0.7200 B88
 Correlation:  0.1900 VWN1RPA + 0.8100 LYP
 Using SG-1 standard quadrature grid
 SCF converges when DIIS error is below 1.0E-08
 Geometry optimization detected.  Setting ReadMinima to 0
 Setting SaveMinima to 0
Using Q-Chem read-in guess as SCF_GUESS READ specified.

 using 4 threads for integral computing
 -------------------------------------------------------
 OpenMP Integral computing Module                
 Release: version 1.0, May 2013, Q-Chem Inc. Pittsburgh 
 -------------------------------------------------------
 -------------------------------------------------------
 OpenMP BLAS3 based DFT computing Module                
 Release: version 1.0, May 2013, Q-Chem Inc. Pittsburgh 
 -------------------------------------------------------
 ---------------------------------------
  Cycle       Energy         DIIS Error
 ---------------------------------------
    1    -286.7886700976      4.52E-04
    2    -286.7825052071      1.29E-04
    3    -286.7824867664      1.75E-04
    4    -286.7825422271      2.84E-05
    5    -286.7825436719      1.18E-05
    6    -286.7825440115      5.09E-06
    7    -286.7825441330      2.92E-06
    8    -286.7825441688      7.33E-07
    9    -286.7825441781      4.75E-07
   10    -286.7825441810      1.47E-07
   11    -286.7825441819      7.34E-08
   12    -286.7825441821      3.04E-08
   13    -286.7825441822      1.00E-08
   14    -286.7825441822      2.44E-09 Convergence criterion met
 ---------------------------------------
 <S^2> = 0.7568
 SCF time:  CPU 35.99 s  wall 11.53 s
 SCF   energy in the final basis set = -286.78254418
 Total energy in the final basis set = -286.78254418
 
 --------------------------------------------------------------
 
                    Orbital Energies (a.u.)
 --------------------------------------------------------------
 
 Alpha MOs
 -- Occupied --
-14.324 -10.243 -10.229 -10.223 -10.214 -10.208 -10.197  -0.962
 -0.855  -0.745  -0.657  -0.607  -0.597  -0.535  -0.495  -0.453
 -0.435  -0.415  -0.399  -0.353  -0.347  -0.298  -0.274  -0.258
 -0.134
 -- Virtual --
 -0.023   0.072   0.084   0.101   0.139   0.145   0.157   0.163
  0.177   0.186   0.207   0.260   0.287   0.304   0.350   0.392
  0.497   0.509   0.518   0.540   0.553   0.577   0.585   0.603
  0.613   0.644   0.665   0.674   0.688   0.737   0.764   0.795
  0.816   0.829   0.842   0.855   0.859   0.867   0.915   0.933
  0.970   0.999   1.042   1.121   1.164   1.225   1.278   1.338
  1.388   1.459   1.509   1.547   1.580   1.623   1.671   1.719
  1.722   1.773   1.824   1.869   1.914   1.951   1.959   2.029
  2.052   2.158   2.199   2.224   2.260   2.288   2.327   2.367
  2.391   2.445   2.495   2.525   2.549   2.595   2.617   2.664
  2.700   2.790   2.817   2.937   2.988   3.955   4.179   4.195
  4.317   4.430   4.516   4.557
 
 Beta MOs
 -- Occupied --
-14.324 -10.242 -10.225 -10.222 -10.214 -10.208 -10.184  -0.959
 -0.847  -0.742  -0.642  -0.600  -0.592  -0.532  -0.491  -0.446
 -0.432  -0.412  -0.395  -0.347  -0.341  -0.284  -0.262  -0.252
 -- Virtual --
 -0.021  -0.006   0.076   0.090   0.107   0.143   0.152   0.160
  0.166   0.180   0.188   0.211   0.262   0.290   0.308   0.360
  0.394   0.504   0.513   0.526   0.554   0.559   0.581   0.590
  0.608   0.622   0.664   0.669   0.680   0.699   0.742   0.767
  0.797   0.816   0.832   0.845   0.858   0.862   0.868   0.918
  0.934   0.971   1.009   1.050   1.129   1.167   1.232   1.282
  1.345   1.390   1.463   1.514   1.552   1.587   1.629   1.677
  1.724   1.743   1.780   1.839   1.874   1.919   1.955   1.970
  2.036   2.063   2.165   2.205   2.233   2.276   2.295   2.341
  2.375   2.401   2.452   2.497   2.531   2.560   2.598   2.622
  2.667   2.710   2.793   2.823   2.939   2.990   3.956   4.189
  4.198   4.332   4.435   4.519   4.560
 --------------------------------------------------------------
 
          Ground-State Mulliken Net Atomic Charges

     Atom                 Charge (a.u.)    Spin (a.u.)
  --------------------------------------------------------
      1 C                     0.118942       0.005861
      2 C                    -0.278137      -0.047399
      3 C                    -0.127453       0.185477
      4 C                    -0.153268      -0.052812
      5 C                    -0.001587       0.018834
      6 N                    -0.341700       0.009260
      7 H                     0.145849       0.003100
      8 H                     0.137516       0.008796
      9 H                     0.162947      -0.003457
     10 H                     0.148846       0.003473
     11 H                     0.154609       0.007768
     12 C                    -0.104195       0.903711
     13 H                     0.137633      -0.042614
  --------------------------------------------------------
  Sum of atomic charges =     0.000000
  Sum of spin   charges =     1.000000

 -----------------------------------------------------------------
                    Cartesian Multipole Moments
 -----------------------------------------------------------------
    Charge (ESU x 10^10)
                 0.0000
    Dipole Moment (Debye)
         X      -1.1550      Y      -1.7431      Z       0.1987
       Tot       2.1005
    Quadrupole Moments (Debye-Ang)
        XX     -37.4761     XY      -4.1588     YY     -41.7945
        XZ      -0.6772     YZ       1.3264     ZZ     -42.2388
    Octopole Moments (Debye-Ang^2)
       XXX      -7.0070    XXY      -7.5674    XYY     -12.4726
       YYY     -23.8242    XXZ       2.0113    XYZ       1.6868
       YYZ       1.8672    XZZ      -6.7629    YZZ      -8.9755
       ZZZ      10.9474
    Hexadecapole Moments (Debye-Ang^3)
      XXXX    -257.6843   XXXY     -15.3828   XXYY     -90.7166
      XYYY     -27.1443   YYYY    -252.9869   XXXZ      17.9223
      XXYZ      14.0958   XYYZ      13.5411   YYYZ      33.9385
      XXZZ     -75.5551   XYZZ      -2.9852   YYZZ     -68.1382
      XZZZ      19.2109   YZZZ      25.7899   ZZZZ    -171.4404
 -----------------------------------------------------------------
 Calculating analytic gradient of the SCF energy
 Gradient of SCF Energy
            1           2           3           4           5           6
    1  -0.0031150   0.0209389  -0.0032033   0.0011652  -0.0019480  -0.0010022
    2  -0.0046232   0.0016395  -0.0354207   0.0156562   0.0207607   0.0016163
    3   0.0017176  -0.0150481   0.0013464   0.0015899   0.0063368   0.0015753
            7           8           9          10          11          12
    1   0.0009836   0.0097643   0.0107698   0.0000370   0.0064319  -0.0273718
    2   0.0004673   0.0033118  -0.0238599   0.0107723   0.0130228  -0.0079943
    3  -0.0095366  -0.0079949   0.0113421   0.0022862   0.0135562  -0.0152534
           13
    1  -0.0134505
    2   0.0046512
    3   0.0080825
 Max gradient component =       3.542E-02
 RMS gradient           =       1.199E-02
 Gradient time:  CPU 7.80 s  wall 2.09 s
 Geometry Optimization Parameters
   NAtoms,    NIC,     NZ,  NCons,   NDum,   NFix, NCnnct, MaxDiis
       13     157       0       0       0       0       0       0

 Cartesian Hessian Update
 Hessian Updated using Powell/Murtagh-Sargent Update
  Mixing factors:     0.929825 Powell
                      0.070175 Murtagh-Sargent


** GEOMETRY OPTIMIZATION IN DELOCALIZED INTERNAL COORDINATES **
   Searching for a Transition State

   Optimization Cycle:   5

                       Coordinates (Angstroms)
     ATOM                X               Y               Z
      1  C         1.5780612068    0.3062195181   -0.3274607179
      2  C         0.6891688305   -0.8746145197   -0.0877306110
      3  C        -0.6720513429   -0.4845944669   -0.7546637982
      4  C        -1.0641880464    0.3475460664    0.5641022020
      5  C        -0.4326971943    1.1744762443   -0.5234339455
      6  N         0.9749463161    1.4157318829   -0.5349928234
      7  H         2.6647080594    0.2499865449   -0.4248272709
      8  H         1.1840986219   -1.8148925818   -0.3576111535
      9  H        -1.2212350604   -1.3694910433   -1.1175902347
     10  H        -2.0249640557    0.7284243184    0.9233785425
     11  H        -1.0027481364    2.0643142709   -0.8010244085
     12  C        -0.2274501896   -0.6433013462    1.2069124994
     13  H        -0.4921474433   -1.1344588529    2.1473809187
   Point Group: c1    Number of degrees of freedom:    33


   Energy is   -286.782544182

 Hessian Updated using Powell/Murtagh-Sargent Update
  Mixing factors:     0.781327 Powell
                      0.218673 Murtagh-Sargent

 33 Hessian modes will be used to form the next step
  Hessian Eigenvalues:
    -0.005333   -0.001685    0.001766    0.010350    0.010990    0.013296
     0.015907    0.017862    0.021766    0.023166    0.026180    0.027879
     0.029530    0.034662    0.040341    0.048133    0.067948    0.078679
     0.085973    0.109781    0.125891    0.159703    0.220949    0.231377
     0.239814    0.307327    0.316708    0.329453    0.335140    0.337667
     0.343547    0.346886    0.566206
**WARNING** Hessian does not have the Desired Local Structure

 Transition State Search - Taking P-RFO Step
 Searching for Lamda that Maximizes Along the Lowest mode
 Value Taken    Lamda =   0.00740569
 Searching for Lamda that Minimizes Along All other modes
 Value Taken    Lamda =  -0.04963842
 Calculated Step too Large.  Step scaled by  0.088444
 Step Taken.  Stepsize is  0.100000

                             Maximum     Tolerance    Cnvgd?
         Gradient           0.035919      0.000010      NO
         Displacement       0.067857      0.001200      NO
         Energy change     -0.003887      0.000001      NO


 New Cartesian Coordinates Obtained by Inverse Iteration

 Displacement from previous Coordinates is:  0.061906
 ----------------------------------------------------------------
             Standard Nuclear Orientation (Angstroms)
    I     Atom           X                Y                Z
 ----------------------------------------------------------------
    1      C       1.5786580615     0.3070833009    -0.3254498648
    2      C       0.6874736870    -0.8726065151    -0.0843102142
    3      C      -0.6737179396    -0.4776523819    -0.7518442833
    4      C      -1.0616008639     0.3464725341     0.5645224535
    5      C      -0.4324856192     1.1721038068    -0.5264276962
    6      N       0.9757832603     1.4153023431    -0.5380925583
    7      H       2.6653357082     0.2493396627    -0.4187800919
    8      H       1.1771662870    -1.8160169888    -0.3513560572
    9      H      -1.2285557260    -1.3548865733    -1.1207754834
   10      H      -2.0247128421     0.7206962889     0.9227994695
   11      H      -1.0068764138     2.0562970793    -0.8105987505
   12      C      -0.2166824951    -0.6375104130     1.2115539122
   13      H      -0.4862835386    -1.1432761086     2.1411983637
 ----------------------------------------------------------------
 Nuclear Repulsion Energy =   279.3254166018 hartrees
 There are       25 alpha and       24 beta electrons
 Applying Cartesian multipole field
    Component          Value
    ---------          -----
     (2,0,0)        1.00000E-11
     (0,2,0)        2.00000E-11
     (0,0,2)       -3.00000E-11
 Nucleus-field energy     =     0.0000000021 hartrees
 Requested basis set is 6-31G(d)
 There are 40 shells and 117 basis functions
 A cutoff of  1.0D-14 yielded    810 shell pairs
 There are      7082 function pairs
 Smallest overlap matrix eigenvalue = 1.86E-03
 Guess MOs from SCF MO coefficient file
 Reading MOs from coefficient file
 Reading MOs from coefficient file
 An unrestricted hybrid HF-DFT SCF calculation will be
 performed using Pulay DIIS extrapolation
 Exchange:     0.2000 Hartree-Fock + 0.0800 Slater + 0.7200 B88
 Correlation:  0.1900 VWN1RPA + 0.8100 LYP
 Using SG-1 standard quadrature grid
 SCF converges when DIIS error is below 1.0E-08
 Geometry optimization detected.  Setting ReadMinima to 0
 Setting SaveMinima to 0
Using Q-Chem read-in guess as SCF_GUESS READ specified.

 using 4 threads for integral computing
 -------------------------------------------------------
 OpenMP Integral computing Module                
 Release: version 1.0, May 2013, Q-Chem Inc. Pittsburgh 
 -------------------------------------------------------
 -------------------------------------------------------
 OpenMP BLAS3 based DFT computing Module                
 Release: version 1.0, May 2013, Q-Chem Inc. Pittsburgh 
 -------------------------------------------------------
 ---------------------------------------
  Cycle       Energy         DIIS Error
 ---------------------------------------
    1    -286.7918914934      4.34E-04
    2    -286.7861933625      1.23E-04
    3    -286.7861765794      1.68E-04
    4    -286.7862274402      2.60E-05
    5    -286.7862286711      1.10E-05
    6    -286.7862289670      4.97E-06
    7    -286.7862290752      2.73E-06
    8    -286.7862291046      6.78E-07
    9    -286.7862291118      4.20E-07
   10    -286.7862291139      1.28E-07
   11    -286.7862291145      6.35E-08
   12    -286.7862291147      2.64E-08
   13    -286.7862291147      8.77E-09 Convergence criterion met
 ---------------------------------------
 <S^2> = 0.7567
 SCF time:  CPU 32.97 s  wall 10.69 s
 SCF   energy in the final basis set = -286.78622911
 Total energy in the final basis set = -286.78622911
 
 --------------------------------------------------------------
 
                    Orbital Energies (a.u.)
 --------------------------------------------------------------
 
 Alpha MOs
 -- Occupied --
-14.324 -10.242 -10.228 -10.222 -10.213 -10.207 -10.196  -0.962
 -0.855  -0.745  -0.657  -0.607  -0.597  -0.535  -0.496  -0.453
 -0.436  -0.415  -0.399  -0.353  -0.346  -0.299  -0.273  -0.258
 -0.135
 -- Virtual --
 -0.022   0.075   0.085   0.103   0.140   0.146   0.157   0.163
  0.177   0.187   0.207   0.261   0.286   0.304   0.349   0.392
  0.497   0.509   0.519   0.540   0.552   0.577   0.586   0.604
  0.612   0.644   0.665   0.674   0.688   0.738   0.764   0.796
  0.816   0.830   0.841   0.856   0.859   0.867   0.917   0.932
  0.969   1.002   1.041   1.125   1.161   1.221   1.276   1.342
  1.388   1.462   1.510   1.546   1.581   1.624   1.673   1.721
  1.727   1.774   1.824   1.872   1.916   1.952   1.960   2.030
  2.052   2.160   2.201   2.224   2.261   2.285   2.328   2.368
  2.393   2.448   2.497   2.526   2.548   2.598   2.617   2.664
  2.702   2.791   2.819   2.937   2.988   3.956   4.182   4.197
  4.317   4.432   4.518   4.560
 
 Beta MOs
 -- Occupied --
-14.323 -10.242 -10.224 -10.222 -10.213 -10.208 -10.184  -0.959
 -0.847  -0.742  -0.642  -0.600  -0.592  -0.532  -0.491  -0.446
 -0.432  -0.412  -0.395  -0.347  -0.341  -0.285  -0.262  -0.253
 -- Virtual --
 -0.020  -0.006   0.078   0.091   0.108   0.144   0.153   0.160
  0.166   0.180   0.189   0.211   0.262   0.289   0.308   0.360
  0.394   0.504   0.513   0.527   0.553   0.558   0.581   0.590
  0.608   0.621   0.664   0.669   0.680   0.698   0.742   0.767
  0.798   0.816   0.832   0.844   0.858   0.864   0.869   0.920
  0.934   0.970   1.012   1.049   1.133   1.165   1.228   1.281
  1.348   1.391   1.466   1.515   1.551   1.587   1.631   1.679
  1.727   1.747   1.780   1.838   1.876   1.921   1.956   1.971
  2.038   2.062   2.168   2.206   2.233   2.276   2.294   2.341
  2.376   2.403   2.454   2.499   2.533   2.560   2.600   2.622
  2.667   2.712   2.795   2.825   2.939   2.990   3.956   4.192
  4.201   4.332   4.437   4.520   4.564
 --------------------------------------------------------------
 
          Ground-State Mulliken Net Atomic Charges

     Atom                 Charge (a.u.)    Spin (a.u.)
  --------------------------------------------------------
      1 C                     0.118759       0.006416
      2 C                    -0.278538      -0.046593
      3 C                    -0.125993       0.179945
      4 C                    -0.154119      -0.051783
      5 C                    -0.002688       0.019349
      6 N                    -0.341626       0.009258
      7 H                     0.145800       0.003055
      8 H                     0.137324       0.008729
      9 H                     0.162256      -0.003052
     10 H                     0.148529       0.003231
     11 H                     0.154583       0.007521
     12 C                    -0.102429       0.908154
     13 H                     0.138142      -0.044229
  --------------------------------------------------------
  Sum of atomic charges =    -0.000000
  Sum of spin   charges =     1.000000

 -----------------------------------------------------------------
                    Cartesian Multipole Moments
 -----------------------------------------------------------------
    Charge (ESU x 10^10)
                -0.0000
    Dipole Moment (Debye)
         X      -1.1736      Y      -1.7776      Z       0.1887
       Tot       2.1385
    Quadrupole Moments (Debye-Ang)
        XX     -37.4520     XY      -4.1230     YY     -41.8043
        XZ      -0.6358     YZ       1.2681     ZZ     -42.2294
    Octopole Moments (Debye-Ang^2)
       XXX      -7.2498    XXY      -7.6633    XYY     -12.5264
       YYY     -24.1330    XXZ       1.9731    XYZ       1.7394
       YYZ       1.9241    XZZ      -6.8861    YZZ      -9.0781
       ZZZ      10.6963
    Hexadecapole Moments (Debye-Ang^3)
      XXXX    -257.2871   XXXY     -15.2527   XXYY     -90.5566
      XYYY     -27.0286   YYYY    -252.0878   XXXZ      17.7114
      XXYZ      14.1438   XYYZ      13.4658   YYYZ      34.0042
      XXZZ     -75.5802   XYZZ      -2.9757   YYZZ     -67.9097
      XZZZ      18.9116   YZZZ      26.0138   ZZZZ    -171.7707
 -----------------------------------------------------------------
 Calculating analytic gradient of the SCF energy
 Gradient of SCF Energy
            1           2           3           4           5           6
    1  -0.0030086   0.0202534  -0.0038276   0.0018276  -0.0016010  -0.0010110
    2  -0.0041677   0.0025588  -0.0345619   0.0151638   0.0210327   0.0010609
    3   0.0022869  -0.0142662   0.0009525   0.0001036   0.0066640   0.0013589
            7           8           9          10          11          12
    1   0.0008894   0.0092108   0.0103545   0.0000342   0.0061411  -0.0266400
    2   0.0003368   0.0031578  -0.0230917   0.0101185   0.0125577  -0.0090171
    3  -0.0093828  -0.0076420   0.0115032   0.0021076   0.0130416  -0.0144546
           13
    1  -0.0126227
    2   0.0048513
    3   0.0077273
 Max gradient component =       3.456E-02
 RMS gradient           =       1.168E-02
 Gradient time:  CPU 7.59 s  wall 2.02 s
 Geometry Optimization Parameters
   NAtoms,    NIC,     NZ,  NCons,   NDum,   NFix, NCnnct, MaxDiis
       13     157       0       0       0       0       0       0

 Cartesian Hessian Update
 Hessian Updated using Powell/Murtagh-Sargent Update
  Mixing factors:     0.941226 Powell
                      0.058774 Murtagh-Sargent


** GEOMETRY OPTIMIZATION IN DELOCALIZED INTERNAL COORDINATES **
   Searching for a Transition State

   Optimization Cycle:   6

                       Coordinates (Angstroms)
     ATOM                X               Y               Z
      1  C         1.5786580615    0.3070833009   -0.3254498648
      2  C         0.6874736870   -0.8726065151   -0.0843102142
      3  C        -0.6737179396   -0.4776523819   -0.7518442833
      4  C        -1.0616008639    0.3464725341    0.5645224535
      5  C        -0.4324856192    1.1721038068   -0.5264276962
      6  N         0.9757832603    1.4153023431   -0.5380925583
      7  H         2.6653357082    0.2493396627   -0.4187800919
      8  H         1.1771662870   -1.8160169888   -0.3513560572
      9  H        -1.2285557260   -1.3548865733   -1.1207754834
     10  H        -2.0247128421    0.7206962889    0.9227994695
     11  H        -1.0068764138    2.0562970793   -0.8105987505
     12  C        -0.2166824951   -0.6375104130    1.2115539122
     13  H        -0.4862835386   -1.1432761086    2.1411983637
   Point Group: c1    Number of degrees of freedom:    33


   Energy is   -286.786229115

 Hessian Updated using Powell/Murtagh-Sargent Update
  Mixing factors:     0.800411 Powell
                      0.199589 Murtagh-Sargent

 33 Hessian modes will be used to form the next step
  Hessian Eigenvalues:
    -0.005663   -0.001468    0.001857    0.010334    0.010990    0.013291
     0.015906    0.017938    0.021859    0.023291    0.026188    0.027868
     0.029593    0.034734    0.040511    0.048162    0.067948    0.078842
     0.086248    0.109780    0.125896    0.159843    0.220949    0.231399
     0.239829    0.307379    0.316746    0.329549    0.335141    0.337670
     0.343563    0.346888    0.566336
**WARNING** Hessian does not have the Desired Local Structure

 Transition State Search - Taking P-RFO Step
 Searching for Lamda that Maximizes Along the Lowest mode
 Value Taken    Lamda =   0.00743551
 Searching for Lamda that Minimizes Along All other modes
 Value Taken    Lamda =  -0.04737665
 Calculated Step too Large.  Step scaled by  0.089081
 Step Taken.  Stepsize is  0.100000

                             Maximum     Tolerance    Cnvgd?
         Gradient           0.034379      0.000010      NO
         Displacement       0.068100      0.001200      NO
         Energy change     -0.003685      0.000001      NO


 New Cartesian Coordinates Obtained by Inverse Iteration

 Displacement from previous Coordinates is:  0.061116
 ----------------------------------------------------------------
             Standard Nuclear Orientation (Angstroms)
    I     Atom           X                Y                Z
 ----------------------------------------------------------------
    1      C       1.5792448014     0.3078994895    -0.3236753153
    2      C       0.6858949995    -0.8706824135    -0.0810356410
    3      C      -0.6751824822    -0.4710164273    -0.7490386054
    4      C      -1.0590712102     0.3456044337     0.5652996545
    5      C      -0.4323167549     1.1696733414    -0.5293499205
    6      N       0.9765522288     1.4148442323    -0.5412674708
    7      H       2.6659677030     0.2488094281    -0.4128133881
    8      H       1.1704470893    -1.8171912515    -0.3450918097
    9      H      -1.2356224496    -1.3404573668    -1.1242537578
   10      H      -2.0244034588     0.7133484899     0.9226769751
   11      H      -1.0109972649     2.0481861652    -0.8201160152
   12      C      -0.2061401073    -0.6315566544     1.2163246072
   13      H      -0.4808715285    -1.1521154314     2.1347798861
 ----------------------------------------------------------------
 Nuclear Repulsion Energy =   279.5334506994 hartrees
 There are       25 alpha and       24 beta electrons
 Applying Cartesian multipole field
    Component          Value
    ---------          -----
     (2,0,0)        1.00000E-11
     (0,2,0)        2.00000E-11
     (0,0,2)       -3.00000E-11
 Nucleus-field energy     =     0.0000000021 hartrees
 Requested basis set is 6-31G(d)
 There are 40 shells and 117 basis functions
 A cutoff of  1.0D-14 yielded    810 shell pairs
 There are      7082 function pairs
 Smallest overlap matrix eigenvalue = 1.86E-03
 Guess MOs from SCF MO coefficient file
 Reading MOs from coefficient file
 Reading MOs from coefficient file
 An unrestricted hybrid HF-DFT SCF calculation will be
 performed using Pulay DIIS extrapolation
 Exchange:     0.2000 Hartree-Fock + 0.0800 Slater + 0.7200 B88
 Correlation:  0.1900 VWN1RPA + 0.8100 LYP
 Using SG-1 standard quadrature grid
 SCF converges when DIIS error is below 1.0E-08
 Geometry optimization detected.  Setting ReadMinima to 0
 Setting SaveMinima to 0
Using Q-Chem read-in guess as SCF_GUESS READ specified.

[...]
 Step Taken.  Stepsize is  0.097923

                             Maximum     Tolerance    Cnvgd?
         Gradient           0.000491      0.000010      NO
         Displacement       0.063020      0.001200      NO
         Energy change      0.000017      0.000001      NO


 New Cartesian Coordinates Obtained by Inverse Iteration

 Displacement from previous Coordinates is:  0.050425
 ----------------------------------------------------------------
             Standard Nuclear Orientation (Angstroms)
    I     Atom           X                Y                Z
 ----------------------------------------------------------------
    1      C       1.5435402397     0.2843963131    -0.2906361059
    2      C       0.6026653406    -0.9072820578    -0.0946616364
    3      C      -0.5981292098    -0.4122887101    -0.9314621550
    4      C      -1.0272086996     0.3759569680     0.7110384923
    5      C      -0.4943366483     1.0262558323    -0.5655541072
    6      N       0.9291618445     1.3875417603    -0.5187829549
    7      H       2.6203668650     0.2486447630    -0.1332400754
    8      H       1.0083888810    -1.9097156667    -0.2335115188
    9      H      -1.3015195869    -0.9521954560    -1.5496156710
   10      H      -1.9476712854     0.7261156564     1.1722617581
   11      H      -1.1452301548     1.7636384191    -1.0286174072
   12      C      -0.1524830882    -0.6053433602     1.1981681392
   13      H      -0.0840429321    -1.0603784263     2.1770524412
 ----------------------------------------------------------------
 Nuclear Repulsion Energy =   281.0895436886 hartrees
 There are       25 alpha and       24 beta electrons
 Applying Cartesian multipole field
    Component          Value
    ---------          -----
     (2,0,0)        1.00000E-11
     (0,2,0)        2.00000E-11
     (0,0,2)       -3.00000E-11
 Nucleus-field energy     =     0.0000000011 hartrees
 Requested basis set is 6-31G(d)
 There are 40 shells and 117 basis functions
 A cutoff of  1.0D-14 yielded    813 shell pairs
 There are      7085 function pairs
 Smallest overlap matrix eigenvalue = 1.37E-03
 Guess MOs from SCF MO coefficient file
 Reading MOs from coefficient file
 Reading MOs from coefficient file
 An unrestricted hybrid HF-DFT SCF calculation will be
 performed using Pulay DIIS extrapolation
 Exchange:     0.2000 Hartree-Fock + 0.0800 Slater + 0.7200 B88
 Correlation:  0.1900 VWN1RPA + 0.8100 LYP
 Using SG-1 standard quadrature grid
 SCF converges when DIIS error is below 1.0E-08
 Geometry optimization detected.  Setting ReadMinima to 0
 Setting SaveMinima to 0
Using Q-Chem read-in guess as SCF_GUESS READ specified.

 using 4 threads for integral computing
 -------------------------------------------------------
 OpenMP Integral computing Module                
 Release: version 1.0, May 2013, Q-Chem Inc. Pittsburgh 
 -------------------------------------------------------
 -------------------------------------------------------
 OpenMP BLAS3 based DFT computing Module                
 Release: version 1.0, May 2013, Q-Chem Inc. Pittsburgh 
 -------------------------------------------------------
 ---------------------------------------
  Cycle       Energy         DIIS Error
 ---------------------------------------
    1    -286.8255514893      2.15E-04
    2    -286.8244693009      3.41E-05
    3    -286.8244712165      4.59E-05
    4    -286.8244751244      1.19E-05
    5    -286.8244755284      6.19E-06
    6    -286.8244756890      2.26E-06
    7    -286.8244757509      7.26E-07
    8    -286.8244757672      5.24E-07
    9    -286.8244757721      1.35E-07
   10    -286.8244757728      7.09E-08
   11    -286.8244757728      2.33E-08
   12    -286.8244757728      9.58E-09 Convergence criterion met
 ---------------------------------------
 <S^2> = 0.7805
 SCF time:  CPU 30.33 s  wall 10.39 s
 SCF   energy in the final basis set = -286.82447577
 Total energy in the final basis set = -286.82447577
 
 --------------------------------------------------------------
 
                    Orbital Energies (a.u.)
 --------------------------------------------------------------
 
 Alpha MOs
 -- Occupied --
-14.314 -10.224 -10.218 -10.216 -10.212 -10.209 -10.193  -0.959
 -0.836  -0.739  -0.685  -0.590  -0.575  -0.538  -0.513  -0.461
 -0.433  -0.413  -0.398  -0.367  -0.345  -0.284  -0.271  -0.264
 -0.145
 -- Virtual --
  0.006   0.018   0.095   0.139   0.150   0.154   0.156   0.164
  0.171   0.206   0.221   0.277   0.288   0.305   0.354   0.378
  0.490   0.503   0.511   0.535   0.576   0.581   0.591   0.611
  0.634   0.655   0.668   0.687   0.698   0.743   0.768   0.799
  0.811   0.822   0.836   0.849   0.859   0.885   0.896   0.942
  0.975   1.020   1.059   1.120   1.165   1.206   1.307   1.356
  1.400   1.454   1.460   1.512   1.595   1.646   1.666   1.739
  1.758   1.815   1.857   1.891   1.940   1.963   2.028   2.052
  2.108   2.142   2.170   2.228   2.274   2.302   2.319   2.363
  2.413   2.472   2.523   2.549   2.582   2.626   2.648   2.683
  2.693   2.810   2.848   2.908   2.961   3.948   4.203   4.262
  4.313   4.419   4.533   4.617
 
 Beta MOs
 -- Occupied --
-14.313 -10.224 -10.219 -10.218 -10.210 -10.204 -10.184  -0.955
 -0.828  -0.735  -0.673  -0.586  -0.566  -0.531  -0.510  -0.453
 -0.429  -0.408  -0.396  -0.362  -0.340  -0.274  -0.261  -0.251
 -- Virtual --
 -0.035   0.019   0.034   0.098   0.146   0.152   0.157   0.161
  0.166   0.174   0.211   0.225   0.281   0.291   0.309   0.360
  0.380   0.496   0.510   0.516   0.549   0.577   0.587   0.598
  0.618   0.639   0.673   0.677   0.691   0.706   0.749   0.772
  0.801   0.813   0.824   0.837   0.852   0.865   0.888   0.900
  0.945   0.979   1.026   1.064   1.131   1.169   1.211   1.312
  1.362   1.402   1.459   1.465   1.519   1.605   1.650   1.676
  1.748   1.767   1.817   1.863   1.900   1.949   1.971   2.041
  2.060   2.113   2.152   2.174   2.239   2.282   2.308   2.335
  2.375   2.422   2.484   2.528   2.556   2.585   2.633   2.653
  2.690   2.699   2.815   2.851   2.910   2.963   3.950   4.213
  4.263   4.330   4.424   4.536   4.620
 --------------------------------------------------------------
 
          Ground-State Mulliken Net Atomic Charges

     Atom                 Charge (a.u.)    Spin (a.u.)
  --------------------------------------------------------
      1 C                     0.091555       0.008800
      2 C                    -0.258907      -0.069061
      3 C                    -0.128045       0.570140
      4 C                    -0.132547      -0.216079
      5 C                    -0.028360       0.004322
      6 N                    -0.338714       0.064141
      7 H                     0.143593       0.001570
      8 H                     0.137625       0.010531
      9 H                     0.158495      -0.027815
     10 H                     0.147989       0.011850
     11 H                     0.146720       0.004265
     12 C                    -0.081372       0.664308
     13 H                     0.141968      -0.026972
  --------------------------------------------------------
  Sum of atomic charges =    -0.000000
  Sum of spin   charges =     1.000000

 -----------------------------------------------------------------
                    Cartesian Multipole Moments
 -----------------------------------------------------------------
    Charge (ESU x 10^10)
                 0.0000
    Dipole Moment (Debye)
         X      -1.2399      Y      -2.0067      Z       0.3582
       Tot       2.3859
    Quadrupole Moments (Debye-Ang)
        XX     -37.5487     XY      -4.5761     YY     -43.3798
        XZ       1.2833     YZ       0.9187     ZZ     -40.0389
    Octopole Moments (Debye-Ang^2)
       XXX      -8.0195    XXY      -6.2498    XYY     -10.2945
       YYY     -25.5731    XXZ       2.5432    XYZ       0.5519
       YYZ       2.8498    XZZ      -8.0478    YZZ      -8.5707
       ZZZ      10.7098
    Hexadecapole Moments (Debye-Ang^3)
      XXXX    -241.9414   XXXY      -9.7139   XXYY     -85.6723
      XYYY     -21.8833   YYYY    -238.0248   XXXZ      16.1234
      XXYZ      13.0448   XYYZ      11.6513   YYYZ      28.4410
      XXZZ     -74.1535   XYZZ      -3.1476   YYZZ     -67.3665
      XZZZ      18.3928   YZZZ      21.6904   ZZZZ    -184.9358
 -----------------------------------------------------------------
 Calculating analytic gradient of the SCF energy
 Gradient of SCF Energy
            1           2           3           4           5           6
    1  -0.0000004   0.0000042  -0.0000085   0.0000032  -0.0000056  -0.0000029
    2   0.0000051   0.0000060   0.0000152  -0.0000153   0.0000098   0.0000088
    3  -0.0000025  -0.0000155   0.0000013   0.0000082   0.0000168   0.0000174
            7           8           9          10          11          12
    1  -0.0000008   0.0000007  -0.0000052   0.0000051  -0.0000068   0.0000050
    2   0.0000052   0.0000045   0.0000200  -0.0000185   0.0000120  -0.0000258
    3  -0.0000080  -0.0000325  -0.0000100   0.0000192   0.0000298  -0.0000119
           13
    1   0.0000119
    2  -0.0000272
    3  -0.0000123
 Max gradient component =       3.251E-05
 RMS gradient           =       1.351E-05
 Gradient time:  CPU 7.57 s  wall 2.64 s
 Geometry Optimization Parameters
   NAtoms,    NIC,     NZ,  NCons,   NDum,   NFix, NCnnct, MaxDiis
       13     157       0       0       0       0       0       0

 Cartesian Hessian Update
 Hessian Updated using Powell/Murtagh-Sargent Update
  Mixing factors:     0.998857 Powell
                      0.001143 Murtagh-Sargent


** GEOMETRY OPTIMIZATION IN DELOCALIZED INTERNAL COORDINATES **
   Searching for a Transition State

   Optimization Cycle:  96

                       Coordinates (Angstroms)
     ATOM                X               Y               Z
      1  C         1.5435402397    0.2843963131   -0.2906361059
      2  C         0.6026653406   -0.9072820578   -0.0946616364
      3  C        -0.5981292098   -0.4122887101   -0.9314621550
      4  C        -1.0272086996    0.3759569680    0.7110384923
      5  C        -0.4943366483    1.0262558323   -0.5655541072
      6  N         0.9291618445    1.3875417603   -0.5187829549
      7  H         2.6203668650    0.2486447630   -0.1332400754
      8  H         1.0083888810   -1.9097156667   -0.2335115188
      9  H        -1.3015195869   -0.9521954560   -1.5496156710
     10  H        -1.9476712854    0.7261156564    1.1722617581
     11  H        -1.1452301548    1.7636384191   -1.0286174072
     12  C        -0.1524830882   -0.6053433602    1.1981681392
     13  H        -0.0840429321   -1.0603784263    2.1770524412
   Point Group: c1    Number of degrees of freedom:    33


   Energy is   -286.824475773

 Hessian Updated using Powell/Murtagh-Sargent Update
  Mixing factors:     0.992144 Powell
                      0.007856 Murtagh-Sargent

 33 Hessian modes will be used to form the next step
  Hessian Eigenvalues:
    -0.010905    0.002383    0.011294    0.011486    0.014884    0.016595
     0.021355    0.022131    0.023721    0.026613    0.028554    0.030881
     0.034416    0.039107    0.048137    0.066993    0.079594    0.097720
     0.109817    0.123910    0.126195    0.168004    0.224304    0.237211
     0.250072    0.309159    0.318624    0.330884    0.335448    0.337804
     0.345079    0.347136    0.571406

 Transition State Search - Taking P-RFO Step
 Searching for Lamda that Maximizes Along the Lowest mode
 Value Taken    Lamda =   0.00000000
 Searching for Lamda that Minimizes Along All other modes
 Value Taken    Lamda =   0.00000000
 Step Taken.  Stepsize is  0.001321

                             Maximum     Tolerance    Cnvgd?
         Gradient           0.000002      0.000010     YES
         Displacement       0.000649      0.001200     YES
         Energy change     -0.000017      0.000001      NO


                       Distance Matrix (Angstroms)
             C (  1)   C (  2)   C (  3)   C (  4)   C (  5)   N (  6)
   C (  2)  1.530931
   C (  3)  2.341533  1.545044
   C (  4)  2.760523  2.225386  1.871697
   C (  5)  2.186064  2.272382  1.487976  1.528571
   N (  6)  1.283137  2.356416  2.396312  2.522529  1.469375
   H (  7)  1.088856  2.325677  3.381229  3.746174  3.239283  2.075067
   H (  8)  2.259154  1.090305  2.304414  3.203144  3.314870  3.310523
   H (  9)  3.347918  2.396837  1.080912  2.636246  2.352486  3.393070
   H ( 10)  3.811003  3.282880  2.746431  1.087469  2.285229  3.401953
   H ( 11)  3.156305  3.325842  2.245755  2.228450  1.087117  2.168982
   C ( 12)  2.425834  1.527359  2.184307  1.401924  2.426870  2.844199
   H ( 13)  3.247604  2.378170  3.216701  2.258720  3.470486  3.779739
             H (  7)   H (  8)   H (  9)   H ( 10)   H ( 11)   C ( 12)
   H (  8)  2.695746
   H (  9)  4.339278  2.825713
   H ( 10)  4.774860  4.202630  3.262339
   H ( 11)  4.156516  4.331720  2.769769  2.562076
   C ( 12)  3.192278  2.258034  2.998484  2.235208  3.399440
   H ( 13)  3.790096  2.779496  3.921990  2.770248  4.401989  1.081645

 
 Final energy is   -286.824475772849     


 ******************************
 **  OPTIMIZATION CONVERGED  **
 ******************************

                       Coordinates (Angstroms)
     ATOM                X               Y               Z
      1  C         1.5435402397    0.2843963131   -0.2906361059
      2  C         0.6026653406   -0.9072820578   -0.0946616364
      3  C        -0.5981292098   -0.4122887101   -0.9314621550
      4  C        -1.0272086996    0.3759569680    0.7110384923
      5  C        -0.4943366483    1.0262558323   -0.5655541072
      6  N         0.9291618445    1.3875417603   -0.5187829549
      7  H         2.6203668650    0.2486447630   -0.1332400754
      8  H         1.0083888810   -1.9097156667   -0.2335115188
      9  H        -1.3015195869   -0.9521954560   -1.5496156710
     10  H        -1.9476712854    0.7261156564    1.1722617581
     11  H        -1.1452301548    1.7636384191   -1.0286174072
     12  C        -0.1524830882   -0.6053433602    1.1981681392
     13  H        -0.0840429321   -1.0603784263    2.1770524412

Z-matrix Print:
$molecule
0 2
N 
C  1 1.283137
H  2 1.088856 1 121.833316
C  1 1.469375 2 104.959307 3 -175.670813 0
H  4 1.087117 1 115.266046 2 -162.971422 0
C  4 1.487976 1 108.246931 2 -24.507470 0
H  6 1.080912 4 131.983876 1 -142.756415 0
C  4 1.528571 1 114.566156 2 58.839853 0
H  8 1.087469 4 120.816838 1 131.186453 0
C  8 1.401924 4 111.744394 1 -44.990617 0
H  10 1.081645 8 130.421714 4 161.999569 0
C  10 1.527359 8 98.786055 4 -21.891167 0
H  12 1.090305 10 118.263730 8 -150.709611 0
$end

 
 --------------------------------------------------------------
 
                    Orbital Energies (a.u.)
 --------------------------------------------------------------
 
 Alpha MOs
 -- Occupied --
-14.314 -10.224 -10.218 -10.216 -10.212 -10.209 -10.193  -0.959
 -0.836  -0.739  -0.685  -0.590  -0.575  -0.538  -0.513  -0.461
 -0.433  -0.413  -0.398  -0.367  -0.345  -0.284  -0.271  -0.264
 -0.145
 -- Virtual --
  0.006   0.018   0.095   0.139   0.150   0.154   0.156   0.164
  0.171   0.206   0.221   0.277   0.288   0.305   0.354   0.378
  0.490   0.503   0.511   0.535   0.576   0.581   0.591   0.611
  0.634   0.655   0.668   0.687   0.698   0.743   0.768   0.799
  0.811   0.822   0.836   0.849   0.859   0.885   0.896   0.942
  0.975   1.020   1.059   1.120   1.165   1.206   1.307   1.356
  1.400   1.454   1.460   1.512   1.595   1.646   1.666   1.739
  1.758   1.815   1.857   1.891   1.940   1.963   2.028   2.052
  2.108   2.142   2.170   2.228   2.274   2.302   2.319   2.363
  2.413   2.472   2.523   2.549   2.582   2.626   2.648   2.683
  2.693   2.810   2.848   2.908   2.961   3.948   4.203   4.262
  4.313   4.419   4.533   4.617
 
 Beta MOs
 -- Occupied --
-14.313 -10.224 -10.219 -10.218 -10.210 -10.204 -10.184  -0.955
 -0.828  -0.735  -0.673  -0.586  -0.566  -0.531  -0.510  -0.453
 -0.429  -0.408  -0.396  -0.362  -0.340  -0.274  -0.261  -0.251
 -- Virtual --
 -0.035   0.019   0.034   0.098   0.146   0.152   0.157   0.161
  0.166   0.174   0.211   0.225   0.281   0.291   0.309   0.360
  0.380   0.496   0.510   0.516   0.549   0.577   0.587   0.598
  0.618   0.639   0.673   0.677   0.691   0.706   0.749   0.772
  0.801   0.813   0.824   0.837   0.852   0.865   0.888   0.900
  0.945   0.979   1.026   1.064   1.131   1.169   1.211   1.312
  1.362   1.402   1.459   1.465   1.519   1.605   1.650   1.676
  1.748   1.767   1.817   1.863   1.900   1.949   1.971   2.041
  2.060   2.113   2.152   2.174   2.239   2.282   2.308   2.335
  2.375   2.422   2.484   2.528   2.556   2.585   2.633   2.653
  2.690   2.699   2.815   2.851   2.910   2.963   3.950   4.213
  4.263   4.330   4.424   4.536   4.620
 --------------------------------------------------------------
 
          Ground-State Mulliken Net Atomic Charges

     Atom                 Charge (a.u.)    Spin (a.u.)
  --------------------------------------------------------
      1 C                     0.091555       0.008800
      2 C                    -0.258907      -0.069061
      3 C                    -0.128045       0.570140
      4 C                    -0.132547      -0.216079
      5 C                    -0.028360       0.004322
      6 N                    -0.338714       0.064141
      7 H                     0.143593       0.001570
      8 H                     0.137625       0.010531
      9 H                     0.158495      -0.027815
     10 H                     0.147989       0.011850
     11 H                     0.146720       0.004265
     12 C                    -0.081372       0.664308
     13 H                     0.141968      -0.026972
  --------------------------------------------------------
  Sum of atomic charges =    -0.000000
  Sum of spin   charges =     1.000000

 -----------------------------------------------------------------
                    Cartesian Multipole Moments
 -----------------------------------------------------------------
    Charge (ESU x 10^10)
                 0.0000
    Dipole Moment (Debye)
         X      -1.2399      Y      -2.0067      Z       0.3582
       Tot       2.3859
    Quadrupole Moments (Debye-Ang)
        XX     -37.5487     XY      -4.5761     YY     -43.3798
        XZ       1.2833     YZ       0.9187     ZZ     -40.0389
    Octopole Moments (Debye-Ang^2)
       XXX      -8.0195    XXY      -6.2498    XYY     -10.2945
       YYY     -25.5731    XXZ       2.5432    XYZ       0.5519
       YYZ       2.8498    XZZ      -8.0478    YZZ      -8.5707
       ZZZ      10.7098
    Hexadecapole Moments (Debye-Ang^3)
      XXXX    -241.9414   XXXY      -9.7139   XXYY     -85.6723
      XYYY     -21.8833   YYYY    -238.0248   XXXZ      16.1234
      XXYZ      13.0448   XYYZ      11.6513   YYYZ      28.4410
      XXZZ     -74.1535   XYZZ      -3.1476   YYZZ     -67.3665
      XZZZ      18.3928   YZZZ      21.6904   ZZZZ    -184.9358
 -----------------------------------------------------------------
Archival summary:
1\1\c8-66\TS\ProcedureUnspecified\6-31G*\166(2)\hpark21\WedMar223:30:402022WedMar223:30:402022\0\\#,TS,ProcedureUnspecified,6-31G*,\\0,2\N\C,1,1.28314\H,2,1.08886,1,121.833\C,1,1.46938,2,104.959,3,-175.671,0\H,4,1.08712,1,115.266,2,-162.971,0\C,4,1.48798,1,108.247,2,-24.5075,0\H,6,1.08091,4,131.984,1,-142.756,0\C,4,1.52857,1,114.566,2,58.8399,0\H,8,1.08747,4,120.817,1,131.186,0\C,8,1.40192,4,111.744,1,-44.9906,0\H,10,1.08164,8,130.422,4,162,0\C,10,1.52736,8,98.7861,4,-21.8912,0\H,12,1.0903,10,118.264,8,-150.71,0\\\@

 Total job time:  1342.55s(wall), 3857.40s(cpu) 
 Wed Mar  2 23:30:40 2022

        *************************************************************
        *                                                           *
        *  Thank you very much for using Q-Chem.  Have a nice day.  *
        *                                                           *
        *************************************************************


