
Running Job 1 of 1 qcts1.in
qchem qcts1.in_15426.0 ./qcts1.d/ 1
/home/leeping/opt/qchem/5.0.2-openmp/exe/qcprog.exe_s qcts1.in_15426.0 ./qcts1.d/
Check license passed

                  Welcome to Q-Chem
     A Quantum Leap Into The Future Of Chemistry


 Q-Chem 5.0, Q-Chem, Inc., Pleasanton, CA (2017)

 Yihan Shao,  Zhengting Gan,  E. Epifanovsky,  A. T. B. Gilbert,  M. Wormit,  
 J. Kussmann,  A. W. Lange,  A. Behn,  Jia Deng,  Xintian Feng,  D. Ghosh,  
 M. Goldey,  P. R. Horn,  L. D. Jacobson,  I. Kaliman,  T. Kus,  A. Landau,  
 Jie Liu,  E. I. Proynov,  R. M. Richard,  R. P. Steele,  E. J. Sundstrom,  
 H. L. Woodcock III,  P. M. Zimmerman,  D. Zuev,  B. Albrecht,  E. Alguire,  
 S. A. Baeppler,  D. Barton,  Z. Benda,  Y. A. Bernard,  E. J. Berquist,  
 K. B. Bravaya,  H. Burton,  D. Casanova,  Chun-Min Chang,  Yunqing Chen,  
 A. Chien,  K. D. Closser,  M. P. Coons,  S. Dasgupta,  A. L. Dempwolff,  
 M. Diedenhofen,  Hainam Do,  R. G. Edgar,  Po-Tung Fang,  S. Fatehi,  
 Qingguo Feng,  J. Fosso-Tande,  Qinghui Ge,  A. Ghysels,  G. Gidofalvi,  
 J. Gomes,  J. Gonthier,  A. Gunina,  M. W. D. Hanson-Heine,  
 P. H. P. Harbach,  A. W. Hauser,  J. E. Herr,  E. G. Hohenstein,  
 Z. C. Holden,  Kerwin Hui,  T.-C. Jagau,  Hyunjun Ji,  B. Kaduk,  
 K. Khistyaev,  Jaehoon Kim,  P. Klunzinger,  K. Koh,  D. Kosenkov,  
 L. Koulias,  T. Kowalczyk,  C. M. Krauter,  A. Kunitsa,  Ka Un Lao,  
 A. Laurent,  K. V. Lawler,  Joonho Lee,  D. Lefrancois,  S. Lehtola,  
 D. S. Levine,  Yi-Pei Li,  You-Sheng Lin,  Fenglai Liu,  E. Livshits,  
 A. Luenser,  P. Manohar,  E. Mansoor,  S. F. Manzer,  Shan-Ping Mao,  
 Yuezhi Mao,  N. Mardirossian,  A. V. Marenich,  T. Markovich,  
 L. A. Martinez-Martinez,  S. A. Maurer,  N. J. Mayhall,  S. C. McKenzie,  
 J.-M. Mewes,  A. F. Morrison,  J. W. Mullinax,  K. Nanda,  
 T. S. Nguyen-Beck,  R. Olivares-Amaya,  J. A. Parkhill,  T. M. Perrine,  
 F. Plasser,  S. Prager,  A. Prociuk,  E. Ramos,  D. R. Rehn,  F. Rob,  
 M. Schneider,  N. Sergueev,  S. M. Sharada,  S. Sharma,  D. W. Small,  
 T. Stauch,  T. Stein,  Yu-Chuan Su,  A. J. W. Thom,  A. Tkatchenko,  
 T. Tsuchimochi,  L. Vogt,  O. Vydrov,  M. A. Watson,  J. Wenzel,  
 M. de Wergifosse,  T. A. Wesolowski,  A. White,  J. Witte,  A. Yamada,  
 Jun Yang,  K. Yao,  S. Yeganeh,  S. R. Yost,  Zhi-Qiang You,  A. Zech,  
 Igor Ying Zhang,  Xing Zhang,  Yan Zhao,  Ying Zhu,  B. R. Brooks,  
 G. K. L. Chan,  C. J. Cramer,  M. S. Gordon,  W. J. Hehre,  A. Klamt,  
 M. W. Schmidt,  C. D. Sherrill,  D. G. Truhlar,  A. Aspuru-Guzik,  R. Baer,  
 A. T. Bell,  N. A. Besley,  Jeng-Da Chai,  R. A. DiStasio Jr.,  A. Dreuw,  
 B. D. Dunietz,  T. R. Furlani,  Chao-Ping Hsu,  Yousung Jung,  Jing Kong,  
 D. S. Lambrecht,  WanZhen Liang,  C. Ochsenfeld,  V. A. Rassolov,  
 L. V. Slipchenko,  J. E. Subotnik,  T. Van Voorhis,  J. M. Herbert,  
 A. I. Krylov,  P. M. W. Gill,  M. Head-Gordon

 Contributors to earlier versions of Q-Chem not listed above: 
 R. D. Adamson,  B. Austin,  J. Baker,  G. J. O. Beran,  K. Brandhorst,  
 S. T. Brown,  E. F. C. Byrd,  A. K. Chakraborty,  C.-L. Cheng,  
 Siu Hung Chien,  D. M. Chipman,  D. L. Crittenden,  H. Dachsel,  
 R. J. Doerksen,  A. D. Dutoi,  L. Fusti-Molnar,  W. A. Goddard III,  
 A. Golubeva-Zadorozhnaya,  S. R. Gwaltney,  G. Hawkins,  A. Heyden,  
 S. Hirata,  G. Kedziora,  F. J. Keil,  C. Kelley,  Jihan Kim,  R. A. King,  
 R. Z. Khaliullin,  P. P. Korambath,  W. Kurlancheek,  A. M. Lee,  M. S. Lee,  
 S. V. Levchenko,  Ching Yeh Lin,  D. Liotard,  R. C. Lochan,  I. Lotan,  
 P. E. Maslen,  N. Nair,  D. P. O'Neill,  D. Neuhauser,  E. Neuscamman,  
 C. M. Oana,  R. Olson,  B. Peters,  R. Peverati,  P. A. Pieniazek,  
 Y. M. Rhee,  J. Ritchie,  M. A. Rohrdanz,  E. Rosta,  N. J. Russ,  
 H. F. Schaefer III,  N. E. Schultz,  N. Shenvi,  A. C. Simmonett,  A. Sodt,  
 D. Stuck,  K. S. Thanthiriwatte,  V. Vanovschi,  Tao Wang,  A. Warshel,  
 C. F. Williams,  Q. Wu,  X. Xu,  W. Zhang

 Please cite Q-Chem as follows:
 Y. Shao et al., Mol. Phys. 113, 184-215 (2015)
 DOI: 10.1080/00268976.2014.952696

 Q-Chem 5.0.2 for Intel X86 EM64T Linux

 Parts of Q-Chem use Armadillo 5.200.1 (Boston Tea Smuggler).
 http://arma.sourceforge.net/

 Q-Chem begins on Wed Mar  2 23:31:21 2022  

Host: 
0

     Scratch files written to ./qcts1.d//
 Dec517 15110_ 26548  26544 5633   
Processing $rem in /home/leeping/opt/qchem/5.0.2-openmp/config/preferences.
 MEM_STATIC 2000
 MEM_TOTAL  8000
 SYMMETRY   OFF
 SYM_IGNORE TRUE 

Checking the input file for inconsistencies... 	...done.

--------------------------------------------------------------
User input:
--------------------------------------------------------------
$molecule
0 2
C        1.5435402397    0.2843963131   -0.2906361059
C        0.6026653406   -0.9072820578   -0.0946616364
C       -0.5981292098   -0.4122887101   -0.9314621550
C       -1.0272086996    0.3759569680    0.7110384923
C       -0.4943366483    1.0262558323   -0.5655541072
N        0.9291618445    1.3875417603   -0.5187829549
H        2.6203668650    0.2486447630   -0.1332400754
H        1.0083888810   -1.9097156667   -0.2335115188
H       -1.3015195869   -0.9521954560   -1.5496156710
H       -1.9476712854    0.7261156564    1.1722617581
H       -1.1452301548    1.7636384191   -1.0286174072
C       -0.1524830882   -0.6053433602    1.1981681392
H       -0.0840429321   -1.0603784263    2.1770524412
$end

$rem
method                b3lyp
basis                 6-31g(d)
unrestricted          true
symmetry              off
sym_ignore            true
incdft                false
incfock               0
scf_convergence       6
thresh                14
jobtype               sp
scf_guess             read
scf_algorithm         diis
max_scf_cycles        100
stability_analysis    true
max_cis_cycles        100
cis_n_roots           4
$end

--------------------------------------------------------------
 ----------------------------------------------------------------
             Standard Nuclear Orientation (Angstroms)
    I     Atom           X                Y                Z
 ----------------------------------------------------------------
    1      C       1.5435402397     0.2843963131    -0.2906361059
    2      C       0.6026653406    -0.9072820578    -0.0946616364
    3      C      -0.5981292098    -0.4122887101    -0.9314621550
    4      C      -1.0272086996     0.3759569680     0.7110384923
    5      C      -0.4943366483     1.0262558323    -0.5655541072
    6      N       0.9291618445     1.3875417603    -0.5187829549
    7      H       2.6203668650     0.2486447630    -0.1332400754
    8      H       1.0083888810    -1.9097156667    -0.2335115188
    9      H      -1.3015195869    -0.9521954560    -1.5496156710
   10      H      -1.9476712854     0.7261156564     1.1722617581
   11      H      -1.1452301548     1.7636384191    -1.0286174072
   12      C      -0.1524830882    -0.6053433602     1.1981681392
   13      H      -0.0840429321    -1.0603784263     2.1770524412
 ----------------------------------------------------------------
 Nuclear Repulsion Energy =   281.0895436859 hartrees
 There are       25 alpha and       24 beta electrons
 Requested basis set is 6-31G(d)
 There are 40 shells and 117 basis functions

 Total QAlloc Memory Limit   8000 MB
 Mega-Array Size      1956 MB
 MEM_STATIC part      2000 MB

                       Distance Matrix (Angstroms)
             C (  1)   C (  2)   C (  3)   C (  4)   C (  5)   N (  6)
   C (  2)  1.530931
   C (  3)  2.341533  1.545044
   C (  4)  2.760523  2.225386  1.871697
   C (  5)  2.186064  2.272382  1.487976  1.528571
   N (  6)  1.283137  2.356416  2.396312  2.522529  1.469375
   H (  7)  1.088856  2.325677  3.381229  3.746174  3.239283  2.075067
   H (  8)  2.259154  1.090305  2.304414  3.203144  3.314870  3.310523
   H (  9)  3.347918  2.396837  1.080912  2.636246  2.352486  3.393070
   H ( 10)  3.811003  3.282880  2.746431  1.087469  2.285229  3.401953
   H ( 11)  3.156305  3.325842  2.245755  2.228450  1.087117  2.168982
   C ( 12)  2.425834  1.527359  2.184307  1.401924  2.426870  2.844199
   H ( 13)  3.247604  2.378170  3.216701  2.258720  3.470486  3.779739
             H (  7)   H (  8)   H (  9)   H ( 10)   H ( 11)   C ( 12)
   H (  8)  2.695746
   H (  9)  4.339278  2.825713
   H ( 10)  4.774860  4.202630  3.262339
   H ( 11)  4.156516  4.331720  2.769769  2.562076
   C ( 12)  3.192278  2.258034  2.998484  2.235208  3.399440
   H ( 13)  3.790096  2.779496  3.921990  2.770248  4.401989  1.081645

 
 A cutoff of  1.0D-14 yielded    813 shell pairs
 There are      7085 function pairs
 Smallest overlap matrix eigenvalue = 1.37E-03

 Scale SEOQF with 1.000000e-01/1.000000e-01/1.000000e-01

 Standard Electronic Orientation quadrupole field applied
 Nucleus-field energy     =     0.0000000011 hartrees
 Guess MOs from SCF MO coefficient file
 Reading MOs from coefficient file
 Reading MOs from coefficient file
 An unrestricted hybrid HF-DFT SCF calculation will be
 performed using Pulay DIIS extrapolation
 Exchange:     0.2000 Hartree-Fock + 0.0800 Slater + 0.7200 B88
 Correlation:  0.1900 VWN1RPA + 0.8100 LYP
 Using SG-1 standard quadrature grid
 SCF converges when DIIS error is below 1.0E-06
Using Q-Chem read-in guess as SCF_GUESS READ specified.

 -------------------------------------------------------
 OpenMP BLAS3 based DFT computing Module                
 -------------------------------------------------------
 ---------------------------------------
  Cycle       Energy         DIIS Error
 ---------------------------------------
    1    -286.8244757728      1.36E-09
    2    -286.8244757728      1.95E-09 Convergence criterion met
 ---------------------------------------
 <S^2> = 0.7805
 SCF time:  CPU 3.20 s  wall 4.66 s
 SCF   energy in the final basis set = -286.82447577
 Total energy in the final basis set = -286.82447577
 
 Direct TDDFT/TDA calculation will be performed
 Exchange:     0.2000 Hartree-Fock + 0.0800 Slater + 0.7200 B88
 Correlation:  0.1900 VWN1RPA + 0.8100 LYP
 Using SG-1 standard quadrature grid
 CIS energy converged when residual is below 10e- 6
 ---------------------------------------------------
 Iter    Rts Conv    Rts Left    Ttl Dev     Max Dev
 ---------------------------------------------------
   1         0           4      0.006230    0.002356
   2         0           4      0.001538    0.000494
   3         0           4      0.001138    0.000469
   4         0           4      0.000781    0.000455
   5         0           4      0.000372    0.000209
   6         0           4      0.000117    0.000066
   7         2           2      0.000029    0.000016
   8         2           2      0.000010    0.000005
   9         2           2      0.000004    0.000002
  10         4           0      0.000001    0.000000    Roots Converged
 ---------------------------------------------------
 
 ---------------------------------------------------
         TDDFT/TDA Excitation Energies              
 ---------------------------------------------------

 Excited state   1: excitation energy (eV) =    2.7820
 Total energy for state  1:                  -286.72223791 au
    <S**2>     :  0.7827
    Trans. Mom.:  0.2854 X   0.1226 Y   0.2514 Z
    Strength   :     0.0108840604
    S(  1) --> V(  1) amplitude =  0.8143 alpha
    S(  1) --> V(  2) amplitude = -0.5047 alpha
    D( 24) --> S(  1) amplitude = -0.1938 beta

 Excited state   2: excitation energy (eV) =    3.0690
 Total energy for state  2:                  -286.71169051 au
    <S**2>     :  0.8068
    Trans. Mom.:  0.3076 X   0.1674 Y  -0.2689 Z
    Strength   :     0.0146595160
    S(  1) --> V(  1) amplitude =  0.5483 alpha
    S(  1) --> V(  2) amplitude =  0.7906 alpha
    D( 24) --> S(  1) amplitude =  0.2214 beta

 Excited state   3: excitation energy (eV) =    4.4656
 Total energy for state  3:                  -286.66036623 au
    <S**2>     :  1.8450
    Trans. Mom.: -0.1033 X  -0.1478 Y   0.0393 Z
    Strength   :     0.0037254159
    D( 22) --> V(  1) amplitude = -0.1848 alpha
    D( 23) --> V(  1) amplitude = -0.3533 alpha
    D( 24) --> V(  1) amplitude = -0.1897 alpha
    D( 22) --> S(  1) amplitude =  0.2886 beta
    D( 22) --> V(  1) amplitude =  0.1685 beta
    D( 23) --> S(  1) amplitude =  0.6727 beta
    D( 23) --> V(  1) amplitude =  0.2426 beta
    D( 24) --> S(  1) amplitude =  0.2712 beta

 Excited state   4: excitation energy (eV) =    4.5341
 Total energy for state  4:                  -286.65785074 au
    <S**2>     :  1.5840
    Trans. Mom.: -0.0264 X  -0.0817 Y   0.2901 Z
    Strength   :     0.0101654007
    D( 22) --> V(  1) amplitude =  0.1768 alpha
    D( 23) --> V(  1) amplitude =  0.1969 alpha
    D( 24) --> V(  1) amplitude = -0.1867 alpha
    S(  1) --> V(  2) amplitude = -0.1689 alpha
    D( 22) --> S(  1) amplitude = -0.4224 beta
    D( 22) --> V(  1) amplitude = -0.2138 beta
    D( 24) --> S(  1) amplitude =  0.7231 beta
    D( 24) --> V(  1) amplitude =  0.2441 beta
 
 ---------------------------------------------------

 Stability analysis will be performed
 ---------------------------------------------------
 Iter    Rts Conv    Rts Left    Ttl Dev     Max Dev
 ---------------------------------------------------
   1         0           8      0.006347    0.000929
   2         0           8      0.003115    0.001015
   3         0           8      0.001232    0.000398
   4         2           6      0.000641    0.000288
   5         2           6      0.000400    0.000250
   6         4           4      0.000157    0.000114
   7         4           4      0.000055    0.000041
   8         6           2      0.000017    0.000011
   9         7           1      0.000007    0.000003
  10         8           0      0.000005    0.000001    Roots Converged
 UKS-> UKS   stable,    smallest eigenvalue:      0.0864750
 UKS->CUKS   stable,    smallest eigenvalue:      0.1019941
 ---------------------------------------------------
  SETman timing summary (seconds)
  CPU time                79.25s
  System time              0.00s
  Wall time               85.45s
 
 --------------------------------------------------------------
 
                    Orbital Energies (a.u.)
 --------------------------------------------------------------
 
 Alpha MOs
 -- Occupied --
-14.314 -10.224 -10.218 -10.216 -10.212 -10.209 -10.193  -0.959
 -0.836  -0.739  -0.685  -0.590  -0.575  -0.538  -0.513  -0.461
 -0.433  -0.413  -0.398  -0.367  -0.345  -0.284  -0.271  -0.264
 -0.145
 -- Virtual --
  0.006   0.018   0.095   0.139   0.150   0.154   0.156   0.164
  0.171   0.206   0.221   0.277   0.288   0.305   0.354   0.378
  0.490   0.503   0.511   0.535   0.576   0.581   0.591   0.611
  0.634   0.655   0.668   0.687   0.698   0.743   0.768   0.799
  0.811   0.822   0.836   0.849   0.859   0.885   0.896   0.942
  0.975   1.020   1.059   1.120   1.165   1.206   1.307   1.356
  1.400   1.454   1.460   1.512   1.595   1.646   1.666   1.739
  1.758   1.815   1.857   1.891   1.940   1.963   2.028   2.052
  2.108   2.142   2.170   2.228   2.274   2.302   2.319   2.363
  2.413   2.472   2.523   2.549   2.582   2.626   2.648   2.683
  2.693   2.810   2.848   2.908   2.961   3.948   4.203   4.262
  4.313   4.419   4.533   4.617
 
 Beta MOs
 -- Occupied --
-14.313 -10.224 -10.219 -10.218 -10.210 -10.204 -10.184  -0.955
 -0.828  -0.735  -0.673  -0.586  -0.566  -0.531  -0.510  -0.453
 -0.429  -0.408  -0.396  -0.362  -0.340  -0.274  -0.261  -0.251
 -- Virtual --
 -0.035   0.019   0.034   0.098   0.146   0.152   0.157   0.161
  0.166   0.174   0.211   0.225   0.281   0.291   0.309   0.360
  0.380   0.496   0.510   0.516   0.549   0.577   0.587   0.598
  0.618   0.639   0.673   0.677   0.691   0.706   0.749   0.772
  0.801   0.813   0.824   0.837   0.852   0.865   0.888   0.900
  0.945   0.979   1.026   1.064   1.131   1.169   1.211   1.312
  1.362   1.402   1.459   1.465   1.519   1.605   1.650   1.676
  1.748   1.767   1.817   1.863   1.900   1.949   1.971   2.041
  2.060   2.113   2.152   2.174   2.239   2.282   2.308   2.335
  2.375   2.422   2.484   2.528   2.556   2.585   2.633   2.653
  2.690   2.699   2.815   2.851   2.910   2.963   3.950   4.213
  4.263   4.330   4.424   4.536   4.620
 --------------------------------------------------------------
 
          Ground-State Mulliken Net Atomic Charges

     Atom                 Charge (a.u.)    Spin (a.u.)
  --------------------------------------------------------
      1 C                     0.091555       0.008806
      2 C                    -0.258907      -0.069062
      3 C                    -0.128045       0.570138
      4 C                    -0.132547      -0.216078
      5 C                    -0.028360       0.004323
      6 N                    -0.338714       0.064137
      7 H                     0.143593       0.001570
      8 H                     0.137625       0.010531
      9 H                     0.158495      -0.027815
     10 H                     0.147989       0.011850
     11 H                     0.146720       0.004265
     12 C                    -0.081372       0.664307
     13 H                     0.141968      -0.026972
  --------------------------------------------------------
  Sum of atomic charges =    -0.000000
  Sum of spin   charges =     1.000000

 -----------------------------------------------------------------
                    Cartesian Multipole Moments
 -----------------------------------------------------------------
    Charge (ESU x 10^10)
                 0.0000
    Dipole Moment (Debye)
         X      -1.2399      Y      -2.0067      Z       0.3582
       Tot       2.3859
    Quadrupole Moments (Debye-Ang)
        XX     -37.5487     XY      -4.5761     YY     -43.3798
        XZ       1.2833     YZ       0.9187     ZZ     -40.0389
    Octopole Moments (Debye-Ang^2)
       XXX      -8.0195    XXY      -6.2498    XYY     -10.2945
       YYY     -25.5731    XXZ       2.5432    XYZ       0.5519
       YYZ       2.8498    XZZ      -8.0478    YZZ      -8.5707
       ZZZ      10.7098
    Hexadecapole Moments (Debye-Ang^3)
      XXXX    -241.9414   XXXY      -9.7139   XXYY     -85.6723
      XYYY     -21.8834   YYYY    -238.0248   XXXZ      16.1234
      XXYZ      13.0448   XYYZ      11.6513   YYYZ      28.4410
      XXZZ     -74.1535   XYZZ      -3.1476   YYZZ     -67.3665
      XZZZ      18.3928   YZZZ      21.6904   ZZZZ    -184.9358
 -----------------------------------------------------------------
Archival summary:
1\1\c8-66\SP\ProcedureUnspecified\6-31G*\166(2)\hpark21\WedMar223:32:542022WedMar223:32:542022\0\\#,ProcedureUnspecified,6-31G*,\\0,2\N\C,1,1.28314\H,2,1.08886,1,121.833\C,1,1.46938,2,104.959,3,-175.671,0\H,4,1.08712,1,115.266,2,-162.971,0\C,4,1.48798,1,108.247,2,-24.5075,0\H,6,1.08091,4,131.984,1,-142.756,0\C,4,1.52857,1,114.566,2,58.8399,0\H,8,1.08747,4,120.817,1,131.186,0\C,8,1.40192,4,111.744,1,-44.9906,0\H,10,1.08164,8,130.422,4,162,0\C,10,1.52736,8,98.7861,4,-21.8912,0\H,12,1.0903,10,118.264,8,-150.71,0\\\@

 Total job time:  92.25s(wall), 82.63s(cpu) 
 Wed Mar  2 23:32:54 2022

        *************************************************************
        *                                                           *
        *  Thank you very much for using Q-Chem.  Have a nice day.  *
        *                                                           *
        *************************************************************


