
Running Job 1 of 1 qcts2.in
qchem qcts2.in_15753.0 ./qcts2.d/ 1
/home/leeping/opt/qchem/5.0.2-openmp/exe/qcprog.exe_s qcts2.in_15753.0 ./qcts2.d/
Check license passed

                  Welcome to Q-Chem
     A Quantum Leap Into The Future Of Chemistry


 Q-Chem 5.0, Q-Chem, Inc., Pleasanton, CA (2017)

 Yihan Shao,  Zhengting Gan,  E. Epifanovsky,  A. T. B. Gilbert,  M. Wormit,  
 J. Kussmann,  A. W. Lange,  A. Behn,  Jia Deng,  Xintian Feng,  D. Ghosh,  
 M. Goldey,  P. R. Horn,  L. D. Jacobson,  I. Kaliman,  T. Kus,  A. Landau,  
 Jie Liu,  E. I. Proynov,  R. M. Richard,  R. P. Steele,  E. J. Sundstrom,  
 H. L. Woodcock III,  P. M. Zimmerman,  D. Zuev,  B. Albrecht,  E. Alguire,  
 S. A. Baeppler,  D. Barton,  Z. Benda,  Y. A. Bernard,  E. J. Berquist,  
 K. B. Bravaya,  H. Burton,  D. Casanova,  Chun-Min Chang,  Yunqing Chen,  
 A. Chien,  K. D. Closser,  M. P. Coons,  S. Dasgupta,  A. L. Dempwolff,  
 M. Diedenhofen,  Hainam Do,  R. G. Edgar,  Po-Tung Fang,  S. Fatehi,  
 Qingguo Feng,  J. Fosso-Tande,  Qinghui Ge,  A. Ghysels,  G. Gidofalvi,  
 J. Gomes,  J. Gonthier,  A. Gunina,  M. W. D. Hanson-Heine,  
 P. H. P. Harbach,  A. W. Hauser,  J. E. Herr,  E. G. Hohenstein,  
 Z. C. Holden,  Kerwin Hui,  T.-C. Jagau,  Hyunjun Ji,  B. Kaduk,  
 K. Khistyaev,  Jaehoon Kim,  P. Klunzinger,  K. Koh,  D. Kosenkov,  
 L. Koulias,  T. Kowalczyk,  C. M. Krauter,  A. Kunitsa,  Ka Un Lao,  
 A. Laurent,  K. V. Lawler,  Joonho Lee,  D. Lefrancois,  S. Lehtola,  
 D. S. Levine,  Yi-Pei Li,  You-Sheng Lin,  Fenglai Liu,  E. Livshits,  
 A. Luenser,  P. Manohar,  E. Mansoor,  S. F. Manzer,  Shan-Ping Mao,  
 Yuezhi Mao,  N. Mardirossian,  A. V. Marenich,  T. Markovich,  
 L. A. Martinez-Martinez,  S. A. Maurer,  N. J. Mayhall,  S. C. McKenzie,  
 J.-M. Mewes,  A. F. Morrison,  J. W. Mullinax,  K. Nanda,  
 T. S. Nguyen-Beck,  R. Olivares-Amaya,  J. A. Parkhill,  T. M. Perrine,  
 F. Plasser,  S. Prager,  A. Prociuk,  E. Ramos,  D. R. Rehn,  F. Rob,  
 M. Schneider,  N. Sergueev,  S. M. Sharada,  S. Sharma,  D. W. Small,  
 T. Stauch,  T. Stein,  Yu-Chuan Su,  A. J. W. Thom,  A. Tkatchenko,  
 T. Tsuchimochi,  L. Vogt,  O. Vydrov,  M. A. Watson,  J. Wenzel,  
 M. de Wergifosse,  T. A. Wesolowski,  A. White,  J. Witte,  A. Yamada,  
 Jun Yang,  K. Yao,  S. Yeganeh,  S. R. Yost,  Zhi-Qiang You,  A. Zech,  
 Igor Ying Zhang,  Xing Zhang,  Yan Zhao,  Ying Zhu,  B. R. Brooks,  
 G. K. L. Chan,  C. J. Cramer,  M. S. Gordon,  W. J. Hehre,  A. Klamt,  
 M. W. Schmidt,  C. D. Sherrill,  D. G. Truhlar,  A. Aspuru-Guzik,  R. Baer,  
 A. T. Bell,  N. A. Besley,  Jeng-Da Chai,  R. A. DiStasio Jr.,  A. Dreuw,  
 B. D. Dunietz,  T. R. Furlani,  Chao-Ping Hsu,  Yousung Jung,  Jing Kong,  
 D. S. Lambrecht,  WanZhen Liang,  C. Ochsenfeld,  V. A. Rassolov,  
 L. V. Slipchenko,  J. E. Subotnik,  T. Van Voorhis,  J. M. Herbert,  
 A. I. Krylov,  P. M. W. Gill,  M. Head-Gordon

 Contributors to earlier versions of Q-Chem not listed above: 
 R. D. Adamson,  B. Austin,  J. Baker,  G. J. O. Beran,  K. Brandhorst,  
 S. T. Brown,  E. F. C. Byrd,  A. K. Chakraborty,  C.-L. Cheng,  
 Siu Hung Chien,  D. M. Chipman,  D. L. Crittenden,  H. Dachsel,  
 R. J. Doerksen,  A. D. Dutoi,  L. Fusti-Molnar,  W. A. Goddard III,  
 A. Golubeva-Zadorozhnaya,  S. R. Gwaltney,  G. Hawkins,  A. Heyden,  
 S. Hirata,  G. Kedziora,  F. J. Keil,  C. Kelley,  Jihan Kim,  R. A. King,  
 R. Z. Khaliullin,  P. P. Korambath,  W. Kurlancheek,  A. M. Lee,  M. S. Lee,  
 S. V. Levchenko,  Ching Yeh Lin,  D. Liotard,  R. C. Lochan,  I. Lotan,  
 P. E. Maslen,  N. Nair,  D. P. O'Neill,  D. Neuhauser,  E. Neuscamman,  
 C. M. Oana,  R. Olson,  B. Peters,  R. Peverati,  P. A. Pieniazek,  
 Y. M. Rhee,  J. Ritchie,  M. A. Rohrdanz,  E. Rosta,  N. J. Russ,  
 H. F. Schaefer III,  N. E. Schultz,  N. Shenvi,  A. C. Simmonett,  A. Sodt,  
 D. Stuck,  K. S. Thanthiriwatte,  V. Vanovschi,  Tao Wang,  A. Warshel,  
 C. F. Williams,  Q. Wu,  X. Xu,  W. Zhang

 Please cite Q-Chem as follows:
 Y. Shao et al., Mol. Phys. 113, 184-215 (2015)
 DOI: 10.1080/00268976.2014.952696

 Q-Chem 5.0.2 for Intel X86 EM64T Linux

 Parts of Q-Chem use Armadillo 5.200.1 (Boston Tea Smuggler).
 http://arma.sourceforge.net/

 Q-Chem begins on Wed Mar  2 23:33:46 2022  

Host: 
0

     Scratch files written to ./qcts2.d//
 Dec517 15110_ 26548  26544 5633   
Processing $rem in /home/leeping/opt/qchem/5.0.2-openmp/config/preferences.
 MEM_STATIC 2000
 MEM_TOTAL  8000
 SYMMETRY   OFF
 SYM_IGNORE TRUE 

Checking the input file for inconsistencies... 	...done.

--------------------------------------------------------------
User input:
--------------------------------------------------------------
$molecule
0 2
C        1.5435402397    0.2843963131   -0.2906361059
C        0.6026653406   -0.9072820578   -0.0946616364
C       -0.5981292098   -0.4122887101   -0.9314621550
C       -1.0272086996    0.3759569680    0.7110384923
C       -0.4943366483    1.0262558323   -0.5655541072
N        0.9291618445    1.3875417603   -0.5187829549
H        2.6203668650    0.2486447630   -0.1332400754
H        1.0083888810   -1.9097156667   -0.2335115188
H       -1.3015195869   -0.9521954560   -1.5496156710
H       -1.9476712854    0.7261156564    1.1722617581
H       -1.1452301548    1.7636384191   -1.0286174072
C       -0.1524830882   -0.6053433602    1.1981681392
H       -0.0840429321   -1.0603784263    2.1770524412
$end

$rem
method                b3lyp
basis                 6-31+g(d,p)
unrestricted          true
symmetry              off
sym_ignore            true
incdft                false
incfock               0
scf_convergence       6
thresh                14
jobtype               sp
scf_guess             read
scf_algorithm         diis
max_scf_cycles        100
stability_analysis    true
max_cis_cycles        100
cis_n_roots           4
$end

--------------------------------------------------------------
 ----------------------------------------------------------------
             Standard Nuclear Orientation (Angstroms)
    I     Atom           X                Y                Z
 ----------------------------------------------------------------
    1      C       1.5435402397     0.2843963131    -0.2906361059
    2      C       0.6026653406    -0.9072820578    -0.0946616364
    3      C      -0.5981292098    -0.4122887101    -0.9314621550
    4      C      -1.0272086996     0.3759569680     0.7110384923
    5      C      -0.4943366483     1.0262558323    -0.5655541072
    6      N       0.9291618445     1.3875417603    -0.5187829549
    7      H       2.6203668650     0.2486447630    -0.1332400754
    8      H       1.0083888810    -1.9097156667    -0.2335115188
    9      H      -1.3015195869    -0.9521954560    -1.5496156710
   10      H      -1.9476712854     0.7261156564     1.1722617581
   11      H      -1.1452301548     1.7636384191    -1.0286174072
   12      C      -0.1524830882    -0.6053433602     1.1981681392
   13      H      -0.0840429321    -1.0603784263     2.1770524412
 ----------------------------------------------------------------
 Nuclear Repulsion Energy =   281.0895436859 hartrees
 There are       25 alpha and       24 beta electrons
 Requested basis set is 6-31+G(d,p)
 There are 53 shells and 163 basis functions

 Total QAlloc Memory Limit   8000 MB
 Mega-Array Size      1956 MB
 MEM_STATIC part      2000 MB

                       Distance Matrix (Angstroms)
             C (  1)   C (  2)   C (  3)   C (  4)   C (  5)   N (  6)
   C (  2)  1.530931
   C (  3)  2.341533  1.545044
   C (  4)  2.760523  2.225386  1.871697
   C (  5)  2.186064  2.272382  1.487976  1.528571
   N (  6)  1.283137  2.356416  2.396312  2.522529  1.469375
   H (  7)  1.088856  2.325677  3.381229  3.746174  3.239283  2.075067
   H (  8)  2.259154  1.090305  2.304414  3.203144  3.314870  3.310523
   H (  9)  3.347918  2.396837  1.080912  2.636246  2.352486  3.393070
   H ( 10)  3.811003  3.282880  2.746431  1.087469  2.285229  3.401953
   H ( 11)  3.156305  3.325842  2.245755  2.228450  1.087117  2.168982
   C ( 12)  2.425834  1.527359  2.184307  1.401924  2.426870  2.844199
   H ( 13)  3.247604  2.378170  3.216701  2.258720  3.470486  3.779739
             H (  7)   H (  8)   H (  9)   H ( 10)   H ( 11)   C ( 12)
   H (  8)  2.695746
   H (  9)  4.339278  2.825713
   H ( 10)  4.774860  4.202630  3.262339
   H ( 11)  4.156516  4.331720  2.769769  2.562076
   C ( 12)  3.192278  2.258034  2.998484  2.235208  3.399440
   H ( 13)  3.790096  2.779496  3.921990  2.770248  4.401989  1.081645

 
 A cutoff of  1.0D-14 yielded   1405 shell pairs
 There are     13515 function pairs
 Smallest overlap matrix eigenvalue = 2.74E-05

 Scale SEOQF with 1.000000e-01/1.000000e-01/1.000000e-01

 Standard Electronic Orientation quadrupole field applied
 Nucleus-field energy     =     0.0000000011 hartrees
 Guess MOs from SCF MO coefficient file
 Reading MOs from coefficient file
 Reading MOs from coefficient file
 An unrestricted hybrid HF-DFT SCF calculation will be
 performed using Pulay DIIS extrapolation
 Exchange:     0.2000 Hartree-Fock + 0.0800 Slater + 0.7200 B88
 Correlation:  0.1900 VWN1RPA + 0.8100 LYP
 Using SG-1 standard quadrature grid
 SCF converges when DIIS error is below 1.0E-06
Using Q-Chem read-in guess as SCF_GUESS READ specified.

 -------------------------------------------------------
 OpenMP BLAS3 based DFT computing Module                
 -------------------------------------------------------
 ---------------------------------------
  Cycle       Energy         DIIS Error
 ---------------------------------------
    1    -286.8475018679      2.33E-09
    2    -286.8475018679      2.80E-09 Convergence criterion met
 ---------------------------------------
 <S^2> = 0.7778
 SCF time:  CPU 6.47 s  wall 9.23 s
 SCF   energy in the final basis set = -286.84750187
 Total energy in the final basis set = -286.84750187
 
 Direct TDDFT/TDA calculation will be performed
 Exchange:     0.2000 Hartree-Fock + 0.0800 Slater + 0.7200 B88
 Correlation:  0.1900 VWN1RPA + 0.8100 LYP
 Using SG-1 standard quadrature grid
 CIS energy converged when residual is below 10e- 6
 ---------------------------------------------------
 Iter    Rts Conv    Rts Left    Ttl Dev     Max Dev
 ---------------------------------------------------
   1         0           4      0.002883    0.001226
   2         0           4      0.000794    0.000286
   3         0           4      0.000370    0.000158
   4         0           4      0.000155    0.000059
   5         0           4      0.000058    0.000021
   6         1           3      0.000021    0.000012
   7         2           2      0.000009    0.000005
   8         3           1      0.000005    0.000002
   9         4           0      0.000003    0.000001    Roots Converged
 ---------------------------------------------------
 
 ---------------------------------------------------
         TDDFT/TDA Excitation Energies              
 ---------------------------------------------------

 Excited state   1: excitation energy (eV) =    2.5761
 Total energy for state  1:                  -286.75283305 au
    <S**2>     :  0.7764
    Trans. Mom.:  0.2820 X   0.0942 Y   0.3499 Z
    Strength   :     0.0133038522
    S(  1) --> V(  1) amplitude =  0.8824 alpha
    S(  1) --> V(  2) amplitude =  0.3719 alpha
    D( 24) --> S(  1) amplitude = -0.1839 beta

 Excited state   2: excitation energy (eV) =    2.8634
 Total energy for state  2:                  -286.74227289 au
    <S**2>     :  0.7998
    Trans. Mom.: -0.4031 X  -0.2030 Y   0.2791 Z
    Strength   :     0.0197505132
    S(  1) --> V(  1) amplitude = -0.4163 alpha
    S(  1) --> V(  2) amplitude =  0.8717 alpha
    D( 24) --> S(  1) amplitude = -0.1589 beta

 Excited state   3: excitation energy (eV) =    3.4068
 Total energy for state  3:                  -286.72230491 au
    <S**2>     :  0.7861
    Trans. Mom.:  0.0089 X   0.1085 Y   0.2605 Z
    Strength   :     0.0066536371
    S(  1) --> V(  3) amplitude =  0.9857 alpha

 Excited state   4: excitation energy (eV) =    3.9453
 Total energy for state  4:                  -286.70251522 au
    <S**2>     :  0.7900
    Trans. Mom.:  0.2017 X  -0.1062 Y   0.1375 Z
    Strength   :     0.0068515075
    S(  1) --> V(  4) amplitude =  0.9815 alpha
 
 ---------------------------------------------------

 Stability analysis will be performed
 ---------------------------------------------------
 Iter    Rts Conv    Rts Left    Ttl Dev     Max Dev
 ---------------------------------------------------
   1         0           8      0.002961    0.000605
   2         0           8      0.001080    0.000405
   3         0           8      0.000731    0.000251
   4         1           7      0.001396    0.001085
   5         4           4      0.000734    0.000562
   6         4           4      0.000283    0.000226
   7         5           3      0.000089    0.000070
   8         6           2      0.000024    0.000018
   9         7           1      0.000008    0.000005
  10         7           1      0.000004    0.000001
  11         8           0      0.000003    0.000001    Roots Converged
 UKS-> UKS   stable,    smallest eigenvalue:      0.0815821
 UKS->CUKS   stable,    smallest eigenvalue:      0.0945745
 ---------------------------------------------------
  SETman timing summary (seconds)
  CPU time               176.71s
  System time              0.00s
  Wall time              186.37s
 
 --------------------------------------------------------------
 
                    Orbital Energies (a.u.)
 --------------------------------------------------------------
 
 Alpha MOs
 -- Occupied --
-14.330 -10.235 -10.230 -10.228 -10.225 -10.221 -10.207  -0.973
 -0.850  -0.750  -0.696  -0.601  -0.585  -0.547  -0.522  -0.473
 -0.444  -0.425  -0.408  -0.378  -0.356  -0.296  -0.284  -0.278
 -0.158
 -- Virtual --
 -0.017  -0.010   0.001   0.018   0.028   0.033   0.046   0.048
  0.062   0.071   0.074   0.095   0.100   0.107   0.109   0.118
  0.124   0.129   0.141   0.153   0.165   0.178   0.180   0.185
  0.192   0.196   0.207   0.218   0.225   0.234   0.241   0.251
  0.259   0.267   0.281   0.287   0.309   0.314   0.332   0.369
  0.372   0.383   0.407   0.455   0.629   0.668   0.676   0.695
  0.700   0.715   0.725   0.735   0.745   0.753   0.776   0.793
  0.807   0.814   0.858   0.899   0.917   0.935   0.954   1.001
  1.017   1.034   1.048   1.068   1.083   1.087   1.103   1.141
  1.201   1.216   1.336   1.340   1.385   1.423   1.436   1.485
  1.555   1.616   1.625   1.692   1.723   1.762   1.818   1.869
  1.882   1.908   1.952   1.976   2.044   2.091   2.103   2.128
  2.152   2.212   2.219   2.278   2.306   2.327   2.363   2.400
  2.407   2.438   2.448   2.484   2.506   2.516   2.536   2.554
  2.568   2.602   2.618   2.654   2.686   2.704   2.743   2.780
  2.848   2.858   2.980   3.072   3.082   3.293   3.317   3.326
  3.506   3.599   3.682   4.171   4.412   4.486   4.571   4.619
  4.694   4.830
 
 Beta MOs
 -- Occupied --
-14.329 -10.235 -10.231 -10.230 -10.222 -10.217 -10.197  -0.969
 -0.842  -0.747  -0.684  -0.597  -0.577  -0.541  -0.519  -0.464
 -0.441  -0.419  -0.406  -0.373  -0.351  -0.287  -0.275  -0.266
 -- Virtual --
 -0.055  -0.009  -0.002   0.003   0.019   0.031   0.038   0.047
  0.049   0.063   0.072   0.077   0.096   0.101   0.108   0.109
  0.119   0.128   0.131   0.142   0.153   0.164   0.179   0.181
  0.188   0.195   0.197   0.208   0.223   0.228   0.237   0.242
  0.254   0.260   0.272   0.282   0.288   0.312   0.316   0.334
  0.372   0.376   0.385   0.411   0.457   0.633   0.674   0.679
  0.699   0.711   0.728   0.734   0.746   0.749   0.759   0.783
  0.796   0.809   0.818   0.859   0.903   0.919   0.938   0.957
  1.005   1.021   1.037   1.050   1.070   1.087   1.093   1.109
  1.149   1.207   1.220   1.339   1.346   1.387   1.428   1.441
  1.489   1.563   1.622   1.634   1.698   1.731   1.765   1.828
  1.874   1.889   1.914   1.956   1.980   2.050   2.101   2.108
  2.132   2.161   2.220   2.228   2.284   2.312   2.330   2.367
  2.405   2.411   2.445   2.454   2.487   2.509   2.522   2.543
  2.557   2.572   2.610   2.620   2.662   2.693   2.707   2.745
  2.784   2.854   2.861   2.982   3.075   3.084   3.294   3.320
  3.328   3.507   3.602   3.687   4.173   4.423   4.485   4.584
  4.625   4.696   4.835
 --------------------------------------------------------------
 
          Ground-State Mulliken Net Atomic Charges

     Atom                 Charge (a.u.)    Spin (a.u.)
  --------------------------------------------------------
      1 C                    -0.071244      -0.001754
      2 C                     0.006045      -0.101952
      3 C                    -0.199604       0.600542
      4 C                    -0.101389      -0.236411
      5 C                    -0.135653      -0.018978
      6 N                    -0.178726       0.062363
      7 H                     0.132217       0.001590
      8 H                     0.129401       0.011021
      9 H                     0.146876      -0.025598
     10 H                     0.138987       0.010754
     11 H                     0.138683       0.004559
     12 C                    -0.144221       0.720604
     13 H                     0.138627      -0.026739
  --------------------------------------------------------
  Sum of atomic charges =    -0.000000
  Sum of spin   charges =     1.000000

 -----------------------------------------------------------------
                    Cartesian Multipole Moments
 -----------------------------------------------------------------
    Charge (ESU x 10^10)
                 0.0000
    Dipole Moment (Debye)
         X      -1.3281      Y      -2.1857      Z       0.3539
       Tot       2.5819
    Quadrupole Moments (Debye-Ang)
        XX     -38.6758     XY      -5.2809     YY     -44.8639
        XZ       1.3268     YZ       0.9669     ZZ     -41.8461
    Octopole Moments (Debye-Ang^2)
       XXX      -7.9383    XXY      -6.5985    XYY     -11.3300
       YYY     -27.9450    XXZ       2.4361    XYZ       0.6382
       YYZ       2.7473    XZZ      -9.2186    YZZ      -9.2314
       ZZZ      11.1189
    Hexadecapole Moments (Debye-Ang^3)
      XXXX    -254.4209   XXXY     -13.0573   XXYY     -91.5361
      XYYY     -27.4524   YYYY    -255.5002   XXXZ      16.6360
      XXYZ      14.1420   XYYZ      12.9869   YYYZ      30.1757
      XXZZ     -79.8547   XYZZ      -4.6242   YYZZ     -72.8526
      XZZZ      18.5429   YZZZ      21.5409   ZZZZ    -206.1899
 -----------------------------------------------------------------
Archival summary:
1\1\c8-66\SP\ProcedureUnspecified\6-31+G**\166(2)\hpark21\WedMar223:37:022022WedMar223:37:022022\0\\#,ProcedureUnspecified,6-31+G**,\\0,2\N\C,1,1.28314\H,2,1.08886,1,121.833\C,1,1.46938,2,104.959,3,-175.671,0\H,4,1.08712,1,115.266,2,-162.971,0\C,4,1.48798,1,108.247,2,-24.5075,0\H,6,1.08091,4,131.984,1,-142.756,0\C,4,1.52857,1,114.566,2,58.8399,0\H,8,1.08747,4,120.817,1,131.186,0\C,8,1.40192,4,111.744,1,-44.9906,0\H,10,1.08164,8,130.422,4,162,0\C,10,1.52736,8,98.7861,4,-21.8912,0\H,12,1.0903,10,118.264,8,-150.71,0\\\@

 Total job time:  196.50s(wall), 183.39s(cpu) 
 Wed Mar  2 23:37:02 2022

        *************************************************************
        *                                                           *
        *  Thank you very much for using Q-Chem.  Have a nice day.  *
        *                                                           *
        *************************************************************


