
Running Job 1 of 1 qcts2.in
qchem qcts2.in_16893.0 ./qcts2.d/ 1
/home/leeping/opt/qchem/5.0.2-openmp/exe/qcprog.exe_s qcts2.in_16893.0 ./qcts2.d/
Check license passed

                  Welcome to Q-Chem
     A Quantum Leap Into The Future Of Chemistry


 Q-Chem 5.0, Q-Chem, Inc., Pleasanton, CA (2017)

 Yihan Shao,  Zhengting Gan,  E. Epifanovsky,  A. T. B. Gilbert,  M. Wormit,  
 J. Kussmann,  A. W. Lange,  A. Behn,  Jia Deng,  Xintian Feng,  D. Ghosh,  
 M. Goldey,  P. R. Horn,  L. D. Jacobson,  I. Kaliman,  T. Kus,  A. Landau,  
 Jie Liu,  E. I. Proynov,  R. M. Richard,  R. P. Steele,  E. J. Sundstrom,  
 H. L. Woodcock III,  P. M. Zimmerman,  D. Zuev,  B. Albrecht,  E. Alguire,  
 S. A. Baeppler,  D. Barton,  Z. Benda,  Y. A. Bernard,  E. J. Berquist,  
 K. B. Bravaya,  H. Burton,  D. Casanova,  Chun-Min Chang,  Yunqing Chen,  
 A. Chien,  K. D. Closser,  M. P. Coons,  S. Dasgupta,  A. L. Dempwolff,  
 M. Diedenhofen,  Hainam Do,  R. G. Edgar,  Po-Tung Fang,  S. Fatehi,  
 Qingguo Feng,  J. Fosso-Tande,  Qinghui Ge,  A. Ghysels,  G. Gidofalvi,  
 J. Gomes,  J. Gonthier,  A. Gunina,  M. W. D. Hanson-Heine,  
 P. H. P. Harbach,  A. W. Hauser,  J. E. Herr,  E. G. Hohenstein,  
 Z. C. Holden,  Kerwin Hui,  T.-C. Jagau,  Hyunjun Ji,  B. Kaduk,  
 K. Khistyaev,  Jaehoon Kim,  P. Klunzinger,  K. Koh,  D. Kosenkov,  
 L. Koulias,  T. Kowalczyk,  C. M. Krauter,  A. Kunitsa,  Ka Un Lao,  
 A. Laurent,  K. V. Lawler,  Joonho Lee,  D. Lefrancois,  S. Lehtola,  
 D. S. Levine,  Yi-Pei Li,  You-Sheng Lin,  Fenglai Liu,  E. Livshits,  
 A. Luenser,  P. Manohar,  E. Mansoor,  S. F. Manzer,  Shan-Ping Mao,  
 Yuezhi Mao,  N. Mardirossian,  A. V. Marenich,  T. Markovich,  
 L. A. Martinez-Martinez,  S. A. Maurer,  N. J. Mayhall,  S. C. McKenzie,  
 J.-M. Mewes,  A. F. Morrison,  J. W. Mullinax,  K. Nanda,  
 T. S. Nguyen-Beck,  R. Olivares-Amaya,  J. A. Parkhill,  T. M. Perrine,  
 F. Plasser,  S. Prager,  A. Prociuk,  E. Ramos,  D. R. Rehn,  F. Rob,  
 M. Schneider,  N. Sergueev,  S. M. Sharada,  S. Sharma,  D. W. Small,  
 T. Stauch,  T. Stein,  Yu-Chuan Su,  A. J. W. Thom,  A. Tkatchenko,  
 T. Tsuchimochi,  L. Vogt,  O. Vydrov,  M. A. Watson,  J. Wenzel,  
 M. de Wergifosse,  T. A. Wesolowski,  A. White,  J. Witte,  A. Yamada,  
 Jun Yang,  K. Yao,  S. Yeganeh,  S. R. Yost,  Zhi-Qiang You,  A. Zech,  
 Igor Ying Zhang,  Xing Zhang,  Yan Zhao,  Ying Zhu,  B. R. Brooks,  
 G. K. L. Chan,  C. J. Cramer,  M. S. Gordon,  W. J. Hehre,  A. Klamt,  
 M. W. Schmidt,  C. D. Sherrill,  D. G. Truhlar,  A. Aspuru-Guzik,  R. Baer,  
 A. T. Bell,  N. A. Besley,  Jeng-Da Chai,  R. A. DiStasio Jr.,  A. Dreuw,  
 B. D. Dunietz,  T. R. Furlani,  Chao-Ping Hsu,  Yousung Jung,  Jing Kong,  
 D. S. Lambrecht,  WanZhen Liang,  C. Ochsenfeld,  V. A. Rassolov,  
 L. V. Slipchenko,  J. E. Subotnik,  T. Van Voorhis,  J. M. Herbert,  
 A. I. Krylov,  P. M. W. Gill,  M. Head-Gordon

 Contributors to earlier versions of Q-Chem not listed above: 
 R. D. Adamson,  B. Austin,  J. Baker,  G. J. O. Beran,  K. Brandhorst,  
 S. T. Brown,  E. F. C. Byrd,  A. K. Chakraborty,  C.-L. Cheng,  
 Siu Hung Chien,  D. M. Chipman,  D. L. Crittenden,  H. Dachsel,  
 R. J. Doerksen,  A. D. Dutoi,  L. Fusti-Molnar,  W. A. Goddard III,  
 A. Golubeva-Zadorozhnaya,  S. R. Gwaltney,  G. Hawkins,  A. Heyden,  
 S. Hirata,  G. Kedziora,  F. J. Keil,  C. Kelley,  Jihan Kim,  R. A. King,  
 R. Z. Khaliullin,  P. P. Korambath,  W. Kurlancheek,  A. M. Lee,  M. S. Lee,  
 S. V. Levchenko,  Ching Yeh Lin,  D. Liotard,  R. C. Lochan,  I. Lotan,  
 P. E. Maslen,  N. Nair,  D. P. O'Neill,  D. Neuhauser,  E. Neuscamman,  
 C. M. Oana,  R. Olson,  B. Peters,  R. Peverati,  P. A. Pieniazek,  
 Y. M. Rhee,  J. Ritchie,  M. A. Rohrdanz,  E. Rosta,  N. J. Russ,  
 H. F. Schaefer III,  N. E. Schultz,  N. Shenvi,  A. C. Simmonett,  A. Sodt,  
 D. Stuck,  K. S. Thanthiriwatte,  V. Vanovschi,  Tao Wang,  A. Warshel,  
 C. F. Williams,  Q. Wu,  X. Xu,  W. Zhang

 Please cite Q-Chem as follows:
 Y. Shao et al., Mol. Phys. 113, 184-215 (2015)
 DOI: 10.1080/00268976.2014.952696

 Q-Chem 5.0.2 for Intel X86 EM64T Linux

 Parts of Q-Chem use Armadillo 5.200.1 (Boston Tea Smuggler).
 http://arma.sourceforge.net/

 Q-Chem begins on Wed Mar  2 23:48:51 2022  

Host: 
0

     Scratch files written to ./qcts2.d//
 Dec517 15110_ 26548  26544 5633   
Processing $rem in /home/leeping/opt/qchem/5.0.2-openmp/config/preferences.
 MEM_STATIC 2000
 MEM_TOTAL  8000
 SYMMETRY   OFF
 SYM_IGNORE TRUE 

Checking the input file for inconsistencies... 	...done.

--------------------------------------------------------------
User input:
--------------------------------------------------------------
$molecule
0 2
C        1.5469648954    0.2847564145   -0.2937313297
C        0.6056493303   -0.9047565615   -0.0902679579
C       -0.6034098570   -0.4136589695   -0.9212938795
C       -1.0250663284    0.3812571980    0.7143127771
C       -0.4957107339    1.0268001144   -0.5671321983
N        0.9275908252    1.3859770635   -0.5269174651
H        2.6236111561    0.2510476434   -0.1413864643
H        1.0108778506   -1.9069495503   -0.2257924381
H       -1.2957135482   -0.9512251903   -1.5541219287
H       -1.9457407912    0.7291514435    1.1745493507
H       -1.1478648455    1.7619636942   -1.0295017294
C       -0.1451311523   -0.5973210889    1.2041609137
H       -0.1025552353   -1.0816961759    2.1695615486
$end

$rem
method                b3lyp
basis                 6-31+g(d,p)
unrestricted          true
symmetry              off
sym_ignore            true
incdft                false
incfock               0
scf_convergence       8
thresh                14
jobtype               sp
scf_guess             read
scf_algorithm         diis
max_scf_cycles        100
$end

--------------------------------------------------------------
 ----------------------------------------------------------------
             Standard Nuclear Orientation (Angstroms)
    I     Atom           X                Y                Z
 ----------------------------------------------------------------
    1      C       1.5469648954     0.2847564145    -0.2937313297
    2      C       0.6056493303    -0.9047565615    -0.0902679579
    3      C      -0.6034098570    -0.4136589695    -0.9212938795
    4      C      -1.0250663284     0.3812571980     0.7143127771
    5      C      -0.4957107339     1.0268001144    -0.5671321983
    6      N       0.9275908252     1.3859770635    -0.5269174651
    7      H       2.6236111561     0.2510476434    -0.1413864643
    8      H       1.0108778506    -1.9069495503    -0.2257924381
    9      H      -1.2957135482    -0.9512251903    -1.5541219287
   10      H      -1.9457407912     0.7291514435     1.1745493507
   11      H      -1.1478648455     1.7619636942    -1.0295017294
   12      C      -0.1451311523    -0.5973210889     1.2041609137
   13      H      -0.1025552353    -1.0816961759     2.1695615486
 ----------------------------------------------------------------
 Nuclear Repulsion Energy =   281.0247838305 hartrees
 There are       25 alpha and       24 beta electrons
 Requested basis set is 6-31+G(d,p)
 There are 53 shells and 163 basis functions

 Total QAlloc Memory Limit   8000 MB
 Mega-Array Size      1956 MB
 MEM_STATIC part      2000 MB

                       Distance Matrix (Angstroms)
             C (  1)   C (  2)   C (  3)   C (  4)   C (  5)   N (  6)
   C (  2)  1.530495
   C (  3)  2.346429  1.547128
   C (  4)  2.764202  2.227199  1.866787
   C (  5)  2.190411  2.274050  1.487263  1.529393
   N (  6)  1.284791  2.354096  2.395451  2.522496  1.468473
   H (  7)  1.087894  2.326084  3.385817  3.749936  3.242410  2.076821
   H (  8)  2.257339  1.089481  2.306418  3.203866  3.315601  3.307715
   H (  9)  3.346200  2.400043  1.081080  2.644722  2.350901  3.385372
   H ( 10)  3.814751  3.283140  2.738691  1.086503  2.285746  3.403299
   H ( 11)  3.160001  3.326916  2.245323  2.227626  1.086074  2.168288
   C ( 12)  2.425888  1.527656  2.182042  1.404227  2.428612  2.842681
   H ( 13)  3.264341  2.374803  3.201643  2.260312  3.477042  3.797580
             H (  7)   H (  8)   H (  9)   H ( 10)   H ( 11)   C ( 12)
   H (  8)  2.695364
   H (  9)  4.336172  2.828115
   H ( 10)  4.779043  4.201378  3.269839
   H ( 11)  4.158804  4.332095  2.767396  2.561474
   C ( 12)  3.193143  2.257488  3.009520  2.236650  3.400139
   H ( 13)  3.814272  2.767399  3.912348  2.768854  4.406028  1.080940

 
 A cutoff of  1.0D-14 yielded   1405 shell pairs
 There are     13515 function pairs
 
 -------------------------------------------------------
 OpenMP Integral Computing Module                       
 Release: version 1.0, May 2013, Q-Chem Inc. Pittsburgh 
 -------------------------------------------------------
 Integral Job Info:
 Integral job number is                      11
 Integral operator is                         1
 short-range coefficients                     0
 long-range coefficients              100000000
 Omega coefficients                           0
 if combine SR and LR in K                    0
 Integral screening is                        0
 Integral computing path is                   2
 max size of driver memory is            800000
 size of driver memory is                593474
 size of scratch memory is              2361544
 max col of scratch BK array               1296
 max len of scratch array in speh3          155
 max len of scratch index in speh4           18
 max int batch size is                      520
 min int batch size is                       52
 fixed nKL is                                52
 max L of basis functions is                  2
 order of int derivative is                   0
 number of shells is                         53
 number of basis is                         163
 number of cartesian basis is               163
 number of contracted shell pairs          1405
 number of primitive shell pairs           4830
 maxK2 (contraction) of shell pair           36
 max number of K2 of shell pair               1
 max number of CS2 of shell pair            127
 max number of PS2 of shell pair            702
 mem total for path MDJ                  535308
 -------------------------------------------------------
 Smallest overlap matrix eigenvalue = 2.77E-05

 Scale SEOQF with 1.000000e-01/1.000000e-01/1.000000e-01

 Standard Electronic Orientation quadrupole field applied
 Nucleus-field energy     =     0.0000000011 hartrees
 Guess MOs from SCF MO coefficient file
 Reading MOs from coefficient file
 Reading MOs from coefficient file
 An unrestricted hybrid HF-DFT SCF calculation will be
 performed using Pulay DIIS extrapolation
 Exchange:     0.2000 Hartree-Fock + 0.0800 Slater + 0.7200 B88
 Correlation:  0.1900 VWN1RPA + 0.8100 LYP
 Using SG-1 standard quadrature grid
 SCF converges when DIIS error is below 1.0E-08
Using Q-Chem read-in guess as SCF_GUESS READ specified.

 using 4 threads for integral computing
 -------------------------------------------------------
 OpenMP Integral computing Module                
 Release: version 1.0, May 2013, Q-Chem Inc. Pittsburgh 
 -------------------------------------------------------
 -------------------------------------------------------
 OpenMP BLAS3 based DFT computing Module                
 Release: version 1.0, May 2013, Q-Chem Inc. Pittsburgh 
 -------------------------------------------------------
 ---------------------------------------
  Cycle       Energy         DIIS Error
 ---------------------------------------
    1    -286.8475438620      2.69E-09
    2    -286.8475438620      4.70E-09 Convergence criterion met
 ---------------------------------------
 <S^2> = 0.7772
 SCF time:  CPU 10.32 s  wall 2.85 s
 SCF   energy in the final basis set = -286.84754386
 Total energy in the final basis set = -286.84754386
 
 --------------------------------------------------------------
 
                    Orbital Energies (a.u.)
 --------------------------------------------------------------
 
 Alpha MOs
 -- Occupied --
-14.330 -10.235 -10.230 -10.229 -10.226 -10.221 -10.206  -0.972
 -0.849  -0.751  -0.696  -0.602  -0.585  -0.548  -0.522  -0.472
 -0.444  -0.424  -0.409  -0.378  -0.356  -0.296  -0.284  -0.277
 -0.157
 -- Virtual --
 -0.017  -0.010   0.001   0.018   0.029   0.033   0.046   0.048
  0.062   0.071   0.074   0.095   0.100   0.107   0.109   0.118
  0.124   0.129   0.141   0.153   0.164   0.178   0.180   0.185
  0.192   0.197   0.207   0.217   0.225   0.234   0.240   0.251
  0.259   0.268   0.281   0.287   0.309   0.313   0.331   0.368
  0.372   0.382   0.407   0.455   0.629   0.668   0.675   0.695
  0.699   0.713   0.725   0.734   0.744   0.753   0.778   0.793
  0.806   0.814   0.858   0.901   0.916   0.936   0.955   1.002
  1.015   1.033   1.047   1.070   1.082   1.095   1.104   1.139
  1.202   1.217   1.325   1.341   1.384   1.419   1.438   1.487
  1.558   1.622   1.626   1.691   1.724   1.768   1.817   1.864
  1.878   1.908   1.952   1.980   2.042   2.093   2.105   2.125
  2.156   2.212   2.220   2.277   2.304   2.327   2.363   2.397
  2.403   2.437   2.447   2.485   2.503   2.521   2.534   2.553
  2.570   2.607   2.618   2.655   2.685   2.703   2.745   2.777
  2.853   2.857   2.981   3.071   3.083   3.291   3.316   3.326
  3.508   3.599   3.688   4.171   4.413   4.487   4.568   4.620
  4.694   4.831
 
 Beta MOs
 -- Occupied --
-14.329 -10.235 -10.231 -10.230 -10.222 -10.217 -10.197  -0.968
 -0.842  -0.747  -0.684  -0.598  -0.577  -0.541  -0.519  -0.463
 -0.441  -0.419  -0.406  -0.373  -0.351  -0.287  -0.275  -0.265
 -- Virtual --
 -0.054  -0.009  -0.002   0.003   0.019   0.031   0.038   0.047
  0.049   0.063   0.072   0.077   0.096   0.101   0.108   0.109
  0.119   0.128   0.132   0.142   0.153   0.164   0.179   0.181
  0.188   0.195   0.197   0.208   0.223   0.228   0.237   0.242
  0.254   0.260   0.273   0.282   0.288   0.312   0.315   0.333
  0.372   0.376   0.385   0.411   0.457   0.634   0.674   0.678
  0.700   0.711   0.727   0.734   0.744   0.749   0.759   0.784
  0.796   0.808   0.817   0.859   0.905   0.919   0.939   0.958
  1.005   1.019   1.036   1.049   1.071   1.087   1.103   1.109
  1.147   1.207   1.221   1.329   1.346   1.387   1.425   1.443
  1.491   1.566   1.627   1.636   1.698   1.732   1.771   1.828
  1.870   1.885   1.913   1.955   1.985   2.048   2.102   2.110
  2.129   2.166   2.220   2.229   2.283   2.309   2.330   2.367
  2.403   2.405   2.443   2.454   2.489   2.507   2.526   2.542
  2.556   2.573   2.615   2.620   2.664   2.692   2.706   2.748
  2.781   2.857   2.861   2.983   3.074   3.085   3.292   3.318
  3.327   3.509   3.602   3.692   4.173   4.423   4.487   4.581
  4.626   4.696   4.835
 --------------------------------------------------------------
 
          Ground-State Mulliken Net Atomic Charges

     Atom                 Charge (a.u.)    Spin (a.u.)
  --------------------------------------------------------
      1 C                    -0.069993      -0.002349
      2 C                     0.000465      -0.101946
      3 C                    -0.198981       0.595226
      4 C                    -0.104066      -0.233069
      5 C                    -0.133479      -0.021268
      6 N                    -0.179334       0.062247
      7 H                     0.132744       0.001541
      8 H                     0.129121       0.010525
      9 H                     0.145895      -0.024362
     10 H                     0.139253       0.010263
     11 H                     0.138958       0.004300
     12 C                    -0.139699       0.727904
     13 H                     0.139118      -0.029012
  --------------------------------------------------------
  Sum of atomic charges =     0.000000
  Sum of spin   charges =     1.000000

 -----------------------------------------------------------------
                    Cartesian Multipole Moments
 -----------------------------------------------------------------
    Charge (ESU x 10^10)
                 0.0000
    Dipole Moment (Debye)
         X      -1.3464      Y      -2.2071      Z       0.3302
       Tot       2.6064
    Quadrupole Moments (Debye-Ang)
        XX     -38.6468     XY      -5.2827     YY     -44.8116
        XZ       1.2487     YZ       0.9359     ZZ     -41.8937
    Octopole Moments (Debye-Ang^2)
       XXX      -7.9117    XXY      -6.6120    XYY     -11.4306
       YYY     -28.2718    XXZ       2.3867    XYZ       0.7483
       YYZ       2.9050    XZZ      -9.4754    YZZ      -9.4455
       ZZZ      10.5882
    Hexadecapole Moments (Debye-Ang^3)
      XXXX    -254.4399   XXXY     -12.9596   XXYY     -91.5114
      XYYY     -27.2812   YYYY    -255.0851   XXXZ      16.5392
      XXYZ      14.1945   XYYZ      12.9980   YYYZ      30.2436
      XXZZ     -80.0289   XYZZ      -4.5245   YYZZ     -72.6697
      XZZZ      18.3535   YZZZ      21.7168   ZZZZ    -207.0577
 -----------------------------------------------------------------
Archival summary:
1\1\c8-66\SP\ProcedureUnspecified\6-31+G**\166(2)\hpark21\WedMar223:48:572022WedMar223:48:572022\0\\#,ProcedureUnspecified,6-31+G**,\\0,2\N\C,1,1.28479\H,2,1.08789,1,121.943\C,1,1.46847,2,105.223,3,-175.753,0\H,4,1.08607,1,115.347,2,-163.136,0\C,4,1.48726,1,108.276,2,-24.4057,0\H,6,1.08108,4,131.864,1,-140.933,0\C,4,1.52939,1,114.568,2,58.6801,0\H,8,1.0865,4,120.868,1,131.579,0\C,8,1.40423,4,111.687,1,-44.7568,0\H,10,1.08094,8,130.429,4,165.302,0\C,10,1.52766,8,98.7793,4,-21.9896,0\H,12,1.08948,10,118.25,8,-150.605,0\\\@

 Total job time:  5.68s(wall), 12.12s(cpu) 
 Wed Mar  2 23:48:57 2022

        *************************************************************
        *                                                           *
        *  Thank you very much for using Q-Chem.  Have a nice day.  *
        *                                                           *
        *************************************************************


