13
image # 1 Energy = -286.83831
C 1.54870   0.24423   -0.24941  
C 0.58329   -0.92549  -0.09491  
C -0.70965  -0.35961  -0.78553  
C -1.11940  0.19929   0.59046   
C -0.44225  1.08355   -0.55180  
N 0.96712   1.36966   -0.45382  
H 2.62083   0.17804   -0.07086  
H 0.96058   -1.92794  -0.30835  
H -1.31953  -0.82262  -1.55542  
H -2.09214  0.50632   0.96198   
H -1.08329  1.85604   -0.96419  
C -0.13402  -0.66345  1.22811   
H 0.21977   -0.73802  2.25376   
13
image # 2 Energy = -286.83281
C 1.55414   0.25410   -0.27487  
C 0.60431   -0.92571  -0.10587  
C -0.69799  -0.38585  -0.77241  
C -1.11017  0.24552   0.58239   
C -0.44604  1.08922   -0.52769  
N 0.96899   1.37685   -0.45309  
H 2.63221   0.18979   -0.13895  
H 1.02960   -1.92643  -0.34234  
H -1.30330  -0.95559  -1.50773  
H -2.09871  0.56902   0.97141   
H -1.06715  1.91883   -0.91938  
C -0.17450  -0.67534  1.21184   
H 0.09995   -0.78073  2.25737   
13
image # 3 Energy = -286.82298
C 1.56179   0.25998   -0.29606  
C 0.62640   -0.93113  -0.10734  
C -0.69977  -0.41441  -0.78405  
C -1.11801  0.28128   0.58742   
C -0.45241  1.11322   -0.52320  
N 0.96685   1.38518   -0.45504  
H 2.64302   0.20323   -0.20822  
H 1.08762   -1.90920  -0.36706  
H -1.27549  -1.07451  -1.44019  
H -2.08712  0.62334   0.96955   
H -1.04167  1.96306   -0.87170  
C -0.20469  -0.68459  1.19894   
H -0.02478  -0.82810  2.25769   
13
image # 4 Energy = -286.80819
C 1.55673   0.26839   -0.31276  
C 0.64812   -0.92878  -0.11452  
C -0.68712  -0.44437  -0.78296  
C -1.11308  0.30120   0.59238   
C -0.44609  1.13303   -0.51748  
N 0.96590   1.38892   -0.46210  
H 2.65501   0.21723   -0.27522  
H 1.13472   -1.88702  -0.38318  
H -1.25219  -1.18427  -1.37290  
H -2.07845  0.67248   0.96671   
H -1.02215  2.00645   -0.83123  
C -0.23985  -0.68254  1.18580   
H -0.14676  -0.87971  2.25429   
13
image # 5 Energy = -286.79094
C 1.57714   0.26697   -0.32419  
C 0.66033   -0.90947  -0.11334  
C -0.67077  -0.46387  -0.78429  
C -1.10577  0.31777   0.58263   
C -0.43835  1.14071   -0.51613  
N 0.95794   1.40537   -0.48058  
H 2.65407   0.23535   -0.35937  
H 1.17752   -1.85251  -0.39102  
H -1.22243  -1.29725  -1.27987  
H -2.05726  0.72239   0.95805   
H -1.00184  2.04860   -0.78863  
C -0.26180  -0.68452  1.19364   
H -0.30083  -0.95488  2.23757   
13
image # 6 Energy = -286.76961
C 1.57640   0.29479   -0.34228  
C 0.68564   -0.89797  -0.11189  
C -0.65971  -0.50095  -0.78102  
C -1.09826  0.34481   0.57456   
C -0.44050  1.15779   -0.50870  
N 0.97280   1.40127   -0.49840  
H 2.65774   0.25173   -0.43899  
H 1.21831   -1.82599  -0.39841  
H -1.18683  -1.40090  -1.18470  
H -2.04100  0.76807   0.94928   
H -0.98234  2.08689   -0.74848  
C -0.28650  -0.68145  1.19754   
H -0.45580  -1.02857  2.21290   
13
image # 7 Energy = -286.74382
C 1.57907   0.30153   -0.36234  
C 0.71466   -0.89364  -0.10957  
C -0.65016  -0.54746  -0.76281  
C -1.08801  0.36840   0.57633   
C -0.43409  1.18452   -0.49651  
N 0.97154   1.41865   -0.51938  
H 2.66461   0.26674   -0.50841  
H 1.25874   -1.80723  -0.40643  
H -1.15007  -1.49710  -1.09499  
H -2.03238  0.80879   0.94126   
H -0.96479  2.12340   -0.71402  
C -0.31270  -0.66679  1.19194   
H -0.60292  -1.09445  2.17735   
13
image # 8 Energy = -286.80109
C 1.59272   0.31085   -0.36880  
C 0.73701   -0.86186  -0.09882  
C -0.68165  -0.65250  -0.65845  
C -1.06903  0.39028   0.52956   
C -0.38300  1.29744   -0.43328  
N 0.94423   1.41640   -0.55994  
H 2.66957   0.27395   -0.55755  
H 1.27656   -1.79839  -0.39071  
H -1.12998  -1.58143  -1.00621  
H -2.02366  0.81428   0.92574   
H -0.96242  2.15895   -0.70145  
C -0.29572  -0.64339  1.15987   
H -0.72632  -1.16259  2.06740   
13
image # 9 Energy = -286.82730
C 1.59888   0.32040   -0.37001  
C 0.74840   -0.84280  -0.09416  
C -0.72920  -0.83670  -0.40353  
C -1.04110  0.42668   0.41273   
C -0.31471  1.52846   -0.27306  
N 0.92682   1.43798   -0.62966  
H 2.67458   0.26871   -0.55617  
H 1.25420   -1.80449  -0.33479  
H -1.16481  -1.65997  -0.93711  
H -2.00517  0.75297   0.88182   
H -0.97702  2.23023   -0.73555  
C -0.28235  -0.65663  1.05006   
H -0.74405  -1.20450  1.89966   
13
image # 10 Energy = -286.82461
C 1.58886   0.32646   -0.40565  
C 0.77808   -0.86051  -0.13094  
C -0.69107  -0.89866  -0.37771  
C -1.04149  0.46781   0.43270   
C -0.32288  1.54539   -0.26506  
N 0.93662   1.46327   -0.63880  
H 2.66849   0.28221   -0.58955  
H 1.30351   -1.80373  -0.34919  
H -1.12998  -1.75557  -0.86613  
H -2.00452  0.79211   0.87989   
H -0.95908  2.28656   -0.70387  
C -0.34708  -0.66904  1.05200   
H -0.83976  -1.21801  1.87395   
13
image # 11 Energy = -286.81317
C 1.56441   0.33105   -0.44840  
C 0.81644   -0.87362  -0.18042  
C -0.65828  -0.98696  -0.34839  
C -1.03515  0.51990   0.44916   
C -0.31435  1.57036   -0.25430  
N 0.93441   1.48889   -0.63672  
H 2.65401   0.29337   -0.59748  
H 1.35683   -1.81839  -0.35424  
H -1.11027  -1.84409  -0.80559  
H -2.00841  0.82213   0.87827   
H -0.94345  2.36167   -0.67777  
C -0.42151  -0.69104  1.04126   
H -0.89809  -1.21655  1.84885   
13
image # 12 Energy = -286.80534
C 1.55052   0.31877   -0.47005  
C 0.83461   -0.89157  -0.26142  
C -0.59135  -1.07330  -0.37543  
C -1.01691  0.58437   0.50375   
C -0.36693  1.55718   -0.26487  
N 0.93816   1.48763   -0.63193  
H 2.63385   0.30718   -0.55877  
H 1.41708   -1.83678  -0.35765  
H -1.12350  -1.88404  -0.81070  
H -2.01300  0.87290   0.91640   
H -0.93665  2.38793   -0.67046  
C -0.49184  -0.66011  1.03145   
H -0.90090  -1.21837  1.86709   
13
image # 13 Energy = -286.81065
C 1.54832   0.32153   -0.46198  
C 0.88968   -0.92425  -0.31739  
C -0.55549  -1.11776  -0.38088  
C -1.05474  0.63271   0.56607   
C -0.37548  1.52972   -0.27613  
N 0.92798   1.46744   -0.61694  
H 2.63982   0.31335   -0.56985  
H 1.45433   -1.83901  -0.39995  
H -1.08105  -1.90532  -0.81446  
H -2.02725  0.93117   0.96106   
H -0.93651  2.37750   -0.65963  
C -0.56785  -0.63772  1.01236   
H -0.92711  -1.19665  1.87770   
13
image # 14 Energy = -286.83191
C 1.55939   0.30460   -0.44329  
C 0.91997   -0.94325  -0.39165  
C -0.48125  -1.15583  -0.34099  
C -1.07622  0.66337   0.61533   
C -0.38142  1.53975   -0.27298  
N 0.89718   1.45246   -0.63815  
H 2.65571   0.31888   -0.53717  
H 1.50236   -1.85018  -0.46529  
H -1.05064  -1.95716  -0.82411  
H -2.01538  0.99670   1.04601   
H -0.95190  2.37338   -0.67326  
C -0.67624  -0.61578  0.96984   
H -0.96180  -1.16683  1.87797   
13
image # 15 Energy = -286.83906
C 1.57261   0.30073   -0.47480  
C 0.94408   -0.94657  -0.43026  
C -0.45753  -1.19692  -0.31410  
C -1.09501  0.68193   0.63538   
C -0.35836  1.55096   -0.24235  
N 0.89419   1.45663   -0.62523  
H 2.65916   0.32533   -0.62933  
H 1.54713   -1.83032  -0.51446  
H -0.93422  -2.08759  -0.72313  
H -2.04373  1.03557   1.00892   
H -0.91277  2.42805   -0.58846  
C -0.74851  -0.61811  0.96217   
H -1.12159  -1.13389  1.86272   
13
image # 16 Energy = -286.85143
C 1.56544   0.28999   -0.50768  
C 0.96445   -0.94832  -0.46541  
C -0.42572  -1.24136  -0.28283  
C -1.11106  0.70495   0.66360   
C -0.35838  1.55803   -0.22787  
N 0.89803   1.46705   -0.61077  
H 2.66046   0.33428   -0.70020  
H 1.59990   -1.82589  -0.55153  
H -0.84281  -2.18213  -0.63464  
H -2.06169  1.07587   0.98486   
H -0.87387  2.47149   -0.51848  
C -0.82174  -0.62197  0.94608   
H -1.24079  -1.11053  1.83861   
13
image # 17 Energy = -286.86189
C 1.56827   0.28429   -0.54919  
C 0.98806   -0.96508  -0.48296  
C -0.39666  -1.27932  -0.23722  
C -1.11117  0.71298   0.66980   
C -0.34998  1.55850   -0.21160  
N 0.89445   1.48815   -0.59034  
H 2.64519   0.34088   -0.77524  
H 1.64541   -1.81827  -0.58418  
H -0.75487  -2.27165  -0.53818  
H -2.09264  1.11689   0.96241   
H -0.83224  2.52148   -0.44633  
C -0.88325  -0.61408  0.92143   
H -1.36021  -1.09829  1.80399   
13
image # 18 Energy = -286.87273
C 1.55972   0.27048   -0.58921  
C 1.02022   -0.95541  -0.48373  
C -0.36566  -1.33686  -0.16697  
C -1.13892  0.74115   0.64842   
C -0.33082  1.58824   -0.18621  
N 0.89766   1.49771   -0.57439  
H 2.61840   0.34524   -0.85623  
H 1.68034   -1.81509  -0.61066  
H -0.67225  -2.34441  -0.42935  
H -2.10874  1.14378   0.93348   
H -0.79036  2.56561   -0.36934  
C -0.92177  -0.62323  0.89790   
H -1.48238  -1.09435  1.73657   
13
image # 19 Energy = -286.88685
C 1.55418   0.28846   -0.62020  
C 1.02971   -0.97734  -0.49076  
C -0.30985  -1.36745  -0.08914  
C -1.15264  0.76995   0.62595   
C -0.34766  1.60846   -0.14543  
N 0.92582   1.48592   -0.57701  
H 2.59116   0.34822   -0.91988  
H 1.70618   -1.80780  -0.63263  
H -0.60484  -2.40402  -0.33079  
H -2.11324  1.16900   0.92006   
H -0.75665  2.60133   -0.30622  
C -0.97107  -0.63081  0.86166   
H -1.57951  -1.09375  1.66349   
13
image # 20 Energy = -286.89844
C 1.53031   0.28100   -0.64616  
C 1.04518   -0.98507  -0.47658  
C -0.26701  -1.39270  -0.03502  
C -1.16831  0.78551   0.59396   
C -0.33981  1.60152   -0.10888  
N 0.92738   1.49069   -0.57848  
H 2.57321   0.35349   -1.00155  
H 1.73455   -1.80158  -0.65472  
H -0.52441  -2.45309  -0.20639  
H -2.11792  1.19731   0.91768   
H -0.71617  2.64524   -0.23086  
C -1.01686  -0.63472  0.82778   
H -1.68225  -1.09211  1.56925   
13
image # 21 Energy = -286.90845
C 1.52657   0.28775   -0.67918  
C 1.05559   -0.99829  -0.45511  
C -0.24662  -1.41565  0.01091   
C -1.19227  0.77653   0.57288   
C -0.32856  1.63506   -0.09022  
N 0.92690   1.48784   -0.57864  
H 2.54449   0.35607   -1.07660  
H 1.75804   -1.79793  -0.67776  
H -0.44087  -2.48263  -0.07106  
H -2.12214  1.22428   0.92087   
H -0.67037  2.66213   -0.15445  
C -1.04533  -0.64209  0.79391   
H -1.78180  -1.09487  1.46369   
13
image # 22 Energy = -286.91740
C 1.52080   0.27622   -0.71052  
C 1.06797   -0.99947  -0.46135  
C -0.20445  -1.43478  0.08261   
C -1.19492  0.79094   0.55818   
C -0.32377  1.64788   -0.05432  
N 0.92267   1.49275   -0.58305  
H 2.51258   0.35487   -1.13691  
H 1.77200   -1.79720  -0.70021  
H -0.36624  -2.50696  0.06802   
H -2.12249  1.24332   0.92925   
H -0.63520  2.68369   -0.08825  
C -1.08980  -0.64618  0.73843   
H -1.86925  -1.10517  1.34606   
13
image # 23 Energy = -286.92192
C 1.50060   0.27958   -0.73668  
C 1.07528   -1.00566  -0.44548  
C -0.15808  -1.45250  0.11217   
C -1.21430  0.78269   0.54446   
C -0.30427  1.65644   -0.03453  
N 0.92171   1.48745   -0.58374  
H 2.48694   0.35284   -1.20016  
H 1.77657   -1.79759  -0.71842  
H -0.29899  -2.51350  0.20104   
H -2.11782  1.25157   0.93822   
H -0.60021  2.70187   -0.02033  
C -1.13257  -0.62838  0.70856   
H -1.93976  -1.11409  1.22947   
13
image # 24 Energy = -286.92435
C 1.48257   0.27244   -0.76489  
C 1.08432   -1.01470  -0.45352  
C -0.13149  -1.43857  0.19189   
C -1.21944  0.79479   0.54063   
C -0.29216  1.66518   0.00036   
N 0.91516   1.48740   -0.58741  
H 2.45444   0.34375   -1.25839  
H 1.77954   -1.80257  -0.73324  
H -0.24067  -2.51120  0.33948   
H -2.11552  1.25636   0.94871   
H -0.57116  2.72008   0.04834   
C -1.14680  -0.64179  0.63016   
H -1.99879  -1.13118  1.09788   
