13   
From optimize.out: Frame 1 / 2, Energy=    -286.9243488101
C        1.4820991299    0.2725424787   -0.7656308041
C        1.0840257784   -1.0146457698   -0.4541019803
C       -0.1320596948   -1.4384496080    0.1910028003
C       -1.2190331892    0.7946116283    0.5410725102
C       -0.2920239079    1.6649143012    0.0010751015
N        0.9149157957    1.4872326232   -0.5873994130
H        2.4545514498    0.3436145674   -1.2579293577
H        1.7798790837   -1.8022204571   -0.7330779992
H       -0.2403507677   -2.5109582831    0.3402085090
H       -2.1144497973    1.2568458348    0.9497509139
H       -0.5713653482    2.7196519059    0.0483175314
C       -1.1473142860   -0.6418809140    0.6292035782
H       -1.9988742464   -1.1312583075    1.0975086099
