13   
From qcopt_rct.out: Frame 2 / 2, Energy=    -286.8383138856
C        1.5486951731    0.2442336635   -0.2494075832
C        0.5832877847   -0.9254885455   -0.0949144588
C       -0.7096484807   -0.3596107883   -0.7855341012
C       -1.1193955337    0.1992909432    0.5904615686
C       -0.4422521773    1.0835525612   -0.5517996318
N        0.9671171309    1.3696570034   -0.4538244963
H        2.6208252181    0.1780447767   -0.0708608150
H        0.9605783932   -1.9279423739   -0.3083543462
H       -1.3195292186   -0.8226233496   -1.5554190234
H       -2.0921367155    0.5063234239    0.9619766907
H       -1.0832887086    1.8560368313   -0.9641885398
C       -0.1340248975   -0.6634536071    1.2281084250
H        0.2197720324   -0.7380205390    2.2537563110
13   
From qcopt_prd.out: Frame 2 / 2, Energy=    -286.9243497024
C        1.4825262366    0.2724595264   -0.7649623947
C        1.0842505515   -1.0146957399   -0.4537000461
C       -0.1315368792   -1.4385824429    0.1917562246
C       -1.2193666095    0.7947875889    0.5407952649
C       -0.2920915918    1.6651961865    0.0005430056
N        0.9151843555    1.4874212231   -0.5873220825
H        2.4543706808    0.3437696155   -1.2585250186
H        1.7794107539   -1.8025664178   -0.7335498454
H       -0.2407532086   -2.5112209868    0.3392405509
H       -2.1154014306    1.2563521990    0.9489891892
H       -0.5710466372    2.7200982700    0.0486551365
C       -1.1467847616   -0.6418090736    0.6301777699
H       -1.9987614597   -1.1312099485    1.0979022460
