13   
From optimize.out: Frame 42 / 43, Energy=    -286.8383083154
C        1.5477255952    0.2440207351   -0.2492566558
C        0.5831869504   -0.9256665191   -0.0963448637
C       -0.7104209497   -0.3606046263   -0.7864160072
C       -1.1188234174    0.1997346509    0.5899274195
C       -0.4427073897    1.0830013274   -0.5527709326
N        0.9655620747    1.3692773527   -0.4535485947
H        2.6184038939    0.1766845043   -0.0637774257
H        0.9616089111   -1.9272756957   -0.3097850380
H       -1.3210858250   -0.8234516527   -1.5561275743
H       -2.0903897486    0.5088980840    0.9634525993
H       -1.0837427485    1.8556698754   -0.9643347462
C       -0.1326904567   -0.6631843765    1.2268954768
H        0.2233731105   -0.7371036596    2.2520863422
13   
From optimize.out: Frame 41 / 43, Energy=    -286.8383059823
C        1.5473872509    0.2440901904   -0.2493744340
C        0.5827466587   -0.9260436338   -0.0970645301
C       -0.7104774132   -0.3604015681   -0.7866704782
C       -1.1182036352    0.2001735039    0.5901881012
C       -0.4426082861    1.0831652367   -0.5531238285
N        0.9654768569    1.3693756776   -0.4542290155
H        2.6176421434    0.1769226264   -0.0614692907
H        0.9620844462   -1.9276031751   -0.3099157364
H       -1.3217571270   -0.8238713571   -1.5556039015
H       -2.0897190424    0.5090807306    0.9641203478
H       -1.0838587443    1.8555972067   -0.9646694946
C       -0.1320424672   -0.6629020777    1.2263256281
H        0.2233293595   -0.7375833606    2.2514866320
13   
From optimize.out: Frame 40 / 43, Energy=    -286.8383031937
C        1.5470615897    0.2442926261   -0.2494580240
C        0.5823032174   -0.9264360540   -0.0975837873
C       -0.7105471823   -0.3599991632   -0.7868384143
C       -1.1173876526    0.2005951487    0.5905324073
C       -0.4426106492    1.0832495127   -0.5538794467
N        0.9654796373    1.3696239277   -0.4549886126
H        2.6170368765    0.1776395088   -0.0594622029
H        0.9625326841   -1.9280580098   -0.3100838193
H       -1.3225620358   -0.8241105651   -1.5546710819
H       -2.0886777182    0.5093130273    0.9647230481
H       -1.0839666827    1.8555391380   -0.9655376616
C       -0.1314475904   -0.6627504367    1.2260289467
H        0.2227855062   -0.7388986605    2.2512186485
13   
From optimize.out: Frame 39 / 43, Energy=    -286.8382999756
C        1.5468371045    0.2445983460   -0.2494916262
C        0.5821626109   -0.9267042651   -0.0977815263
C       -0.7106662539   -0.3595757599   -0.7868586678
C       -1.1165037275    0.2009615363    0.5908197103
C       -0.4426773617    1.0832140699   -0.5549705578
N        0.9655991370    1.3699608354   -0.4557804918
H        2.6166476844    0.1788385167   -0.0579733608
H        0.9629337941   -1.9284646647   -0.3102406289
H       -1.3236565595   -0.8240006409   -1.5534077428
H       -2.0873602845    0.5096658945    0.9652317178
H       -1.0840344994    1.8554028835   -0.9669442482
C       -0.1310604228   -0.6627992593    1.2260393175
H        0.2217787784   -0.7410974924    2.2513581049
13   
From optimize.out: Frame 38 / 43, Energy=    -286.8382963117
C        1.5467698822    0.2448933123   -0.2494839538
C        0.5824825408   -0.9267763788   -0.0976655336
C       -0.7108887247   -0.3593276193   -0.7866870488
C       -1.1157449191    0.2011883297    0.5908976672
C       -0.4426993423    1.0831464317   -0.5561611797
N        0.9658677998    1.3702780705   -0.4565567699
H        2.6164547446    0.1803648641   -0.0570036786
H        0.9632462152   -1.9286839497   -0.3103846712
H       -1.3250503691   -0.8235645625   -1.5520268674
H       -2.0859954924    0.5101296510    0.9656670461
H       -1.0840700964    1.8551767149   -0.9686747175
C       -0.1308591456   -0.6629961983    1.2262412206
H        0.2204869071   -0.7438286656    2.2518384867
13   
From optimize.out: Frame 37 / 43, Energy=    -286.8382922376
C        1.5468905967    0.2450945049   -0.2494524044
C        0.5832482940   -0.9266631476   -0.0973609817
C       -0.7110897041   -0.3593797308   -0.7863321067
C       -1.1152565388    0.2013457260    0.5907844871
C       -0.4425719644    1.0831411944   -0.5571359537
N        0.9663019880    1.3704804967   -0.4572717210
H        2.6164169517    0.1819683580   -0.0564283828
H        0.9634683316   -1.9286346867   -0.3105255694
H       -1.3265991640   -0.8230224981   -1.5507079015
H       -2.0848739174    0.5107709230    0.9660981839
H       -1.0841806042    1.8547871000   -0.9704095537
C       -0.1309024221   -0.6632250612    1.2264084882
H        0.2191481530   -0.7466631786    2.2523334156
13   
From optimize.out: Frame 36 / 43, Energy=    -286.8382878253
C        1.5471864635    0.2451146126   -0.2494333895
C        0.5841526379   -0.9264439815   -0.0970326635
C       -0.7112115607   -0.3596793926   -0.7858249067
C       -1.1151121194    0.2014248312    0.5905196191
C       -0.4422822705    1.0833702281   -0.5576699042
N        0.9668073183    1.3704886257   -0.4578937061
H        2.6165303396    0.1833785930   -0.0560010528
H        0.9634561244   -1.9284027216   -0.3108632231
H       -1.3278687751   -0.8227501892   -1.5496089504
H       -2.0842016383    0.5115111265    0.9666084718
H       -1.0844658135    1.8543639404   -0.9718819206
C       -0.1309100535   -0.6632951072    1.2263830719
H        0.2179193471   -0.7490805653    2.2526985539
13   
From optimize.out: Frame 35 / 43, Energy=    -286.8382818476
C        1.5477670915    0.2450674399   -0.2494446377
C        0.5850956092   -0.9261410934   -0.0967812134
C       -0.7108857357   -0.3600969895   -0.7851418451
C       -1.1152110010    0.2017870743    0.5903868173
C       -0.4418596883    1.0838411568   -0.5577724571
N        0.9673625883    1.3702913786   -0.4585682685
H        2.6169502702    0.1847405023   -0.0554462206
H        0.9631157012   -1.9280030995   -0.3117007253
H       -1.3287249990   -0.8230977929   -1.5483310457
H       -2.0839793299    0.5127241043    0.9674312042
H       -1.0851721695    1.8536280763   -0.9733666874
C       -0.1310124875   -0.6630768392    1.2260658996
H        0.2165541505   -0.7516639179    2.2526691797
13   
From optimize.out: Frame 34 / 43, Energy=    -286.8382716717
C        1.5487518156    0.2450047988   -0.2495480486
C        0.5855461303   -0.9257448290   -0.0966881335
C       -0.7101045619   -0.3602684755   -0.7842873701
C       -1.1154796990    0.2024218127    0.5905312641
C       -0.4414867187    1.0846864399   -0.5575516125
N        0.9676763815    1.3698656070   -0.4593903083
H        2.6180229659    0.1860432298   -0.0544633218
H        0.9618606542   -1.9276136820   -0.3138244119
H       -1.3284416705   -0.8246127362   -1.5466545523
H       -2.0842203337    0.5143067821    0.9687341570
H       -1.0863274991    1.8527328470   -0.9751601804
C       -0.1305216389   -0.6622595926    1.2256220375
H        0.2147241744   -0.7545622020    2.2526804809
13   
From optimize.out: Frame 33 / 43, Energy=    -286.8382555909
C        1.5500094021    0.2454164315   -0.2497314628
C        0.5853459154   -0.9252591114   -0.0968383515
C       -0.7086052463   -0.3598264637   -0.7836302975
C       -1.1155414547    0.2037826636    0.5915382086
C       -0.4414636641    1.0851258377   -0.5573977090
N        0.9675531133    1.3695304192   -0.4602839098
H        2.6197730481    0.1871503551   -0.0532597433
H        0.9598546524   -1.9272027872   -0.3170213055
H       -1.3271425938   -0.8269372303   -1.5444308074
H       -2.0846984650    0.5162096222    0.9702461531
H       -1.0875620011    1.8511781905   -0.9773279885
C       -0.1301094146   -0.6610109268    1.2254869186
H        0.2125867084   -0.7581570003    2.2526502950
13   
From optimize.out: Frame 32 / 43, Energy=    -286.8382351412
C        1.5510851209    0.2461419941   -0.2500030007
C        0.5843359857   -0.9246489613   -0.0970486924
C       -0.7077442804   -0.3588955449   -0.7833458521
C       -1.1152665972    0.2047899951    0.5927894421
C       -0.4418039400    1.0850657144   -0.5577132777
N        0.9669261240    1.3695987828   -0.4610093255
H        2.6216436223    0.1877958614   -0.0521730821
H        0.9570710056   -1.9269013811   -0.3207790379
H       -1.3251147104   -0.8291843031   -1.5427353877
H       -2.0849477985    0.5170158439    0.9713782821
H       -1.0878860547    1.8498216478   -0.9793975438
C       -0.1287912295   -0.6595634153    1.2261589194
H        0.2104927524   -0.7610362339    2.2538785562
13   
From optimize.out: Frame 31 / 43, Energy=    -286.8382069164
C        1.5519187788    0.2476277060   -0.2503505015
C        0.5834752199   -0.9237142185   -0.0973206150
C       -0.7071300402   -0.3579701048   -0.7833791557
C       -1.1144177108    0.2061384692    0.5947287030
C       -0.4421934949    1.0835689212   -0.5585556179
N        0.9664431136    1.3704620557   -0.4616612293
H        2.6231835656    0.1882614982   -0.0513261392
H        0.9539068150   -1.9260088922   -0.3245387257
H       -1.3236719795   -0.8305403668   -1.5415350379
H       -2.0847129146    0.5172406462    0.9721181724
H       -1.0871503297    1.8471651137   -0.9814444448
C       -0.1281345960   -0.6581292916    1.2276986604
H        0.2084835727   -0.7641015364    2.2555659311
13   
From optimize.out: Frame 30 / 43, Energy=    -286.8381660268
C        1.5522096483    0.2490699788   -0.2508741581
C        0.5827003177   -0.9223229070   -0.0974263052
C       -0.7083358641   -0.3578340873   -0.7832075258
C       -1.1131997542    0.2063407440    0.5960895088
C       -0.4420969803    1.0816522773   -0.5596064929
N        0.9664404874    1.3721317678   -0.4621487121
H        2.6236206973    0.1884077109   -0.0505583214
H        0.9495970687   -1.9246276892   -0.3285546313
H       -1.3224405513   -0.8310369248   -1.5423528544
H       -2.0837536626    0.5156315062    0.9725661790
H       -1.0850922565    1.8444125386   -0.9828708618
C       -0.1260484625   -0.6564744042    1.2298678113
H        0.2063993122   -0.7653505111    2.2590763640
13   
From optimize.out: Frame 29 / 43, Energy=    -286.8380955592
C        1.5517273585    0.2507048922   -0.2515678506
C        0.5833546844   -0.9204601859   -0.0975801203
C       -0.7096799039   -0.3594487666   -0.7823178285
C       -1.1113831734    0.2071413706    0.5974764298
C       -0.4409676156    1.0787639900   -0.5600684626
N        0.9680586019    1.3747481323   -0.4625239041
H        2.6218579616    0.1883681404   -0.0497250680
H        0.9447204696   -1.9221591354   -0.3321487294
H       -1.3219388168   -0.8305807222   -1.5451681081
H       -2.0818488400    0.5139877057    0.9734246687
H       -1.0830693770    1.8394296731   -0.9833329597
C       -0.1251684582   -0.6548526440    1.2317807303
H        0.2043371090   -0.7656424503    2.2617512026
13   
From optimize.out: Frame 28 / 43, Energy=    -286.8380043374
C        1.5503376267    0.2510781898   -0.2522587103
C        0.5841683554   -0.9189968014   -0.0976403682
C       -0.7110214359   -0.3622200493   -0.7804771447
C       -1.1095476354    0.2074315548    0.5974297153
C       -0.4393847832    1.0779109760   -0.5594284823
N        0.9700946291    1.3768811261   -0.4624968012
H        2.6182451486    0.1878552613   -0.0489269316
H        0.9396884705   -1.9206943659   -0.3352671649
H       -1.3195451990   -0.8307645757   -1.5498294255
H       -2.0792853130    0.5123542078    0.9750631410
H       -1.0828332069    1.8360129513   -0.9825779900
C       -0.1233007020   -0.6535596406    1.2324119589
H        0.2023840452   -0.7632888341    2.2639982037
13   
From optimize.out: Frame 27 / 43, Energy=    -286.8377736778
C        1.5464452043    0.2506103018   -0.2530850931
C        0.5859191703   -0.9180588219   -0.0981486643
C       -0.7081180552   -0.3671295243   -0.7762958107
C       -1.1056474963    0.2113837060    0.5972126614
C       -0.4376631647    1.0793131767   -0.5565401984
N        0.9730331834    1.3789363068   -0.4616722428
H        2.6094991219    0.1862010635   -0.0480951712
H        0.9320758009   -1.9213222082   -0.3396654096
H       -1.3094245433   -0.8332944140   -1.5574553549
H       -2.0732842628    0.5137627453    0.9800866622
H       -1.0889592509    1.8313148660   -0.9806311497
C       -0.1232250232   -0.6528915944    1.2310173032
H        0.1993493158   -0.7588256033    2.2632724676
13   
From optimize.out: Frame 26 / 43, Energy=    -286.8375016851
C        1.5426711751    0.2496408993   -0.2534814576
C        0.5857183263   -0.9186020511   -0.0986644345
C       -0.7035784230   -0.3690886261   -0.7730757514
C       -1.1019395540    0.2152594092    0.5965635381
C       -0.4381467957    1.0824907839   -0.5542956704
N        0.9730104548    1.3792296085   -0.4604606243
H        2.6025906882    0.1841820228   -0.0479277436
H        0.9255623970   -1.9249061718   -0.3440357062
H       -1.2957641899   -0.8370499962   -1.5624076909
H       -2.0675879178    0.5159772072    0.9848062572
H       -1.0970059455    1.8308036183   -0.9798626465
C       -0.1226098384   -0.6529385772    1.2296401190
H        0.1970796229   -0.7549981268    2.2632018112
13   
From optimize.out: Frame 25 / 43, Energy=    -286.8363486802
C        1.5337508644    0.2476242411   -0.2531864563
C        0.5812200273   -0.9247343846   -0.1015422306
C       -0.6859512770   -0.3647058312   -0.7695962089
C       -1.0923706206    0.2292235808    0.5967565584
C       -0.4471562960    1.0904058796   -0.5513349510
N        0.9649801458    1.3779624473   -0.4565340070
H        2.5898971435    0.1774024031   -0.0485410254
H        0.9105860403   -1.9397985497   -0.3564000857
H       -1.2498694569   -0.8486892336   -1.5635591218
H       -2.0532279391    0.5254242333    0.9950204973
H       -1.1221204707    1.8355401872   -0.9824015994
C       -0.1249353429   -0.6542886009    1.2285224034
H        0.1951971819   -0.7513663725    2.2627962271
13   
From optimize.out: Frame 16 / 43, Energy=    -286.8356979632
C        1.5544782757    0.2593443470   -0.2574700613
C        0.5984803287   -0.9129220027   -0.1001752503
C       -0.6937798734   -0.3547973539   -0.7928384508
C       -1.0816871190    0.2802057387    0.6030968256
C       -0.4461968513    1.0872258378   -0.5501872108
N        0.9852288096    1.3861749901   -0.4761037897
H        2.6243068625    0.1964063084   -0.0606326179
H        0.9930398949   -1.9123546266   -0.2973030393
H       -1.3760175685   -0.8704585966   -1.4591806674
H       -2.0836945996    0.5040189234    0.9552930767
H       -1.0789244969    1.8502687533   -0.9948474268
C       -0.1434428945   -0.6695481270    1.1988276687
H        0.1482092318   -0.8435641919    2.2315209434
13   
From optimize.out: Frame 15 / 43, Energy=    -286.8332058640
C        1.5570301324    0.2691191366   -0.2560206969
C        0.6096314202   -0.9065077580   -0.0951996348
C       -0.6793541410   -0.3615836627   -0.7968267189
C       -1.0689772200    0.3103883015    0.6217240731
C       -0.4494659203    1.0796472856   -0.5536910700
N        0.9855640185    1.3933246245   -0.4799689313
H        2.6311521310    0.2074620453   -0.0838253330
H        1.0057532604   -1.9078367733   -0.2780159541
H       -1.3748684406   -0.8760924845   -1.4495676396
H       -2.0719024682    0.5360720879    0.9705116874
H       -1.0907987281    1.8325736038   -1.0037417959
C       -0.1684317470   -0.6882631710    1.1864877580
H        0.1146677027   -0.8883032357    2.2181342561
13   
From optimize.out: Frame 14 / 43, Energy=    -286.8295200433
C        1.5596068062    0.2791813758   -0.2545332387
C        0.6222372916   -0.9007670477   -0.0889795819
C       -0.6641606841   -0.3708847191   -0.7974489138
C       -1.0557154189    0.3378310300    0.6410592970
C       -0.4527775517    1.0714983413   -0.5574617195
N        0.9841453062    1.3998157146   -0.4841035984
H        2.6380581867    0.2195987238   -0.1112870536
H        1.0188417698   -1.9040694510   -0.2574568467
H       -1.3699623581   -0.8776382709   -1.4449672883
H       -2.0576365643    0.5733657613    0.9872937308
H       -1.1051265580    1.8127052332   -1.0113640628
C       -0.1954278425   -0.7073988811    1.1743439005
H        0.0779176172   -0.9332378102    2.2049053756
13   
From optimize.out: Frame 13 / 43, Energy=    -286.8246623401
C        1.5624331843    0.2895661173   -0.2528113984
C        0.6361867257   -0.8953102206   -0.0817004104
C       -0.6489687359   -0.3816634480   -0.7927312840
C       -1.0424068849    0.3622041549    0.6593827959
C       -0.4550991643    1.0632671131   -0.5616842179
N        0.9814172451    1.4059517458   -0.4878233186
H        2.6448672932    0.2326340381   -0.1425449194
H        1.0319907518   -1.9006081794   -0.2367618670
H       -1.3640582098   -0.8751469664   -1.4404491497
H       -2.0427388315    0.6124411137    1.0012474977
H       -1.1197738951    1.7917116386   -1.0184341785
C       -0.2235029153   -0.7266902891    1.1625609603
H        0.0396534367   -0.9783568180    2.1917494897
13   
From optimize.out: Frame 12 / 43, Energy=    -286.8185238991
C        1.5657183767    0.3002727885   -0.2508435441
C        0.6514506372   -0.8898217434   -0.0738132890
C       -0.6338715767   -0.3934329973   -0.7817929842
C       -1.0298110700    0.3836513577    0.6762838247
C       -0.4558467179    1.0549209860   -0.5666371452
N        0.9773086372    1.4117617668   -0.4906973513
H        2.6513656130    0.2466657842   -0.1767472199
H        1.0448751002   -1.8971028122   -0.2175308036
H       -1.3582947540   -0.8691417225   -1.4328679783
H       -2.0285001772    0.6521401572    1.0103418565
H       -1.1332880590    1.7699918133   -1.0257213600
C       -0.2520570579   -0.7458627806    1.1514393410
H        0.0009510481   -1.0240425977    2.1785866532
13   
From optimize.out: Frame 11 / 43, Energy=    -286.8109168564
C        1.5696308954    0.3112367637   -0.2488452952
C        0.6679955178   -0.8841293842   -0.0659988717
C       -0.6185439970   -0.4059916885   -0.7648319476
C       -1.0187169720    0.4025927730    0.6922700250
C       -0.4547777521    1.0461833432   -0.5725254917
N        0.9714702943    1.4170142951   -0.4925175634
H        2.6573369060    0.2618847919   -0.2129261393
H        1.0572399873   -1.8933319272   -0.2017878785
H       -1.3526876021   -0.8605730593   -1.4207090365
H       -2.0156892729    0.6922456298    1.0145843033
H       -1.1445165500    1.7477357033   -1.0339750743
C       -0.2808343145   -0.7644600227    1.1416278048
H       -0.0379071401   -1.0704072180    2.1656351649
13   
From optimize.out: Frame 10 / 43, Energy=    -286.8016985184
C        1.5745935449    0.3223750003   -0.2471923463
C        0.6858425601   -0.8780966018   -0.0589532767
C       -0.6025806356   -0.4191840496   -0.7429212385
C       -1.0098880990    0.4195846649    0.7084522654
C       -0.4520120130    1.0368744143   -0.5795606973
N        0.9634388150    1.4212483151   -0.4934605300
H        2.6629394591    0.2780840112   -0.2502263057
H        1.0691551561   -1.8890976020   -0.1913151917
H       -1.3467050882   -0.8504115982   -1.4038871989
H       -2.0048052550    0.7324602471    1.0156399428
H       -1.1526751953    1.7252374444   -1.0439349610
C       -0.3099363407   -0.7819089695    1.1340068890
H       -0.0773669083   -1.1171652762    2.1533526490
13   
From optimize.out: Frame 9 / 43, Energy=    -286.7908775422
C        1.5810818058    0.3337694932   -0.2460919757
C        0.7048422264   -0.8715209112   -0.0528192372
C       -0.5858268184   -0.4327534973   -0.7178645255
C       -1.0037421860    0.4349181230    0.7260128190
C       -0.4479129057    1.0271370210   -0.5881963071
N        0.9528637276    1.4240967747   -0.4938817249
H        2.6685097925    0.2944900180   -0.2881643095
H        1.0807334164   -1.8841673941   -0.1865419103
H       -1.3398004258   -0.8392273895   -1.3836674487
H       -1.9960068881    0.7718557379    1.0161464189
H       -1.1573887646    1.7030563729   -1.0564035338
C       -0.3394449168   -0.7978081612    1.1293234095
H       -0.1179080632   -1.1638461875    2.1421483254
13   
From optimize.out: Frame 8 / 43, Energy=    -286.7786724359
C        1.5895197503    0.3456372205   -0.2453133507
C        0.7245348110   -0.8640601541   -0.0471953507
C       -0.5685999869   -0.4462478487   -0.6919702229
C       -0.9996872408    0.4482101560    0.7454943807
C       -0.4431705425    1.0172797495   -0.5991417976
N        0.9395481996    1.4255048490   -0.4942683448
H        2.6744505155    0.3096481718   -0.3263727646
H        1.0920400418   -1.8781412746   -0.1861914571
H       -1.3319626181   -0.8266274953   -1.3624608816
H       -1.9884695384    0.8091129045    1.0186502997
H       -1.1593021770    1.6816484168   -1.0719237187
C       -0.3692011290   -0.8121761381    1.1280746440
H       -0.1597000856   -1.2097885574    2.1326185644
13   
From optimize.out: Frame 7 / 43, Energy=    -286.7654518692
C        1.5992509644    0.3582345555   -0.2445817471
C        0.7440298979   -0.8559187796   -0.0412550620
C       -0.5514734367   -0.4590296464   -0.6675000409
C       -0.9953673539    0.4580990436    0.7659289883
C       -0.4383068633    1.0072920528   -0.6129439611
N        0.9236528713    1.4262911315   -0.4948202628
H        2.6800721339    0.3230324663   -0.3652766999
H        1.1028599224   -1.8712037892   -0.1877423074
H       -1.3236870417   -0.8109428509   -1.3430604173
H       -1.9792755225    0.8434440005    1.0238075685
H       -1.1598764907    1.6608886963   -1.0901097493
C       -0.3988510901   -0.8259133912    1.1308891438
H       -0.2030279910   -1.2542734891    2.1266645470
13   
From optimize.out: Frame 6 / 43, Energy=    -286.7513092227
C        1.6091032744    0.3719930605   -0.2438007180
C        0.7623645568   -0.8475651875   -0.0340716646
C       -0.5346960233   -0.4703086893   -0.6456209445
C       -0.9890786627    0.4628746276    0.7854127796
C       -0.4331952395    0.9970823163   -0.6299819956
N        0.9052803363    1.4275385634   -0.4948107438
H        2.6838213785    0.3348345259   -0.4066741683
H        1.1123374318   -1.8638355513   -0.1896814792
H       -1.3151511864   -0.7901747261   -1.3267708267
H       -1.9662837129    0.8741587522    1.0299960026
H       -1.1595904278    1.6406663253   -1.1108164967
C       -0.4274908546   -0.8404351240    1.1391260471
H       -0.2474208706   -1.2968288931    2.1276942083
13   
From optimize.out: Frame 5 / 43, Energy=    -286.7354517218
C        1.6194230148    0.3880007150   -0.2428629885
C        0.7786029457   -0.8385628069   -0.0246960464
C       -0.5177864848   -0.4788729885   -0.6261541148
C       -0.9816799241    0.4621914623    0.8024079838
C       -0.4276816510    0.9874180805   -0.6505207100
N        0.8832364638    1.4301313250   -0.4935408129
H        2.6852388610    0.3432393265   -0.4521479574
H        1.1181405186   -1.8556804071   -0.1922903992
H       -1.3055146157   -0.7633550184   -1.3124119519
H       -1.9515121059    0.8990192809    1.0346574689
H       -1.1573818795    1.6215204006   -1.1359222474
C       -0.4531339706   -0.8567484288    1.1543232196
H       -0.2899511723   -1.3383009411    2.1391585563
13   
From optimize.out: Frame 4 / 43, Energy=    -286.7165093425
C        1.6314149074    0.4071171095   -0.2412915507
C        0.7919568469   -0.8281521717   -0.0124748676
C       -0.5001811594   -0.4841359467   -0.6083020227
C       -0.9741528329    0.4593794106    0.8156739303
C       -0.4227535079    0.9791188068   -0.6731833979
N        0.8558039979    1.4351206392   -0.4917715375
H        2.6848361945    0.3453801392   -0.5003048985
H        1.1183857430   -1.8459191776   -0.1947518091
H       -1.2932717987   -0.7324945683   -1.2979298994
H       -1.9377082193    0.9185112776    1.0354189855
H       -1.1538895487    1.6031519552   -1.1657965678
C       -0.4739225162   -0.8751490970    1.1744509764
H       -0.3265181067   -1.3819283767    2.1602626592
13   
From optimize.out: Frame 3 / 43, Energy=    -286.6925010231
C        1.6461872848    0.4287006471   -0.2394222282
C        0.8023181068   -0.8168617623    0.0023038192
C       -0.4812628517   -0.4864305222   -0.5914467572
C       -0.9672729114    0.4591850964    0.8240948298
C       -0.4197659183    0.9733057660   -0.6963759273
N        0.8208450288    1.4453644493   -0.4915470806
H        2.6836518451    0.3395606078   -0.5480608627
H        1.1124883596   -1.8351196662   -0.1955061512
H       -1.2770293501   -0.7008565032   -1.2821558613
H       -1.9267261506    0.9361367263    1.0301541051
H       -1.1513425919    1.5852580738   -1.1988944191
C       -0.4885932686   -0.8957680060    1.1964058382
H       -0.3534975825   -1.4324749069    2.1904506953
13   
From optimize.out: Frame 2 / 43, Energy=    -286.6597824050
C        1.6673815350    0.4513435286   -0.2383349852
C        0.8101074644   -0.8064461871    0.0174711650
C       -0.4623813746   -0.4866272993   -0.5757409614
C       -0.9628239589    0.4664962233    0.8269594574
C       -0.4213635877    0.9707681559   -0.7192991010
N        0.7761689471    1.4594340407   -0.4966415119
H        2.6888528505    0.3290120824   -0.5883570376
H        1.1006246056   -1.8248494800   -0.1941828347
H       -1.2584632100   -0.6710203786   -1.2643091200
H       -1.9209492080    0.9573946390    1.0178219376
H       -1.1528575258    1.5684137019   -1.2333287574
C       -0.4966402208   -0.9188738765    1.2180656392
H       -0.3676563169   -1.4950451504    2.2298761099
13   
From optimize.out: Frame 1 / 43, Energy=    -286.6162339899
C        1.6817459111    0.4706942407   -0.2364596983
C        0.8168429764   -0.7988538437    0.0347513294
C       -0.4409551417   -0.4843515228   -0.5623830916
C       -0.9540350615    0.4810047191    0.8248205305
C       -0.4286931629    0.9646530371   -0.7376174076
N        0.7196660707    1.4599713725   -0.5054331949
H        2.6907142610    0.3233789170   -0.6231688622
H        1.0866975759   -1.8139895488   -0.1899795946
H       -1.2303498551   -0.6367272624   -1.2451250360
H       -1.9110879908    0.9863598388    1.0007341281
H       -1.1548895533    1.5486471521   -1.2601395130
C       -0.4998957537   -0.9407270122    1.2349402075
H       -0.3757602762   -1.5600600876    2.2650602027
13   
C6H6N->C6H6N atoms 1-13 frame 243 charge -0.000 sz -1.000 sz^2 0.542
C        1.6817459111    0.4706942407   -0.2364596983
C        0.8168429764   -0.7988538437    0.0347513294
C       -0.4409551417   -0.4843515228   -0.5623830916
C       -0.9540350615    0.4810047191    0.8248205305
C       -0.4286931629    0.9646530371   -0.7376174076
N        0.7196660707    1.4599713725   -0.5054331949
H        2.6907142610    0.3233789170   -0.6231688622
H        1.0866975759   -1.8139895488   -0.1899795946
H       -1.2303498551   -0.6367272624   -1.2451250360
H       -1.9110879908    0.9863598388    1.0007341281
H       -1.1548895533    1.5486471521   -1.2601395130
C       -0.4998957537   -0.9407270122    1.2349402075
H       -0.3757602762   -1.5600600876    2.2650602027
13   
C6H6N->C6H6N atoms 1-13 frame 244 charge -0.000 sz -1.000 sz^2 0.587
C        1.6952639079    0.4776522360   -0.2469359412
C        0.8246788019   -0.7968915716    0.0312963237
C       -0.4482646503   -0.4772098737   -0.5477393037
C       -0.9569876555    0.4946393522    0.8282308778
C       -0.4242741607    0.9565699969   -0.7320918477
N        0.7270565413    1.4551100876   -0.5166769351
H        2.7056060371    0.3252428368   -0.6347902441
H        1.0873895076   -1.8258447834   -0.1665022475
H       -1.2067477866   -0.6318032510   -1.2563556771
H       -1.9147651879    0.9941119080    1.0123566428
H       -1.1772853301    1.5309455922   -1.2399706343
C       -0.5142142110   -0.9319643550    1.2359848167
H       -0.3974558137   -1.5705581751    2.2331941697
13   
C6H6N->C6H6N atoms 1-13 frame 245 charge +0.000 sz -1.000 sz^2 0.623
C        1.7083081004    0.4833328384   -0.2573850464
C        0.8321638981   -0.7958046718    0.0272648444
C       -0.4563971371   -0.4687374573   -0.5336838520
C       -0.9596551562    0.5083424428    0.8325178370
C       -0.4199197748    0.9493293439   -0.7250367130
N        0.7374340127    1.4503709520   -0.5270430931
H        2.7208544690    0.3283668640   -0.6440030754
H        1.0892477851   -1.8382790253   -0.1436720673
H       -1.1860738934   -0.6331406109   -1.2692677185
H       -1.9173029739    1.0012862459    1.0254076721
H       -1.1995106611    1.5154642647   -1.2183124195
C       -0.5286266145   -0.9229040308    1.2367977224
H       -0.4205220542   -1.5776271556    2.1964159092
13   
C6H6N->C6H6N atoms 1-13 frame 246 charge +0.000 sz -1.000 sz^2 0.642
C        1.7208201625    0.4877325252   -0.2678305290
C        0.8393119570   -0.7955853492    0.0226597691
C       -0.4651966830   -0.4592157262   -0.5201654669
C       -0.9620094924    0.5221073111    0.8377405229
C       -0.4157368629    0.9430358601   -0.7165068738
N        0.7506396246    1.4457394876   -0.5366659241
H        2.7362980804    0.3328833248   -0.6509058137
H        1.0920810911   -1.8507019723   -0.1216110023
H       -1.1685461503   -0.6407627404   -1.2837587586
H       -1.9188656816    1.0078761518    1.0396380138
H       -1.2208583781    1.5020097534   -1.1951430938
C       -0.5430704681   -0.9134951650    1.2372484381
H       -0.4448671992   -1.5816234610    2.1553007183
13   
C6H6N->C6H6N atoms 1-13 frame 247 charge -0.000 sz -1.000 sz^2 0.643
C        1.7327195185    0.4908765759   -0.2783567429
C        0.8461142974   -0.7962050974    0.0174507310
C       -0.4745520499   -0.4489581657   -0.5072015746
C       -0.9640486429    0.5359298351    0.8438970205
C       -0.4118395016    0.9378024556   -0.7066221659
N        0.7664341180    1.4411911426   -0.5457575408
H        2.7517716328    0.3388939644   -0.6556744533
H        1.0956856603   -1.8625170985   -0.1004782855
H       -1.1540656941   -0.6544880395   -1.2993829949
H       -1.9197090020    1.0139101141    1.0547687129
H       -1.2406334807    1.4903702015   -1.1705473518
C       -0.5574876899   -0.9036317639    1.2371586907