13   
From optimize.out: Frame 2 / 3, Energy=    -286.8383134969
C        1.5482631015    0.2439600781   -0.2499162964
C        0.5831613954   -0.9257548257   -0.0945058348
C       -0.7090733236   -0.3596409117   -0.7859874656
C       -1.1198146451    0.1988849191    0.5900884062
C       -0.4422720388    1.0837288812   -0.5510927869
N        0.9666768840    1.3699051016   -0.4517862960
H        2.6206041138    0.1766951608   -0.0731473905
H        0.9604500354   -1.9282857562   -0.3077102016
H       -1.3183502057   -0.8222857861   -1.5565333331
H       -2.0927552132    0.5054232907    0.9613640526
H       -1.0832845491    1.8562957945   -0.9634132650
C       -0.1337518241   -0.6625006690    1.2284612501
H        0.2201462699   -0.7364252773    2.2541791605
13   
From optimize.out: Frame 1 / 3, Energy=    -286.8383083155
C        1.5477255974    0.2440207349   -0.2492566422
C        0.5831869512   -0.9256665192   -0.0963448576
C       -0.7104209427   -0.3606046270   -0.7864160132
C       -1.1188234227    0.1997346515    0.5899274094
C       -0.4427073848    1.0830013269   -0.5527709375
N        0.9655620787    1.3692773523   -0.4535485873
H        2.6184038945    0.1766845042   -0.0637774026
H        0.9616089138   -1.9272756960   -0.3097850277
H       -1.3210858112   -0.8234516541   -1.5561275853
H       -2.0903897572    0.5088980849    0.9634525803
H       -1.0837427399    1.8556698745   -0.9643347575
C       -0.1326904676   -0.6631843754    1.2268954763
H        0.2233730905   -0.7371036576    2.2520863449
13   
From optimize.out: Frame 42 / 43, Energy=    -286.8383083154
C        1.5477255974    0.2440207349   -0.2492566422
C        0.5831869512   -0.9256665192   -0.0963448576
C       -0.7104209427   -0.3606046270   -0.7864160132
C       -1.1188234227    0.1997346515    0.5899274094
C       -0.4427073848    1.0830013269   -0.5527709375
N        0.9655620787    1.3692773523   -0.4535485873
H        2.6184038945    0.1766845042   -0.0637774026
H        0.9616089138   -1.9272756960   -0.3097850277
H       -1.3210858112   -0.8234516541   -1.5561275853
H       -2.0903897572    0.5088980849    0.9634525803
H       -1.0837427399    1.8556698745   -0.9643347575
C       -0.1326904676   -0.6631843754    1.2268954763
H        0.2233730905   -0.7371036576    2.2520863449
13   
From optimize.out: Frame 40 / 43, Energy=    -286.8383031937
C        1.5378403132    0.2485496098   -0.2533204548
C        0.5832829248   -0.9219227837   -0.1002217410
C       -0.6940312182   -0.3667160888   -0.7711917288
C       -1.0967580583    0.2228216009    0.5966668966
C       -0.4430262528    1.0867766201   -0.5526934454
N        0.9686610078    1.3785436849   -0.4583342103
H        2.5957162321    0.1805121484   -0.0482576086
H        0.9174533661   -1.9329709911   -0.3507295719
H       -1.2709071974   -0.8433553947   -1.5630318283
H       -2.0598123267    0.5210927021    0.9903356506
H       -1.1106074301    1.8333673118   -0.9812400085
C       -0.1238699409   -0.6536688963    1.2290351627
H        0.1960585805   -0.7530295233    2.2629828878
13   
From optimize.out: Frame 37 / 43, Energy=    -286.8382922376
C        1.5464115964    0.2547697946   -0.2558182029
C        0.5917557439   -0.9175241620   -0.1007038662
C       -0.6907423706   -0.3586554791   -0.7837843837
C       -1.0858378872    0.2603785224    0.6006360972
C       -0.4465669472    1.0884616534   -0.5506399903
N        0.9773548290    1.3829676526   -0.4685085373
H        2.6109166897    0.1889912626   -0.0559504258
H        0.9609351343   -1.9230446951   -0.3202921890
H       -1.3269437969   -0.8619906710   -1.4997823226
H       -2.0718262442    0.5123728816    0.9707662299
H       -1.0957297809    1.8445358808   -0.9900114885
C       -0.1362351190   -0.6635977246    1.2103909636
H        0.1665081528   -0.8076649161    2.2436981155
13   
From optimize.out: Frame 35 / 43, Energy=    -286.8382818476
C        1.5567589733    0.2680482813   -0.2562083312
C        0.6084292508   -0.9072018248   -0.0957196432
C       -0.6809074597   -0.3608680825   -0.7963829521
C       -1.0703114605    0.3072127413    0.6197572109
C       -0.4491099496    1.0804483335   -0.5533340427
N        0.9855436505    1.3925376733   -0.4796059033
H        2.6304268141    0.2062404781   -0.0814123165
H        1.0043646557   -1.9083400809   -0.2800421887
H       -1.3750314643   -0.8755016115   -1.4505456494
H       -2.0731290839    0.5327224514    0.9689200944
H       -1.0895234923    1.8344509125   -1.0028167932
C       -0.1657668896   -0.6862459920    1.1878168016
H        0.1182564556   -0.8835032797    2.2195737134
13   
From optimize.out: Frame 33 / 43, Energy=    -286.8382555909
C        1.5614897866    0.2860451205   -0.2534370714
C        0.6314992931   -0.8971535741   -0.0841157034
C       -0.6540757193   -0.3780736271   -0.7942771771
C       -1.0468283764    0.3541110536    0.6532729152
C       -0.4543094106    1.0660090218   -0.5603011668
N        0.9823536176    1.4038572174   -0.4866573075
H        2.6425945045    0.2282032289   -0.1321747796
H        1.0275402341   -1.9018010381   -0.2436332191
H       -1.3660910012   -0.8759969419   -1.4418918190
H       -2.0476762022    0.5994740061    0.9966142027
H       -1.1148573721    1.7987189897   -1.0161099273
C       -0.2141102113   -0.7201945677    1.1665307332
H        0.0524708572   -0.9631988892    2.1961803201
13   
From optimize.out: Frame 31 / 43, Energy=    -286.8382069164
C        1.5672606631    0.3045167834   -0.2501289343
C        0.6579277242   -0.8876092755   -0.0707098349
C       -0.6278803000   -0.3983973456   -0.7750728026
C       -1.0254066552    0.3911826701    0.6825890567
C       -0.4554075413    1.0514660461   -0.5689989258
N        0.9750450683    1.4137655687   -0.4915283900
H        2.6537183657    0.2525483701   -0.1910933618
H        1.0496654720   -1.8956688773   -0.2112628597
H       -1.3561689782   -0.8658014775   -1.4279858213
H       -2.0233985374    0.6680564164    1.0120438065
H       -1.1376791624    1.7612147432   -1.0290309294
C       -0.2633708376   -0.7531072604    1.1476298350
H       -0.0143052814   -1.0421663618    2.1735491616
13   
From optimize.out: Frame 28 / 43, Energy=    -286.8380043374
C        1.5751986566    0.3233388340   -0.2471895153
C        0.6875612351   -0.8775232930   -0.0583445092
C       -0.6010806781   -0.4204751681   -0.7405356679
C       -1.0092660159    0.4211110190    0.7100928014
C       -0.4516110206    1.0359448438   -0.5804252818
N        0.9625008779    1.4214277699   -0.4936602575
H        2.6634571265    0.2794618869   -0.2538900683
H        1.0701329843   -1.8887053211   -0.1907676102
H       -1.3461687169   -0.8494271470   -1.4018806597
H       -2.0039085881    0.7362885880    1.0157192904
H       -1.1530811976    1.7231483187   -1.0451787419
C       -0.3126562855   -0.7832761771    1.1336510879
H       -0.0810783778   -1.1213141541    2.1524091322
13   
From optimize.out: Frame 26 / 43, Energy=    -286.8375016851
C        1.5875315119    0.3427214890   -0.2456262939
C        0.7198340943   -0.8658666157   -0.0484726685
C       -0.5727330787   -0.4431044705   -0.6980046157
C       -1.0005774067    0.4452051507    0.7409042178
C       -0.4442694659    1.0195680420   -0.5966402332
N        0.9427419150    1.4250678717   -0.4943844580
H        2.6730458221    0.3058883438   -0.3175378138
H        1.0892563070   -1.8796438735   -0.1861363795
H       -1.3339384923   -0.8296765300   -1.3673025569
H       -1.9901465533    0.8005321085    1.0180890964
H       -1.1588202646    1.6866530590   -1.0683716429
C       -0.3621525117   -0.8086424234    1.1284771986
H       -0.1497718770   -1.1987021515    2.1350061498
13   
From optimize.out: Frame 16 / 43, Energy=    -286.8356979632
C        1.6035631384    0.3641130863   -0.2443966287
C        0.7519851221   -0.8523212301   -0.0380576737
C       -0.5442161718   -0.4640083600   -0.6578419763
C       -0.9925368477    0.4603490441    0.7744521362
C       -0.4360511862    1.0027785247   -0.6204887917
N        0.9156815012    1.4267140674   -0.4950618836
H        2.6817054180    0.3279691224   -0.3835928158
H        1.1068692249   -1.8680788915   -0.1884252661
H       -1.3200992853   -0.8019541552   -1.3357486569
H       -1.9734731102    0.8571247862    1.0265365070
H       -1.1597207284    1.6519843849   -1.0992918678
C       -0.4113427368   -0.8320873991    1.1346237116
H       -0.2223643382   -1.2725829802    2.1272932058
13   
From optimize.out: Frame 14 / 43, Energy=    -286.8295200433
C        1.6205570608    0.3896324231   -0.2428920552
C        0.7797879161   -0.8376506536   -0.0234880733
C       -0.5162208344   -0.4794172395   -0.6243753831
C       -0.9808811095    0.4621189916    0.8036551114
C       -0.4271939596    0.9865787854   -0.6527537195
N        0.8807402997    1.4304601817   -0.4936477938
H        2.6851933995    0.3431705055   -0.4569037526
H        1.1180090961   -1.8548791171   -0.1923341610
H       -1.3045228452   -0.7605579495   -1.3108497012
H       -1.9500755145    0.9011413875    1.0347419392
H       -1.1570166176    1.6197231837   -1.1388683238
C       -0.4550594333   -0.8582686581    1.1563654531
H       -0.2933174579   -1.3420518405    2.1413504597
13   
From optimize.out: Frame 11 / 43, Energy=    -286.8109168564
C        1.6412976799    0.4213477281   -0.2402326225
C        0.7988030948   -0.8206837951   -0.0025399941
C       -0.4876366404   -0.4857177470   -0.5969352489
C       -0.9694565458    0.4594619798    0.8212988943
C       -0.4207250278    0.9751675552   -0.6887889223
N        0.8325503928    1.4418114538   -0.4919078697
H        2.6840351240    0.3411761893   -0.5324484834
H        1.1142717202   -1.8388361145   -0.1950549121
H       -1.2825859921   -0.7114557515   -1.2871900767
H       -1.9302155471    0.9306095536    1.0319052127
H       -1.1521389299    1.5911208962   -1.1880562809
C       -0.4837067630   -0.8886902519    1.1892850267
H       -0.3444925656   -1.4153116961    2.1806652769
13   
From optimize.out: Frame 9 / 43, Energy=    -286.7908775422
C        1.6691412303    0.4534743608   -0.2383155033
C        0.8108419625   -0.8056071650    0.0196237532
C       -0.4598894076   -0.4864007500   -0.5740128036
C       -0.9616509882    0.4684777131    0.8267013175
C       -0.4222092994    0.9699541941   -0.7216347493
N        0.7694549403    1.4593412106   -0.4980021206
H        2.6890629303    0.3279685043   -0.5928259274
H        1.0987473570   -1.8236794931   -0.1934651271
H       -1.2552368138   -0.6669630816   -1.2617850551
H       -1.9195828756    0.9612468574    1.0157553648
H       -1.1530456939    1.5659405875   -1.2367285528
C       -0.4970275275   -0.9212626912    1.2202922267
H       -0.3686058144   -1.5024902468    2.2343971771
13   
From optimize.out: Frame 7 / 43, Energy=    -286.7654518692
C        1.6935899034    0.4765518470   -0.2458517782
C        0.8236093883   -0.7972212408    0.0317966259
C       -0.4474444017   -0.4781576078   -0.5494602677
C       -0.9564885766    0.4931685435    0.8278012429
C       -0.4247943887    0.9575056860   -0.7329168387
N        0.7262347895    1.4555548765   -0.5155799760
H        2.7037078775    0.3246084995   -0.6336261694
H        1.0870921280   -1.8244971483   -0.1692389744
H       -1.2099013648   -0.6325132650   -1.2547217570
H       -1.9141048972    0.9935164297    1.0108913287
H       -1.1744120557    1.5330840540   -1.2426732837
C       -0.5123990810   -0.9327976675    1.2360621630
H       -0.3946893208   -1.5688030070    2.2375176846
13   
From optimize.out: Frame 4 / 43, Energy=    -286.7165093425
C        1.7227969460    0.4880167559   -0.2698282174
C        0.8403460068   -0.7957728464    0.0218574071
C       -0.4668361552   -0.4575744631   -0.5179063133
C       -0.9621992950    0.5246285166    0.8387596981
C       -0.4150724293    0.9420936002   -0.7150082034
N        0.7533293826    1.4448165250   -0.5384958513
H        2.7388045599    0.3334615858   -0.6520386197
H        1.0924626172   -1.8527790650   -0.1179275921
H       -1.1663741826   -0.6431206777   -1.2860851603
H       -1.9187859161    1.0092571557    1.0421454211
H       -1.2240708498    1.5000173083   -1.1912432113
C       -0.5454031112   -0.9115972715    1.2374541110
H       -0.4489975734   -1.5814471235    2.1483165313
13   
From optimize.out: Frame 2 / 43, Energy=    -286.6597824050
C        1.7473910660    0.4928647114   -0.2931463829
C        0.8544815313   -0.7983926101    0.0093977307
C       -0.4879148087   -0.4347584856   -0.4908979434
C       -0.9661264784    0.5547325587    0.8535097570
C       -0.4073242813    0.9327305174   -0.6916923452
N        0.7912706977    1.4350336437   -0.5579509479
H        2.7721091665    0.3491495565   -0.6593645188
H        1.1012113517   -1.8762841015   -0.0740091738
H       -1.1393245001   -0.6822598747   -1.3202583731
H       -1.9200498943    1.0215862530    1.0758682017
H       -1.2631494060    1.4774039768   -1.1359796516
C       -0.5765007548   -0.8890870635    1.2359135192
H       -0.5060736897   -1.5827190821    2.0486101281
13   
C6H6N->C6H6N atoms 1-13 frame 243 charge -0.000 sz -1.000 sz^2 0.542
C        1.7676751587    0.4927859423   -0.3182855253
C        0.8665307298   -0.8038538549   -0.0063186551
C       -0.5103773592   -0.4127262007   -0.4682828321
C       -0.9688502659    0.5847165522    0.8708957381
C       -0.4020882621    0.9294756543   -0.6651480840
N        0.8365206296    1.4256571291   -0.5781365942
H        2.8033733423    0.3720197913   -0.6597212301
H        1.1117139408   -1.8912014956   -0.0370903316
H       -1.1219890461   -0.7427226433   -1.3492275350
H       -1.9216152090    1.0323171671    1.1094734114
H       -1.2886576226    1.4616387816   -1.0790635837
C       -0.6061309192   -0.8627570736    1.2294633713
H       -0.5661051170   -1.5853497496    1.9514418504
13   
C6H6N->C6H6N atoms 1-13 frame 245 charge +0.000 sz -1.000 sz^2 0.623
C        1.7836739313    0.4889094618   -0.3479389539
C        0.8769308488   -0.8110454781   -0.0261706294
C       -0.5343086406   -0.3942361423   -0.4505034904
C       -0.9707603205    0.6160546328    0.8899080422
C       -0.3996957229    0.9327372337   -0.6369830730
N        0.8866707263    1.4163871768   -0.6031387024
H        2.8326951514    0.4029988887   -0.6559587886
H        1.1240660363   -1.8953062575   -0.0069149933
H       -1.1088702259   -0.8189812496   -1.3640958528
H       -1.9264057006    1.0434225510    1.1411268928
H       -1.2991628983    1.4513731438   -1.0239461618
C       -0.6342255916   -0.8295046786    1.2162437477
H       -0.6306075936   -1.6028092825    1.8683719630
13   
C6H6N->C6H6N atoms 1-13 frame 248 charge -0.000 sz -1.000 sz^2 0.635
C        1.7950328535    0.4816854862   -0.3820918008
C        0.8858425348   -0.8191172119   -0.0495149078
C       -0.5585069178   -0.3831318003   -0.4380938141
C       -0.9719328333    0.6480007156    0.9099611342
C       -0.4001094922    0.9422232255   -0.6084192969
N        0.9375490752    1.4072922277   -0.6339592900
H        2.8589736528    0.4409692602   -0.6493779027
H        1.1389485465   -1.8890524887    0.0155782491
H       -1.0965989790   -0.9021800504   -1.3572174215
H       -1.9356426397    1.0553047604    1.1693624616
H       -1.2949071372    1.4475429337   -0.9762877203
C       -0.6590528142   -0.7899890778    1.1964113405
H       -0.6995958495   -1.6395479802    1.8036489688
13   
C6H6N->C6H6N atoms 1-13 frame 250 charge +0.000 sz -1.000 sz^2 0.619
C        1.8022922596    0.4707199507   -0.4181064565
C        0.8935322126   -0.8281060002   -0.0749599130
C       -0.5815128338   -0.3824413633   -0.4304715707
C       -0.9724647213    0.6780894604    0.9320091848
C       -0.4025755724    0.9561586056   -0.5785979248
N        0.9855077939    1.3984063799   -0.6678972013
H        2.8811029522    0.4827044984   -0.6391990187
H        1.1571050879   -1.8773474411    0.0296489767
H       -1.0832176439   -0.9830150179   -1.3272778997
H       -1.9482958828    1.0662444317    1.1952258757
H       -1.2797180389    1.4523552031   -0.9396909792
C       -0.6795066717   -0.7493250015    1.1718149953
H       -0.7722489414   -1.6844437059    1.7475019314
13   
C6H6N->C6H6N atoms 1-13 frame 252 charge -0.000 sz -1.000 sz^2 0.614
C        1.8067337217    0.4551945605   -0.4534264363
C        0.9004635139   -0.8384258105   -0.1019279667
C       -0.6026021043   -0.3934062019   -0.4266811225
C       -0.9726326974    0.7042827459    0.9579187657
C       -0.4061860546    0.9723867291   -0.5451858688
N        1.0291825834    1.3899730940   -0.7017434903
H        2.8984324042    0.5250168986   -0.6234366717
H        1.1793953427   -1.8666860365    0.0353757434
H       -1.0677273593   -1.0562152417   -1.2780325562
H       -1.9622742107    1.0741997434    1.2214972459
H       -1.2590877084    1.4685947202   -0.9151849588
C       -0.6961466499   -0.7125763429    1.1436594971
H       -0.8475507813   -1.7223388582    1.6871678192
13   
C6H6N->C6H6N atoms 1-13 frame 255 charge +0.000 sz -1.000 sz^2 0.625
C        1.8095692307    0.4348332266   -0.4859522788
C        0.9071177714   -0.8499219538   -0.1301415771
C       -0.6210368036   -0.4157676331   -0.4262307619
C       -0.9728189206    0.7250423298    0.9888085081
C       -0.4103055133    0.9888413758   -0.5066306173
N        1.0676295414    1.3829390106   -0.7329019247
H        2.9099576666    0.5645191435   -0.6005404538
H        1.2063395562   -1.8622810634    0.0333605811
H       -1.0505405221   -1.1190101382   -1.2159835081
H       -1.9753580241    1.0778397522    1.2503888394
H       -1.2378322905    1.4983714082   -0.9031946205
C       -0.7099467962   -0.6831922310    1.1126517803
H       -0.9227748959   -1.7422132271    1.6163660335
13   
C6H6N->C6H6N atoms 1-13 frame 257 charge -0.000 sz -1.000 sz^2 0.652
C        1.8116586521    0.4104934569   -0.5141190315
C        0.9139593419   -0.8617416397   -0.1591406355
C       -0.6359166230   -0.4475371973   -0.4287843131
C       -0.9734732044    0.7395029460    1.0245435067
C       -0.4148047262    1.0038501881   -0.4629699451
N        1.0999008485    1.3787233876   -0.7595164579
H        2.9146559097    0.5977474894   -0.5703561977
H        1.2376074633   -1.8659948059    0.0247950697
H       -1.0340778252   -1.1715488588   -1.1502893805
H       -1.9858288740    1.0768454282    1.2829452554
H       -1.2178419863    1.5409319929   -0.9022535799
C       -0.7218343473   -0.6627583814    1.0796605694
H       -0.9940046291   -1.7385140060    1.5354851400
13   
C6H6N->C6H6N atoms 1-13 frame 259 charge +0.000 sz -1.000 sz^2 0.714
C        1.8134446825    0.3838160009   -0.5374021695
C        0.9214904981   -0.8727730818   -0.1885679608
C       -0.6464917293   -0.4856363932   -0.4338701044
C       -0.9749980305    0.7478741644    1.0643982707
C       -0.4200827529    1.0167904170   -0.4151442320
N        1.1258172322    1.3786405019   -0.7808190072
H        2.9122310333    0.6222323053   -0.5338361272
H        1.2722264388   -1.8756254163    0.0110239058
H       -1.0224996631   -1.2185167831   -1.0913474107
H       -1.9929364397    1.0720198150    1.3197145799
H       -1.1970476074    1.5925050618   -0.9080165568
C       -0.7327481538   -0.6507399657    1.0454042618
H       -1.0584055083   -1.7105866263    1.4484625504
13   
C6H6N->C6H6N atoms 1-13 frame 261 charge -0.000 sz -1.000 sz^2 0.803
C        1.8150787504    0.3566463013   -0.5561358440
C        0.9303235068   -0.8819193187   -0.2183187500
C       -0.6520273065   -0.5269437632   -0.4410574429
C       -0.9776041301    0.7511353878    1.1075510536
C       -0.4266934623    1.0280967109   -0.3643575786
N        1.1459607465    1.3836678789   -0.7969370429
H        2.9031893989    0.6365198512   -0.4924097120
H        1.3090982623   -1.8864975332   -0.0069027499
H       -1.0206486834   -1.2676992961   -1.0488436029
H       -1.9966665742    1.0650368425    1.3612814124
H       -1.1714542847    1.6481924051   -0.9147651576
C       -0.7434926058   -0.6451382253    1.0102212221
H       -1.1150636178   -1.6610972413    1.3606741927
13   
C6H6N->C6H6N atoms 1-13 frame 264 charge -0.000 sz -1.000 sz^2 0.944
C        1.8165181366    0.3309165840   -0.5712532697
C        0.9412218098   -0.8880894597   -0.2483275473
C       -0.6516022321   -0.5689021429   -0.4502832406
C       -0.9813070406    0.7506695528    1.1526178184
C       -0.4351144622    1.0386497711   -0.3125165773
N        1.1609895397    1.3943628677   -0.8089150074
H        2.8886484549    0.6397159987   -0.4483306510
H        1.3472955498   -1.8932303235   -0.0278744250
H       -1.0321156231   -1.3256682063   -1.0292533573
H       -1.9973964900    1.0582159018    1.4079381820
H       -1.1378808913    1.7028506042   -0.9175510189
C       -0.7544724351   -0.6431088054    0.9743598820
H       -1.1647843165   -1.5963823425    1.2793892122
13   
C6H6N->C6H6N atoms 1-13 frame 266 charge +0.000 sz -1.000 sz^2 1.012
C        1.8174813804    0.3083382103   -0.5847139211
C        0.9552744933   -0.8902853929   -0.2788071745
C       -0.6441415815   -0.6105916747   -0.4621064134
C       -0.9860160943    0.7482895436    1.1975406542
C       -0.4459857927    1.0493696162   -0.2623437051
N        1.1711401379    1.4108405136   -0.8195698119
H        2.8700384152    0.6315767226   -0.4050206095
H        1.3868154186   -1.8907502255   -0.0503361071
H       -1.0568598117   -1.3940039110   -1.0324229141
H       -1.9957069126    1.0544505120    1.4598388424
H       -1.0951486169    1.7514750236   -0.9138165711
C       -0.7655952065   -0.6410593302    0.9379296307
H       -1.2112958293   -1.5276496076    1.2138281004
13   
C6H6N->C6H6N atoms 1-13 frame 268 charge +0.000 sz -1.000 sz^2 1.064
C        1.8173549484    0.2903331569   -0.5996130581
C        0.9740100794   -0.8875459748   -0.3105290956
C       -0.6281690556   -0.6530319595   -0.4776804810
C       -0.9915339950    0.7462041217    1.2397118391
C       -0.4603767431    1.0611779051   -0.2172786329
N        1.1757660654    1.4330425285   -0.8337874626
H        2.8490402730    0.6121585673   -0.3671086923
H        1.4289012999   -1.8745197879   -0.0724091066
H       -1.0906339750   -1.4689158919   -1.0517098021
H       -1.9918997204    1.0573208767    1.5177095875
H       -1.0440310452    1.7891883826   -0.9034254593
C       -0.7763790308   -0.6349614803    0.9010074357
H       -1.2620491012   -1.4704504442    1.1751129281
13   
C6H6N->C6H6N atoms 1-13 frame 271 charge +0.000 sz -1.000 sz^2 1.139
C        1.7732183611    0.2951061918   -0.5864611538
C        0.9652346720   -0.8812114143   -0.3215260816
C       -0.5987562960   -0.6403246947   -0.4922610927
C       -0.9542455181    0.7446390400    1.2063133707
C       -0.4727216224    1.0557829494   -0.2548516081
N        1.1198087733    1.4315761538   -0.8193549093
H        2.8116401034    0.5778814852   -0.3534976300
H        1.4121403692   -1.8651984377   -0.0967864773
H       -1.0688287032   -1.4367976276   -1.0831180274
H       -1.9379645096    1.0694619930    1.5270225807
H       -1.0582604856    1.7658023835   -0.9211673409
C       -0.7541919049   -0.6368864699    0.9181723037
H       -1.2370732394   -1.4798315525    1.2775160659
13   
From optimize.out: Frame 1 / 21, Energy=    -286.6753260616
C        1.7282367776    0.3005775646   -0.5656961335
C        0.9560525308   -0.8768072796   -0.3321811128
C       -0.5674403162   -0.6245956303   -0.5033779003
C       -0.9160578630    0.7428591023    1.1695188328
C       -0.4796282774    1.0395606857   -0.2935411282
N        1.0488262750    1.4216264835   -0.7871081098
H        2.7732535571    0.5427527425   -0.3349277637
H        1.3939260226   -1.8607600381   -0.1262423894
H       -1.0509676655   -1.3936505964   -1.1141257348
H       -1.8793249653    1.0845694469    1.5339650174
H       -1.0737413837    1.7304067174   -0.9385670630
C       -0.7312141141   -0.6336442235    0.9319351140
H       -1.2019205780   -1.4728949752    1.3603483711
13   
From optimize.out: Frame 3 / 21, Energy=    -286.7601272681
C        1.6950270829    0.3109655830   -0.5433106433
C        0.9579643376   -0.8792733376   -0.3503886085
C       -0.5378386533   -0.6171082841   -0.5108897851
C       -0.8859410237    0.7403305372    1.1355008363
C       -0.4804714865    1.0155132330   -0.3329815389
N        0.9773890085    1.4103213233   -0.7411866058
H        2.7471458159    0.5186338281   -0.3287969476
H        1.3912421705   -1.8644431510   -0.1711738530
H       -1.0431181855   -1.3513937720   -1.1434137354
H       -1.8147647753    1.1157152324    1.5528156658
H       -1.0903998816    1.6908081424   -0.9588217647
C       -0.7290639406   -0.6321188613    0.9475319184
H       -1.1871704688   -1.4579504735    1.4451150619
13   
From optimize.out: Frame 5 / 21, Energy=    -286.8069980554
C        1.6818714928    0.3210114644   -0.5312839118
C        0.9783085486   -0.8849640907   -0.3821080338
C       -0.5070273483   -0.6197795815   -0.5080295098
C       -0.8785781396    0.7358530449    1.1126740322
C       -0.4802232173    0.9868380075   -0.3607740485
N        0.9279774936    1.4009932474   -0.6909933281
H        2.7424615215    0.4991691343   -0.3488831501
H        1.4147078195   -1.8700376019   -0.2373309477
H       -1.0340205955   -1.3184321383   -1.1610933413
H       -1.7585429873    1.1617751792    1.5847826890
H       -1.1104060319    1.6458903302   -0.9711565900
C       -0.7615435050   -0.6276408507    0.9674578511
H       -1.2149850511   -1.4306761447    1.5267382887
13   
From optimize.out: Frame 8 / 21, Energy=    -286.8464497014
C        1.6827490221    0.3276516343   -0.5314192441
C        1.0080672565   -0.8904860437   -0.4195731008
C       -0.4752716619   -0.6284534871   -0.4930651513
C       -0.8905157051    0.7303359949    1.1024373192
C       -0.4792429891    0.9588096197   -0.3718180729
N        0.9034229003    1.3962619387   -0.6475125917
H        2.7512128760    0.4846925548   -0.3904225240
H        1.4534005579   -1.8737183974   -0.3111865300
H       -1.0196022280   -1.2968265310   -1.1627439054
H       -1.7185716782    1.2101756470    1.6173218415
H       -1.1266079697    1.6012325983   -0.9744378194
C       -0.8143374820   -0.6208772814    0.9897224735
H       -1.2747028988   -1.3987982471    1.5926973053
13   
From optimize.out: Frame 10 / 21, Energy=    -286.8617412617
C        1.6870744755    0.3353809630   -0.5299088377
C        1.0349214147   -0.8954304874   -0.4503680313
C       -0.4456845761   -0.6440183740   -0.4698753947
C       -0.9146654073    0.7264970410    1.0949169923
C       -0.4766545989    0.9320022468   -0.3735836079
N        0.8936947048    1.3994003738   -0.5992643268
H        2.7622122634    0.4802402246   -0.4434321198
H        1.4947915665   -1.8741804669   -0.3799616765
H       -1.0069176440   -1.2830284911   -1.1552105939
H       -1.6784571128    1.2717198501    1.6436953666
H       -1.1408144671    1.5495380027   -0.9813765317
C       -0.8721300903   -0.6189415354    1.0074853779
H       -1.3373705283   -1.3791793472    1.6368833837
13   
From optimize.out: Frame 12 / 21, Energy=    -286.8708357541
C        1.6900023995    0.3440201114   -0.5226961987
C        1.0554814144   -0.8999163601   -0.4721656187
C       -0.4213318645   -0.6634929180   -0.4427989433
C       -0.9514095336    0.7218164222    1.0824214220
C       -0.4744771480    0.9073549311   -0.3723853504
N        0.8881578276    1.4036745441   -0.5433953438
H        2.7686622297    0.4861227960   -0.4929359209
H        1.5348504275   -1.8709499336   -0.4380288775
H       -1.0000227703   -1.2686687705   -1.1469751455
H       -1.6232211680    1.3457075804    1.6674336047
H       -1.1532307057    1.4893906386   -0.9997365619
C       -0.9308759182   -0.6197262884    1.0172441080
H       -1.3825851905   -1.3753327533    1.6640188261
13   
From optimize.out: Frame 14 / 21, Energy=    -286.8749847038
C        1.6880068030    0.3522059974   -0.5090700033
C        1.0657388296   -0.9028481575   -0.4841042604
C       -0.4095277564   -0.6838747162   -0.4167823684
C       -1.0075200941    0.7177155270    1.0606376918
C       -0.4771280666    0.8890265960   -0.3708264764
N        0.8808701719    1.4066448331   -0.4845175873
H        2.7665568194    0.5004850852   -0.5214817513
H        1.5662485979   -1.8641288168   -0.4796657872
H       -0.9974211904   -1.2535667752   -1.1458943192
H       -1.5426788631    1.4177589926    1.6963599698
H       -1.1558317536    1.4289520300   -1.0379028096
C       -0.9894510922   -0.6204356850    1.0147331759
H       -1.3878624054   -1.3879349106    1.6785145258
13   
From optimize.out: Frame 18 / 21, Energy=    -286.8754023048
C        1.6798117191    0.3574245570   -0.4900741484
C        1.0622498947   -0.9031121809   -0.4886466257
C       -0.4140966574   -0.6968108522   -0.4052926998
C       -1.0741166154    0.7182219458    1.0311288641
C       -0.4880080897    0.8811987418   -0.3735176455
N        0.8703559388    1.4090345304   -0.4331431346
H        2.7574552679    0.5140116390   -0.5127002107
H        1.5759784635   -1.8581190449   -0.5024460427
H       -0.9997291733   -1.2405672192   -1.1583057690
H       -1.4453433606    1.4506023938    1.7407357963
H       -1.1413062557    1.3855529551   -1.0955560306
C       -1.0373899166   -0.6184021544    0.9987691009
H       -1.3458612152   -1.3990353114    1.6890485458
13   
From optimize.out: Frame 20 / 21, Energy=    -286.8754496250
C        1.6734165274    0.3585994486   -0.4786081570
C        1.0560964190   -0.9023133348   -0.4899042838
C       -0.4210820371   -0.6979284812   -0.4122503498
C       -1.0940610298    0.7178317038    1.0191400178
C       -0.4966459967    0.8809769576   -0.3786482585
N        0.8626220794    1.4102193109   -0.4174465208
H        2.7509730711    0.5169359842   -0.4918985161
H        1.5698937606   -1.8573436279   -0.5079707162
H       -1.0049221581   -1.2412848790   -1.1669316395
H       -1.4016860955    1.4518428844    1.7577843526
H       -1.1335018324    1.3801692155   -1.1194248033