13   
From optimize.out: Frame 2 / 3, Energy=    -286.8383134969
C        1.5482631015    0.2439600781   -0.2499162964
C        0.5831613954   -0.9257548257   -0.0945058348
C       -0.7090733236   -0.3596409117   -0.7859874656
C       -1.1198146451    0.1988849191    0.5900884062
C       -0.4422720388    1.0837288812   -0.5510927869
N        0.9666768840    1.3699051016   -0.4517862960
H        2.6206041138    0.1766951608   -0.0731473905
H        0.9604500354   -1.9282857562   -0.3077102016
H       -1.3183502057   -0.8222857861   -1.5565333331
H       -2.0927552132    0.5054232907    0.9613640526
H       -1.0832845491    1.8562957945   -0.9634132650
C       -0.1337518241   -0.6625006690    1.2284612501
H        0.2201462699   -0.7364252773    2.2541791605
13   
From optimize.out: Frame 1 / 3, Energy=    -286.8383083155
C        1.5414319490    0.2511560619   -0.2543670894
C        0.5868333011   -0.9200796235   -0.1004237665
C       -0.6926530882   -0.3633384411   -0.7764684452
C       -1.0921821649    0.2385591262    0.5983301158
C       -0.4445099146    1.0874827018   -0.5518329835
N        0.9723039910    1.3803974658   -0.4625975717
H        2.6020856995    0.1840651626   -0.0514811397
H        0.9356735876   -1.9288115625   -0.3379753560
H       -1.2943882860   -0.8511641586   -1.5365283063
H       -2.0648465341    0.5174388245    0.9821354510
H       -1.1043732295    1.8380472917   -0.9849155331
C       -0.1290513375   -0.6578293861    1.2212226598
H        0.1836760266   -0.7759234625    2.2549019648
13   
From optimize.out: Frame 42 / 43, Energy=    -286.8383083154
C        1.5534688892    0.2638262125   -0.2560842848
C        0.6031276908   -0.9104839472   -0.0973044422
C       -0.6840345985   -0.3601645563   -0.7923770722
C       -1.0752482913    0.2923211877    0.6136774023
C       -0.4483013687    1.0829962736   -0.5524774334
N        0.9829399074    1.3894947598   -0.4760773504
H        2.6242233144    0.2007558640   -0.0733163747
H        0.9905556703   -1.9130156056   -0.2928402037
H       -1.3597413604   -0.8712056309   -1.4662010948
H       -2.0727148290    0.5262520391    0.9695070973
H       -1.0914968631    1.8376575603   -0.9987451787
C       -0.1563768762   -0.6790446786    1.1949945522
H        0.1335987149   -0.8593894783    2.2272443832
13   
From optimize.out: Frame 40 / 43, Energy=    -286.8383031937
C        1.5602464067    0.2813150866   -0.2541654300
C        0.6254358905   -0.8997945137   -0.0871655183
C       -0.6611277932   -0.3735515659   -0.7948306291
C       -1.0530003370    0.3417849666    0.6444641230
C       -0.4529428581    1.0698040456   -0.5584700268
N        0.9831920406    1.4008821490   -0.4848040165
H        2.6393965214    0.2224308511   -0.1188330940
H        1.0214490939   -1.9035196673   -0.2532024361
H       -1.3684407857   -0.8758667563   -1.4441662690
H       -2.0543658765    0.5819299746    0.9893354762
H       -1.1081989746    1.8081102613   -1.0126161485
C       -0.2014043385   -0.7112720057    1.1721252614
H        0.0697610105   -0.9422528260    2.2023287077
13   
From optimize.out: Frame 35 / 43, Energy=    -286.8382818476
C        1.5657949411    0.2998252391   -0.2509691549
C        0.6512152719   -0.8900333940   -0.0741147382
C       -0.6345335705   -0.3932354051   -0.7799504454
C       -1.0308474731    0.3817669975    0.6751431663
C       -0.4551286314    1.0551597588   -0.5667898165
N        0.9769013378    1.4112489859   -0.4902912031
H        2.6508930604    0.2463650443   -0.1761288650
H        1.0440459707   -1.8972263605   -0.2194844788
H       -1.3586890334   -0.8683909830   -1.4315177504
H       -2.0295647251    0.6506374423    1.0081249027
H       -1.1318827465    1.7707402978   -1.0257491754
C       -0.2508593267   -0.7447478962    1.1524303991
H        0.0026549249   -1.0221097269    2.1792971597
13   
From optimize.out: Frame 33 / 43, Energy=    -286.8382555909
C        1.5732511094    0.3187209375   -0.2479106871
C        0.6802908006   -0.8799978386   -0.0613782804
C       -0.6076558320   -0.4150584842   -0.7490091821
C       -1.0132260414    0.4137682475    0.7033448945
C       -0.4525424780    1.0397528936   -0.5776218822
N        0.9655785326    1.4195478869   -0.4931372145
H        2.6610677700    0.2728587895   -0.2384832088
H        1.0651113820   -1.8904137949   -0.1957960177
H       -1.3486222312   -0.8534445075   -1.4082854312
H       -2.0086903502    0.7195481641    1.0148175287
H       -1.1493023849    1.7324877266   -1.0412169564
C       -0.3005643460   -0.7758743835    1.1370807039
H       -0.0646959308   -1.1018956370    2.1575957332
13   
From optimize.out: Frame 31 / 43, Energy=    -286.8382069164
C        1.5846042278    0.3381208887   -0.2459973348
C        0.7121739195   -0.8686334045   -0.0508158147
C       -0.5794615674   -0.4377332571   -0.7080996400
C       -1.0026397051    0.4394862504    0.7335909260
C       -0.4460120321    1.0234551834   -0.5927915081
N        0.9474318345    1.4242038696   -0.4942125643
H        2.6707698823    0.2996158509   -0.3024306039
H        1.0847172609   -1.8817946675   -0.1872356325
H       -1.3368414163   -0.8343644685   -1.3755098965
H       -1.9934130626    0.7852834874    1.0175266074
H       -1.1574580594    1.6953154483   -1.0628666557
C       -0.3504042577   -0.8026215784    1.1297052551
H       -0.1334670243   -1.1803336026    2.1391368618
13   
From optimize.out: Frame 28 / 43, Energy=    -286.8380043374
C        1.5999043477    0.3592310253   -0.2446772670
C        0.7446475084   -0.8554126027   -0.0404346182
C       -0.5507243945   -0.4592376053   -0.6670080265
C       -0.9943718907    0.4568928548    0.7667957194
C       -0.4379267891    1.0066102838   -0.6150459950
N        0.9218573182    1.4263383672   -0.4949072793
H        2.6797290965    0.3229297742   -0.3685175252
H        1.1028495467   -1.8707182899   -0.1879028888
H       -1.3232577148   -0.8082810471   -1.3429499921
H       -1.9772783785    0.8442090184    1.0246086111
H       -1.1595152215    1.6598965842   -1.0922351520
C       -0.4001163812   -0.8267367094    1.1332209341
H       -0.2057970470   -1.2557216535    2.1290534793
13   
From optimize.out: Frame 26 / 43, Energy=    -286.8375016851
C        1.6168725729    0.3840995223   -0.2432182649
C        0.7737599342   -0.8408314119   -0.0266469388
C       -0.5222905621   -0.4760764081   -0.6316313451
C       -0.9834082145    0.4617352456    0.7973235533
C       -0.4291143134    0.9900910847   -0.6457582931
N        0.8883159746    1.4296479788   -0.4939543856
H        2.6844371630    0.3398746618   -0.4410090551
H        1.1155938374   -1.8577409878   -0.1914866653
H       -1.3079000057   -0.7695331474   -1.3162480959
H       -1.9551483962    0.8915980561    1.0329629023
H       -1.1576029015    1.6267178022   -1.1302876696
C       -0.4455811250   -0.8525922446    1.1516515807
H       -0.2779339637   -1.3269901517    2.1383026771
13   
From optimize.out: Frame 16 / 43, Energy=    -286.8356979632
C        1.6370457349    0.4148459100   -0.2407778213
C        0.7949048749   -0.8241620977   -0.0068344696
C       -0.4934965629   -0.4844261071   -0.6025606327
C       -0.9717986464    0.4600066824    0.8176818184
C       -0.4220511957    0.9775069224   -0.6814015006
N        0.8424295981    1.4394843784   -0.4922645641
H        2.6842725771    0.3415850355   -0.5169613834
H        1.1150379035   -1.8421250214   -0.1944971426
H       -1.2870831719   -0.7215219817   -1.2920404344
H       -1.9342869535    0.9245684117    1.0324867578
H       -1.1531388836    1.5969845280   -1.1779724696
C       -0.4778338973   -0.8824536520    1.1825363267
H       -0.3340013771   -1.4002930086    2.1726055155
13   
From optimize.out: Frame 14 / 43, Energy=    -286.8295200433
C        1.6638237161    0.4473388708   -0.2386816315
C        0.8085427999   -0.8084864744    0.0153909582
C       -0.4651885272   -0.4862703112   -0.5783904934
C       -0.9631416804    0.4667559036    0.8256695718
C       -0.4219258357    0.9709498330   -0.7153619088
N        0.7815048032    1.4559934073   -0.4968382509
H        2.6881027283    0.3304908856   -0.5812951453
H        1.1017121737   -1.8265740790   -0.1937687416
H       -1.2604599136   -0.6754602165   -1.2666368631
H       -1.9216134852    0.9553957969    1.0188396354
H       -1.1528725216    1.5707494802   -1.2274332046
C       -0.4944835504   -0.9150420618    1.2143705240
H       -0.3640007069   -1.4858410346    2.2241355496
13   
From optimize.out: Frame 9 / 43, Energy=    -286.7908775422
C        1.6955643884    0.4773269098   -0.2474726585
C        0.8247408347   -0.7971233249    0.0311247044
C       -0.4487553433   -0.4767661245   -0.5473271243
C       -0.9568746386    0.4952953336    0.8285420679
C       -0.4241371546    0.9564637821   -0.7317061603
N        0.7280664665    1.4548289313   -0.5171291590
H        2.7060805201    0.3252069951   -0.6348709072
H        1.0874551894   -1.8264090921   -0.1657701686
H       -1.2069587946   -0.6332303584   -1.2568420186
H       -1.9144213483    0.9945805508    1.0130042006
H       -1.1777691416    1.5308486412   -1.2391964541
C       -0.5146302540   -0.9313644561    1.2361562629
H       -0.3983607242   -1.5696577878    2.2314874148
13   
From optimize.out: Frame 7 / 43, Energy=    -286.7654518692
C        1.7247240273    0.4883966192   -0.2716553208
C        0.8414536010   -0.7959781189    0.0208811246
C       -0.4684877808   -0.4557867088   -0.5157900626
C       -0.9625070109    0.5269873298    0.8399154444
C       -0.4144653203    0.9413599524   -0.7131812808
N        0.7563022883    1.4440499837   -0.5400202625
H        2.7414141546    0.3346908225   -0.6526126432
H        1.0931481275   -1.8546208108   -0.1144863483
H       -1.1642546948   -0.6461874439   -1.2887628149
H       -1.9188849556    1.0102232066    1.0447877820
H       -1.2271328645    1.4982454324   -1.1869130147
C       -0.5478397785   -0.9098334759    1.2373333974
H       -0.4534697934   -1.5815467883    2.1405039995
13   
From optimize.out: Frame 4 / 43, Energy=    -286.7165093425
C        1.7491648467    0.4928578233   -0.2953447226
C        0.8555351961   -0.7988701789    0.0080233817
C       -0.4898790887   -0.4328318309   -0.4889203224
C       -0.9663646651    0.5573545655    0.8550301069
C       -0.4068664077    0.9324458898   -0.6893711323
N        0.7952276633    1.4342136967   -0.5597161198
H        2.7748431213    0.3511494873   -0.6593957121
H        1.1021297704   -1.8775885812   -0.0707807360
H       -1.1378085686   -0.6875471554   -1.3227916361
H       -1.9201867762    1.0225246380    1.0788068726
H       -1.2653800201    1.4760253596   -1.1310025187
C       -0.5790918204   -0.8867845879    1.2353494739
H       -0.5113232510   -1.5829491258    2.0401130649
13   
From optimize.out: Frame 2 / 43, Energy=    -286.6597824050
C        1.7692237007    0.4924107327   -0.3211557193
C        0.8675373708   -0.8045499414   -0.0082401536
C       -0.5126936991   -0.4109365239   -0.4665619465
C       -0.9690351426    0.5877498058    0.8727359638
C       -0.4018566851    0.9297913468   -0.6624219559
N        0.8413747227    1.4247598783   -0.5805565808
H        2.8062114384    0.3750182985   -0.6593570585
H        1.1129095162   -1.8915988008   -0.0341696213
H       -1.1207192585   -0.7501038131   -1.3506666588
H       -1.9220788869    1.0333920716    1.1125371931
H       -1.2896744419    1.4606451571   -1.0737286967
C       -0.6088502391   -0.8595385310    1.2281838268
H       -0.5723483957   -1.5870396805    1.9434014078
13   
C6H6N->C6H6N atoms 1-13 frame 243 charge -0.000 sz -1.000 sz^2 0.542
C        1.7848931566    0.4881340665   -0.3516047963
C        0.8778873967   -0.8119118686   -0.0286763193
C       -0.5369059956   -0.3930442426   -0.4491714809
C       -0.9708861738    0.6194836091    0.8920604682
C       -0.3997401354    0.9337554255   -0.6339171412
N        0.8921318232    1.4154109580   -0.6064468722
H        2.8355157902    0.4070744903   -0.6552524203
H        1.1256634708   -1.8946350007   -0.0045006505
H       -1.1075530749   -0.8279115063   -1.3633575470
H       -1.9273971600    1.0446979441    1.1441575960
H       -1.2987061004    1.4509620230   -1.0188306781
C       -0.6368904554   -0.8252632177    1.2141150093
H       -0.6380125421   -1.6067526807    1.8614248323
13   
C6H6N->C6H6N atoms 1-13 frame 245 charge +0.000 sz -1.000 sz^2 0.623
C        1.7958833851    0.4804007346   -0.3863113748
C        0.8867434781   -0.8201703625   -0.0524961131
C       -0.5612023528   -0.3830509069   -0.4372007716
C       -0.9719951507    0.6515259939    0.9125443431
C       -0.4003984248    0.9438559321   -0.6049253447
N        0.9431680477    1.4062511378   -0.6379355470
H        2.8615663811    0.4458590730   -0.6481853173
H        1.1410758158   -1.8876810938    0.0172268134
H       -1.0950311858   -0.9116508927   -1.3537096266
H       -1.9371251277    1.0565864818    1.1723926888
H       -1.2931275416    1.4481067522   -0.9719999477
C       -0.6614492432   -0.7852247653    1.1935295665
H       -0.7081080811   -1.6448080842    1.7970706308
13   
C6H6N->C6H6N atoms 1-13 frame 250 charge +0.000 sz -1.000 sz^2 0.619
C        1.8028509362    0.4687670639   -0.4225492384
C        0.8944040777   -0.8294040946   -0.0783521340
C       -0.5841655825   -0.3838205936   -0.4299947830
C       -0.9724858504    0.6813842260    0.9352682641
C       -0.4030297228    0.9581998868   -0.5743951343
N        0.9910014992    1.3973455851   -0.6721546125
H        2.8832827659    0.4880268333   -0.6372163259
H        1.1599089043   -1.8760063787    0.0303693274
H       -1.0812691729   -0.9922226286   -1.3210834931
H       -1.9500541698    1.0672451037    1.1985304632
H       -1.2771230188    1.4543979175   -0.9366084491
C       -0.6815997587   -0.7447025109    1.1682734096
H       -0.7817209074   -1.6892104100    1.7399127058
13   
C6H6N->C6H6N atoms 1-13 frame 252 charge -0.000 sz -1.000 sz^2 0.614
C        1.8071148811    0.4524575162   -0.4577986779
C        0.9013580033   -0.8399711637   -0.1057205424
C       -0.6050801634   -0.3964121066   -0.4266205834
C       -0.9726577302    0.7070733244    0.9620710768
C       -0.4067398072    0.9745986224   -0.5400031322
N        1.0343507629    1.3890275470   -0.7059319199
H        2.8999816717    0.5303269335   -0.6203588791
H        1.1830172815   -1.8660939041    0.0351048580
H       -1.0654170424   -1.0646563593   -1.2696916983
H       -1.9640329843    1.0746890466    1.2253809586
H       -1.2562304781    1.4725974105   -0.9135731740
C       -0.6980017156   -0.7086264241    1.1394913275
H       -0.8576626794   -1.7250104429    1.6776503866
13   
C6H6N->C6H6N atoms 1-13 frame 255 charge +0.000 sz -1.000 sz^2 0.625
C        1.8098683692    0.4313485474   -0.4899848600
C        0.9080972663   -0.8516141561   -0.1342933179
C       -0.6231671195   -0.4203160221   -0.4265963491
C       -0.9729125932    0.7271126291    0.9939246208
C       -0.4109496572    0.9909901593   -0.5003798007
N        1.0722497639    1.3823354677   -0.7367122776
H        2.9106303053    0.5692763835   -0.5962190304
H        1.2108161239   -1.8628127529    0.0321342729
H       -1.0481835887   -1.1265320084   -1.2065782030
H       -1.9768571161    1.0776973967    1.2550498804
H       -1.2349703161    1.5044647273   -0.9030598935
C       -0.7116487146   -0.6802667550    1.1079284905
H       -0.9329727233   -1.7416836166    1.6047864676
13   
C6H6N->C6H6N atoms 1-13 frame 257 charge -0.000 sz -1.000 sz^2 0.652
C        1.8119294415    0.4064487477   -0.5176491103
C        0.9151011800   -0.8634141745   -0.1636022668
C       -0.6375199704   -0.4533136164   -0.4295553966
C       -0.9737043913    0.7407721504    1.0305860967
C       -0.4156049555    1.0058121242   -0.4557188376
N        1.1038301675    1.3787108209   -0.7627462492
H        2.9142882615    0.6014597609   -0.5648191981
H        1.2428562280   -1.8674549533    0.0227071512
H       -1.0323223992   -1.1786699125   -1.1413528790
H       -1.9869064894    1.0761137917    1.2885200457
H       -1.2146892413    1.5487512567   -0.9031273351
C       -0.7234890468   -0.6609362063    1.0744667908
H       -1.0037687845   -1.7342797894    1.5222911883
13   
C6H6N->C6H6N atoms 1-13 frame 259 charge +0.000 sz -1.000 sz^2 0.714
C        1.8137059173    0.3794724414   -0.5403970805
C        0.9229026116   -0.8742352704   -0.1933241534
C       -0.6473766897   -0.4922401107   -0.4350191283
C       -0.9754146619    0.7483955290    1.0712970103
C       -0.4211395923    1.0185979291   -0.4070250825
N        1.1290375311    1.3794442175   -0.7833957617
H        2.9107855673    0.6245164236   -0.5272133782
H        1.2781210554   -1.8773635175    0.0081580112
H       -1.0222037511   -1.2263794823   -1.0845524213
H       -1.9935327680    1.0709034627    1.3263597771
H       -1.1929560597    1.6014076737   -0.9090954406
C       -0.7344658455   -0.6498444279    1.0397796274
H       -1.0674633145   -1.7026748682    1.4344280206
13   
C6H6N->C6H6N atoms 1-13 frame 261 charge -0.000 sz -1.000 sz^2 0.803
C        1.8153211619    0.3523130811   -0.5586818159
C        0.9321589233   -0.8829584510   -0.2233726231
C       -0.6519557184   -0.5340101020   -0.4426111876
C       -0.9782277486    0.7510569351    1.1151408850
C       -0.4281116686    1.0298739840   -0.3556268773
N        1.1484917914    1.3854690546   -0.7989542884
H        2.9007405141    0.6370581242   -0.4849862228
H        1.3155311841   -1.8876314230   -0.0104346537
H       -1.0225798657   -1.2774620172   -1.0455443499
H       -1.9967895015    1.0638881071    1.3691390214
H       -1.1658000871    1.6573975592   -0.9152343330
C       -0.7453417524   -0.6447964445    1.0041817043
H       -1.1234372325   -1.6501984076    1.3469847410
13   
C6H6N->C6H6N atoms 1-13 frame 264 charge -0.000 sz -1.000 sz^2 0.944
C        1.8166890306    0.3269108395   -0.5736413926
C        0.9437149681   -0.8884790514   -0.2537350934
C       -0.6502786000   -0.5762984954   -0.4523808500
C       -0.9821424978    0.7502473032    1.1605878078
C       -0.4370432004    1.0405516335   -0.3036151521
N        1.1627904091    1.3972862510   -0.8108053306
H        2.8853467528    0.6382719682   -0.4406467956
H        1.3543069714   -1.8927903167   -0.0318594666
H       -1.0365056158   -1.3377919922   -1.0298156846
H       -1.9970967335    1.0575478648    1.4171461429
H       -1.1302995405    1.7114773105   -0.9168884715
C       -0.7564457827   -0.6427451975    0.9678966053
H       -1.1730361613   -1.5841881174    1.2677576809
13   
C6H6N->C6H6N atoms 1-13 frame 268 charge +0.000 sz -1.000 sz^2 1.064
C        1.8174577470    0.3049725927   -0.5874989613
C        0.9587766667   -0.8897733237   -0.2847368351
C       -0.6411558967   -0.6185248791   -0.4650176159
C       -0.9870475349    0.7478997235    1.2054235567
C       -0.4486758395    1.0515768957   -0.2539198589
N        1.1720048453    1.4149906536   -0.8222274644
H        2.8661133106    0.6279469591   -0.3979338760
H        1.3946823757   -1.8877163302   -0.0544621307
H       -1.0631730903   -1.4080069286   -1.0360281402
H       -1.9949952483    1.0549870585    1.4706564053
H       -1.0855933996    1.7585246414   -0.9118741993
C       -0.7676109866   -0.6399194818    0.9310279023
H       -1.2207829495   -1.5169575810    1.2065912174
13   
C6H6N->C6H6N atoms 1-13 frame 271 charge +0.000 sz -1.000 sz^2 1.139
C        1.8081414320    0.2913295284   -0.5968675969
C        0.9721782124   -0.8862236348   -0.3128247174
C       -0.6220291395   -0.6503793169   -0.4807241850
C       -0.9837500222    0.7458774108    1.2327399060
C       -0.4629537377    1.0600517076   -0.2251219947
N        1.1640849758    1.4327364226   -0.8307746658
H        2.8412329844    0.6050032234   -0.3642673819
H        1.4254024542   -1.8725739553   -0.0774978848
H       -1.0860821226   -1.4622112014   -1.0582662718
H       -1.9806407405    1.0598553358    1.5196536757
H       -1.0470014421    1.7843065533   -0.9071290786
C       -0.7717474664   -0.6353633220    0.9045906034
H       -1.2568353879   -1.4724087514    1.1964895919
13   
From optimize.out: Frame 1 / 21, Energy=    -286.6753260616
C        1.7614490042    0.2965377674   -0.5810280206
C        0.9628321800   -0.8800590798   -0.3243139529
C       -0.5905625217   -0.6362092110   -0.4951697870
C       -0.9442537813    0.7441733222    1.1966861407
C       -0.4745287373    1.0515384209   -0.2649746570
N        1.1012363201    1.4289728390   -0.8109175876
H        2.8015963271    0.5686901078   -0.3486388552
H        1.4073746156   -1.8640371378   -0.1044935679
H       -1.0641553922   -1.4255082783   -1.0912311427
H       -1.9226215698    1.0734148333    1.5288390578
H       -1.0623110369    1.7565411660   -0.9257199494
C       -0.7481798039   -0.6360381415    0.9217733203
H       -1.2278756037   -1.4780166085    1.2991890015
13   
From optimize.out: Frame 3 / 21, Energy=    -286.7601272681
C        1.7191836636    0.3034093857   -0.5595937469
C        0.9565736980   -0.8774795382   -0.3371445590
C       -0.5593707681   -0.6225545456   -0.5054256743
C       -0.9078478755    0.7421698040    1.1602453720
C       -0.4798581400    1.0330052406   -0.3042927638
N        1.0293521509    1.4185446454   -0.7745896987
H        2.7661364680    0.5361778166   -0.3332564753
H        1.3931943923   -1.8617640715   -0.1384909110
H       -1.0488278615   -1.3821311936   -1.1221097771
H       -1.8617255636    1.0930599299    1.5391037900
H       -1.0782825661    1.7196119656   -0.9440885869
C       -0.7306279670   -0.6332284028    0.9361868739
H       -1.1978996311   -1.4688210360    1.3834561570
13   
From optimize.out: Frame 5 / 21, Energy=    -286.8069980554
C        1.6911547331    0.3139225896   -0.5397705731
C        0.9639526590   -0.8809484116   -0.3597252259
C       -0.5287693413   -0.6178945809   -0.5100478626
C       -0.8837737577    0.7390125867    1.1287817632
C       -0.4803984084    1.0070726763   -0.3411622681
N        0.9628447220    1.4075756028   -0.7264122074
H        2.7457669932    0.5129043927   -0.3347093242
H        1.3981492876   -1.8660898784   -0.1906472033
H       -1.0404403086   -1.3416915104   -1.1486177299
H       -1.7982158840    1.1292729843    1.5622251636
H       -1.0962886948    1.6775865780   -0.9624525223
C       -0.7386243050   -0.6308007582    0.9533971195
H       -1.1953576951   -1.4499222710    1.4691408704
13   
From optimize.out: Frame 8 / 21, Energy=    -286.8464497014
C        1.6821512424    0.3231282995   -0.5313270547
C        0.9877953960   -0.8867244469   -0.3940516093
C       -0.4969038795   -0.6225447560   -0.5032589873
C       -0.8823837438    0.7340942518    1.1094106468
C       -0.4799107281    0.9779027728   -0.3642947986
N        0.9201496779    1.3994849425   -0.6771320034
H        2.7452513861    0.4945541120   -0.3621255834
H        1.4270427672   -1.8712110112   -0.2608755399
H       -1.0294241307   -1.3115444367   -1.1616195284
H       -1.7458004411    1.1772048765    1.5951559208
H       -1.1155710852    1.6316537884   -0.9722026207
C       -0.7783738193   -0.6254846768    0.9745556416
H       -1.2340226421   -1.4205137159    1.5477655164
13   
From optimize.out: Frame 10 / 21, Energy=    -286.8617412617
C        1.6841818184    0.3302119564   -0.5309189255
C        1.0169626337   -0.8921238791   -0.4297738497
C       -0.4654710088   -0.6336093195   -0.4853835985
C       -0.8985152376    0.7290643504    1.0999462284
C       -0.4783855909    0.9499297400   -0.3724029023
N        0.9002004582    1.3973015380   -0.6315304665
H        2.7548563974    0.4832177308   -0.4079818290
H        1.4671112329   -1.8738714569   -0.3339681368
H       -1.0154004891   -1.2922559625   -1.1602485136
H       -1.7052838220    1.2305620207    1.6260580102
H       -1.1313138388    1.5841088841   -0.9767362516
C       -0.8334811486   -0.6202360701    0.9956063941
H       -1.2954614048   -1.3922995323    1.6073338407
13   
From optimize.out: Frame 14 / 21, Energy=    -286.8749847038
C        1.6880765447    0.3383376738   -0.5274403435
C        1.0419579849   -0.8969657577   -0.4578281604
C       -0.4373499668   -0.6506834516   -0.4606085974
C       -0.9272409241    0.7248951196    1.0906404379
C       -0.4759093758    0.9235668106   -0.3731735095
N        0.8917997327    1.4008631899   -0.5801434113
H        2.7644197362    0.4822535090   -0.4603745796
H        1.5085015368   -1.8730748310   -0.3998349226
H       -1.0045579035   -1.2781139394   -1.1523920476
H       -1.6595528518    1.2970418278    1.6518196750
H       -1.1450638706    1.5289528299   -0.9876601719
C       -0.8922355935   -0.6192101137    1.0108252607
H       -1.3528450491   -1.3778628672    1.6461703704
13   
From optimize.out: Frame 18 / 21, Energy=    -286.8754023048
C        1.6892945248    0.3469237952   -0.5178627375
C        1.0591199075   -0.9009563223   -0.4764004737
C       -0.4171447310   -0.6707227153   -0.4335703875
C       -0.9713129775    0.7203617595    1.0746943337
C       -0.4754174774    0.9008535348   -0.3718323893
N        0.8855727626    1.4047281600   -0.5225103248
H        2.7679154021    0.4912173631   -0.5030616500
H        1.5459879338   -1.8685303585   -0.4527982522
H       -0.9990999422   -1.2633118160   -1.1465917566
H       -1.5946513367    1.3712655365    1.6776943164
H       -1.1541533451    1.4679519567   -1.0132748293
C       -0.9516536057   -0.6199779244    1.0163534344
H       -1.3844571153   -1.3798029694    1.6691607164
13   
From optimize.out: Frame 20 / 21, Energy=    -286.8754496250
C        1.6849046143    0.3541814447   -0.5018792624
C        1.0644181190   -0.9029481016   -0.4858237393
C       -0.4112572802   -0.6887715952   -0.4124330390
C       -1.0327297164    0.7179072281    1.0494673425
C       -0.4812466192    0.8860634195   -0.3718451987
N        0.8768900865    1.4075494354   -0.4650701669
H        2.7631114941    0.5056054624   -0.5181575638
H        1.5699317668   -1.8618538619   -0.4882890850
H       -0.9982948603   -1.2486458890   -1.1505925821
H       -1.5058332259    1.4301916201    1.7131581119
H       -1.1503332334    1.4125236300   -1.0597270116
C       -1.0075979809   -0.6196659070    1.0086900929
H       -1.3719631644   -1.3921368855    1.6825021014
13   
From optimize.out: Frame 1 / 2, Energy=    -286.8754955387
C        1.6734165274    0.3585994487   -0.4786081570
C        1.0560964190   -0.9023133348   -0.4899042838
C       -0.4210820371   -0.6979284812   -0.4122503498
C       -1.0940610298    0.7178317038    1.0191400177
C       -0.4966459967    0.8809769575   -0.3786482585
N        0.8626220794    1.4102193109   -0.4174465208
H        2.7509730711    0.5169359842   -0.4918985162
H        1.5698937605   -1.8573436279   -0.5079707163
H       -1.0049221580   -1.2412848790   -1.1669316396
H       -1.4016860956    1.4518428844    1.7577843526
H       -1.1335018324    1.3801692155   -1.1194248033
C       -1.0443735287   -0.6184600040    0.9905342412
H       -1.3167291791   -1.3992451781    1.6956246336
