13   
Frame   0 IRC: Energy =  -286.9462072305 ; +0.0000 kcal/mol
C       -0.2352930000   -0.1150910000   -0.0000000000
C        0.1011010000    0.3714610000   -0.0000000000
C       -0.1648090000    0.0770250000    0.0000000000
C        0.1012020000    0.3689620000    0.0000000000
C       -0.2350860000   -0.1136280000   -0.0000000000
N       -0.1765280000    0.3754080000   -0.0000000000
H        0.1270320000    0.0033240000   -0.0000000000
H        0.1273580000   -0.0187230000   -0.0000000000
H        0.1327240000   -0.0066920000    0.0000000000
H        0.1273690000   -0.0186200000    0.0000000000
H        0.1269610000    0.0032560000   -0.0000000000
C       -0.1647610000    0.0801400000    0.0000000000
H        0.1327310000   -0.0068230000    0.0000000000
13   
Frame   1 IRC: Energy =  -286.9462065962 ; +0.0004 kcal/mol
C       -0.2349490000   -0.1155880000   -0.0000000000
C        0.1009460000    0.3725410000   -0.0000000000
C       -0.1648500000    0.0759160000    0.0000000000
C        0.1012270000    0.3681050000    0.0000000000
C       -0.2350050000   -0.1130100000   -0.0000000000
N       -0.1765100000    0.3749470000   -0.0000000000
H        0.1270200000    0.0033470000   -0.0000000000
H        0.1273630000   -0.0187680000   -0.0000000000
H        0.1327170000   -0.0066480000    0.0000000000
H        0.1273880000   -0.0185840000    0.0000000000
H        0.1269610000    0.0032270000   -0.0000000000
C       -0.1650180000    0.0813930000    0.0000000000
H        0.1327100000   -0.0068800000    0.0000000000
13   
Frame   2 IRC: Energy =  -286.9462046752 ; +0.0016 kcal/mol
C       -0.2345930000   -0.1162910000   -0.0000000000
C        0.1009220000    0.3738550000   -0.0000000000
C       -0.1650060000    0.0744450000    0.0000000000
C        0.1012350000    0.3670750000    0.0000000000
C       -0.2348830000   -0.1122820000   -0.0000000000
N       -0.1765660000    0.3746530000   -0.0000000000
H        0.1270110000    0.0033810000   -0.0000000000
H        0.1273680000   -0.0188240000   -0.0000000000
H        0.1327060000   -0.0065840000    0.0000000000
H        0.1273970000   -0.0185400000    0.0000000000
H        0.1269710000    0.0031940000   -0.0000000000
C       -0.1652450000    0.0828630000    0.0000000000
H        0.1326820000   -0.0069450000    0.0000000000
13   
Frame   3 IRC: Energy =  -286.9461987031 ; +0.0054 kcal/mol
C       -0.2329210000   -0.1219330000   -0.0000000000
C        0.1003520000    0.3837530000   -0.0000000000
C       -0.1647790000    0.0619650000    0.0000000000
C        0.1012290000    0.3565800000    0.0000000000
C       -0.2356080000   -0.1058420000   -0.0000000000
N       -0.1767370000    0.3741340000   -0.0000000000
H        0.1270060000    0.0036410000   -0.0000000000
H        0.1272990000   -0.0192390000   -0.0000000000
H        0.1327510000   -0.0060440000    0.0000000000
H        0.1273970000   -0.0181010000    0.0000000000
H        0.1271650000    0.0028940000   -0.0000000000
C       -0.1657850000    0.0956910000    0.0000000000
H        0.1326310000   -0.0075000000    0.0000000000
13   
Frame   4 IRC: Energy =  -286.9461762524 ; +0.0194 kcal/mol
C       -0.2316870000   -0.1293990000   -0.0000000000
C        0.0993380000    0.3967480000   -0.0000000000
C       -0.1633110000    0.0450130000    0.0000000000
C        0.1010290000    0.3420050000    0.0000000000
C       -0.2375340000   -0.0971900000   -0.0000000000
N       -0.1766140000    0.3744020000   -0.0000000000
H        0.1269400000    0.0039890000   -0.0000000000
H        0.1271770000   -0.0197740000   -0.0000000000
H        0.1328620000   -0.0053020000    0.0000000000
H        0.1274050000   -0.0174850000    0.0000000000
H        0.1273780000    0.0024990000   -0.0000000000
C       -0.1655490000    0.1127140000    0.0000000000
H        0.1325670000   -0.0082220000    0.0000000000
13   
Frame   5 IRC: Energy =  -286.9460614681 ; +0.0915 kcal/mol
C       -0.2292930000   -0.1450280000   -0.0000000000
C        0.0978550000    0.4263840000   -0.0000000000
C       -0.1591370000    0.0045050000    0.0000000000
C        0.1029070000    0.3040910000    0.0000000000
C       -0.2437360000   -0.0745130000   -0.0000000000
N       -0.1758780000    0.3735690000   -0.0000000000
H        0.1264010000    0.0047110000   -0.0000000000
H        0.1269140000   -0.0209880000   -0.0000000000
H        0.1331610000   -0.0035220000    0.0000000000
H        0.1277160000   -0.0159010000    0.0000000000
H        0.1276950000    0.0014810000   -0.0000000000
C       -0.1671720000    0.1551970000    0.0000000000
H        0.1325660000   -0.0099870000    0.0000000000
13   
Frame   6 IRC: Energy =  -286.9457804737 ; +0.2678 kcal/mol
C       -0.2287470000   -0.1553730000   -0.0000000000
C        0.0973610000    0.4490790000   -0.0000000000
C       -0.1533680000   -0.0262540000    0.0000000000
C        0.1073300000    0.2730290000    0.0000000000
C       -0.2519690000   -0.0557710000   -0.0000000000
N       -0.1743870000    0.3714500000   -0.0000000000
H        0.1254550000    0.0052100000   -0.0000000000
H        0.1267600000   -0.0219330000   -0.0000000000
H        0.1332550000   -0.0021620000    0.0000000000
H        0.1281460000   -0.0145830000    0.0000000000
H        0.1274190000    0.0006960000   -0.0000000000
C       -0.1697520000    0.1879120000    0.0000000000
H        0.1324990000   -0.0112990000    0.0000000000
13   
Frame   7 IRC: Energy =  -286.9453066397 ; +0.5651 kcal/mol
C       -0.2157560000   -0.1717810000   -0.0000000000
C        0.0863950000    0.4959490000   -0.0000000000
C       -0.1473220000   -0.0988260000    0.0000000000
C        0.1099650000    0.1818560000    0.0000000000
C       -0.2573230000    0.0142860000   -0.0000000000
N       -0.1722680000    0.3399810000   -0.0000000000
H        0.1255590000    0.0063310000   -0.0000000000
H        0.1262210000   -0.0240720000   -0.0000000000
H        0.1336510000    0.0015330000    0.0000000000
H        0.1286530000   -0.0103620000    0.0000000000
H        0.1278510000   -0.0024410000   -0.0000000000
C       -0.1774930000    0.2830010000    0.0000000000
H        0.1318660000   -0.0154530000    0.0000000000
13   
Frame   8 IRC: Energy =  -286.9445970151 ; +1.0104 kcal/mol
C       -0.2018780000   -0.1686460000   -0.0000000000
C        0.0662310000    0.5160570000   -0.0000000000
C       -0.1426040000   -0.1492840000    0.0000000000
C        0.1017900000    0.0932410000    0.0000000000
C       -0.2527470000    0.0945610000   -0.0000000000
N       -0.1684180000    0.2949900000   -0.0000000000
H        0.1266040000    0.0065740000   -0.0000000000
H        0.1259150000   -0.0250690000   -0.0000000000
H        0.1341170000    0.0047940000    0.0000000000
H        0.1293130000   -0.0057360000    0.0000000000
H        0.1283520000   -0.0062190000   -0.0000000000
C       -0.1774200000    0.3639100000    0.0000000000
H        0.1307430000   -0.0191730000    0.0000000000
13   
Frame   9 IRC: Energy =  -286.9436570703 ; +1.6003 kcal/mol
C       -0.1901760000   -0.1509890000   -0.0000000000
C        0.0441640000    0.5164990000   -0.0000000000
C       -0.1404900000   -0.1801480000    0.0000000000
C        0.0917260000    0.0130850000    0.0000000000
C       -0.2468760000    0.1774060000   -0.0000000000
N       -0.1616480000    0.2437770000   -0.0000000000
H        0.1280440000    0.0058760000   -0.0000000000
H        0.1261680000   -0.0250580000   -0.0000000000
H        0.1344780000    0.0076610000    0.0000000000
H        0.1301680000   -0.0010280000    0.0000000000
H        0.1287320000   -0.0102780000   -0.0000000000
C       -0.1736220000    0.4252930000    0.0000000000
H        0.1293330000   -0.0220970000    0.0000000000
13   
Frame  10 IRC: Energy =  -286.9425344991 ; +2.3047 kcal/mol
C       -0.1810550000   -0.1279580000   -0.0000000000
C        0.0232880000    0.5054520000   -0.0000000000
C       -0.1392950000   -0.1949450000    0.0000000000
C        0.0844170000   -0.0485890000    0.0000000000
C       -0.2443130000    0.2483870000   -0.0000000000
N       -0.1530620000    0.1978560000   -0.0000000000
H        0.1297370000    0.0045880000   -0.0000000000
H        0.1270910000   -0.0243550000   -0.0000000000
H        0.1347140000    0.0099860000    0.0000000000
H        0.1310880000    0.0031130000    0.0000000000
H        0.1290200000   -0.0137270000   -0.0000000000
C       -0.1697380000    0.4641440000    0.0000000000
H        0.1281090000   -0.0239520000    0.0000000000
13   
Frame  11 IRC: Energy =  -286.9411095944 ; +3.1988 kcal/mol
C       -0.1757200000   -0.1087970000   -0.0000000000
C        0.0068020000    0.4894040000   -0.0000000000
C       -0.1381550000   -0.1982270000    0.0000000000
C        0.0744780000   -0.0876420000    0.0000000000
C       -0.2477640000    0.2994050000   -0.0000000000
N       -0.1443170000    0.1652970000   -0.0000000000
H        0.1312620000    0.0032670000   -0.0000000000
H        0.1285890000   -0.0233580000   -0.0000000000
H        0.1350470000    0.0121970000    0.0000000000
H        0.1321140000    0.0065150000    0.0000000000
H        0.1293020000   -0.0161770000   -0.0000000000
C       -0.1589760000    0.4830230000    0.0000000000
H        0.1273400000   -0.0249090000    0.0000000000
13   
Frame  12 IRC: Energy =  -286.9391390000 ; +4.4354 kcal/mol
C       -0.1707420000   -0.1001200000   -0.0000000000
C       -0.0073500000    0.4789140000   -0.0000000000
C       -0.1363360000   -0.1978680000    0.0000000000
C        0.0612660000   -0.1072460000    0.0000000000
C       -0.2541020000    0.3277330000   -0.0000000000
N       -0.1371190000    0.1489210000   -0.0000000000
H        0.1326280000    0.0024390000   -0.0000000000
H        0.1301770000   -0.0225100000   -0.0000000000
H        0.1353210000    0.0140170000    0.0000000000
H        0.1331790000    0.0092720000    0.0000000000
H        0.1292220000   -0.0174320000   -0.0000000000
C       -0.1431050000    0.4891090000    0.0000000000
H        0.1269620000   -0.0252300000    0.0000000000
13   
Frame  13 IRC: Energy =  -286.9389940000 ; +4.5264 kcal/mol
C       -0.1694270000   -0.0934890000   -0.0000000000
C       -0.0095720000    0.4737410000   -0.0000000000
C       -0.1350030000   -0.1984210000    0.0000000000
C        0.0611750000   -0.1147220000    0.0000000000
C       -0.2550170000    0.3397160000   -0.0000000000
N       -0.1356560000    0.1417700000   -0.0000000000
H        0.1327200000    0.0019920000   -0.0000000000
H        0.1303480000   -0.0222410000   -0.0000000000
H        0.1353160000    0.0141310000    0.0000000000
H        0.1330400000    0.0097010000    0.0000000000
H        0.1291100000   -0.0180030000   -0.0000000000
C       -0.1437350000    0.4911270000    0.0000000000
H        0.1267020000   -0.0253020000    0.0000000000
13   
Frame  14 IRC: Energy =  -286.9381930000 ; +5.0290 kcal/mol
C       -0.1698140000   -0.0808260000   -0.0000000000
C       -0.0122430000    0.4592710000   -0.0000000000
C       -0.1336540000   -0.1975870000    0.0000000000
C        0.0567630000   -0.1295250000    0.0000000000
C       -0.2592200000    0.3606630000   -0.0000000000
N       -0.1322150000    0.1284420000   -0.0000000000
H        0.1329250000    0.0010530000   -0.0000000000
H        0.1311920000   -0.0214160000   -0.0000000000
H        0.1353970000    0.0148140000    0.0000000000
H        0.1335780000    0.0108980000    0.0000000000
H        0.1291360000   -0.0189960000   -0.0000000000
C       -0.1386250000    0.4989030000    0.0000000000
H        0.1267800000   -0.0256950000    0.0000000000
13   
Frame  15 IRC: Energy =  -286.9380840000 ; +5.0974 kcal/mol
C       -0.1706060000   -0.0843510000   -0.0000000000
C       -0.0125440000    0.4621960000   -0.0000000000
C       -0.1335890000   -0.1973440000    0.0000000000
C        0.0559950000   -0.1249880000    0.0000000000
C       -0.2589620000    0.3550600000   -0.0000000000
N       -0.1325260000    0.1326480000   -0.0000000000
H        0.1331750000    0.0013050000   -0.0000000000
H        0.1312320000   -0.0215550000   -0.0000000000
H        0.1354810000    0.0147830000    0.0000000000
H        0.1336860000    0.0106920000    0.0000000000
H        0.1290620000   -0.0186980000   -0.0000000000
C       -0.1371330000    0.4958180000    0.0000000000
H        0.1267300000   -0.0255660000    0.0000000000
13   
Frame  16 IRC: Energy =  -286.9373440000 ; +5.5618 kcal/mol
C       -0.1694900000   -0.0578410000   -0.0000000000
C       -0.0169540000    0.4350540000   -0.0000000000
C       -0.1301640000   -0.1940470000    0.0000000000
C        0.0526900000   -0.1499170000    0.0000000000
C       -0.2631030000    0.3944840000   -0.0000000000
N       -0.1275490000    0.1074790000   -0.0000000000
H        0.1332510000   -0.0005030000   -0.0000000000
H        0.1320340000   -0.0201040000   -0.0000000000
H        0.1354830000    0.0153710000    0.0000000000
H        0.1337650000    0.0123700000    0.0000000000
H        0.1289860000   -0.0205660000   -0.0000000000
C       -0.1355860000    0.5041600000    0.0000000000
H        0.1266370000   -0.0259410000    0.0000000000
13   
Frame  17 IRC: Energy =  -286.9372060000 ; +5.6484 kcal/mol
C       -0.1695770000   -0.0447630000   -0.0000000000
C       -0.0180540000    0.4202850000   -0.0000000000
C       -0.1278490000   -0.1895980000    0.0000000000
C        0.0533890000   -0.1571940000    0.0000000000
C       -0.2639970000    0.4099860000   -0.0000000000
N       -0.1264220000    0.0976120000   -0.0000000000
H        0.1337030000   -0.0012780000   -0.0000000000
H        0.1320530000   -0.0193700000   -0.0000000000
H        0.1355520000    0.0153450000    0.0000000000
H        0.1337220000    0.0128090000    0.0000000000
H        0.1287080000   -0.0213670000   -0.0000000000
C       -0.1377240000    0.5034540000    0.0000000000
H        0.1264970000   -0.0259210000    0.0000000000
13   
Frame  18 IRC: Energy =  -286.9364690000 ; +6.1108 kcal/mol
C       -0.1710210000   -0.0459970000   -0.0000000000
C       -0.0198550000    0.4223310000   -0.0000000000
C       -0.1282600000   -0.1916590000    0.0000000000
C        0.0479740000   -0.1589840000    0.0000000000
C       -0.2664520000    0.4089850000   -0.0000000000
N       -0.1245410000    0.0982650000   -0.0000000000
H        0.1335280000   -0.0013090000   -0.0000000000
H        0.1329470000   -0.0193350000   -0.0000000000
H        0.1356080000    0.0158970000   -0.0000000000
H        0.1341420000    0.0132350000    0.0000000000
H        0.1288870000   -0.0211370000   -0.0000000000
C       -0.1296850000    0.5057320000    0.0000000000
H        0.1267270000   -0.0260240000    0.0000000000
13   
Frame  19 IRC: Energy =  -286.9361510000 ; +6.3104 kcal/mol
C       -0.1711470000   -0.0275190000   -0.0000000000
C       -0.0216000000    0.4018930000   -0.0000000000
C       -0.1256540000   -0.1856060000    0.0000000000
C        0.0463630000   -0.1700280000    0.0000000000
C       -0.2677590000    0.4312690000   -0.0000000000
N       -0.1218790000    0.0840320000   -0.0000000000
H        0.1335520000   -0.0024760000   -0.0000000000
H        0.1332130000   -0.0182620000   -0.0000000000
H        0.1355870000    0.0159420000   -0.0000000000
H        0.1340830000    0.0139740000    0.0000000000
H        0.1287380000   -0.0221900000   -0.0000000000
C       -0.1301590000    0.5049390000    0.0000000000
H        0.1266600000   -0.0259690000    0.0000000000
13   
Frame  20 IRC: Energy =  -286.9351040000 ; +6.9674 kcal/mol
C       -0.1729830000   -0.0096490000   -0.0000000000
C       -0.0243800000    0.3827640000   -0.0000000000
C       -0.1235800000   -0.1800950000    0.0000000000
C        0.0409050000   -0.1795810000    0.0000000000
C       -0.2714950000    0.4478520000   -0.0000000000
N       -0.1184090000    0.0723650000   -0.0000000000
H        0.1337630000   -0.0036010000    0.0000000000
H        0.1343060000   -0.0170800000   -0.0000000000
H        0.1357090000    0.0164550000   -0.0000000000
H        0.1344950000    0.0149500000    0.0000000000
H        0.1286450000   -0.0228340000   -0.0000000000
C       -0.1238880000    0.5043760000    0.0000000000
H        0.1269120000   -0.0259220000    0.0000000000
13   
Frame  21 IRC: Energy =  -286.9349420000 ; +7.0690 kcal/mol
C       -0.1732140000   -0.0178270000   -0.0000000000
C       -0.0246060000    0.3927300000   -0.0000000000
C       -0.1244910000   -0.1842260000    0.0000000000
C        0.0399020000   -0.1764560000    0.0000000000
C       -0.2717830000    0.4410480000   -0.0000000000
N       -0.1194120000    0.0784240000   -0.0000000000
H        0.1338170000   -0.0031150000    0.0000000000
H        0.1344370000   -0.0175300000   -0.0000000000
H        0.1358630000    0.0166380000   -0.0000000000
H        0.1346410000    0.0147370000    0.0000000000
H        0.1287010000   -0.0224330000   -0.0000000000
C       -0.1208010000    0.5039440000    0.0000000000
H        0.1269460000   -0.0259360000    0.0000000000
13   
Frame  22 IRC: Energy =  -286.9341000000 ; +7.5974 kcal/mol
C       -0.1751530000    0.0219350000   -0.0000000000
C       -0.0274190000    0.3490730000   -0.0000000000
C       -0.1200340000   -0.1667770000    0.0000000000
C        0.0350890000   -0.1907570000    0.0000000000
C       -0.2739230000    0.4752230000   -0.0000000000
N       -0.1137540000    0.0536190000   -0.0000000000
H        0.1339320000   -0.0054760000    0.0000000000
H        0.1351620000   -0.0151350000   -0.0000000000
H        0.1357740000    0.0165990000   -0.0000000000
H        0.1346740000    0.0159680000    0.0000000000
H        0.1283800000   -0.0239850000   -0.0000000000
C       -0.1197630000    0.4951420000    0.0000000000
H        0.1270340000   -0.0254290000    0.0000000000
13   
Frame  23 IRC: Energy =  -286.9336380000 ; +7.8873 kcal/mol
C       -0.1758040000    0.0203630000   -0.0000000000
C       -0.0277800000    0.3500500000   -0.0000000000
C       -0.1200100000   -0.1684890000    0.0000000000
C        0.0329870000   -0.1914010000    0.0000000000
C       -0.2753780000    0.4732290000   -0.0000000000
N       -0.1136410000    0.0548810000   -0.0000000000
H        0.1340420000   -0.0053940000    0.0000000000
H        0.1356230000   -0.0150590000   -0.0000000000
H        0.1358670000    0.0169670000   -0.0000000000
H        0.1348690000    0.0161730000    0.0000000000
H        0.1284660000   -0.0237890000   -0.0000000000
C       -0.1164550000    0.4980180000    0.0000000000
H        0.1272150000   -0.0255500000    0.0000000000
13   
Frame  24 IRC: Energy =  -286.9332680000 ; +8.1195 kcal/mol
C       -0.1771250000    0.0434770000   -0.0000000000
C       -0.0293130000    0.3265460000   -0.0000000000
C       -0.1182710000   -0.1570340000    0.0000000000
C        0.0305730000   -0.1957460000    0.0000000000
C       -0.2755080000    0.4901470000   -0.0000000000
N       -0.1107280000    0.0427390000   -0.0000000000
H        0.1340900000   -0.0067020000    0.0000000000
H        0.1358500000   -0.0137590000   -0.0000000000
H        0.1358570000    0.0167100000   -0.0000000000
H        0.1348630000    0.0166030000    0.0000000000
H        0.1282550000   -0.0245520000   -0.0000000000
C       -0.1157670000    0.4865380000    0.0000000000
H        0.1272230000   -0.0249670000    0.0000000000
13   
Frame  25 IRC: Energy =  -286.9327990000 ; +8.4138 kcal/mol
C       -0.1775430000    0.0405550000   -0.0000000000
C       -0.0294970000    0.3285850000   -0.0000000000
C       -0.1183150000   -0.1595230000    0.0000000000
C        0.0285190000   -0.1964920000    0.0000000000
C       -0.2769460000    0.4874160000   -0.0000000000
N       -0.1108420000    0.0446340000   -0.0000000000
H        0.1342220000   -0.0065390000    0.0000000000
H        0.1362900000   -0.0137270000   -0.0000000000
H        0.1359460000    0.0171310000   -0.0000000000
H        0.1350460000    0.0168090000    0.0000000000
H        0.1283940000   -0.0243200000   -0.0000000000
C       -0.1127000000    0.4906090000    0.0000000000
H        0.1274240000   -0.0251380000    0.0000000000
13   
Frame  26 IRC: Energy =  -286.9316060000 ; +9.1624 kcal/mol
C       -0.1804090000    0.0769790000   -0.0000000000
C       -0.0320580000    0.2921170000   -0.0000000000
C       -0.1158530000   -0.1418130000    0.0000000000
C        0.0213180000   -0.2010860000    0.0000000000
C       -0.2776550000    0.5067710000   -0.0000000000
N       -0.1060310000    0.0287190000   -0.0000000000
H        0.1345100000   -0.0085030000    0.0000000000
H        0.1371380000   -0.0115040000   -0.0000000000
H        0.1359900000    0.0171420000   -0.0000000000
H        0.1352030000    0.0174720000    0.0000000000
H        0.1281830000   -0.0250310000   -0.0000000000
C       -0.1079710000    0.4728920000    0.0000000000
H        0.1276340000   -0.0241540000    0.0000000000
13   
Frame  27 IRC: Energy =  -286.9314000000 ; +9.2917 kcal/mol
C       -0.1811220000    0.0928340000   -0.0000000000
C       -0.0334680000    0.2779160000   -0.0000000000
C       -0.1159600000   -0.1330330000    0.0000000000
C        0.0194960000   -0.2002730000    0.0000000000
C       -0.2766120000    0.5157930000   -0.0000000000
N       -0.1037350000    0.0226640000   -0.0000000000
H        0.1343130000   -0.0093720000    0.0000000000
H        0.1371190000   -0.0107140000   -0.0000000000
H        0.1359790000    0.0167250000   -0.0000000000
H        0.1351530000    0.0175100000    0.0000000000
H        0.1280310000   -0.0254150000   -0.0000000000
C       -0.1068090000    0.4588430000    0.0000000000
H        0.1276150000   -0.0234770000    0.0000000000
13   
Frame  28 IRC: Energy =  -286.9304520000 ; +9.8866 kcal/mol
C       -0.1814110000    0.0931590000   -0.0000000000
C       -0.0335120000    0.2765180000   -0.0000000000
C       -0.1157220000   -0.1354360000    0.0000000000
C        0.0155500000   -0.2026920000    0.0000000000
C       -0.2788570000    0.5131450000   -0.0000000000
N       -0.1037880000    0.0236040000   -0.0000000000
H        0.1347830000   -0.0093190000    0.0000000000
H        0.1379230000   -0.0103320000   -0.0000000000
H        0.1361400000    0.0175530000   -0.0000000000
H        0.1354350000    0.0179010000    0.0000000000
H        0.1282690000   -0.0251350000   -0.0000000000
C       -0.1026890000    0.4646920000    0.0000000000
H        0.1278810000   -0.0236570000    0.0000000000
13   
Frame  29 IRC: Energy =  -286.9300510000 ; +10.1382 kcal/mol
C       -0.1837740000    0.1168040000   -0.0000000000
C       -0.0347570000    0.2551400000   -0.0000000000
C       -0.1150240000   -0.1225180000    0.0000000000
C        0.0123950000   -0.2010890000    0.0000000000
C       -0.2772130000    0.5208240000   -0.0000000000
N       -0.1007860000    0.0156330000   -0.0000000000
H        0.1348670000   -0.0105350000    0.0000000000
H        0.1380430000   -0.0091150000   -0.0000000000
H        0.1360860000    0.0171540000   -0.0000000000
H        0.1353880000    0.0179340000    0.0000000000
H        0.1280610000   -0.0254050000   -0.0000000000
C       -0.1012090000    0.4479570000    0.0000000000
H        0.1279220000   -0.0227840000    0.0000000000
13   
Frame  30 IRC: Energy =  -286.9288880000 ; +10.8680 kcal/mol
C       -0.1838200000    0.1256080000   -0.0000000000
C       -0.0354590000    0.2480470000   -0.0000000000
C       -0.1158020000   -0.1214000000    0.0000000000
C        0.0075730000   -0.2023590000    0.0000000000
C       -0.2783790000    0.5204480000   -0.0000000000
N       -0.0996870000    0.0144510000   -0.0000000000
H        0.1353240000   -0.0108940000    0.0000000000
H        0.1387950000   -0.0083780000   -0.0000000000
H        0.1362480000    0.0178510000   -0.0000000000
H        0.1356190000    0.0182470000    0.0000000000
H        0.1282570000   -0.0252260000   -0.0000000000
C       -0.0967890000    0.4461910000    0.0000000000
H        0.1281200000   -0.0225860000    0.0000000000
13   
Frame  31 IRC: Energy =  -286.9285350000 ; +11.0895 kcal/mol
C       -0.1860040000    0.1463720000   -0.0000000000
C       -0.0366600000    0.2311030000   -0.0000000000
C       -0.1153910000   -0.1102880000    0.0000000000
C        0.0044120000   -0.1990000000    0.0000000000
C       -0.2762800000    0.5246890000   -0.0000000000
N       -0.0971120000    0.0090680000   -0.0000000000
H        0.1353750000   -0.0119280000    0.0000000000
H        0.1388660000   -0.0073950000   -0.0000000000
H        0.1362130000    0.0174670000   -0.0000000000
H        0.1355350000    0.0180850000    0.0000000000
H        0.1280700000   -0.0253240000   -0.0000000000
C       -0.0951580000    0.4288490000    0.0000000000
H        0.1281340000   -0.0216980000    0.0000000000
13   
Frame  32 IRC: Energy =  -286.9271870000 ; +11.9354 kcal/mol
C       -0.1861310000    0.1589100000   -0.0000000000
C       -0.0372160000    0.2227660000   -0.0000000000
C       -0.1168770000   -0.1089040000   -0.0000000000
C       -0.0006860000   -0.1998310000    0.0000000000
C       -0.2766250000    0.5217180000   -0.0000000000
N       -0.0957430000    0.0077670000   -0.0000000000
H        0.1359730000   -0.0124210000    0.0000000000
H        0.1396270000   -0.0065580000   -0.0000000000
H        0.1363530000    0.0182580000   -0.0000000000
H        0.1357310000    0.0183050000    0.0000000000
H        0.1283040000   -0.0250420000   -0.0000000000
C       -0.0910010000    0.4264780000    0.0000000000
H        0.1282910000   -0.0214470000    0.0000000000
13   
Frame  33 IRC: Energy =  -286.9268690000 ; +12.1349 kcal/mol
C       -0.1876300000    0.1758970000   -0.0000000000
C       -0.0384180000    0.2102100000   -0.0000000000
C       -0.1170300000   -0.1000770000   -0.0000000000
C       -0.0034970000   -0.1953750000    0.0000000000
C       -0.2746530000    0.5239350000   -0.0000000000
N       -0.0935560000    0.0045920000   -0.0000000000
H        0.1359670000   -0.0132440000    0.0000000000
H        0.1396550000   -0.0058030000   -0.0000000000
H        0.1363890000    0.0179100000   -0.0000000000
H        0.1356840000    0.0180460000    0.0000000000
H        0.1281590000   -0.0250670000   -0.0000000000
C       -0.0893280000    0.4095910000    0.0000000000
H        0.1282550000   -0.0206160000    0.0000000000
13   
Frame  34 IRC: Energy =  -286.9256650000 ; +12.8905 kcal/mol
C       -0.1864100000    0.1788670000   -0.0000000000
C       -0.0383290000    0.2113120000   -0.0000000000
C       -0.1194520000   -0.1049550000   -0.0000000000
C       -0.0066310000   -0.1984050000    0.0000000000
C       -0.2755040000    0.5182630000   -0.0000000000
N       -0.0936610000    0.0056440000   -0.0000000000
H        0.1365600000   -0.0132610000    0.0000000000
H        0.1403190000   -0.0055170000   -0.0000000000
H        0.1365110000    0.0188920000   -0.0000000000
H        0.1358660000    0.0182920000    0.0000000000
H        0.1284640000   -0.0247420000   -0.0000000000
C       -0.0860960000    0.4164570000    0.0000000000
H        0.1283610000   -0.0208460000    0.0000000000
13   
Frame  35 IRC: Energy =  -286.9250630000 ; +13.2682 kcal/mol
C       -0.1895860000    0.2063070000   -0.0000000000
C       -0.0395860000    0.1916490000   -0.0000000000
C       -0.1191090000   -0.0919980000   -0.0000000000
C       -0.0109900000   -0.1916940000    0.0000000000
C       -0.2721890000    0.5172760000   -0.0000000000
N       -0.0903980000    0.0013910000   -0.0000000000
H        0.1367410000   -0.0145420000    0.0000000000
H        0.1404080000   -0.0043320000   -0.0000000000
H        0.1364790000    0.0185640000   -0.0000000000
H        0.1357450000    0.0178490000    0.0000000000
H        0.1282900000   -0.0245790000   -0.0000000000
C       -0.0841560000    0.3937900000    0.0000000000
H        0.1283500000   -0.0196800000    0.0000000000
13   
Frame  36 IRC: Energy =  -286.9236200000 ; +14.1737 kcal/mol
C       -0.1884030000    0.2158490000   -0.0000000000
C       -0.0397900000    0.1909000000   -0.0000000000
C       -0.1222310000   -0.0958780000   -0.0000000000
C       -0.0144460000   -0.1934720000    0.0000000000
C       -0.2720710000    0.5089310000   -0.0000000000
N       -0.0902150000    0.0017670000   -0.0000000000
H        0.1374610000   -0.0148480000    0.0000000000
H        0.1410720000   -0.0038930000   -0.0000000000
H        0.1366290000    0.0195920000   -0.0000000000
H        0.1359180000    0.0178990000    0.0000000000
H        0.1285860000   -0.0241940000   -0.0000000000
C       -0.0808830000    0.3970910000    0.0000000000
H        0.1283730000   -0.0197460000    0.0000000000
13   
Frame  37 IRC: Energy =  -286.9230410000 ; +14.5370 kcal/mol
C       -0.1928300000    0.2446660000   -0.0000000000
C       -0.0405250000    0.1716290000   -0.0000000000
C       -0.1205040000   -0.0831170000   -0.0000000000
C       -0.0184480000   -0.1864150000    0.0000000000
C       -0.2680910000    0.5036900000   -0.0000000000
N       -0.0874060000   -0.0019100000   -0.0000000000
H        0.1377870000   -0.0161550000    0.0000000000
H        0.1410960000   -0.0027500000   -0.0000000000
H        0.1365220000    0.0193310000   -0.0000000000
H        0.1357320000    0.0173030000    0.0000000000
H        0.1284020000   -0.0238440000   -0.0000000000
C       -0.0801010000    0.3762110000    0.0000000000
H        0.1283660000   -0.0186390000    0.0000000000
13   
Frame  38 IRC: Energy =  -286.9216180000 ; +15.4300 kcal/mol
C       -0.1900020000    0.2496910000   -0.0000000000
C       -0.0405900000    0.1762000000   -0.0000000000
C       -0.1252110000   -0.0906390000   -0.0000000000
C       -0.0204080000   -0.1893860000    0.0000000000
C       -0.2687050000    0.4949730000   -0.0000000000
N       -0.0883280000   -0.0009070000   -0.0000000000
H        0.1384520000   -0.0162560000    0.0000000000
H        0.1417200000   -0.0025870000   -0.0000000000
H        0.1367380000    0.0204300000   -0.0000000000
H        0.1359800000    0.0173740000    0.0000000000
H        0.1287830000   -0.0235750000   -0.0000000000
C       -0.0767480000    0.3836360000    0.0000000000
H        0.1283190000   -0.0189540000    0.0000000000
13   