13   
Frame   0 IRC: Energy =  -286.9462072305 ; +0.0000 kcal/mol
C        1.5927980874    0.3373116769   -0.4654699911
C        1.1949131981   -0.9668224123   -0.2263173827
C       -0.1051399606   -1.4450283889    0.1707205757
C       -1.3349305159    0.7401140056    0.2899355595
C       -0.3584636629    1.6532756805   -0.0677010263
N        0.9462353619    1.5264004704   -0.4113584472
H        2.6376800823    0.4527151366   -0.7579597885
H        1.9653668003   -1.7222425638   -0.3579084832
H       -0.1963842008   -2.5211024919    0.3002092218
H       -2.3104915964    1.1633962571    0.5151080940
H       -0.6853991510    2.6941718407   -0.0817611041
C       -1.2210106484   -0.6924064405    0.3985552598
H       -2.1251737936   -1.2197827700    0.6939475121
13   
Frame   1 IRC: Energy =  -286.9462065962 ; +0.0004 kcal/mol
C        1.5926310233    0.3374126257   -0.4659870198
C        1.1951635167   -0.9670253722   -0.2257118285
C       -0.1049154068   -1.4448473568    0.1707854078
C       -1.3349488166    0.7402443777    0.2907508131
C       -0.3584564414    1.6532643782   -0.0675203388
N        0.9458189506    1.5259186737   -0.4124822619
H        2.6374848516    0.4527367934   -0.7587316885
H        1.9660369316   -1.7221940819   -0.3560958778
H       -0.1968910482   -2.5209471035    0.2997240875
H       -2.3102617904    1.1637339764    0.5165198413
H       -0.6853303175    2.6941927913   -0.0816982075
C       -1.2210569903   -0.6922474768    0.3981605316
H       -2.1252744626   -1.2202422250    0.6922865416
13   
Frame   2 IRC: Energy =  -286.9462046752 ; +0.0016 kcal/mol
C        1.5922574786    0.3372497421   -0.4673229995
C        1.1961388700   -0.9670284023   -0.2229987912
C       -0.1044664178   -1.4445108135    0.1716461014
C       -1.3352490233    0.7404383424    0.2902868911
C       -0.3583477106    1.6534053974   -0.0663196403
N        0.9449541300    1.5250276624   -0.4144491342
H        2.6360071369    0.4524454350   -0.7640231271
H        1.9674251203   -1.7220284827   -0.3517689574
H       -0.1969352390   -2.5206121935    0.3005086955
H       -2.3104376291    1.1637728330    0.5170111726
H       -0.6840004159    2.6947147533   -0.0774336527
C       -1.2213274938   -0.6922086663    0.3965296442
H       -2.1260188064   -1.2206656074    0.6883337974
13   
Frame   3 IRC: Energy =  -286.9461987031 ; +0.0054 kcal/mol
C        1.5918669676    0.3377948468   -0.4689155396
C        1.1959745657   -0.9679697400   -0.2229545291
C       -0.1034606777   -1.4439464551    0.1728331797
C       -1.3358895155    0.7406139271    0.2869002237
C       -0.3593590131    1.6538078821   -0.0651434828
N        0.9459058344    1.5238128510   -0.4122870698
H        2.6356515476    0.4529737077   -0.7656959427
H        1.9665862611   -1.7232768068   -0.3537706016
H       -0.1954074806   -2.5199516485    0.3035333666
H       -2.3121478471    1.1626669435    0.5121200723
H       -0.6824091963    2.6957065548   -0.0728344930
C       -1.2214036153   -0.6921527773    0.3966103065
H       -2.1259078310   -1.2200792853    0.6896045099
13   
Frame   4 IRC: Energy =  -286.9461762524 ; +0.0194 kcal/mol
C        1.5913436805    0.3390947320   -0.4692216307
C        1.1957654638   -0.9679039503   -0.2199224371
C       -0.1026928051   -1.4438691127    0.1760539849
C       -1.3361421291    0.7404826397    0.2801678252
C       -0.3594612799    1.6545106504   -0.0598536882
N        0.9488631740    1.5243222639   -0.4076789274
H        2.6326183318    0.4526739244   -0.7757894191
H        1.9643009481   -1.7242860265   -0.3565925111
H       -0.1919669863   -2.5196923292    0.3103832801
H       -2.3145036221    1.1602829784    0.5010324023
H       -0.6793519248    2.6970275239   -0.0636293255
C       -1.2219357573   -0.6935206940    0.3948978369
H       -2.1268370935   -1.2191226000    0.6901526098
13   
Frame   5 IRC: Energy =  -286.9460614681 ; +0.0915 kcal/mol
C        1.5907406307    0.3431544993   -0.4680120620
C        1.1912586138   -0.9682267775   -0.2275504292
C       -0.1014232772   -1.4439212798    0.1814482470
C       -1.3375578570    0.7405132253    0.2676616533
C       -0.3613306187    1.6539241991   -0.0541096759
N        0.9602692485    1.5273314378   -0.3897901983
H        2.6326609070    0.4494714598   -0.7781062759
H        1.9576333338   -1.7240571170   -0.3775618759
H       -0.1842684349   -2.5192232687    0.3259878202
H       -2.3197979287    1.1587398367    0.4741707031
H       -0.6778535167    2.6972911087   -0.0547005606
C       -1.2237470816   -0.6967203528    0.3964613788
H       -2.1265840190   -1.2182769708    0.7041012754
13   
Frame   6 IRC: Energy =  -286.9457804737 ; +0.2678 kcal/mol
C        1.5881602390    0.3476472749   -0.4680593269
C        1.1840242931   -0.9672232199   -0.2405652886
C       -0.1022960090   -1.4429694901    0.1834691370
C       -1.3365666223    0.7401639140    0.2603145273
C       -0.3602183743    1.6507937872   -0.0448392237
N        0.9726437998    1.5315637505   -0.3706735323
H        2.6292607714    0.4440147008   -0.7861074301
H        1.9534103595   -1.7195409000   -0.3905614908
H       -0.1782778390   -2.5158333634    0.3500310782
H       -2.3221984596    1.1595872447    0.4476568631
H       -0.6768810669    2.6938242912   -0.0449429818
C       -1.2252867914   -0.7007491624    0.3945747108
H       -2.1257743004   -1.2212788277    0.7097029578
13   
Frame   7 IRC: Energy =  -286.9453066397 ; +0.5651 kcal/mol
C        1.5953053300    0.3584561189   -0.4401436967
C        1.1654014111   -0.9781380107   -0.2922557555
C       -0.0989536725   -1.4396953730    0.1707105048
C       -1.3358126040    0.7406512167    0.2667073065
C       -0.3694930980    1.6480441877   -0.0582868967
N        0.9869904108    1.5262570083   -0.3190461390
H        2.6507535951    0.4524741730   -0.7103823447
H        1.9292672774   -1.7295167770   -0.4704542116
H       -0.1782344346   -2.5114868594    0.3457310596
H       -2.3280714085    1.1577916475    0.4249108983
H       -0.6933251529    2.6861648554   -0.1167591101
C       -1.2177797185   -0.6935049114    0.4289935354
H       -2.1060479352   -1.2174972758    0.7702748496
13   
Frame   8 IRC: Energy =  -286.9445970151 ; +1.0104 kcal/mol
C        1.6017416412    0.3650861171   -0.4146746039
C        1.1496654242   -0.9865456718   -0.3389232667
C       -0.0936108640   -1.4358874406    0.1560904803
C       -1.3364117665    0.7415684730    0.2771796228
C       -0.3798799431    1.6463191890   -0.0830780161
N        0.9900750565    1.5164518805   -0.2813240855
H        2.6741688811    0.4604823302   -0.6078990128
H        1.9040269183   -1.7384891301   -0.5516904464
H       -0.1813711259   -2.5090196201    0.3210345619
H       -2.3330318514    1.1540652990    0.4230815349
H       -0.7075937496    2.6772006065   -0.2019935120
C       -1.2062114792   -0.6816943502    0.4676330026
H       -2.0815671417   -1.2095376826    0.8345637409
13   
Frame   9 IRC: Energy =  -286.9436570703 ; +1.6003 kcal/mol
C        1.6090993753    0.3692252409   -0.3790112812
C        1.1370514427   -0.9910175775   -0.3769125524
C       -0.0883412185   -1.4318831301    0.1392493576
C       -1.3368960879    0.7424110835    0.2882754528
C       -0.3901940041    1.6427097450   -0.1169996170
N        0.9872888613    1.5055213233   -0.2503354070
H        2.6921868198    0.4662017295   -0.4983823649
H        1.8780112543   -1.7427169590   -0.6337067398
H       -0.1892004142   -2.5076243567    0.2800810898
H       -2.3361778395    1.1495719336    0.4341981410
H       -0.7196099169    2.6635315064   -0.2963619166
C       -1.1911456823   -0.6678472596    0.5069016604
H       -2.0520725901   -1.1980832794    0.9030041773
13   
Frame  10 IRC: Energy =  -286.9425344991 ; +2.3047 kcal/mol
C        1.6142414826    0.3707499626   -0.3481892409
C        1.1272280375   -0.9914539434   -0.4087593811
C       -0.0845272692   -1.4277039169    0.1209625894
C       -1.3364541972    0.7432695879    0.2989317701
C       -0.3994048573    1.6367254661   -0.1549001719
N        0.9812925101    1.4955378368   -0.2293639204
H        2.7034235957    0.4683202322   -0.3758546921
H        1.8531070424   -1.7409794516   -0.7115923970
H       -0.2012843843   -2.5061758311    0.2269392456
H       -2.3369883369    1.1450583350    0.4541063932
H       -0.7295614876    2.6447772213   -0.3925143966
C       -1.1734930816   -0.6544341106    0.5441525137
H       -2.0175790542   -1.1836913882    0.9760816879
13   
Frame  11 IRC: Energy =  -286.9411095944 ; +3.1988 kcal/mol
C        1.6186809831    0.3701455897   -0.3038982127
C        1.1201699313   -0.9872392251   -0.4299541996
C       -0.0844864322   -1.4243282371    0.1021879370
C       -1.3335322477    0.7439301077    0.3079254185
C       -0.4071775009    1.6259935225   -0.1969874847
N        0.9751423918    1.4882811938   -0.2122058760
H        2.7074295287    0.4679246708   -0.2601180414
H        1.8298716824   -1.7295251059   -0.7850887195
H       -0.2209157362   -2.5045779110    0.1583476381
H       -2.3323434474    1.1437507306    0.4811776039
H       -0.7399622377    2.6172387708   -0.4939699397
C       -1.1541518556   -0.6437913444    0.5792170598
H       -1.9787250597   -1.1678027624    1.0533668165
13   
Frame  12 IRC: Energy =  -286.9391390000 ; +4.4354 kcal/mol
C        1.6180024453    0.3702975684   -0.2680386739
C        1.1128542837   -0.9775569740   -0.4511180347
C       -0.0915252931   -1.4190916451    0.0763442769
C       -1.3238423063    0.7454861954    0.3225511412
C       -0.4119971724    1.6103197713   -0.2342319686
N        0.9710253785    1.4878120579   -0.2077115100
H        2.7003975465    0.4602339475   -0.1357721264
H        1.8130830666   -1.7108694715   -0.8423166387
H       -0.2492826059   -2.4979420792    0.0829368676
H       -2.3187031743    1.1467993387    0.5154620535
H       -0.7542339656    2.5760897968   -0.5976013455
C       -1.1317117844   -0.6365687222    0.6112868478
H       -1.9340664186   -1.1550097839    1.1282091110
13   
Frame  13 IRC: Energy =  -286.9389940000 ; +4.5264 kcal/mol
C        1.6177201085    0.3716507325   -0.2668215645
C        1.1115726615   -0.9791209174   -0.4514408880
C       -0.0927166442   -1.4193594098    0.0761517107
C       -1.3246333215    0.7446155566    0.3239404856
C       -0.4130985821    1.6095395558   -0.2366220531
N        0.9692688345    1.4881276915   -0.2078126457
H        2.7020564586    0.4603369538   -0.1299808189
H        1.8135185744   -1.7107098768   -0.8451010894
H       -0.2502017305   -2.4977989633    0.0788419826
H       -2.3155465028    1.1460010321    0.5172502385
H       -0.7544674596    2.5740210445   -0.6022277111
C       -1.1330280080   -0.6334242916    0.6132764867
H       -1.9304443890   -1.1538791080    1.1305458667
13   
Frame  14 IRC: Energy =  -286.9381930000 ; +5.0290 kcal/mol
C        1.6182279893    0.3711514146   -0.2524713766
C        1.1127061685   -0.9778644382   -0.4514976030
C       -0.0900493040   -1.4186072114    0.0678711329
C       -1.3218143119    0.7440434833    0.3259727842
C       -0.4147858061    1.6041750801   -0.2532058792
N        0.9678433712    1.4850929215   -0.2112413824
H        2.6966890915    0.4614847865   -0.0933470598
H        1.8083269789   -1.7055530166   -0.8604236084
H       -0.2621392116   -2.4952881743    0.0509403350
H       -2.3121794360    1.1493490574    0.5351593840
H       -0.7590084910    2.5631556749   -0.6322164889
C       -1.1250220134   -0.6321470281    0.6215688799
H       -1.9187950255   -1.1489925498    1.1528908822
13   
Frame  15 IRC: Energy =  -286.9380840000 ; +5.0974 kcal/mol
C        1.6184307111    0.3697533753   -0.2510633945
C        1.1139939638   -0.9764084058   -0.4515535153
C       -0.0905735345   -1.4195662446    0.0673509845
C       -1.3218516367    0.7446701946    0.3260200332
C       -0.4137067469    1.6043535245   -0.2554090494
N        0.9668697125    1.4853735692   -0.2115113257
H        2.6959057782    0.4615712624   -0.0897164660
H        1.8076095249   -1.7050958727   -0.8619393318
H       -0.2634042164   -2.4942227997    0.0481121182
H       -2.3124173554    1.1499099506    0.5371358210
H       -0.7594616975    2.5618498057   -0.6349074500
C       -1.1235940469   -0.6338088981    0.6224264083
H       -1.9178004562   -1.1483794613    1.1550551673
13   
Frame  16 IRC: Energy =  -286.9373440000 ; +5.5618 kcal/mol
C        1.6185072554    0.3724614886   -0.2402440044
C        1.1117811482   -0.9792217118   -0.4509342622
C       -0.0891131526   -1.4184019926    0.0612655384
C       -1.3203509724    0.7416517321    0.3292806316
C       -0.4169826583    1.5987212216   -0.2693235587
N        0.9641349205    1.4829186936   -0.2145268754
H        2.6938877380    0.4628348732   -0.0584856171
H        1.8051817541   -1.7008373229   -0.8746709389
H       -0.2730939570   -2.4931601722    0.0236124067
H       -2.3048125579    1.1511129671    0.5511139512
H       -0.7630405395    2.5522636177   -0.6601835901
C       -1.1208536156   -0.6265115487    0.6300000275
H       -1.9052453628   -1.1438318457    1.1730962914
13   
Frame  17 IRC: Energy =  -286.9372060000 ; +5.6484 kcal/mol
C        1.6197125610    0.3722669887   -0.2392900299
C        1.1109422273   -0.9803920004   -0.4509852933
C       -0.0874747551   -1.4184463009    0.0598830616
C       -1.3212181693    0.7393368787    0.3306812059
C       -0.4155994866    1.5980634324   -0.2704667431
N        0.9624090295    1.4836299961   -0.2147735200
H        2.6934522370    0.4629041737   -0.0557882860
H        1.8048576277   -1.7001155992   -0.8755074921
H       -0.2738999595   -2.4935910126    0.0216279336
H       -2.3035177094    1.1509097140    0.5519202785
H       -0.7635481694    2.5520171594   -0.6627424645
C       -1.1223828295   -0.6232192017    0.6310487551
H       -1.9037326035   -1.1433642283    1.1743925943
13   
Frame  18 IRC: Energy =  -286.9364690000 ; +6.1108 kcal/mol
C        1.6183204439    0.3718130988   -0.2270514495
C        1.1128028738   -0.9785266151   -0.4489157588
C       -0.0895011008   -1.4186698210    0.0549782240
C       -1.3182165399    0.7411716995    0.3304059229
C       -0.4191696251    1.5932835988   -0.2856854018
N        0.9612770707    1.4810371421   -0.2189041143
H        2.6894712116    0.4643763058   -0.0250840562
H        1.8017378793   -1.6956266561   -0.8883369159
H       -0.2844016117   -2.4897347556   -0.0036165284
H       -2.2987126438    1.1541704172    0.5679065796
H       -0.7666864322    2.5409768151   -0.6861992044
C       -1.1142639126   -0.6255481449    0.6366717762
H       -1.8926576134   -1.1387230845    1.1938309266
13   
Frame  19 IRC: Energy =  -286.9361510000 ; +6.3104 kcal/mol
C        1.6183597167    0.3731052171   -0.2230040427
C        1.1116982226   -0.9800217738   -0.4482361115
C       -0.0880126583   -1.4185137255    0.0521416789
C       -1.3181269354    0.7384018660    0.3322911900
C       -0.4189242913    1.5910278385   -0.2911824153
N        0.9594921635    1.4797847883   -0.2201562612
H        2.6882997336    0.4649081277   -0.0136160634
H        1.8007262385   -1.6934821490   -0.8927376076
H       -0.2880694668   -2.4894224022   -0.0127968883
H       -2.2953076503    1.1545913917    0.5728833470
H       -0.7681099709    2.5376487620   -0.6954433374
C       -1.1147322383   -0.6212672017    0.6395444538
H       -1.8872928637   -1.1367607389    1.2003120577
13   
Frame  20 IRC: Energy =  -286.9351040000 ; +6.9674 kcal/mol
C        1.6176198702    0.3726979481   -0.2072812707
C        1.1127338323   -0.9797978441   -0.4454258445
C       -0.0884853144   -1.4191400720    0.0445127256
C       -1.3158985139    0.7371641496    0.3326175217
C       -0.4214020286    1.5842638413   -0.3090697455
N        0.9566299300    1.4778736730   -0.2259274413
H        2.6825848617    0.4663750245    0.0239860709
H        1.7970559296   -1.6865572635   -0.9083165834
H       -0.3008318470   -2.4854830332   -0.0430713912
H       -2.2875761047    1.1586448686    0.5918464992
H       -0.7719212487    2.5249334813   -0.7243187624
C       -1.1083156209   -0.6197493828    0.6461489358
H       -1.8721937455   -1.1312253909    1.2242992857
13   
Frame  21 IRC: Energy =  -286.9349420000 ; +7.0690 kcal/mol
C        1.6173164494    0.3714457902   -0.2055440107
C        1.1142899680   -0.9788159491   -0.4453036593
C       -0.0905044501   -1.4196292597    0.0446687337
C       -1.3166119853    0.7386872158    0.3323396536
C       -0.4230897321    1.5845423208   -0.3115245915
N        0.9570631879    1.4782916878   -0.2266385364
H        2.6821289789    0.4665761768    0.0280489260
H        1.7965451883   -1.6858609113   -0.9101075583
H       -0.3021770845   -2.4845300707   -0.0464980668
H       -2.2861917746    1.1589759127    0.5939689896
H       -0.7719103899    2.5225571412   -0.7268658838
C       -1.1057093070   -0.6213842371    0.6461267082
H       -1.8711490491   -1.1308558175    1.2273292956
13   
Frame  22 IRC: Energy =  -286.9341000000 ; +7.5974 kcal/mol
C        1.6166660360    0.3731214580   -0.1934878155
C        1.1124041346   -0.9806060746   -0.4434208947
C       -0.0878475382   -1.4196619276    0.0369720674
C       -1.3147641161    0.7331264857    0.3346437781
C       -0.4211301154    1.5780710487   -0.3253628070
N        0.9525043213    1.4754597701   -0.2305957024
H        2.6764868911    0.4675012040    0.0584671153
H        1.7937227309   -1.6794061280   -0.9224310771
H       -0.3119518336   -2.4821248383   -0.0695299004
H       -2.2790991095    1.1619547686    0.6076327301
H       -0.7754404310    2.5134088872   -0.7503971011
C       -1.1046338506   -0.6152137905    0.6524108236
H       -1.8569171195   -1.1256308634    1.2450987837
13   
Frame  23 IRC: Energy =  -286.9336380000 ; +7.8873 kcal/mol
C        1.6158837038    0.3720798412   -0.1870114267
C        1.1130944129   -0.9801214516   -0.4424179460
C       -0.0889546708   -1.4197261705    0.0343302440
C       -1.3136464830    0.7345146727    0.3337697199
C       -0.4242946386    1.5749318879   -0.3321692850
N        0.9522792561    1.4750081949   -0.2330409425
H        2.6736072925    0.4680022861    0.0739764270
H        1.7921136552   -1.6761638676   -0.9290919702
H       -0.3169586343   -2.4802174369   -0.0813569124
H       -2.2750826963    1.1635892229    0.6150964794
H       -0.7765041788    2.5074206579   -0.7615381182
C       -1.1008608183   -0.6158572371    0.6542502112
H       -1.8506762007   -1.1234605998    1.2552035196
13   
Frame  24 IRC: Energy =  -286.9332680000 ; +8.1195 kcal/mol
C        1.6155722939    0.3728948718   -0.1821626251
C        1.1125541485   -0.9807448365   -0.4419676320
C       -0.0881211937   -1.4202765779    0.0311519020
C       -1.3133575864    0.7305265707    0.3354109271
C       -0.4215601036    1.5728966880   -0.3380864199
N        0.9494881632    1.4738050369   -0.2345402640
H        2.6710271655    0.4682009758    0.0864417646
H        1.7909495427   -1.6733667636   -0.9341795781
H       -0.3206857200   -2.4790846386   -0.0902588561
H       -2.2723414465    1.1648915986    0.6203117435
H       -0.7779712796    2.5038608486   -0.7709929197
C       -1.1010616332   -0.6123835950    0.6567963388
H       -1.8444923510   -1.1212201788    1.2620756189
13   
Frame  25 IRC: Energy =  -286.9327990000 ; +8.4138 kcal/mol
C        1.6146895787    0.3717206484   -0.1756538584
C        1.1130701179   -0.9802469345   -0.4411964700
C       -0.0890451117   -1.4202261167    0.0284384923
C       -1.3121661420    0.7321412674    0.3343442331
C       -0.4251370653    1.5696597288   -0.3446431069
N        0.9495646923    1.4732509598   -0.2369398320
H        2.6677422513    0.4685470367    0.1021590996
H        1.7891699959   -1.6698446823   -0.9410539189
H       -0.3255648047   -2.4771699344   -0.1015986437
H       -2.2681147138    1.1665513369    0.6275277164
H       -0.7789463290    2.4978995377   -0.7819812747
C       -1.0971370924   -0.6132620249    0.6583476246
H       -1.8381253771   -1.1190208228    1.2722499385
13   
Frame  26 IRC: Energy =  -286.9316060000 ; +9.1624 kcal/mol
C        1.6123382617    0.3715807667   -0.1602137988
C        1.1118831524   -0.9807022185   -0.4407858878
C       -0.0886004478   -1.4209663001    0.0199865952
C       -1.3105465405    0.7277334411    0.3354397027
C       -0.4236626979    1.5628171577   -0.3618543706
N        0.9446568571    1.4708124828   -0.2421747698
H        2.6578974227    0.4683224444    0.1429921200
H        1.7850505905   -1.6603255641   -0.9591294500
H       -0.3366488075   -2.4735182487   -0.1272600195
H       -2.2581386687    1.1707110272    0.6433172379
H       -0.7822711956    2.4851928779   -0.8097062851
C       -1.0926931450   -0.6091189209    0.6643501117
H       -1.8192647815   -1.1125389454    1.2950388141
13   
Frame  27 IRC: Energy =  -286.9314000000 ; +9.2917 kcal/mol
C        1.6115042355    0.3727363943   -0.1587442507
C        1.1123130930   -0.9809218655   -0.4412050732
C       -0.0889743138   -1.4220332248    0.0189310532
C       -1.3104584059    0.7241702432    0.3368609481
C       -0.4200438377    1.5630263434   -0.3646076441
N        0.9423650208    1.4697133723   -0.2424607327
H        2.6570223903    0.4681814627    0.1478741084
H        1.7845188195   -1.6590893193   -0.9610312388
H       -0.3376893621   -2.4727784525   -0.1300389751
H       -2.2576916689    1.1713968266    0.6449041260
H       -0.7828903534    2.4839427571   -0.8130047535
C       -1.0933758141   -0.6067579548    0.6654115031
H       -1.8165998031   -1.1115865827    1.2971109292
13   
Frame  28 IRC: Energy =  -286.9304520000 ; +9.8866 kcal/mol
C        1.6093216000    0.3702068227   -0.1461043105
C        1.1118595872   -0.9802359494   -0.4415769700
C       -0.0896014330   -1.4218072142    0.0131314352
C       -1.3085327696    0.7263796989    0.3348172247
C       -0.4259298823    1.5562749785   -0.3765732159
N        0.9425536054    1.4688090603   -0.2472039593
H        2.6471945764    0.4677052903    0.1812853957
H        1.7806490087   -1.6509988035   -0.9764875240
H       -0.3462486609   -2.4699128920   -0.1491741381
H       -2.2481303062    1.1745011337    0.6569812817
H       -0.7847011104    2.4731193796   -0.8339376793
C       -1.0863417907   -0.6073125055    0.6684569925
H       -1.8020924246   -1.1067289996    1.3163854675
13   
Frame  29 IRC: Energy =  -286.9300510000 ; +10.1382 kcal/mol
C        1.6082702092    0.3707329550   -0.1419220801
C        1.1109287505   -0.9806172915   -0.4419440918
C       -0.0890525975   -1.4223985623    0.0103447097
C       -1.3077329845    0.7226724411    0.3359295169
C       -0.4219180731    1.5549678143   -0.3822732084
N        0.9387984392    1.4677694452   -0.2484544165
H        2.6437085128    0.4672755145    0.1943206734
H        1.7794250764   -1.6479142610   -0.9823275228
H       -0.3491537303   -2.4688568148   -0.1559313223
H       -2.2457472638    1.1759624158    0.6611249475
H       -0.7858657866    2.4696511907   -0.8420206725
C       -1.0860492846   -0.6048589691    0.6706877283
H       -1.7956112678   -1.1043858779    1.3224657387
13   
Frame  30 IRC: Energy =  -286.9288880000 ; +10.8680 kcal/mol
C        1.6048684734    0.3686896047   -0.1286579285
C        1.1102853686   -0.9801307574   -0.4439808637
C       -0.0896444311   -1.4231423606    0.0041315370
C       -1.3052536058    0.7229624205    0.3340638958
C       -0.4257287691    1.5482612618   -0.3954016380
N        0.9379417185    1.4661781309   -0.2538704231
H        2.6307131162    0.4659632729    0.2330619254
H        1.7747532029   -1.6383534039   -1.0005223298
H       -0.3575955537   -2.4659906942   -0.1744659902
H       -2.2351346785    1.1793985547    0.6728181202
H       -0.7879580661    2.4587913319   -0.8638836283
C       -1.0787119374   -0.6041081397    0.6739609935
H       -1.7785348379   -1.0985192214    1.3427463296
13   
Frame  31 IRC: Energy =  -286.9285350000 ; +11.0895 kcal/mol
C        1.6036267079    0.3689303208   -0.1256071103
C        1.1100451675   -0.9802064221   -0.4447921773
C       -0.0897424627   -1.4237509464    0.0023036693
C       -1.3047537410    0.7195241297    0.3352101721
C       -0.4216652096    1.5481062915   -0.4003334770
N        0.9342972630    1.4653118888   -0.2549309651
H        2.6275112391    0.4654230785    0.2439559288
H        1.7736591331   -1.6357384779   -1.0054476202
H       -0.3596535266   -2.4652899784   -0.1792080590
H       -2.2330943686    1.1805151035    0.6756269738
H       -0.7887363991    2.4558954662   -0.8697069244
C       -1.0785135223   -0.6023323789    0.6757893128
H       -1.7729802806   -1.0963880752    1.3471402765
13   
Frame  32 IRC: Energy =  -286.9271870000 ; +11.9354 kcal/mol
C        1.5992251983    0.3667731062   -0.1120920407
C        1.1084359264   -0.9802029823   -0.4479468138
C       -0.0893573531   -1.4249903542   -0.0041865782
C       -1.3011957870    0.7195967653    0.3325253680
C       -0.4249464728    1.5412795950   -0.4140749181
N        0.9334502895    1.4635541201   -0.2618974801
H        2.6105235476    0.4633252509    0.2879929921
H        1.7683261224   -1.6250152051   -1.0264205911
H       -0.3679048833   -2.4630511567   -0.1965888758
H       -2.2214799848    1.1841080115    0.6867209464
H       -0.7910445057    2.4457842073   -0.8913837484
C       -1.0701370832   -0.6013491276    0.6792312630
H       -1.7538950144   -1.0898122301    1.3681204768
13   
Frame  33 IRC: Energy =  -286.9268690000 ; +12.1349 kcal/mol
C        1.5981504591    0.3670215595   -0.1098146101
C        1.1092681677   -0.9797852985   -0.4490878785
C       -0.0902492004   -1.4258915574   -0.0051820173
C       -1.3009871536    0.7162808537    0.3336574340
C       -0.4210689712    1.5413047954   -0.4179532827
N        0.9306526047    1.4626363760   -0.2629188502
H        2.6071647810    0.4627413008    0.2968349187
H        1.7673379462   -1.6228737026   -1.0304470719
H       -0.3693508709   -2.4627635697   -0.1998695944
H       -2.2198144716    1.1849237900    0.6885542857
H       -0.7917741156    2.4440290161   -0.8956366493
C       -1.0699811941   -0.5995683155    0.6806509791
H       -1.7493479814   -1.0880552478    1.3712123368
13   
Frame  34 IRC: Energy =  -286.9256650000 ; +12.8905 kcal/mol
C        1.5938021705    0.3646951469   -0.0990713289
C        1.1076153676   -0.9802923591   -0.4523328692
C       -0.0895922613   -1.4273218920   -0.0101433938
C       -1.2973713310    0.7180445829    0.3302225398
C       -0.4261138207    1.5357050993   -0.4283703038
N        0.9315525900    1.4614410756   -0.2698030302
H        2.5910562262    0.4608986589    0.3343935393
H        1.7625226282   -1.6137901477   -1.0482610305
H       -0.3756039988   -2.4608241854   -0.2125928705
H       -2.2094015191    1.1876276252    0.6966842951
H       -0.7932861213    2.4361468486   -0.9118275700
C       -1.0615385955   -0.5997736014    0.6826345601
H       -1.7336413347   -1.0825568518    1.3884674626
13   
Frame  35 IRC: Energy =  -286.9250630000 ; +13.2682 kcal/mol
C        1.5916864687    0.3646204772   -0.0947699496
C        1.1072438949   -0.9802318877   -0.4540814029
C       -0.0892638989   -1.4280499746   -0.0123898488
C       -1.2959943509    0.7137926841    0.3309673925
C       -0.4208877384    1.5351151803   -0.4349958651
N        0.9272072538    1.4601215474   -0.2725811806
H        2.5833618322    0.4597632571    0.3521208009
H        1.7606322788   -1.6097181011   -1.0565202669
H       -0.3783474282   -2.4607978853   -0.2181354212
H       -2.2057675729    1.1890514340    0.6998967694
H       -0.7944683910    2.4330816763   -0.9191511265
C       -1.0603190035   -0.5975336670    0.6850888943
H       -1.7250833445   -1.0792147407    1.3945512044
13   
Frame  36 IRC: Energy =  -286.9236200000 ; +14.1737 kcal/mol
C        1.5865374512    0.3621627242   -0.0840855237
C        1.1058925089   -0.9810114701   -0.4583899079
C       -0.0885573835   -1.4304269475   -0.0170409411
C       -1.2916597822    0.7148193889    0.3273679489
C       -0.4247176881    1.5299699546   -0.4457404668
N        0.9280186249    1.4586013021   -0.2818156587
H        2.5627512006    0.4575268217    0.3942854795
H        1.7553255315   -1.5999645406   -1.0762348473
H       -0.3844664214   -2.4593507564   -0.2299497900
H       -2.1944576120    1.1915772319    0.7071532010
H       -0.7961381794    2.4264105028   -0.9345940077
C       -1.0509265566   -0.5972649957    0.6871659180
H       -1.7076016939   -1.0730492161    1.4118785959
13   
Frame  37 IRC: Energy =  -286.9230410000 ; +14.5370 kcal/mol
C        1.5850654671    0.3615743464   -0.0807017881
C        1.1047384034   -0.9811402257   -0.4596103178
C       -0.0870348289   -1.4303903239   -0.0190079620
C       -1.2903619481    0.7114081966    0.3279227400
C       -0.4193703395    1.5302416669   -0.4515330561
N        0.9235310507    1.4577449168   -0.2847908186
H        2.5549868617    0.4565080082    0.4097009442
H        1.7538702186   -1.5966529695   -1.0834326037
H       -0.3867858243   -2.4601126767   -0.2340772261
H       -2.1913787415    1.1925670675    0.7093486921
H       -0.7970383438    2.4241186953   -0.9398753900
C       -1.0501586028   -0.5958434627    0.6897583140
H       -1.7000633726   -1.0700232391    1.4162984721
13   
Frame  38 IRC: Energy =  -286.9216180000 ; +15.4300 kcal/mol
C        1.5797922293    0.3591984405   -0.0714861963
C        1.1042895054   -0.9821593583   -0.4641246807
C       -0.0869933459   -1.4337099899   -0.0225358052
C       -1.2860725794    0.7128635023    0.3242792327
C       -0.4242257450    1.5258414164   -0.4597344642
N        0.9262867454    1.4563048316   -0.2950778481
H        2.5337375613    0.4544962554    0.4484252013
H        1.7489090519   -1.5880245582   -1.1011538047
H       -0.3916922113   -2.4583309957   -0.2432623782
H       -2.1809987720    1.1944687407    0.7147194188
H       -0.7982815697    2.4193925589   -0.9520553493
C       -1.0401711650   -0.5956834401    0.6905319106
H       -1.6845797051   -1.0646574036    1.4314747634
13   