13   
Frame   0 IRC: Energy =  -286.9462072305 ; +0.0000 kcal/mol
C        1.5927980874    0.3373116769   -0.4654699911
C        1.1949131981   -0.9668224123   -0.2263173827
C       -0.1051399606   -1.4450283889    0.1707205757
C       -1.3349305159    0.7401140056    0.2899355595
C       -0.3584636629    1.6532756805   -0.0677010263
N        0.9462353619    1.5264004704   -0.4113584472
H        2.6376800823    0.4527151366   -0.7579597885
H        1.9653668003   -1.7222425638   -0.3579084832
H       -0.1963842008   -2.5211024919    0.3002092218
H       -2.3104915964    1.1633962571    0.5151080940
H       -0.6853991510    2.6941718407   -0.0817611041
C       -1.2210106484   -0.6924064405    0.3985552598
H       -2.1251737936   -1.2197827700    0.6939475121
13   
Frame   1 IRC: Energy =  -286.9456816585 ; +0.3298 kcal/mol
C        1.5896503043    0.3499013936   -0.4622376918
C        1.1801406043   -0.9694994332   -0.2513450214
C       -0.1015989850   -1.4422866928    0.1808084017
C       -1.3364093763    0.7402655380    0.2616477025
C       -0.3621525616    1.6502203749   -0.0476436542
N        0.9756356983    1.5304570617   -0.3599069531
H        2.6337429692    0.4457788724   -0.7703154236
H        1.9483754664   -1.7216213085   -0.4072226323
H       -0.1782687873   -2.5149269264    0.3491343355
H       -2.3234232274    1.1592127838    0.4429133303
H       -0.6803103811    2.6922269624   -0.0599197990
C       -1.2237212370   -0.6992384179    0.4017525476
H       -2.1216604868   -1.2204902080    0.7223348578
13   
Frame   2 IRC: Energy =  -286.9451382117 ; +0.6708 kcal/mol
C        1.5968329761    0.3600297362   -0.4340986565
C        1.1616665049   -0.9801335529   -0.3033321995
C       -0.0976855672   -1.4387915676    0.1672404701
C       -1.3359548141    0.7408689257    0.2691928907
C       -0.3719583957    1.6476347626   -0.0641710212
N        0.9877225455    1.5239297801   -0.3100928821
H        2.6563111682    0.4543748937   -0.6860581230
H        1.9232765267   -1.7316463478   -0.4897354757
H       -0.1789789223   -2.5109012649    0.3398693934
H       -2.3292487601    1.1569072058    0.4244767024
H       -0.6967117769    2.6840372082   -0.1369893315
C       -1.2150340192   -0.6907016974    0.4381645386
H       -2.1002374659   -1.2156080817    0.7855336943
13   
Frame   3 IRC: Energy =  -286.9444258487 ; +1.1178 kcal/mol
C        1.6030815039    0.3658398624   -0.4081802194
C        1.1473683851   -0.9873600175   -0.3458412151
C       -0.0926512477   -1.4351582452    0.1530236677
C       -1.3364999627    0.7417219146    0.2792002025
C       -0.3817581606    1.6456618998   -0.0892552285
N        0.9895676831    1.5144613974   -0.2756809660
H        2.6774499949    0.4615238478   -0.5879557444
H        1.8992893978   -1.7392590288   -0.5666258282
H       -0.1827968598   -2.5087655390    0.3135768274
H       -2.3336047441    1.1532470454    0.4251058980
H       -0.7097819251    2.6747114276   -0.2191782457
C       -1.2034679581   -0.6791727588    0.4747839281
H       -2.0761961066   -1.2074518058    0.8470269237
13   
Frame   4 IRC: Energy =  -286.9435708069 ; +1.6544 kcal/mol
C        1.6094945178    0.3693424074   -0.3766427775
C        1.1362965683   -0.9910511098   -0.3793598054
C       -0.0880481376   -1.4315619806    0.1378441204
C       -1.3368621310    0.7424770548    0.2890943319
C       -0.3909018073    1.6422498862   -0.1199120654
N        0.9868280748    1.5047541475   -0.2487238640
H        2.6930503040    0.4663645247   -0.4889667896
H        1.8760975031   -1.7425834412   -0.6396918226
H       -0.1901290006   -2.5075130455    0.2759974324
H       -2.3362401217    1.1492250885    0.4357279803
H       -0.7203746402    2.6620903431   -0.3037507039
C       -1.1897891773   -0.6668165332    0.5097641828
H       -2.0494219522   -1.1969773420    0.9086197806
13   
Frame   5 IRC: Energy =  -286.9426044322 ; +2.2608 kcal/mol
C        1.6139211433    0.3706549765   -0.3501093702
C        1.1278400089   -0.9914267590   -0.4067754103
C       -0.0847648678   -1.4279642705    0.1221018054
C       -1.3364817258    0.7432161054    0.2982679105
C       -0.3988310462    1.6370982704   -0.1525390704
N        0.9816660665    1.4961597808   -0.2306703869
H        2.7027235752    0.4681882553   -0.3834878329
H        1.8546585070   -1.7410876936   -0.7067403324
H       -0.2005315859   -2.5062660703    0.2302498379
H       -2.3369378451    1.1453395199    0.4528661633
H       -0.7289415318    2.6459455623   -0.3865243586
C       -1.1745927906   -0.6552697133    0.5418318869
H       -2.0197279077   -1.1845879639    0.9715291578
13   
Frame   6 IRC: Energy =  -286.9414303271 ; +2.9976 kcal/mol
C        1.6176816932    0.3702816283   -0.3138677073
C        1.1217586447   -0.9881879186   -0.4251834450
C       -0.0844956242   -1.4250880709    0.1064139350
C       -1.3341899511    0.7437814309    0.3059010327
C       -0.4054279518    1.6284091823   -0.1875140258
N        0.9765267257    1.4899145960   -0.2160679907
H        2.7065278308    0.4680137080   -0.2861692749
H        1.8351017438   -1.7321033716   -0.7685453874
H       -0.2164969032   -2.5049375878    0.1737869650
H       -2.3333889684    1.1440450601    0.4750841285
H       -0.7376211265    2.6234374174   -0.4711332495
C       -1.1585053840   -0.6461869312    0.5713243597
H       -1.9874707290   -1.1713791429    1.0359706597
13   
Frame   7 IRC: Energy =  -286.9399381625 ; +3.9339 kcal/mol
C        1.6182776221    0.3702359344   -0.2825812898
C        1.1158210997   -0.9814835515   -0.4425351712
C       -0.0886707263   -1.4212153128    0.0868250146
C       -1.3277720026    0.7448551336    0.3166197691
C       -0.4100425842    1.6166761649   -0.2191276968
N        0.9726950080    1.4880023131   -0.2095341726
H        2.7032493238    0.4633528731   -0.1861998492
H        1.8198915867   -1.7184351496   -0.8191082073
H       -0.2377785960   -2.5006332001    0.1135192428
H       -2.3242349033    1.1455629944    0.5015582054
H       -0.7484461540    2.5927775107   -0.5555742648
C       -1.1408122176   -0.6394978124    0.5982811421
H       -1.9521774564   -1.1601978978    1.0978572778
13   
Frame   8 IRC: Energy =  -286.9380785760 ; +5.1008 kcal/mol
C        1.6184312721    0.3697732251   -0.2509840911
C        1.1139777444   -0.9764290267   -0.4515489763
C       -0.0905628302   -1.4195577109    0.0673063797
C       -1.3218406372    0.7446480700    0.3260439326
C       -0.4137307585    1.6043122411   -0.2555110393
N        0.9668496671    1.4853555756   -0.2115334289
H        2.6958909865    0.4615805243   -0.0894875515
H        1.8075917299   -1.7050646586   -0.8620326514
H       -0.2634752398   -2.4942150109    0.0479325413
H       -2.3123616141    1.1499187684    0.5372382773
H       -0.7594879295    2.5617795413   -0.6350927179
C       -1.1235739602   -0.6337554103    0.6224819211
H       -1.9177084305   -1.1483461284    1.1551874044
13   
Frame   9 IRC: Energy =  -286.9357262628 ; +6.5769 kcal/mol
C        1.6180595827    0.3729400000   -0.2166257756
C        1.1121183391   -0.9799309321   -0.4470960687
C       -0.0882044010   -1.4187678159    0.0490468365
C       -1.3172229302    0.7378997608    0.3324235732
C       -0.4199294366    1.5882838834   -0.2984387802
N        0.9583310394    1.4790095049   -0.2224974596
H        2.6859813778    0.4655032047    0.0016380188
H        1.7992373019   -1.6906729262   -0.8990575408
H       -0.2932467898   -2.4878243158   -0.0250783655
H       -2.2921711892    1.1562357683    0.5805761413
H       -0.7696560944    2.5324905458   -0.7071572498
C       -1.1121292050   -0.6206514671    0.6422236983
H       -1.8811675946   -1.1345152107    1.2100429721
13   
Frame  10 IRC: Energy =  -286.9330624516 ; +8.2485 kcal/mol
C        1.6151854268    0.3723802456   -0.1793100315
C        1.1127802821   -0.9805266213   -0.4416296553
C       -0.0885261188   -1.4202544623    0.0299626974
C       -1.3128354127    0.7312342429    0.3349434277
C       -0.4231277766    1.5714780277   -0.3409600155
N        0.9495217036    1.4735622018   -0.2355919214
H        2.6695874880    0.4683526437    0.0933301924
H        1.7901696217   -1.6718231430   -0.9371923916
H       -0.3228240737   -2.4782454822   -0.0952287386
H       -2.2704889987    1.1656190112    0.6234742840
H       -0.7783986140    2.5012481882   -0.7758087800
C       -1.0993416269   -0.6127685840    0.6574762200
H       -1.8417019009   -1.1202562683    1.2665347123
13   
Frame  11 IRC: Energy =  -286.9301242033 ; +10.0923 kcal/mol
C        1.6084621427    0.3706369085   -0.1426855545
C        1.1110986766   -0.9805476767   -0.4418770730
C       -0.0891527885   -1.4222906106    0.0108534319
C       -1.3078789868    0.7233492083    0.3357264657
C       -0.4226504368    1.5552064397   -0.3812326635
N        0.9394839522    1.4679592290   -0.2482261430
H        2.6443449006    0.4673539709    0.1919410577
H        1.7796485077   -1.6484773503   -0.9812614195
H       -0.3486234041   -2.4690496038   -0.1546977850
H       -2.2461822929    1.1756956559    0.6603685131
H       -0.7856531726    2.4702843154   -0.8405451061
C       -1.0861026821   -0.6053068670    0.6702805031
H       -1.7967944158   -1.1048136194    1.3213557731
13   
Frame  12 IRC: Energy =  -286.9267568047 ; +12.2053 kcal/mol
C        1.5977452618    0.3668047716   -0.1088134924
C        1.1091141508   -0.9798325492   -0.4493902645
C       -0.0901879832   -1.4260248438   -0.0056443455
C       -1.3006502115    0.7164452076    0.3333373518
C       -0.4215390779    1.5407829851   -0.4189239977
N        0.9307364703    1.4625249914   -0.2635603558
H        2.6056636978    0.4625695933    0.3003348364
H        1.7668892285   -1.6220272473   -1.0321070740
H       -0.3699335716   -2.4625828473   -0.2010552189
H       -2.2188441358    1.1851757481    0.6893118844
H       -0.7919150126    2.4432945126   -0.8971454078
C       -1.0691944666   -0.5995874451    0.6808358200
H       -1.7478843501   -1.0875428772    1.3728202638
13   
Frame  13 IRC: Energy =  -286.9228170504 ; +14.6776 kcal/mol
C        1.5842355727    0.3612004299   -0.0792514518
C        1.1046677565   -0.9813006153   -0.4603207816
C       -0.0870283004   -1.4309127680   -0.0195631687
C       -1.2896868935    0.7116372304    0.3273493302
C       -0.4201344760    1.5295491620   -0.4528237816
N        0.9239647379    1.4575182783   -0.2864097761
H        2.5516426781    0.4561914015    0.4157953107
H        1.7530894375   -1.5952950429   -1.0862215402
H       -0.3875579843   -2.4598322784   -0.2355227718
H       -2.1897451572    1.1928663500    0.7101939292
H       -0.7972340009    2.4233749029   -0.9417922541
C       -1.0485867945   -0.5958182786    0.6898800615
H       -1.6976265758   -1.0691787718    1.4186868944
13   
Frame  14 IRC: Energy =  -286.9181216586 ; +17.6240 kcal/mol
C        1.5676998312    0.3543224469   -0.0540321814
C        1.1037336028   -0.9847049401   -0.4746132827
C       -0.0835252879   -1.4388774327   -0.0298395939
C       -1.2762043772    0.7077819492    0.3204795965
C       -0.4177543010    1.5231987201   -0.4800550591
N        0.9217930160    1.4519624390   -0.3207822226
H        2.4806599675    0.4494070830    0.5351855172
H        1.7393667906   -1.5703764222   -1.1390102211
H       -0.4022088078   -2.4583067590   -0.2609768420
H       -2.1616160406    1.1975616091    0.7230193375
H       -0.8009233584    2.4114126992   -0.9742841911
C       -1.0236665905   -0.5921314828    0.6967136956
H       -1.6473544447   -1.0512499098    1.4581954471
13   
Frame  15 IRC: Energy =  -286.9126911194 ; +21.0317 kcal/mol
C        1.5512603001    0.3467930160   -0.0324829162
C        1.1039896857   -0.9885949114   -0.4902747606
C       -0.0775693415   -1.4477310669   -0.0391847538
C       -1.2620255687    0.7056920069    0.3142467166
C       -0.4126714266    1.5212996246   -0.4981915600
N        0.9235407348    1.4456746526   -0.3638194950
H        2.3928762826    0.4406400033    0.6526876223
H        1.7295969483   -1.5501656055   -1.1871212761
H       -0.4148626123   -2.4558220310   -0.2806893186
H       -2.1392686107    1.1982603106    0.7275459107
H       -0.8019270251    2.4058626861   -0.9971226119
C       -0.9960863750   -0.5874050343    0.7015019197
H       -1.5968529918   -1.0345036511    1.4929045229
13   
Frame  16 IRC: Energy =  -286.9068069900 ; +24.7240 kcal/mol
C        1.5342197340    0.3367185628   -0.0154521090
C        1.1077990776   -0.9934766144   -0.5088054797
C       -0.0684548328   -1.4519982170   -0.0490006541
C       -1.2491009455    0.7003294829    0.3095234682
C       -0.3986342350    1.5257471160   -0.5124723419
N        0.9211244108    1.4400763277   -0.4054439018
H        2.2917975702    0.4267460621    0.7643453535
H        1.7257253241   -1.5330549695   -1.2274900819
H       -0.4287106802   -2.4535132118   -0.2989266737
H       -2.1272912977    1.1943127660    0.7229019346
H       -0.7988111341    2.4041149931   -1.0119426529
C       -0.9703838341   -0.5807889946    0.7083418880
H       -1.5392791573   -1.0152133034    1.5244212506
13   
Frame  17 IRC: Energy =  -286.9006845037 ; +28.5660 kcal/mol
C        1.5184671712    0.3235770063    0.0034186791
C        1.1119511837   -0.9984766801   -0.5271548806
C       -0.0601594869   -1.4574682346   -0.0621062369
C       -1.2400103029    0.7000311413    0.2995406380
C       -0.3925246206    1.5285883898   -0.5209881626
N        0.9231540096    1.4348180204   -0.4365813412
H        2.1811787397    0.4050421908    0.8623358230
H        1.7311713157   -1.5177491808   -1.2616806868
H       -0.4465552440   -2.4462457878   -0.3179675852
H       -2.1257217210    1.1839844378    0.7086288093
H       -0.7910908352    2.4093378405   -1.0213508691
C       -0.9387678447   -0.5731658082    0.7110014687
H       -1.4710923644   -0.9922733355    1.5629043442
13   
Frame  18 IRC: Energy =  -286.8942395267 ; +32.6103 kcal/mol
C        1.4938534074    0.3092643832    0.0226943819
C        1.1185775606   -1.0070857414   -0.5445044314
C       -0.0541019983   -1.4626732748   -0.0782665047
C       -1.2366804497    0.6991175014    0.2875854676
C       -0.3866842639    1.5355299817   -0.5290462363
N        0.9216507433    1.4247589317   -0.4527747809
H        2.0763672135    0.3769845075    0.9420062159
H        1.7469121975   -1.5005348323   -1.2877282762
H       -0.4722482071   -2.4394331193   -0.3380011812
H       -2.1358985036    1.1660116152    0.6862680237
H       -0.7796898569    2.4219423453   -1.0253316612
C       -0.9047244977   -0.5621274338    0.7144440463
H       -1.3873333452   -0.9617548642    1.6026549364
13   
Frame  19 IRC: Energy =  -286.8868886706 ; +37.2230 kcal/mol
C        1.4484262667    0.2863976289    0.0545975182
C        1.1242487726   -1.0231387387   -0.5575109722
C       -0.0513839425   -1.4734566166   -0.0983191024
C       -1.2338807389    0.7064665144    0.2771676352
C       -0.3879146869    1.5496440070   -0.5308919172
N        0.9168800120    1.4079081528   -0.4647228795
H        1.9911513327    0.3482488377    0.9979684610
H        1.7721152662   -1.4799234833   -1.3074669794
H       -0.5030099491   -2.4370058657   -0.3573000876
H       -2.1568805865    1.1413525339    0.6587252013
H       -0.7682025829    2.4436329509   -1.0262705259
C       -0.8583908110   -0.5440371143    0.7172405089
H       -1.2931583526   -0.9260888071    1.6367831395
13   
Frame  20 IRC: Energy =  -286.8779412570 ; +42.8376 kcal/mol
C        1.3698533014    0.2577074981    0.1021018069
C        1.1289426737   -1.0435712915   -0.5664211286
C       -0.0508431396   -1.4888216659   -0.1199547965
C       -1.2307190006    0.7222804092    0.2709288230
C       -0.3903131705    1.5733592492   -0.5218940687
N        0.9094262103    1.3828392767   -0.4827717827
H        1.9361228310    0.3269117664    1.0307116954
H        1.7958263008   -1.4623839082   -1.3202955842
H       -0.5282732602   -2.4426164685   -0.3743868899
H       -2.1795676069    1.1178238860    0.6304581633
H       -0.7621049922    2.4654471663   -1.0270448555
C       -0.7914417698   -0.5167538884    0.7241344940
H       -1.2069083774   -0.8922220292    1.6544341234
13   
Frame  21 IRC: Energy =  -286.8696704796 ; +48.0276 kcal/mol (Transition State)
C        1.2737120441    0.2274089555    0.1592303818
C        1.1310150849   -1.0620668488   -0.5727133308
C       -0.0533932385   -1.5073013562   -0.1433175710
C       -1.2318719375    0.7391646628    0.2618022197
C       -0.3910079896    1.5990797206   -0.5066914746
N        0.9019865410    1.3610262626   -0.5024565587
H        1.9042305759    0.3131609039    1.0452214564
H        1.8112866710   -1.4514890583   -1.3260142236
H       -0.5466582662   -2.4525613999   -0.3883926333
H       -2.1989134895    1.1000573034    0.6062412005
H       -0.7606880381    2.4807501293   -1.0278944150
C       -0.7046535197   -0.4845450636    0.7336991149
H       -1.1350444378   -0.8626842113    1.6612858337
13   
Frame  22 IRC: Energy =  -286.8701572272 ; +47.7221 kcal/mol
C        1.1760674141    0.1939921052    0.2192489091
C        1.1280317773   -1.0777606381   -0.5757170582
C       -0.0611436538   -1.5273123818   -0.1677695668
C       -1.2376595160    0.7539155107    0.2492792135
C       -0.3929087289    1.6199229719   -0.4944092490
N        0.8951759947    1.3496125301   -0.5143803769
H        1.8843064717    0.3032770294    1.0471033044
H        1.8205113500   -1.4446717249   -1.3264926068
H       -0.5635700499   -2.4635692516   -0.3999298096
H       -2.2157040271    1.0848607224    0.5867507780
H       -0.7616865118    2.4919600316   -1.0281382186
C       -0.6059172239   -0.4508664217    0.7390581536
H       -1.0655032965   -0.8333604832    1.6653965273
13   
Frame  23 IRC: Energy =  -286.8795057431 ; +41.8559 kcal/mol
C        1.0900987250    0.1593189043    0.2727667832
C        1.1209033744   -1.0923577378   -0.5759222469
C       -0.0738618675   -1.5459427187   -0.1914257582
C       -1.2439087595    0.7654373947    0.2372921406
C       -0.4000551004    1.6357271010   -0.4880403336
N        0.8859470867    1.3421891331   -0.5110944402
H        1.8637865327    0.2917773283    1.0429743489
H        1.8287010327   -1.4387185609   -1.3218589820
H       -0.5862007467   -2.4747493213   -0.4118114481
H       -2.2325970047    1.0652352291    0.5688445552
H       -0.7640024945    2.5044281671   -1.0282879343
C       -0.5127043782   -0.4164624527    0.7352679644
H       -0.9761064000   -0.7958824664    1.6712953509
13   
Frame  24 IRC: Energy =  -286.8882030332 ; +36.3982 kcal/mol
C        1.0398830022    0.1342098640    0.2970039765
C        1.1116807782   -1.1070795080   -0.5760436815
C       -0.0920139346   -1.5596497174   -0.2123878628
C       -1.2501586337    0.7716513397    0.2296755256
C       -0.4104210403    1.6482877968   -0.4834539807
N        0.8754684101    1.3391583216   -0.4948112464
H        1.8306911744    0.2709516707    1.0472356000
H        1.8420207154   -1.4335226087   -1.3088263216
H       -0.6210558384   -2.4810053437   -0.4299074600
H       -2.2545678001    1.0317281735    0.5445557143
H       -0.7643093548    2.5214188572   -1.0259704825
C       -0.4582057286   -0.3913470465    0.7220392952
H       -0.8490117499   -0.7448017991    1.6908909239
13   
Frame  25 IRC: Energy =  -286.8935405683 ; +33.0489 kcal/mol
C        1.0240649886    0.1258417844    0.2908848767
C        1.1007147134   -1.1171468733   -0.5815439975
C       -0.1096551032   -1.5637501049   -0.2255463333
C       -1.2565478281    0.7693675626    0.2260847786
C       -0.4173855457    1.6576188269   -0.4743564231
N        0.8717488101    1.3495853650   -0.4830744511
H        1.7938008592    0.2430920984    1.0619676463
H        1.8568270855   -1.4426566066   -1.2893737776
H       -0.6630144491   -2.4691831194   -0.4568488974
H       -2.2841552442    0.9836493211    0.5002820621
H       -0.7616857769    2.5384933552   -1.0112664249
C       -0.4381597252   -0.3808555149    0.7139231537
H       -0.7165527846   -0.6940560945    1.7288677876
13   
Frame  26 IRC: Energy =  -286.8961123725 ; +31.4350 kcal/mol
C        1.0228539120    0.1253451046    0.2791598058
C        1.0899763793   -1.1255238406   -0.5879000031
C       -0.1257690703   -1.5576527121   -0.2250056431
C       -1.2572990967    0.7631598960    0.2288964158
C       -0.4237743848    1.6654675832   -0.4572872100
N        0.8705660481    1.3640990852   -0.4729104886
H        1.7893118285    0.2274564927    1.0587590897
H        1.8517648000   -1.4730415475   -1.2769644113
H       -0.7107893910   -2.4388449347   -0.4754226369
H       -2.3124407119    0.9148726195    0.4272547398
H       -0.7707614712    2.5545421254   -0.9803216491
C       -0.4160119293   -0.3696816900    0.7190890643
H       -0.6076269127   -0.6501981817    1.7626529267
13   
Frame  27 IRC: Energy =  -286.8969190000 ; +30.9289 kcal/mol
C        1.0353053643    0.1299159643    0.2728727481
C        1.0742140721   -1.1269410687   -0.5962416588
C       -0.1385695619   -1.5480539586   -0.2105008476
C       -1.2523622987    0.7510074688    0.2288016915
C       -0.4260712275    1.6744010642   -0.4344993837
N        0.8724925707    1.3843821686   -0.4545798531
H        1.8216842195    0.2198245387    1.0323659012
H        1.8223344834   -1.4967304249   -1.2894938152
H       -0.7551023046   -2.4053252598   -0.4656483834
H       -2.3296604158    0.8258562125    0.3287178283
H       -0.7818515711    2.5708697019   -0.9379095071
C       -0.3937234784   -0.3597332523    0.7356339378
H       -0.5486898519   -0.6194731548    1.7904813419
