
Running Job 1 of 1 qcts2.in
qchem qcts2.in_91341.0 ./qcts2.d/ 1
/home/leeping/opt/qchem/5.0.2-openmp/exe/qcprog.exe_s qcts2.in_91341.0 ./qcts2.d/
Check license passed

                  Welcome to Q-Chem
     A Quantum Leap Into The Future Of Chemistry


 Q-Chem 5.0, Q-Chem, Inc., Pleasanton, CA (2017)

 Yihan Shao,  Zhengting Gan,  E. Epifanovsky,  A. T. B. Gilbert,  M. Wormit,  
 J. Kussmann,  A. W. Lange,  A. Behn,  Jia Deng,  Xintian Feng,  D. Ghosh,  
 M. Goldey,  P. R. Horn,  L. D. Jacobson,  I. Kaliman,  T. Kus,  A. Landau,  
 Jie Liu,  E. I. Proynov,  R. M. Richard,  R. P. Steele,  E. J. Sundstrom,  
 H. L. Woodcock III,  P. M. Zimmerman,  D. Zuev,  B. Albrecht,  E. Alguire,  
 S. A. Baeppler,  D. Barton,  Z. Benda,  Y. A. Bernard,  E. J. Berquist,  
 K. B. Bravaya,  H. Burton,  D. Casanova,  Chun-Min Chang,  Yunqing Chen,  
 A. Chien,  K. D. Closser,  M. P. Coons,  S. Dasgupta,  A. L. Dempwolff,  
 M. Diedenhofen,  Hainam Do,  R. G. Edgar,  Po-Tung Fang,  S. Fatehi,  
 Qingguo Feng,  J. Fosso-Tande,  Qinghui Ge,  A. Ghysels,  G. Gidofalvi,  
 J. Gomes,  J. Gonthier,  A. Gunina,  M. W. D. Hanson-Heine,  
 P. H. P. Harbach,  A. W. Hauser,  J. E. Herr,  E. G. Hohenstein,  
 Z. C. Holden,  Kerwin Hui,  T.-C. Jagau,  Hyunjun Ji,  B. Kaduk,  
 K. Khistyaev,  Jaehoon Kim,  P. Klunzinger,  K. Koh,  D. Kosenkov,  
 L. Koulias,  T. Kowalczyk,  C. M. Krauter,  A. Kunitsa,  Ka Un Lao,  
 A. Laurent,  K. V. Lawler,  Joonho Lee,  D. Lefrancois,  S. Lehtola,  
 D. S. Levine,  Yi-Pei Li,  You-Sheng Lin,  Fenglai Liu,  E. Livshits,  
 A. Luenser,  P. Manohar,  E. Mansoor,  S. F. Manzer,  Shan-Ping Mao,  
 Yuezhi Mao,  N. Mardirossian,  A. V. Marenich,  T. Markovich,  
 L. A. Martinez-Martinez,  S. A. Maurer,  N. J. Mayhall,  S. C. McKenzie,  
 J.-M. Mewes,  A. F. Morrison,  J. W. Mullinax,  K. Nanda,  
 T. S. Nguyen-Beck,  R. Olivares-Amaya,  J. A. Parkhill,  T. M. Perrine,  
 F. Plasser,  S. Prager,  A. Prociuk,  E. Ramos,  D. R. Rehn,  F. Rob,  
 M. Schneider,  N. Sergueev,  S. M. Sharada,  S. Sharma,  D. W. Small,  
 T. Stauch,  T. Stein,  Yu-Chuan Su,  A. J. W. Thom,  A. Tkatchenko,  
 T. Tsuchimochi,  L. Vogt,  O. Vydrov,  M. A. Watson,  J. Wenzel,  
 M. de Wergifosse,  T. A. Wesolowski,  A. White,  J. Witte,  A. Yamada,  
 Jun Yang,  K. Yao,  S. Yeganeh,  S. R. Yost,  Zhi-Qiang You,  A. Zech,  
 Igor Ying Zhang,  Xing Zhang,  Yan Zhao,  Ying Zhu,  B. R. Brooks,  
 G. K. L. Chan,  C. J. Cramer,  M. S. Gordon,  W. J. Hehre,  A. Klamt,  
 M. W. Schmidt,  C. D. Sherrill,  D. G. Truhlar,  A. Aspuru-Guzik,  R. Baer,  
 A. T. Bell,  N. A. Besley,  Jeng-Da Chai,  R. A. DiStasio Jr.,  A. Dreuw,  
 B. D. Dunietz,  T. R. Furlani,  Chao-Ping Hsu,  Yousung Jung,  Jing Kong,  
 D. S. Lambrecht,  WanZhen Liang,  C. Ochsenfeld,  V. A. Rassolov,  
 L. V. Slipchenko,  J. E. Subotnik,  T. Van Voorhis,  J. M. Herbert,  
 A. I. Krylov,  P. M. W. Gill,  M. Head-Gordon

 Contributors to earlier versions of Q-Chem not listed above: 
 R. D. Adamson,  B. Austin,  J. Baker,  G. J. O. Beran,  K. Brandhorst,  
 S. T. Brown,  E. F. C. Byrd,  A. K. Chakraborty,  C.-L. Cheng,  
 Siu Hung Chien,  D. M. Chipman,  D. L. Crittenden,  H. Dachsel,  
 R. J. Doerksen,  A. D. Dutoi,  L. Fusti-Molnar,  W. A. Goddard III,  
 A. Golubeva-Zadorozhnaya,  S. R. Gwaltney,  G. Hawkins,  A. Heyden,  
 S. Hirata,  G. Kedziora,  F. J. Keil,  C. Kelley,  Jihan Kim,  R. A. King,  
 R. Z. Khaliullin,  P. P. Korambath,  W. Kurlancheek,  A. M. Lee,  M. S. Lee,  
 S. V. Levchenko,  Ching Yeh Lin,  D. Liotard,  R. C. Lochan,  I. Lotan,  
 P. E. Maslen,  N. Nair,  D. P. O'Neill,  D. Neuhauser,  E. Neuscamman,  
 C. M. Oana,  R. Olson,  B. Peters,  R. Peverati,  P. A. Pieniazek,  
 Y. M. Rhee,  J. Ritchie,  M. A. Rohrdanz,  E. Rosta,  N. J. Russ,  
 H. F. Schaefer III,  N. E. Schultz,  N. Shenvi,  A. C. Simmonett,  A. Sodt,  
 D. Stuck,  K. S. Thanthiriwatte,  V. Vanovschi,  Tao Wang,  A. Warshel,  
 C. F. Williams,  Q. Wu,  X. Xu,  W. Zhang

 Please cite Q-Chem as follows:
 Y. Shao et al., Mol. Phys. 113, 184-215 (2015)
 DOI: 10.1080/00268976.2014.952696

 Q-Chem 5.0.2 for Intel X86 EM64T Linux

 Parts of Q-Chem use Armadillo 5.200.1 (Boston Tea Smuggler).
 http://arma.sourceforge.net/

 Q-Chem begins on Wed Mar  2 03:55:59 2022  

Host: 
0

     Scratch files written to ./qcts2.d//
 Dec517 15110_ 26548  26544 5633   
Processing $rem in /home/leeping/opt/qchem/5.0.2-openmp/config/preferences.
 MEM_STATIC 2000
 MEM_TOTAL  8000
 SYMMETRY   OFF
 SYM_IGNORE TRUE 

Checking the input file for inconsistencies... 	...done.

--------------------------------------------------------------
User input:
--------------------------------------------------------------
$molecule
0 2
C        1.2274652642    0.2141256923    0.1478851555
C        1.1073307814   -1.0783012354   -0.5908401282
C       -0.0655245903   -1.5194142703   -0.1346883936
C       -1.2313776940    0.7455250258    0.2744550692
C       -0.4077062877    1.5959157053   -0.5146135987
N        0.8815308637    1.3470199665   -0.5553640183
H        1.9222449248    0.3231477270    0.9844289086
H        1.7679380223   -1.4647380794   -1.3620682358
H       -0.5698121777   -2.4632902295   -0.3523744344
H       -2.1944878513    1.1000423390    0.6348103928
H       -0.7941127689    2.4635243591   -1.0476506744
C       -0.6479132743   -0.4623301562    0.7578830170
H       -1.0745619194   -0.8329003667    1.6969124824
$end

$rem
method                b3lyp
basis                 6-31+g(d,p)
unrestricted          true
symmetry              off
sym_ignore            true
incdft                false
incfock               0
scf_convergence       6
thresh                14
jobtype               sp
scf_guess             read
scf_algorithm         diis
max_scf_cycles        100
stability_analysis    true
max_cis_cycles        100
cis_n_roots           4
$end

--------------------------------------------------------------
 ----------------------------------------------------------------
             Standard Nuclear Orientation (Angstroms)
    I     Atom           X                Y                Z
 ----------------------------------------------------------------
    1      C       1.2274652642     0.2141256923     0.1478851555
    2      C       1.1073307814    -1.0783012354    -0.5908401282
    3      C      -0.0655245903    -1.5194142703    -0.1346883936
    4      C      -1.2313776940     0.7455250258     0.2744550692
    5      C      -0.4077062877     1.5959157053    -0.5146135987
    6      N       0.8815308637     1.3470199665    -0.5553640183
    7      H       1.9222449248     0.3231477270     0.9844289086
    8      H       1.7679380223    -1.4647380794    -1.3620682358
    9      H      -0.5698121777    -2.4632902295    -0.3523744344
   10      H      -2.1944878513     1.1000423390     0.6348103928
   11      H      -0.7941127689     2.4635243591    -1.0476506744
   12      C      -0.6479132743    -0.4623301562     0.7578830170
   13      H      -1.0745619194    -0.8329003667     1.6969124824
 ----------------------------------------------------------------
 Nuclear Repulsion Energy =   269.8312678309 hartrees
 There are       25 alpha and       24 beta electrons
 Requested basis set is 6-31+G(d,p)
 There are 53 shells and 163 basis functions

 Total QAlloc Memory Limit   8000 MB
 Mega-Array Size      1956 MB
 MEM_STATIC part      2000 MB

                       Distance Matrix (Angstroms)
             C (  1)   C (  2)   C (  3)   C (  4)   C (  5)   N (  6)
   C (  2)  1.493491
   C (  3)  2.181016  1.333508
   C (  4)  2.518792  3.089439  2.580031
   C (  5)  2.240990  3.074505  3.157010  1.422754
   N (  6)  1.377563  2.436068  3.048004  2.348357  1.313675
   H (  7)  1.092891  2.260446  2.932352  3.260031  3.048892  2.121877
   H (  8)  2.321778  1.086521  2.207042  4.069320  3.849573  3.056546
   H (  9)  3.263284  2.188120  1.092060  3.335728  4.065680  4.082409
   H ( 10)  3.568152  4.141184  3.462104  1.087713  2.181663  3.307477
   H ( 11)  3.252058  4.045824  4.150680  2.211490  1.089120  2.072851
   C ( 12)  2.084882  2.297685  1.501095  1.425850  2.431733  2.708794
   H ( 13)  2.965650  3.170913  2.200959  2.130587  3.351819  3.694740
             H (  7)   H (  8)   H (  9)   H ( 10)   H ( 11)   C ( 12)
   H (  8)  2.954047
   H (  9)  3.970092  2.735263
   H ( 10)  4.203961  5.125080  4.038743
   H ( 11)  4.011129  4.700448  4.980685  2.578916
   C ( 12)  2.697038  3.366802  2.289675  2.201828  3.441214
   H ( 13)  3.290126  4.223315  2.666931  2.473573  4.298569  1.095960

 
 A cutoff of  1.0D-14 yielded   1388 shell pairs
 There are     13482 function pairs
 Smallest overlap matrix eigenvalue = 1.83E-05

 Scale SEOQF with 1.000000e-01/1.000000e-01/1.000000e-01

 Standard Electronic Orientation quadrupole field applied
 Nucleus-field energy     =     0.0000000049 hartrees
 Guess MOs from SCF MO coefficient file
 Reading MOs from coefficient file
 Reading MOs from coefficient file
 An unrestricted hybrid HF-DFT SCF calculation will be
 performed using Pulay DIIS extrapolation
 Exchange:     0.2000 Hartree-Fock + 0.0800 Slater + 0.7200 B88
 Correlation:  0.1900 VWN1RPA + 0.8100 LYP
 Using SG-1 standard quadrature grid
 SCF converges when DIIS error is below 1.0E-06
Using Q-Chem read-in guess as SCF_GUESS READ specified.

 -------------------------------------------------------
 OpenMP BLAS3 based DFT computing Module                
 -------------------------------------------------------
 ---------------------------------------
  Cycle       Energy         DIIS Error
 ---------------------------------------
    1    -286.8681929976      4.08E-09
    2    -286.8681929976      4.54E-09 Convergence criterion met
 ---------------------------------------
 <S^2> = 0.7722
 SCF time:  CPU 6.57 s  wall 12.91 s
 SCF   energy in the final basis set = -286.86819300
 Total energy in the final basis set = -286.86819300
 
 Direct TDDFT/TDA calculation will be performed
 Exchange:     0.2000 Hartree-Fock + 0.0800 Slater + 0.7200 B88
 Correlation:  0.1900 VWN1RPA + 0.8100 LYP
 Using SG-1 standard quadrature grid
 CIS energy converged when residual is below 10e- 6
 ---------------------------------------------------
 Iter    Rts Conv    Rts Left    Ttl Dev     Max Dev
 ---------------------------------------------------
   1         0           4      0.004356    0.001346
   2         0           4      0.001213    0.000406
   3         0           4      0.000710    0.000281
   4         0           4      0.000386    0.000166
   5         0           4      0.000165    0.000081
   6         0           4      0.000079    0.000053
   7         1           3      0.000031    0.000023
   8         3           1      0.000007    0.000005
   9         3           1      0.000003    0.000001
  10         4           0      0.000002    0.000001    Roots Converged
 ---------------------------------------------------
 
 ---------------------------------------------------
         TDDFT/TDA Excitation Energies              
 ---------------------------------------------------

 Excited state   1: excitation energy (eV) =    2.1453
 Total energy for state  1:                  -286.78935434 au
    <S**2>     :  0.7873
    Trans. Mom.: -0.2239 X   0.2388 Y  -0.0085 Z
    Strength   :     0.0056378959
    D( 24) --> S(  1) amplitude =  0.9696 beta

 Excited state   2: excitation energy (eV) =    3.1023
 Total energy for state  2:                  -286.75418425 au
    <S**2>     :  0.8895
    Trans. Mom.:  0.2762 X  -0.0914 Y   0.0075 Z
    Strength   :     0.0064375845
    S(  1) --> V(  1) amplitude =  0.8033 alpha
    S(  1) --> V(  2) amplitude = -0.1768 alpha
    D( 22) --> S(  1) amplitude = -0.2317 beta
    D( 23) --> S(  1) amplitude =  0.4242 beta

 Excited state   3: excitation energy (eV) =    3.3593
 Total energy for state  3:                  -286.74474013 au
    <S**2>     :  0.8944
    Trans. Mom.: -0.0716 X  -0.0045 Y  -0.0567 Z
    Strength   :     0.0006884684
    S(  1) --> V(  1) amplitude = -0.4283 alpha
    D( 23) --> S(  1) amplitude =  0.8664 beta

 Excited state   4: excitation energy (eV) =    3.7896
 Total energy for state  4:                  -286.72892740 au
    <S**2>     :  0.8661
    Trans. Mom.: -0.0575 X  -0.0635 Y  -0.0489 Z
    Strength   :     0.0009033845
    S(  1) --> V(  1) amplitude =  0.2137 alpha
    S(  1) --> V(  2) amplitude =  0.7641 alpha
    D( 22) --> S(  1) amplitude =  0.5267 beta
    D( 23) --> S(  1) amplitude =  0.1823 beta
 
 ---------------------------------------------------

 Stability analysis will be performed
 ---------------------------------------------------
 Iter    Rts Conv    Rts Left    Ttl Dev     Max Dev
 ---------------------------------------------------
   1         0           8      0.004692    0.000704
   2         0           8      0.002283    0.000574
   3         0           8      0.001823    0.000587
   4         1           7      0.001525    0.000709
   5         3           5      0.000655    0.000248
   6         3           5      0.000216    0.000081
   7         3           5      0.000065    0.000026
   8         5           3      0.000017    0.000006
   9         6           2      0.000006    0.000002
  10         8           0      0.000003    0.000001    Roots Converged
 UKS-> UKS   stable,    smallest eigenvalue:      0.0677592
 UKS->CUKS   stable,    smallest eigenvalue:      0.0790693
 ---------------------------------------------------
  SETman timing summary (seconds)
  CPU time               192.96s
  System time              0.00s
  Wall time              287.77s
 
 --------------------------------------------------------------
 
                    Orbital Energies (a.u.)
 --------------------------------------------------------------
 
 Alpha MOs
 -- Occupied --
-14.352 -10.254 -10.236 -10.213 -10.212 -10.211 -10.204  -0.962
 -0.833  -0.778  -0.677  -0.648  -0.551  -0.543  -0.525  -0.474
 -0.462  -0.423  -0.413  -0.384  -0.344  -0.322  -0.280  -0.248
 -0.195
 -- Virtual --
 -0.028  -0.007   0.007   0.016   0.023   0.027   0.032   0.046
  0.058   0.068   0.070   0.072   0.097   0.104   0.106   0.114
  0.122   0.133   0.138   0.153   0.166   0.171   0.175   0.192
  0.199   0.204   0.208   0.212   0.220   0.234   0.246   0.247
  0.263   0.273   0.278   0.297   0.312   0.328   0.340   0.348
  0.379   0.416   0.470   0.489   0.617   0.645   0.653   0.695
  0.697   0.718   0.725   0.732   0.751   0.765   0.775   0.820
  0.822   0.844   0.865   0.877   0.895   0.926   0.942   0.978
  0.985   1.005   1.049   1.055   1.069   1.086   1.113   1.137
  1.164   1.202   1.215   1.300   1.325   1.386   1.412   1.427
  1.510   1.571   1.597   1.649   1.713   1.767   1.821   1.850
  1.863   1.902   1.911   1.944   1.988   2.000   2.043   2.088
  2.127   2.154   2.170   2.224   2.269   2.326   2.389   2.403
  2.412   2.425   2.449   2.473   2.496   2.531   2.537   2.565
  2.574   2.584   2.598   2.649   2.680   2.730   2.748   2.789
  2.810   2.924   2.966   3.106   3.153   3.262   3.298   3.364
  3.423   3.621   3.694   4.149   4.324   4.428   4.452   4.529
  4.625   4.755
 
 Beta MOs
 -- Occupied --
-14.345 -10.249 -10.237 -10.214 -10.211 -10.205 -10.204  -0.949
 -0.827  -0.767  -0.672  -0.640  -0.544  -0.539  -0.520  -0.468
 -0.456  -0.417  -0.408  -0.375  -0.329  -0.302  -0.275  -0.238
 -- Virtual --
 -0.106  -0.016  -0.002   0.009   0.021   0.028   0.030   0.036
  0.047   0.059   0.070   0.071   0.076   0.097   0.104   0.107
  0.116   0.124   0.135   0.140   0.154   0.166   0.172   0.177
  0.193   0.200   0.206   0.210   0.214   0.222   0.236   0.249
  0.250   0.267   0.278   0.281   0.301   0.316   0.331   0.343
  0.352   0.382   0.424   0.474   0.494   0.620   0.649   0.659
  0.697   0.701   0.723   0.734   0.744   0.753   0.766   0.781
  0.822   0.830   0.847   0.867   0.879   0.897   0.929   0.945
  0.981   0.996   1.011   1.055   1.062   1.072   1.091   1.117
  1.140   1.170   1.207   1.221   1.304   1.328   1.388   1.420
  1.434   1.519   1.584   1.608   1.658   1.718   1.773   1.829
  1.856   1.869   1.906   1.917   1.950   1.998   2.004   2.050
  2.093   2.134   2.165   2.176   2.230   2.276   2.331   2.394
  2.407   2.416   2.434   2.454   2.476   2.503   2.533   2.540
  2.572   2.577   2.591   2.603   2.656   2.687   2.734   2.753
  2.794   2.816   2.930   2.972   3.109   3.156   3.265   3.300
  3.368   3.426   3.623   3.697   4.161   4.330   4.431   4.452
  4.538   4.631   4.758
 --------------------------------------------------------------
 
          Ground-State Mulliken Net Atomic Charges

     Atom                 Charge (a.u.)    Spin (a.u.)
  --------------------------------------------------------
      1 C                    -0.155428       0.367617
      2 C                    -0.113489      -0.052498
      3 C                    -0.038532       0.044108
      4 C                    -0.028987       0.499025
      5 C                    -0.199842      -0.098092
      6 N                    -0.141029       0.316600
      7 H                     0.158032       0.011819
      8 H                     0.138394       0.004557
      9 H                     0.133375       0.026026
     10 H                     0.137192      -0.025982
     11 H                     0.130712       0.001642
     12 C                    -0.143950      -0.111322
     13 H                     0.123554       0.016499
  --------------------------------------------------------
  Sum of atomic charges =     0.000000
  Sum of spin   charges =     1.000000

 -----------------------------------------------------------------
                    Cartesian Multipole Moments
 -----------------------------------------------------------------
    Charge (ESU x 10^10)
                 0.0000
    Dipole Moment (Debye)
         X      -0.9774      Y      -0.9414      Z       0.7096
       Tot       1.5314
    Quadrupole Moments (Debye-Ang)
        XX     -40.2789     XY      -3.1659     YY     -41.3151
        XZ       0.2731     YZ       1.0850     ZZ     -42.4817
    Octopole Moments (Debye-Ang^2)
       XXX     -11.6389    XXY      -5.2433    XYY     -13.9401
       YYY     -14.6441    XXZ       6.6899    XYZ       5.7832
       YYZ      -0.2765    XZZ      -4.2491    YZZ      -6.0914
       ZZZ      10.9676
    Hexadecapole Moments (Debye-Ang^3)
      XXXX    -282.8804   XXXY      11.0253   XXYY    -117.4946
      XYYY      13.6722   YYYY    -387.6248   XXXZ      29.5044
      XXYZ      13.3621   XYYZ      14.2681   YYYZ      13.6932
      XXZZ     -66.4203   XYZZ       2.7941   YYZZ     -87.5998
      XZZZ      30.6160   YZZZ      14.3918   ZZZZ    -138.3517
 -----------------------------------------------------------------
Archival summary:
1\1\c8-89\SP\ProcedureUnspecified\6-31+G**\166(2)\hpark21\WedMar204:01:112022WedMar204:01:112022\0\\#,ProcedureUnspecified,6-31+G**,\\0,2\N\C,1,1.31368\H,2,1.08912,1,118.943\C,1,1.37756,2,112.732,3,-179.306,0\H,4,1.09289,1,117.928,2,-119.418,0\C,2,1.42275,1,118.172,3,-177.425,0\H,6,1.08771,2,120.102,1,157.426,0\C,6,1.42585,2,117.223,1,-11.7183,0\H,8,1.09596,6,114.685,2,151.732,0\C,4,1.49349,1,116.038,2,85.2053,0\H,10,1.08652,4,127.587,1,74.9448,0\C,10,1.33351,4,100.825,1,-99.3487,0\H,12,1.09206,10,128.599,4,-176.929,0\\\@

 Total job time:  311.31s(wall), 199.76s(cpu) 
 Wed Mar  2 04:01:11 2022

        *************************************************************
        *                                                           *
        *  Thank you very much for using Q-Chem.  Have a nice day.  *
        *                                                           *
        *************************************************************


