
Running Job 1 of 1 qcts1.in
qchem qcts1.in_89935.0 ./qcts1.d/ 1
/home/leeping/opt/qchem/5.0.2-openmp/exe/qcprog.exe_s qcts1.in_89935.0 ./qcts1.d/
Check license passed

                  Welcome to Q-Chem
     A Quantum Leap Into The Future Of Chemistry


 Q-Chem 5.0, Q-Chem, Inc., Pleasanton, CA (2017)

 Yihan Shao,  Zhengting Gan,  E. Epifanovsky,  A. T. B. Gilbert,  M. Wormit,  
 J. Kussmann,  A. W. Lange,  A. Behn,  Jia Deng,  Xintian Feng,  D. Ghosh,  
 M. Goldey,  P. R. Horn,  L. D. Jacobson,  I. Kaliman,  T. Kus,  A. Landau,  
 Jie Liu,  E. I. Proynov,  R. M. Richard,  R. P. Steele,  E. J. Sundstrom,  
 H. L. Woodcock III,  P. M. Zimmerman,  D. Zuev,  B. Albrecht,  E. Alguire,  
 S. A. Baeppler,  D. Barton,  Z. Benda,  Y. A. Bernard,  E. J. Berquist,  
 K. B. Bravaya,  H. Burton,  D. Casanova,  Chun-Min Chang,  Yunqing Chen,  
 A. Chien,  K. D. Closser,  M. P. Coons,  S. Dasgupta,  A. L. Dempwolff,  
 M. Diedenhofen,  Hainam Do,  R. G. Edgar,  Po-Tung Fang,  S. Fatehi,  
 Qingguo Feng,  J. Fosso-Tande,  Qinghui Ge,  A. Ghysels,  G. Gidofalvi,  
 J. Gomes,  J. Gonthier,  A. Gunina,  M. W. D. Hanson-Heine,  
 P. H. P. Harbach,  A. W. Hauser,  J. E. Herr,  E. G. Hohenstein,  
 Z. C. Holden,  Kerwin Hui,  T.-C. Jagau,  Hyunjun Ji,  B. Kaduk,  
 K. Khistyaev,  Jaehoon Kim,  P. Klunzinger,  K. Koh,  D. Kosenkov,  
 L. Koulias,  T. Kowalczyk,  C. M. Krauter,  A. Kunitsa,  Ka Un Lao,  
 A. Laurent,  K. V. Lawler,  Joonho Lee,  D. Lefrancois,  S. Lehtola,  
 D. S. Levine,  Yi-Pei Li,  You-Sheng Lin,  Fenglai Liu,  E. Livshits,  
 A. Luenser,  P. Manohar,  E. Mansoor,  S. F. Manzer,  Shan-Ping Mao,  
 Yuezhi Mao,  N. Mardirossian,  A. V. Marenich,  T. Markovich,  
 L. A. Martinez-Martinez,  S. A. Maurer,  N. J. Mayhall,  S. C. McKenzie,  
 J.-M. Mewes,  A. F. Morrison,  J. W. Mullinax,  K. Nanda,  
 T. S. Nguyen-Beck,  R. Olivares-Amaya,  J. A. Parkhill,  T. M. Perrine,  
 F. Plasser,  S. Prager,  A. Prociuk,  E. Ramos,  D. R. Rehn,  F. Rob,  
 M. Schneider,  N. Sergueev,  S. M. Sharada,  S. Sharma,  D. W. Small,  
 T. Stauch,  T. Stein,  Yu-Chuan Su,  A. J. W. Thom,  A. Tkatchenko,  
 T. Tsuchimochi,  L. Vogt,  O. Vydrov,  M. A. Watson,  J. Wenzel,  
 M. de Wergifosse,  T. A. Wesolowski,  A. White,  J. Witte,  A. Yamada,  
 Jun Yang,  K. Yao,  S. Yeganeh,  S. R. Yost,  Zhi-Qiang You,  A. Zech,  
 Igor Ying Zhang,  Xing Zhang,  Yan Zhao,  Ying Zhu,  B. R. Brooks,  
 G. K. L. Chan,  C. J. Cramer,  M. S. Gordon,  W. J. Hehre,  A. Klamt,  
 M. W. Schmidt,  C. D. Sherrill,  D. G. Truhlar,  A. Aspuru-Guzik,  R. Baer,  
 A. T. Bell,  N. A. Besley,  Jeng-Da Chai,  R. A. DiStasio Jr.,  A. Dreuw,  
 B. D. Dunietz,  T. R. Furlani,  Chao-Ping Hsu,  Yousung Jung,  Jing Kong,  
 D. S. Lambrecht,  WanZhen Liang,  C. Ochsenfeld,  V. A. Rassolov,  
 L. V. Slipchenko,  J. E. Subotnik,  T. Van Voorhis,  J. M. Herbert,  
 A. I. Krylov,  P. M. W. Gill,  M. Head-Gordon

 Contributors to earlier versions of Q-Chem not listed above: 
 R. D. Adamson,  B. Austin,  J. Baker,  G. J. O. Beran,  K. Brandhorst,  
 S. T. Brown,  E. F. C. Byrd,  A. K. Chakraborty,  C.-L. Cheng,  
 Siu Hung Chien,  D. M. Chipman,  D. L. Crittenden,  H. Dachsel,  
 R. J. Doerksen,  A. D. Dutoi,  L. Fusti-Molnar,  W. A. Goddard III,  
 A. Golubeva-Zadorozhnaya,  S. R. Gwaltney,  G. Hawkins,  A. Heyden,  
 S. Hirata,  G. Kedziora,  F. J. Keil,  C. Kelley,  Jihan Kim,  R. A. King,  
 R. Z. Khaliullin,  P. P. Korambath,  W. Kurlancheek,  A. M. Lee,  M. S. Lee,  
 S. V. Levchenko,  Ching Yeh Lin,  D. Liotard,  R. C. Lochan,  I. Lotan,  
 P. E. Maslen,  N. Nair,  D. P. O'Neill,  D. Neuhauser,  E. Neuscamman,  
 C. M. Oana,  R. Olson,  B. Peters,  R. Peverati,  P. A. Pieniazek,  
 Y. M. Rhee,  J. Ritchie,  M. A. Rohrdanz,  E. Rosta,  N. J. Russ,  
 H. F. Schaefer III,  N. E. Schultz,  N. Shenvi,  A. C. Simmonett,  A. Sodt,  
 D. Stuck,  K. S. Thanthiriwatte,  V. Vanovschi,  Tao Wang,  A. Warshel,  
 C. F. Williams,  Q. Wu,  X. Xu,  W. Zhang

 Please cite Q-Chem as follows:
 Y. Shao et al., Mol. Phys. 113, 184-215 (2015)
 DOI: 10.1080/00268976.2014.952696

 Q-Chem 5.0.2 for Intel X86 EM64T Linux

 Parts of Q-Chem use Armadillo 5.200.1 (Boston Tea Smuggler).
 http://arma.sourceforge.net/

 Q-Chem begins on Wed Mar  2 03:30:02 2022  

Host: 
0

     Scratch files written to ./qcts1.d//
 Dec517 15110_ 26548  26544 5633   
Processing $rem in /home/leeping/opt/qchem/5.0.2-openmp/config/preferences.
 MEM_STATIC 2000
 MEM_TOTAL  8000
 SYMMETRY   OFF
 SYM_IGNORE TRUE 

Checking the input file for inconsistencies... 	...done.

--------------------------------------------------------------
User input:
--------------------------------------------------------------
$molecule
0 2
C        1.1549990629    0.1935667456    0.1901721534
C        1.0604395918   -1.1214172388   -0.5835364620
C       -0.1935764292   -1.4805453692   -0.2192340300
C       -1.2689836046    0.7693171305    0.2809451452
C       -0.4493680246    1.6973124098   -0.4456419131
N        0.8371135332    1.4088963709   -0.4724999462
H        2.0771736846    0.2875762474    0.8108946363
H        1.8625955305   -1.6149901888   -1.0889758923
H       -0.7539793843   -2.4242179901   -0.4464601753
H       -2.3413341406    0.8687130283    0.3647688511
H       -0.8109418827    2.5715526464   -0.9711179601
C       -0.5309344231   -0.3981846022    0.7371451837
H       -0.7221902211   -0.7892527125    1.7823159513
$end

$rem
method                b3lyp
basis                 6-31g(d)
unrestricted          true
symmetry              off
sym_ignore            true
incdft                false
incfock               0
scf_convergence       8
thresh                14
jobtype               ts
scf_guess             read
scf_algorithm         diis
max_scf_cycles        100
geom_opt_max_cycles   500
geom_opt_dmax         100
geom_opt_tol_gradient 10
geom_opt_hessian      read
$end

--------------------------------------------------------------
 ----------------------------------------------------------------
             Standard Nuclear Orientation (Angstroms)
    I     Atom           X                Y                Z
 ----------------------------------------------------------------
    1      C       1.1549990629     0.1935667456     0.1901721534
    2      C       1.0604395918    -1.1214172388    -0.5835364620
    3      C      -0.1935764292    -1.4805453692    -0.2192340300
    4      C      -1.2689836046     0.7693171305     0.2809451452
    5      C      -0.4493680246     1.6973124098    -0.4456419131
    6      N       0.8371135332     1.4088963709    -0.4724999462
    7      H       2.0771736846     0.2875762474     0.8108946363
    8      H       1.8625955305    -1.6149901888    -1.0889758923
    9      H      -0.7539793843    -2.4242179901    -0.4464601753
   10      H      -2.3413341406     0.8687130283     0.3647688511
   11      H      -0.8109418827     2.5715526464    -0.9711179601
   12      C      -0.5309344231    -0.3981846022     0.7371451837
   13      H      -0.7221902211    -0.7892527125     1.7823159513
 ----------------------------------------------------------------
 Nuclear Repulsion Energy =   269.4251042599 hartrees
 There are       25 alpha and       24 beta electrons
 Requested basis set is 6-31G(d)
 There are 40 shells and 117 basis functions

 Total QAlloc Memory Limit   8000 MB
 Mega-Array Size      1956 MB
 MEM_STATIC part      2000 MB
 A cutoff of  1.0D-14 yielded    803 shell pairs
 There are      7075 function pairs
 
 -------------------------------------------------------
 OpenMP Integral Computing Module                       
 Release: version 1.0, May 2013, Q-Chem Inc. Pittsburgh 
 -------------------------------------------------------
 Integral Job Info:
 Integral job number is                      11
 Integral operator is                         1
 short-range coefficients                     0
 long-range coefficients              100000000
 Omega coefficients                           0
 if combine SR and LR in K                    0
 Integral screening is                        0
 Integral computing path is                   2
 max size of driver memory is            800000
 size of driver memory is                593474
 size of scratch memory is              2361544
 max col of scratch BK array               1296
 max len of scratch array in speh3          155
 max len of scratch index in speh4           18
 max int batch size is                      520
 min int batch size is                       52
 fixed nKL is                                52
 max L of basis functions is                  2
 order of int derivative is                   0
 number of shells is                         40
 number of basis is                         117
 number of cartesian basis is               117
 number of contracted shell pairs           803
 number of primitive shell pairs           3504
 maxK2 (contraction) of shell pair           36
 max number of K2 of shell pair               1
 max number of CS2 of shell pair             90
 max number of PS2 of shell pair            390
 mem total for path MDJ                  535308
 -------------------------------------------------------
 Smallest overlap matrix eigenvalue = 1.23E-03

 Scale SEOQF with 1.000000e-01/1.000000e-01/1.000000e-01

 Standard Electronic Orientation quadrupole field applied
 Nucleus-field energy     =     0.0000000053 hartrees
 Guess MOs from SCF MO coefficient file
 Reading MOs from coefficient file
 Reading MOs from coefficient file
 An unrestricted hybrid HF-DFT SCF calculation will be
 performed using Pulay DIIS extrapolation
 Exchange:     0.2000 Hartree-Fock + 0.0800 Slater + 0.7200 B88
 Correlation:  0.1900 VWN1RPA + 0.8100 LYP
 Using SG-1 standard quadrature grid
 SCF converges when DIIS error is below 1.0E-08
Using Q-Chem read-in guess as SCF_GUESS READ specified.

 using 4 threads for integral computing
 -------------------------------------------------------
 OpenMP Integral computing Module                
 Release: version 1.0, May 2013, Q-Chem Inc. Pittsburgh 
 -------------------------------------------------------
 -------------------------------------------------------
 OpenMP BLAS3 based DFT computing Module                
 Release: version 1.0, May 2013, Q-Chem Inc. Pittsburgh 
 -------------------------------------------------------
 ---------------------------------------
  Cycle       Energy         DIIS Error
 ---------------------------------------
    1    -286.8453671336      5.99E-10
    2    -286.8453671336      8.19E-10 Convergence criterion met
 ---------------------------------------
 <S^2> = 0.7752
 SCF time:  CPU 5.24 s  wall 6.03 s
 SCF   energy in the final basis set = -286.84536713
 Total energy in the final basis set = -286.84536713
 
 --------------------------------------------------------------
 
                    Orbital Energies (a.u.)
 --------------------------------------------------------------
 
 Alpha MOs
 -- Occupied --
-14.332 -10.230 -10.223 -10.211 -10.206 -10.201 -10.194  -0.938
 -0.824  -0.759  -0.658  -0.631  -0.541  -0.524  -0.512  -0.469
 -0.427  -0.418  -0.398  -0.372  -0.331  -0.302  -0.268  -0.223
 -0.208
 -- Virtual --
  0.001   0.023   0.065   0.116   0.133   0.148   0.157   0.166
  0.168   0.215   0.251   0.259   0.308   0.349   0.424   0.432
  0.499   0.513   0.538   0.542   0.555   0.592   0.597   0.602
  0.608   0.632   0.648   0.677   0.688   0.736   0.760   0.805
  0.813   0.827   0.835   0.852   0.863   0.867   0.910   0.933
  0.963   0.976   1.029   1.092   1.125   1.159   1.243   1.350
  1.380   1.440   1.454   1.462   1.514   1.525   1.618   1.683
  1.744   1.791   1.850   1.874   1.934   1.948   2.005   2.036
  2.048   2.079   2.161   2.191   2.211   2.256   2.284   2.361
  2.392   2.407   2.488   2.535   2.595   2.612   2.630   2.645
  2.683   2.820   2.874   2.965   2.983   3.915   4.089   4.197
  4.277   4.339   4.438   4.613
 
 Beta MOs
 -- Occupied --
-14.323 -10.230 -10.226 -10.207 -10.201 -10.200 -10.193  -0.925
 -0.818  -0.743  -0.657  -0.622  -0.536  -0.521  -0.508  -0.463
 -0.420  -0.411  -0.392  -0.360  -0.317  -0.288  -0.264  -0.218
 -- Virtual --
 -0.095   0.006   0.047   0.066   0.119   0.135   0.152   0.160
  0.168   0.170   0.222   0.257   0.263   0.310   0.356   0.429
  0.437   0.504   0.521   0.540   0.546   0.560   0.594   0.601
  0.607   0.618   0.637   0.651   0.684   0.702   0.739   0.764
  0.808   0.820   0.831   0.847   0.857   0.867   0.875   0.914
  0.937   0.969   0.981   1.034   1.095   1.130   1.164   1.247
  1.358   1.391   1.443   1.461   1.468   1.520   1.534   1.625
  1.691   1.755   1.802   1.860   1.890   1.938   1.953   2.009
  2.040   2.051   2.083   2.166   2.203   2.217   2.269   2.298
  2.367   2.399   2.411   2.496   2.544   2.609   2.620   2.636
  2.651   2.689   2.823   2.877   2.969   2.987   3.928   4.098
  4.196   4.281   4.343   4.448   4.614
 --------------------------------------------------------------
 
          Ground-State Mulliken Net Atomic Charges

     Atom                 Charge (a.u.)    Spin (a.u.)
  --------------------------------------------------------
      1 C                    -0.066060       0.000422
      2 C                    -0.072651       0.024378
      3 C                    -0.098641       0.035371
      4 C                    -0.102939       0.721013
      5 C                     0.048058      -0.211429
      6 N                    -0.333608       0.456600
      7 H                     0.148413       0.028502
      8 H                     0.136423       0.002618
      9 H                     0.130991       0.006956
     10 H                     0.145071      -0.033391
     11 H                     0.148604       0.006811
     12 C                    -0.229916      -0.068028
     13 H                     0.146255       0.030178
  --------------------------------------------------------
  Sum of atomic charges =    -0.000000
  Sum of spin   charges =     1.000000

 -----------------------------------------------------------------
                    Cartesian Multipole Moments
 -----------------------------------------------------------------
    Charge (ESU x 10^10)
                -0.0000
    Dipole Moment (Debye)
         X      -1.3195      Y      -1.1265      Z       0.6363
       Tot       1.8480
    Quadrupole Moments (Debye-Ang)
        XX     -37.9205     XY      -3.4392     YY     -40.2905
        XZ       0.6995     YZ       0.4766     ZZ     -41.6078
    Octopole Moments (Debye-Ang^2)
       XXX      -8.4503    XXY      -8.0803    XYY     -11.2975
       YYY     -17.1792    XXZ       4.2391    XYZ       4.9833
       YYZ      -0.5573    XZZ      -3.7044    YZZ      -6.3465
       ZZZ       9.5079
    Hexadecapole Moments (Debye-Ang^3)
      XXXX    -249.2689   XXXY      11.5190   XXYY    -111.8546
      XYYY      12.4800   YYYY    -382.4465   XXXZ      23.9226
      XXYZ       9.1530   XYYZ      12.8535   YYYZ       7.7753
      XXZZ     -63.5293   XYZZ       4.9576   YYZZ     -84.1118
      XZZZ      23.0315   YZZZ       6.5296   ZZZZ    -116.1694
 -----------------------------------------------------------------
 Calculating analytic gradient of the SCF energy
 Gradient of SCF Energy
            1           2           3           4           5           6
    1   0.0329748   0.0259490  -0.0259376   0.0059749  -0.0032990  -0.0081808
    2   0.0136025  -0.0029081   0.0326967  -0.0117841   0.0238478  -0.0060524
    3  -0.0198488  -0.0134473   0.0237504   0.0135426  -0.0164520   0.0146184
            7           8           9          10          11          12
    1   0.0161015  -0.0049575  -0.0062494   0.0047387   0.0025046  -0.0356761
    2   0.0002129   0.0054141  -0.0188520  -0.0033663  -0.0035101  -0.0164341
    3  -0.0021231   0.0148909  -0.0019753  -0.0009758  -0.0002938  -0.0285693
           13
    1  -0.0039430
    2  -0.0128670
    3   0.0168830
 Max gradient component =       3.568E-02
 RMS gradient           =       1.615E-02
 Gradient time:  CPU 7.42 s  wall 2.10 s
 Geometry Optimization Parameters
   NAtoms,    NIC,     NZ,  NCons,   NDum,   NFix, NCnnct, MaxDiis
       13     105       0       0       0       0       0       0

 Cartesian Hessian read from HESS file


** GEOMETRY OPTIMIZATION IN DELOCALIZED INTERNAL COORDINATES **
   Searching for a Transition State

   Optimization Cycle:   1

                       Coordinates (Angstroms)
     ATOM                X               Y               Z
      1  C         1.1549990629    0.1935667456    0.1901721534
      2  C         1.0604395918   -1.1214172388   -0.5835364620
      3  C        -0.1935764292   -1.4805453692   -0.2192340300
      4  C        -1.2689836046    0.7693171305    0.2809451452
      5  C        -0.4493680246    1.6973124098   -0.4456419131
      6  N         0.8371135332    1.4088963709   -0.4724999462
      7  H         2.0771736846    0.2875762474    0.8108946363
      8  H         1.8625955305   -1.6149901888   -1.0889758923
      9  H        -0.7539793843   -2.4242179901   -0.4464601753
     10  H        -2.3413341406    0.8687130283    0.3647688511
     11  H        -0.8109418827    2.5715526464   -0.9711179601
     12  C        -0.5309344231   -0.3981846022    0.7371451837
     13  H        -0.7221902211   -0.7892527125    1.7823159513
   Point Group: c1    Number of degrees of freedom:    33


   Energy is   -286.845367134


 Attempting to Generate Delocalized Internal Coordinates

 Transforming Cartesian Hessian to Internal Coordinates
 Hessian Transformation does not Include Derivative of B-matrix

 33 Hessian modes will be used to form the next step
  Hessian Eigenvalues:
    -0.004138    0.005443    0.008224    0.010581    0.014569    0.021861
     0.025289    0.026806    0.032804    0.035296    0.048431    0.051806
     0.068995    0.084379    0.097068    0.100038    0.115392    0.117884
     0.184206    0.203780    0.217415    0.256222    0.268107    0.286593
     0.295526    0.306463    0.307937    0.358830    0.371048    0.377439
     0.401660    0.463978    0.469496

 Transition State Search - Taking P-RFO Step
 Searching for Lamda that Maximizes Along the Lowest mode
 Value Taken    Lamda =   0.02505969
 Searching for Lamda that Minimizes Along All other modes
 Value Taken    Lamda =  -0.02977867
 Calculated Step too Large.  Step scaled by  0.085655
 Step Taken.  Stepsize is  0.100000

                             Maximum     Tolerance    Cnvgd?
         Gradient           0.039631      0.000010      NO
         Displacement       0.051001      0.001200      NO
         Energy change     *********      0.000001      NO


 New Cartesian Coordinates Obtained by Inverse Iteration

 Displacement from previous Coordinates is:  0.088861
 ----------------------------------------------------------------
             Standard Nuclear Orientation (Angstroms)
    I     Atom           X                Y                Z
 ----------------------------------------------------------------
    1      C       1.1569840285     0.1931812914     0.1910664339
    2      C       1.0651825783    -1.1205589322    -0.5820569445
    3      C      -0.1859042928    -1.4819405899    -0.2204358906
    4      C      -1.2689203257     0.7705893452     0.2836300296
    5      C      -0.4488342097     1.6905379132    -0.4502900224
    6      N       0.8361816386     1.4005601792    -0.4815596545
    7      H       2.0718615652     0.2928591345     0.8183598384
    8      H       1.8650693233    -1.6122955336    -1.0954600600
    9      H      -0.7438698815    -2.4233357124    -0.4513404102
   10      H      -2.3376981799     0.8910890154     0.3891122152
   11      H      -0.8118456155     2.5635101321    -0.9779222598
   12      C      -0.5390675616    -0.4021546019     0.7379177978
   13      H      -0.7381257744    -0.7937151637     1.7777544690
 ----------------------------------------------------------------
 Nuclear Repulsion Energy =   269.4389588624 hartrees
 There are       25 alpha and       24 beta electrons
 Applying Cartesian multipole field
    Component          Value
    ---------          -----
     (2,0,0)        1.00000E-11
     (0,2,0)        2.00000E-11
     (0,0,2)       -3.00000E-11
 Nucleus-field energy     =     0.0000000052 hartrees
 Requested basis set is 6-31G(d)
 There are 40 shells and 117 basis functions
 A cutoff of  1.0D-14 yielded    803 shell pairs
 There are      7075 function pairs
 Smallest overlap matrix eigenvalue = 1.23E-03
 Guess MOs from SCF MO coefficient file
 Reading MOs from coefficient file
 Reading MOs from coefficient file
 An unrestricted hybrid HF-DFT SCF calculation will be
 performed using Pulay DIIS extrapolation
 Exchange:     0.2000 Hartree-Fock + 0.0800 Slater + 0.7200 B88
 Correlation:  0.1900 VWN1RPA + 0.8100 LYP
 Using SG-1 standard quadrature grid
 SCF converges when DIIS error is below 1.0E-08
 Geometry optimization detected.  Setting ReadMinima to 0
 Setting SaveMinima to 0
Using Q-Chem read-in guess as SCF_GUESS READ specified.

 using 4 threads for integral computing
 -------------------------------------------------------
 OpenMP Integral computing Module                
 Release: version 1.0, May 2013, Q-Chem Inc. Pittsburgh 
 -------------------------------------------------------
 -------------------------------------------------------
 OpenMP BLAS3 based DFT computing Module                
 Release: version 1.0, May 2013, Q-Chem Inc. Pittsburgh 
 -------------------------------------------------------
 ---------------------------------------
  Cycle       Energy         DIIS Error
 ---------------------------------------
    1    -286.8482646980      4.46E-04
    2    -286.8456872051      1.04E-04
    3    -286.8456452910      2.00E-04
    4    -286.8457207038      3.74E-05
    5    -286.8457245569      8.39E-06
    6    -286.8457258326      4.05E-06
    7    -286.8457264311      3.31E-06
    8    -286.8457266075      1.02E-06
    9    -286.8457266961      6.21E-07
   10    -286.8457267124      2.39E-07
   11    -286.8457267172      9.50E-08
   12    -286.8457267186      3.54E-08
   13    -286.8457267192      1.23E-08
   14    -286.8457267196      8.32E-09 Convergence criterion met
 ---------------------------------------
 <S^2> = 0.7750
 SCF time:  CPU 36.94 s  wall 28.22 s
 SCF   energy in the final basis set = -286.84572672
 Total energy in the final basis set = -286.84572672
 
 --------------------------------------------------------------
 
                    Orbital Energies (a.u.)
 --------------------------------------------------------------
 
 Alpha MOs
 -- Occupied --
-14.332 -10.230 -10.223 -10.211 -10.206 -10.200 -10.193  -0.938
 -0.823  -0.760  -0.658  -0.631  -0.541  -0.525  -0.512  -0.469
 -0.428  -0.418  -0.398  -0.372  -0.331  -0.302  -0.268  -0.223
 -0.207
 -- Virtual --
  0.001   0.024   0.063   0.117   0.134   0.148   0.157   0.167
  0.168   0.216   0.252   0.260   0.309   0.350   0.424   0.432
  0.499   0.513   0.537   0.541   0.555   0.592   0.598   0.603
  0.608   0.632   0.649   0.677   0.687   0.736   0.760   0.805
  0.813   0.827   0.836   0.853   0.864   0.867   0.910   0.933
  0.965   0.979   1.030   1.091   1.126   1.158   1.237   1.348
  1.382   1.442   1.453   1.463   1.511   1.526   1.618   1.687
  1.743   1.790   1.852   1.878   1.933   1.947   2.005   2.037
  2.048   2.080   2.163   2.191   2.212   2.256   2.284   2.365
  2.393   2.406   2.487   2.535   2.595   2.611   2.632   2.648
  2.682   2.820   2.876   2.964   2.987   3.917   4.088   4.199
  4.276   4.340   4.438   4.610
 
 Beta MOs
 -- Occupied --
-14.323 -10.230 -10.225 -10.207 -10.201 -10.199 -10.193  -0.926
 -0.818  -0.744  -0.657  -0.622  -0.535  -0.522  -0.509  -0.463
 -0.421  -0.411  -0.392  -0.360  -0.317  -0.287  -0.264  -0.218
 -- Virtual --
 -0.095   0.007   0.048   0.065   0.119   0.135   0.153   0.159
  0.168   0.171   0.222   0.258   0.264   0.310   0.356   0.429
  0.437   0.504   0.521   0.539   0.545   0.560   0.594   0.601
  0.608   0.619   0.637   0.652   0.684   0.701   0.739   0.763
  0.809   0.821   0.831   0.847   0.858   0.867   0.876   0.914
  0.936   0.971   0.984   1.035   1.094   1.131   1.164   1.241
  1.356   1.393   1.445   1.461   1.468   1.517   1.535   1.625
  1.693   1.755   1.801   1.861   1.894   1.937   1.952   2.008
  2.041   2.052   2.083   2.169   2.203   2.217   2.269   2.299
  2.371   2.399   2.410   2.496   2.545   2.609   2.619   2.638
  2.654   2.689   2.824   2.878   2.968   2.991   3.930   4.097
  4.198   4.280   4.344   4.448   4.611
 --------------------------------------------------------------
 
          Ground-State Mulliken Net Atomic Charges

     Atom                 Charge (a.u.)    Spin (a.u.)
  --------------------------------------------------------
      1 C                    -0.067603       0.010772
      2 C                    -0.071726       0.018179
      3 C                    -0.098372       0.040873
      4 C                    -0.102000       0.716938
      5 C                     0.047881      -0.207979
      6 N                    -0.332533       0.454368
      7 H                     0.149109       0.028723
      8 H                     0.136189       0.002282
      9 H                     0.130850       0.007573
     10 H                     0.144866      -0.033346
     11 H                     0.148301       0.006774
     12 C                    -0.230935      -0.074597
     13 H                     0.145973       0.029440
  --------------------------------------------------------
  Sum of atomic charges =    -0.000000
  Sum of spin   charges =     1.000000

 -----------------------------------------------------------------
                    Cartesian Multipole Moments
 -----------------------------------------------------------------
    Charge (ESU x 10^10)
                 0.0000
    Dipole Moment (Debye)
         X      -1.3000      Y      -1.0924      Z       0.6481
       Tot       1.8175
    Quadrupole Moments (Debye-Ang)
        XX     -37.9088     XY      -3.4154     YY     -40.2437
        XZ       0.6852     YZ       0.5206     ZZ     -41.5982
    Octopole Moments (Debye-Ang^2)
       XXX      -8.4382    XXY      -7.8075    XYY     -11.2376
       YYY     -16.8236    XXZ       4.4037    XYZ       4.9788
       YYZ      -0.4965    XZZ      -3.7786    YZZ      -6.2945
       ZZZ       9.6392
    Hexadecapole Moments (Debye-Ang^3)
      XXXX    -249.9128   XXXY      11.8561   XXYY    -111.4803
      XYYY      13.0948   YYYY    -381.2435   XXXZ      24.1915
      XXYZ       9.3436   XYYZ      12.9107   YYYZ       8.0086
      XXZZ     -63.5404   XYZZ       5.0182   YYZZ     -83.9596
      XZZZ      23.4832   YZZZ       6.7659   ZZZZ    -116.8524
 -----------------------------------------------------------------
 Calculating analytic gradient of the SCF energy
 Gradient of SCF Energy
            1           2           3           4           5           6
    1   0.0327358   0.0231197  -0.0232145   0.0062640  -0.0030388  -0.0082789
    2   0.0133559  -0.0026559   0.0307793  -0.0105828   0.0219471  -0.0057567
    3  -0.0188492  -0.0126369   0.0216011   0.0128209  -0.0156568   0.0140941
            7           8           9          10          11          12
    1   0.0151021  -0.0043693  -0.0056720   0.0043416   0.0023004  -0.0355801
    2   0.0001790   0.0047478  -0.0174700  -0.0030725  -0.0032702  -0.0161965
    3  -0.0023220   0.0142274  -0.0017530  -0.0009887  -0.0003136  -0.0257099
           13
    1  -0.0037098
    2  -0.0120046
    3   0.0154865
 Max gradient component =       3.558E-02
 RMS gradient           =       1.524E-02
 Gradient time:  CPU 7.84 s  wall 2.56 s
 Geometry Optimization Parameters
   NAtoms,    NIC,     NZ,  NCons,   NDum,   NFix, NCnnct, MaxDiis
       13     105       0       0       0       0       0       0

 Cartesian Hessian Update
 Hessian Updated using Powell/Murtagh-Sargent Update
  Mixing factors:     0.997308 Powell
                      0.002692 Murtagh-Sargent


** GEOMETRY OPTIMIZATION IN DELOCALIZED INTERNAL COORDINATES **
   Searching for a Transition State

   Optimization Cycle:   2

                       Coordinates (Angstroms)
     ATOM                X               Y               Z
      1  C         1.1569840285    0.1931812914    0.1910664339
      2  C         1.0651825783   -1.1205589322   -0.5820569445
      3  C        -0.1859042928   -1.4819405899   -0.2204358906
      4  C        -1.2689203257    0.7705893452    0.2836300296
      5  C        -0.4488342097    1.6905379132   -0.4502900224
      6  N         0.8361816386    1.4005601792   -0.4815596545
      7  H         2.0718615652    0.2928591345    0.8183598384
      8  H         1.8650693233   -1.6122955336   -1.0954600600
      9  H        -0.7438698815   -2.4233357124   -0.4513404102
     10  H        -2.3376981799    0.8910890154    0.3891122152
     11  H        -0.8118456155    2.5635101321   -0.9779222598
     12  C        -0.5390675616   -0.4021546019    0.7379177978
     13  H        -0.7381257744   -0.7937151637    1.7777544690
   Point Group: c1    Number of degrees of freedom:    33


   Energy is   -286.845726720

 Hessian Updated using Powell/Murtagh-Sargent Update
  Mixing factors:     0.976781 Powell
                      0.023219 Murtagh-Sargent

 33 Hessian modes will be used to form the next step
  Hessian Eigenvalues:
    -0.003768    0.005399    0.008220    0.010558    0.014591    0.021863
     0.025443    0.026740    0.032745    0.035310    0.048472    0.051814
     0.069017    0.084403    0.097161    0.100026    0.115412    0.117885
     0.184201    0.203785    0.217410    0.256224    0.268158    0.286593
     0.295512    0.306782    0.307927    0.358920    0.371046    0.377435
     0.401636    0.464194    0.469493

 Transition State Search - Taking P-RFO Step
 Searching for Lamda that Maximizes Along the Lowest mode
 Value Taken    Lamda =   0.02504320
 Searching for Lamda that Minimizes Along All other modes
 Value Taken    Lamda =  -0.02813149
 Calculated Step too Large.  Step scaled by  0.084792
 Step Taken.  Stepsize is  0.100000

                             Maximum     Tolerance    Cnvgd?
         Gradient           0.037648      0.000010      NO
         Displacement       0.053290      0.001200      NO
         Energy change     -0.000360      0.000001      NO


 New Cartesian Coordinates Obtained by Inverse Iteration

 Displacement from previous Coordinates is:  0.090383
 ----------------------------------------------------------------
             Standard Nuclear Orientation (Angstroms)
    I     Atom           X                Y                Z
 ----------------------------------------------------------------
    1      C       1.1590328062     0.1929492666     0.1915277625
    2      C       1.0699565212    -1.1197139735    -0.5806922985
    3      C      -0.1788615076    -1.4828683278    -0.2219650292
    4      C      -1.2684380108     0.7720823695     0.2870280631
    5      C      -0.4484728496     1.6836963509    -0.4554422909
    6      N       0.8352159182     1.3923467155    -0.4911572736
    7      H       2.0663128402     0.2989302609     0.8260154941
    8      H       1.8684353698    -1.6103349752    -1.0999729403
    9      H      -0.7351051956    -2.4216386395    -0.4570880859
   10      H      -2.3328599549     0.9125129112     0.4151370635
   11      H      -0.8132461180     2.5551823139    -0.9852613637
   12      C      -0.5463346548    -0.4055449253     0.7383732697
   13      H      -0.7546218715    -0.7992728700     1.7722731711
 ----------------------------------------------------------------
 Nuclear Repulsion Energy =   269.4581678505 hartrees
 There are       25 alpha and       24 beta electrons
 Applying Cartesian multipole field
    Component          Value
    ---------          -----
     (2,0,0)        1.00000E-11
     (0,2,0)        2.00000E-11
     (0,0,2)       -3.00000E-11
 Nucleus-field energy     =     0.0000000052 hartrees
 Requested basis set is 6-31G(d)
 There are 40 shells and 117 basis functions
 A cutoff of  1.0D-14 yielded    803 shell pairs
 There are      7075 function pairs
 Smallest overlap matrix eigenvalue = 1.24E-03
 Guess MOs from SCF MO coefficient file
 Reading MOs from coefficient file
 Reading MOs from coefficient file
 An unrestricted hybrid HF-DFT SCF calculation will be
 performed using Pulay DIIS extrapolation
 Exchange:     0.2000 Hartree-Fock + 0.0800 Slater + 0.7200 B88
 Correlation:  0.1900 VWN1RPA + 0.8100 LYP
 Using SG-1 standard quadrature grid
 SCF converges when DIIS error is below 1.0E-08
 Geometry optimization detected.  Setting ReadMinima to 0
 Setting SaveMinima to 0
Using Q-Chem read-in guess as SCF_GUESS READ specified.

 using 4 threads for integral computing
 -------------------------------------------------------
 OpenMP Integral computing Module                
 Release: version 1.0, May 2013, Q-Chem Inc. Pittsburgh 
 -------------------------------------------------------
 -------------------------------------------------------
 OpenMP BLAS3 based DFT computing Module                
 Release: version 1.0, May 2013, Q-Chem Inc. Pittsburgh 
 -------------------------------------------------------
 ---------------------------------------
  Cycle       Energy         DIIS Error
 ---------------------------------------
    1    -286.8481158023      4.30E-04
    2    -286.8459154691      9.93E-05
    3    -286.8458740205      1.98E-04
    4    -286.8459486819      3.28E-05
    5    -286.8459520865      8.18E-06
    6    -286.8459534724      4.04E-06
    7    -286.8459541077      3.16E-06
    8    -286.8459542853      1.02E-06
    9    -286.8459543774      6.10E-07
   10    -286.8459543928      2.38E-07
   11    -286.8459543976      9.26E-08
   12    -286.8459543991      3.46E-08
   13    -286.8459543997      1.26E-08
   14    -286.8459544001      8.30E-09 Convergence criterion met
 ---------------------------------------
 <S^2> = 0.7748
 SCF time:  CPU 36.38 s  wall 28.95 s
 SCF   energy in the final basis set = -286.84595440
 Total energy in the final basis set = -286.84595440
 
 --------------------------------------------------------------
 
                    Orbital Energies (a.u.)
 --------------------------------------------------------------
 
 Alpha MOs
 -- Occupied --
-14.332 -10.231 -10.223 -10.210 -10.205 -10.200 -10.193  -0.939
 -0.823  -0.760  -0.659  -0.631  -0.540  -0.525  -0.513  -0.468
 -0.430  -0.418  -0.398  -0.372  -0.332  -0.301  -0.268  -0.223
 -0.206
 -- Virtual --
  0.002   0.024   0.061   0.117   0.134   0.149   0.156   0.167
  0.168   0.217   0.252   0.261   0.309   0.350   0.425   0.432
  0.499   0.513   0.536   0.540   0.555   0.592   0.598   0.605
  0.608   0.633   0.650   0.676   0.687   0.736   0.760   0.804
  0.814   0.827   0.836   0.854   0.865   0.868   0.910   0.932
  0.967   0.982   1.031   1.091   1.127   1.159   1.231   1.346
  1.385   1.443   1.451   1.465   1.508   1.527   1.618   1.689
  1.741   1.789   1.853   1.882   1.933   1.946   2.005   2.038
  2.049   2.081   2.164   2.191   2.212   2.256   2.284   2.368
  2.392   2.407   2.487   2.536   2.594   2.610   2.634   2.651
  2.682   2.821   2.877   2.964   2.992   3.920   4.087   4.200
  4.275   4.341   4.438   4.607
 
 Beta MOs
 -- Occupied --
-14.323 -10.231 -10.225 -10.206 -10.201 -10.199 -10.192  -0.926
 -0.817  -0.744  -0.657  -0.622  -0.535  -0.522  -0.509  -0.463
 -0.422  -0.411  -0.392  -0.359  -0.317  -0.287  -0.265  -0.218
 -- Virtual --
 -0.096   0.007   0.047   0.064   0.119   0.135   0.154   0.159
  0.167   0.172   0.223   0.258   0.265   0.311   0.357   0.429
  0.437   0.504   0.521   0.538   0.544   0.560   0.595   0.602
  0.608   0.620   0.638   0.653   0.684   0.701   0.738   0.763
  0.808   0.821   0.831   0.847   0.859   0.868   0.878   0.914
  0.936   0.973   0.987   1.036   1.094   1.131   1.165   1.236
  1.354   1.395   1.446   1.459   1.470   1.516   1.536   1.625
  1.696   1.754   1.800   1.862   1.898   1.936   1.951   2.008
  2.042   2.053   2.084   2.171   2.202   2.218   2.269   2.299
  2.374   2.398   2.411   2.496   2.545   2.608   2.619   2.640
  2.658   2.688   2.824   2.879   2.968   2.995   3.933   4.096
  4.200   4.279   4.345   4.448   4.608
 --------------------------------------------------------------
 
          Ground-State Mulliken Net Atomic Charges

     Atom                 Charge (a.u.)    Spin (a.u.)
  --------------------------------------------------------
      1 C                    -0.068887       0.022510
      2 C                    -0.070885       0.011887
      3 C                    -0.098204       0.046552
      4 C                    -0.101225       0.711717
      5 C                     0.047679      -0.204048
      6 N                    -0.331747       0.451345
      7 H                     0.149773       0.028835
      8 H                     0.136057       0.001981
      9 H                     0.130854       0.008224
     10 H                     0.144628      -0.033289
     11 H                     0.148011       0.006742
     12 C                    -0.231609      -0.081187
     13 H                     0.145555       0.028732
  --------------------------------------------------------
  Sum of atomic charges =    -0.000000
  Sum of spin   charges =     1.000000

 -----------------------------------------------------------------
                    Cartesian Multipole Moments
 -----------------------------------------------------------------
    Charge (ESU x 10^10)
                -0.0000
    Dipole Moment (Debye)
         X      -1.2791      Y      -1.0633      Z       0.6610
       Tot       1.7899
    Quadrupole Moments (Debye-Ang)
        XX     -37.8990     XY      -3.3884     YY     -40.1943
        XZ       0.6735     YZ       0.5642     ZZ     -41.5950
    Octopole Moments (Debye-Ang^2)
       XXX      -8.4177    XXY      -7.5610    XYY     -11.1840
       YYY     -16.5066    XXZ       4.5788    XYZ       4.9742
       YYZ      -0.4330    XZZ      -3.8632    YZZ      -6.2451
       ZZZ       9.7900
    Hexadecapole Moments (Debye-Ang^3)
      XXXX    -250.5644   XXXY      12.1924   XXYY    -111.0754
      XYYY      13.6837   YYYY    -380.0007   XXXZ      24.4573
      XXYZ       9.5341   XYYZ      12.9764   YYYZ       8.2405
      XXZZ     -63.5523   XYZZ       5.0797   YYZZ     -83.8049
      XZZZ      23.9602   YZZZ       6.9952   ZZZZ    -117.6114
 -----------------------------------------------------------------
 Calculating analytic gradient of the SCF energy
 Gradient of SCF Energy
            1           2           3           4           5           6
    1   0.0322423   0.0204822  -0.0208518   0.0065505  -0.0028188  -0.0082204
    2   0.0130017  -0.0023296   0.0288322  -0.0094851   0.0201305  -0.0053877
    3  -0.0178917  -0.0119456   0.0196879   0.0122079  -0.0149832   0.0135379
            7           8           9          10          11          12
    1   0.0142138  -0.0037542  -0.0051695   0.0039090   0.0020892  -0.0350798
    2   0.0001976   0.0041056  -0.0161726  -0.0028327  -0.0030559  -0.0157323
    3  -0.0024024   0.0136093  -0.0016091  -0.0009649  -0.0003112  -0.0230675
           13
    1  -0.0035925
    2  -0.0112718
    3   0.0141326
 Max gradient component =       3.508E-02
 RMS gradient           =       1.437E-02
 Gradient time:  CPU 7.88 s  wall 2.44 s
 Geometry Optimization Parameters
   NAtoms,    NIC,     NZ,  NCons,   NDum,   NFix, NCnnct, MaxDiis
       13     105       0       0       0       0       0       0

 Cartesian Hessian Update
 Hessian Updated using Powell/Murtagh-Sargent Update
  Mixing factors:     0.996838 Powell
                      0.003162 Murtagh-Sargent


** GEOMETRY OPTIMIZATION IN DELOCALIZED INTERNAL COORDINATES **
   Searching for a Transition State

   Optimization Cycle:   3

                       Coordinates (Angstroms)
     ATOM                X               Y               Z
      1  C         1.1590328062    0.1929492666    0.1915277625
      2  C         1.0699565212   -1.1197139735   -0.5806922985
      3  C        -0.1788615076   -1.4828683278   -0.2219650292
      4  C        -1.2684380108    0.7720823695    0.2870280631
      5  C        -0.4484728496    1.6836963509   -0.4554422909
      6  N         0.8352159182    1.3923467155   -0.4911572736
      7  H         2.0663128402    0.2989302609    0.8260154941
      8  H         1.8684353698   -1.6103349752   -1.0999729403
      9  H        -0.7351051956   -2.4216386395   -0.4570880859
     10  H        -2.3328599549    0.9125129112    0.4151370635
     11  H        -0.8132461180    2.5551823139   -0.9852613637
     12  C        -0.5463346548   -0.4055449253    0.7383732697
     13  H        -0.7546218715   -0.7992728700    1.7722731711
   Point Group: c1    Number of degrees of freedom:    33


   Energy is   -286.845954400

 Hessian Updated using Powell/Murtagh-Sargent Update
  Mixing factors:     0.958058 Powell
                      0.041942 Murtagh-Sargent

 33 Hessian modes will be used to form the next step
  Hessian Eigenvalues:
    -0.006230    0.005512    0.009336    0.010587    0.014600    0.021856
     0.025452    0.026709    0.032781    0.035300    0.048487    0.051812
     0.069097    0.084395    0.097176    0.100009    0.115405    0.117886
     0.184207    0.203786    0.217417    0.256214    0.268204    0.286591
     0.295518    0.306800    0.307938    0.358887    0.371042    0.377437
     0.401646    0.464219    0.469465

 Transition State Search - Taking P-RFO Step
 Searching for Lamda that Maximizes Along the Lowest mode
 Value Taken    Lamda =   0.02396383
 Searching for Lamda that Minimizes Along All other modes
 Value Taken    Lamda =  -0.02557564
 Calculated Step too Large.  Step scaled by  0.087958
 Step Taken.  Stepsize is  0.100000

                             Maximum     Tolerance    Cnvgd?
         Gradient           0.035777      0.000010      NO
         Displacement       0.052937      0.001200      NO
         Energy change     -0.000228      0.000001      NO


 New Cartesian Coordinates Obtained by Inverse Iteration

 Displacement from previous Coordinates is:  0.089249
 ----------------------------------------------------------------
             Standard Nuclear Orientation (Angstroms)
    I     Atom           X                Y                Z
 ----------------------------------------------------------------
    1      C       1.1614662190     0.1928888168     0.1919245907
    2      C       1.0746857509    -1.1186238125    -0.5792838340
    3      C      -0.1717808285    -1.4837263352    -0.2226478313
    4      C      -1.2677052280     0.7733031544     0.2903731580
    5      C      -0.4479094694     1.6767235668    -0.4605245257
    6      N       0.8345234844     1.3842284446    -0.5002933086
    7      H       2.0608297274     0.3050021560     0.8339755014
    8      H       1.8708166087    -1.6073997884    -1.1062659534
    9      H      -0.7265057970    -2.4198793670    -0.4619614468
   10      H      -2.3271444927     0.9329700199     0.4399115270
   11      H      -0.8144335620     2.5466156617    -0.9926770633
   12      C      -0.5537440560    -0.4089552579     0.7391801104
   13      H      -0.7720850640    -0.8048207818     1.7670646176
 ----------------------------------------------------------------
 Nuclear Repulsion Energy =   269.4800006104 hartrees
 There are       25 alpha and       24 beta electrons
 Applying Cartesian multipole field
    Component          Value
    ---------          -----
     (2,0,0)        1.00000E-11
     (0,2,0)        2.00000E-11
     (0,0,2)       -3.00000E-11
 Nucleus-field energy     =     0.0000000052 hartrees
 Requested basis set is 6-31G(d)
 There are 40 shells and 117 basis functions
 A cutoff of  1.0D-14 yielded    803 shell pairs
 There are      7075 function pairs
 Smallest overlap matrix eigenvalue = 1.24E-03
 Guess MOs from SCF MO coefficient file
 Reading MOs from coefficient file
 Reading MOs from coefficient file
 An unrestricted hybrid HF-DFT SCF calculation will be
 performed using Pulay DIIS extrapolation
 Exchange:     0.2000 Hartree-Fock + 0.0800 Slater + 0.7200 B88
 Correlation:  0.1900 VWN1RPA + 0.8100 LYP
 Using SG-1 standard quadrature grid
 SCF converges when DIIS error is below 1.0E-08
 Geometry optimization detected.  Setting ReadMinima to 0
 Setting SaveMinima to 0
Using Q-Chem read-in guess as SCF_GUESS READ specified.

 using 4 threads for integral computing
 -------------------------------------------------------
 OpenMP Integral computing Module                
 Release: version 1.0, May 2013, Q-Chem Inc. Pittsburgh 
 -------------------------------------------------------
 -------------------------------------------------------
 OpenMP BLAS3 based DFT computing Module                
 Release: version 1.0, May 2013, Q-Chem Inc. Pittsburgh 
 -------------------------------------------------------
 ---------------------------------------
  Cycle       Energy         DIIS Error
 ---------------------------------------
    1    -286.8482343682      4.28E-04
    2    -286.8460258839      1.04E-04
    3    -286.8459761792      2.11E-04
    4    -286.8460619250      3.19E-05
    5    -286.8460653696      8.22E-06
    6    -286.8460668865      4.13E-06
    7    -286.8460676176      3.01E-06
    8    -286.8460678051      1.05E-06
    9    -286.8460678989      6.39E-07
   10    -286.8460679141      2.44E-07
   11    -286.8460679191      9.14E-08
   12    -286.8460679207      3.54E-08
   13    -286.8460679213      1.34E-08
   14    -286.8460679216      8.60E-09 Convergence criterion met
 ---------------------------------------
 <S^2> = 0.7746
 SCF time:  CPU 36.45 s  wall 35.72 s
 SCF   energy in the final basis set = -286.84606792
 Total energy in the final basis set = -286.84606792
 
 --------------------------------------------------------------
 
                    Orbital Energies (a.u.)
 --------------------------------------------------------------
 
 Alpha MOs
 -- Occupied --
-14.333 -10.232 -10.223 -10.210 -10.205 -10.200 -10.192  -0.939
 -0.822  -0.761  -0.659  -0.631  -0.540  -0.525  -0.513  -0.468
 -0.431  -0.418  -0.398  -0.372  -0.332  -0.301  -0.268  -0.224
 -0.205
 -- Virtual --
  0.002   0.024   0.060   0.117   0.134   0.150   0.156   0.167
  0.168   0.217   0.252   0.262   0.310   0.351   0.425   0.432
  0.499   0.513   0.535   0.540   0.555   0.593   0.599   0.606
  0.609   0.633   0.651   0.674   0.687   0.735   0.760   0.804
  0.815   0.827   0.836   0.855   0.866   0.869   0.910   0.932
  0.968   0.985   1.032   1.090   1.125   1.160   1.226   1.344
  1.388   1.445   1.448   1.467   1.507   1.528   1.619   1.692
  1.738   1.790   1.855   1.885   1.932   1.944   2.005   2.038
  2.049   2.083   2.165   2.191   2.213   2.255   2.284   2.371
  2.391   2.408   2.486   2.537   2.593   2.609   2.636   2.655
  2.682   2.821   2.878   2.963   2.996   3.922   4.087   4.202
  4.274   4.341   4.439   4.604
 
 Beta MOs
 -- Occupied --
-14.324 -10.231 -10.225 -10.206 -10.201 -10.198 -10.192  -0.926
 -0.817  -0.745  -0.657  -0.622  -0.535  -0.522  -0.509  -0.462
 -0.423  -0.410  -0.392  -0.359  -0.318  -0.286  -0.265  -0.218
 -- Virtual --
 -0.096   0.008   0.046   0.064   0.119   0.136   0.154   0.159
  0.167   0.172   0.224   0.258   0.266   0.312   0.357   0.430
  0.436   0.504   0.521   0.538   0.543   0.560   0.596   0.602
  0.609   0.620   0.638   0.654   0.684   0.700   0.738   0.763
  0.808   0.822   0.831   0.847   0.860   0.868   0.879   0.914
  0.935   0.974   0.991   1.037   1.093   1.130   1.167   1.230
  1.352   1.397   1.448   1.455   1.472   1.515   1.537   1.626
  1.699   1.751   1.800   1.862   1.902   1.936   1.950   2.008
  2.042   2.054   2.086   2.172   2.201   2.219   2.268   2.299
  2.377   2.396   2.413   2.495   2.546   2.607   2.618   2.642
  2.661   2.688   2.824   2.881   2.967   3.000   3.935   4.095
  4.202   4.278   4.345   4.448   4.605
 --------------------------------------------------------------
 
          Ground-State Mulliken Net Atomic Charges

     Atom                 Charge (a.u.)    Spin (a.u.)
  --------------------------------------------------------
      1 C                    -0.070042       0.035770
      2 C                    -0.070149       0.005670
      3 C                    -0.097931       0.052200
      4 C                    -0.100669       0.705055
      5 C                     0.047525      -0.199445
      6 N                    -0.331072       0.447518
      7 H                     0.150481       0.028834
      8 H                     0.135994       0.001710
      9 H                     0.130916       0.008930
     10 H                     0.144375      -0.033207
     11 H                     0.147729       0.006701
     12 C                    -0.232180      -0.087786
     13 H                     0.145025       0.028049
  --------------------------------------------------------
  Sum of atomic charges =    -0.000000
  Sum of spin   charges =     1.000000

 -----------------------------------------------------------------
                    Cartesian Multipole Moments
 -----------------------------------------------------------------
    Charge (ESU x 10^10)
                -0.0000
    Dipole Moment (Debye)
         X      -1.2555      Y      -1.0359      Z       0.6700
       Tot       1.7602
    Quadrupole Moments (Debye-Ang)
        XX     -37.8947     XY      -3.3567     YY     -40.1459
        XZ       0.6608     YZ       0.6062     ZZ     -41.5885
    Octopole Moments (Debye-Ang^2)
       XXX      -8.4013    XXY      -7.3198    XYY     -11.1405
       YYY     -16.1938    XXZ       4.7341    XYZ       4.9728
       YYZ      -0.3862    XZZ      -3.9410    YZZ      -6.1975
       ZZZ       9.9066
    Hexadecapole Moments (Debye-Ang^3)
      XXXX    -251.2728   XXXY      12.5115   XXYY    -110.6839
      XYYY      14.2308   YYYY    -378.7121   XXXZ      24.7383
      XXYZ       9.7220   XYYZ      13.0316   YYYZ       8.4757
      XXZZ     -63.5527   XYZZ       5.1209   YYZZ     -83.6330
      XZZZ      24.4301   YZZZ       7.2465   ZZZZ    -118.3820
 -----------------------------------------------------------------
 Calculating analytic gradient of the SCF energy
 Gradient of SCF Energy
            1           2           3           4           5           6
    1   0.0314791   0.0180735  -0.0185954   0.0067625  -0.0026130  -0.0080974
    2   0.0125448  -0.0020248   0.0269089  -0.0084420   0.0183814  -0.0050090
    3  -0.0168811  -0.0112729   0.0178868   0.0116234  -0.0142935   0.0129251
            7           8           9          10          11          12
    1   0.0133424  -0.0032131  -0.0047135   0.0034975   0.0018855  -0.0343410
    2   0.0002200   0.0035125  -0.0149074  -0.0026001  -0.0028435  -0.0151888
    3  -0.0024524   0.0129613  -0.0014812  -0.0009641  -0.0003034  -0.0205775
           13
    1  -0.0034672
    2  -0.0105520
    3   0.0128296
 Max gradient component =       3.434E-02
 RMS gradient           =       1.351E-02
 Gradient time:  CPU 7.42 s  wall 2.01 s
 Geometry Optimization Parameters
   NAtoms,    NIC,     NZ,  NCons,   NDum,   NFix, NCnnct, MaxDiis
       13     105       0       0       0       0       0       0

 Cartesian Hessian Update
 Hessian Updated using Powell/Murtagh-Sargent Update
  Mixing factors:     0.996359 Powell
                      0.003641 Murtagh-Sargent


** GEOMETRY OPTIMIZATION IN DELOCALIZED INTERNAL COORDINATES **
   Searching for a Transition State

   Optimization Cycle:   4

                       Coordinates (Angstroms)
     ATOM                X               Y               Z
      1  C         1.1614662190    0.1928888168    0.1919245907
      2  C         1.0746857509   -1.1186238125   -0.5792838340
      3  C        -0.1717808285   -1.4837263352   -0.2226478313
      4  C        -1.2677052280    0.7733031544    0.2903731580
      5  C        -0.4479094694    1.6767235668   -0.4605245257
      6  N         0.8345234844    1.3842284446   -0.5002933086
      7  H         2.0608297274    0.3050021560    0.8339755014
      8  H         1.8708166087   -1.6073997884   -1.1062659534
      9  H        -0.7265057970   -2.4198793670   -0.4619614468
     10  H        -2.3271444927    0.9329700199    0.4399115270
     11  H        -0.8144335620    2.5466156617   -0.9926770633
     12  C        -0.5537440560   -0.4089552579    0.7391801104
     13  H        -0.7720850640   -0.8048207818    1.7670646176
   Point Group: c1    Number of degrees of freedom:    33


   Energy is   -286.846067922

 Hessian Updated using Powell/Murtagh-Sargent Update
  Mixing factors:     0.966982 Powell
                      0.033018 Murtagh-Sargent

 33 Hessian modes will be used to form the next step
  Hessian Eigenvalues:
    -0.008828    0.005519    0.010194    0.011040    0.014638    0.021820
     0.025449    0.026716    0.032805    0.035286    0.048513    0.051807
     0.069223    0.084426    0.097199    0.100006    0.115399    0.117885
     0.184199    0.203785    0.217425    0.256212    0.268254    0.286592
     0.295524    0.306818    0.307948    0.358838    0.371038    0.377439
     0.401641    0.464250    0.469443

 Transition State Search - Taking P-RFO Step
 Searching for Lamda that Maximizes Along the Lowest mode
 Value Taken    Lamda =   0.02254560
 Searching for Lamda that Minimizes Along All other modes
 Value Taken    Lamda =  -0.02312983
 Calculated Step too Large.  Step scaled by  0.091585
 Step Taken.  Stepsize is  0.100000

                             Maximum     Tolerance    Cnvgd?
         Gradient           0.033861      0.000010      NO
         Displacement       0.052357      0.001200      NO
         Energy change     -0.000114      0.000001      NO


 New Cartesian Coordinates Obtained by Inverse Iteration

 Displacement from previous Coordinates is:  0.088394
 ----------------------------------------------------------------
             Standard Nuclear Orientation (Angstroms)
    I     Atom           X                Y                Z
 ----------------------------------------------------------------
    1      C       1.1638896275     0.1929351674     0.1917567233
    2      C       1.0793588783    -1.1175504549    -0.5780953059
    3      C      -0.1647383303    -1.4848083640    -0.2229063393
    4      C      -1.2669122447     0.7743613819     0.2934424954
    5      C      -0.4473459884     1.6699458800    -0.4654834584
    6      N       0.8338902685     1.3763675758    -0.5092559787
    7      H       2.0548053141     0.3109355063     0.8420107747
    8      H       1.8731612445    -1.6042719274    -1.1127838759
    9      H      -0.7178941119    -2.4185885356    -0.4659435101
   10      H      -2.3205804348     0.9528801377     0.4644198878
   11      H      -0.8154972975     2.5385307200    -0.9995440506
   12      C      -0.5612120310    -0.4123236454     0.7395893512
   13      H      -0.7899116014    -0.8100869644     1.7615688283
 ----------------------------------------------------------------
 Nuclear Repulsion Energy =   269.5026357578 hartrees
 There are       25 alpha and       24 beta electrons
 Applying Cartesian multipole field
    Component          Value
    ---------          -----
     (2,0,0)        1.00000E-11
     (0,2,0)        2.00000E-11
     (0,0,2)       -3.00000E-11
 Nucleus-field energy     =     0.0000000051 hartrees
 Requested basis set is 6-31G(d)
 There are 40 shells and 117 basis functions
 A cutoff of  1.0D-14 yielded    803 shell pairs
 There are      7075 function pairs
 Smallest overlap matrix eigenvalue = 1.24E-03
 Guess MOs from SCF MO coefficient file
 Reading MOs from coefficient file
 Reading MOs from coefficient file
 An unrestricted hybrid HF-DFT SCF calculation will be
 performed using Pulay DIIS extrapolation
 Exchange:     0.2000 Hartree-Fock + 0.0800 Slater + 0.7200 B88
 Correlation:  0.1900 VWN1RPA + 0.8100 LYP
 Using SG-1 standard quadrature grid
 SCF converges when DIIS error is below 1.0E-08
 Geometry optimization detected.  Setting ReadMinima to 0
 Setting SaveMinima to 0
Using Q-Chem read-in guess as SCF_GUESS READ specified.

 using 4 threads for integral computing
 -------------------------------------------------------
 OpenMP Integral computing Module                
 Release: version 1.0, May 2013, Q-Chem Inc. Pittsburgh 
 -------------------------------------------------------
 -------------------------------------------------------
 OpenMP BLAS3 based DFT computing Module                
 Release: version 1.0, May 2013, Q-Chem Inc. Pittsburgh 
 -------------------------------------------------------
 ---------------------------------------
  Cycle       Energy         DIIS Error
 ---------------------------------------
    1    -286.8482699016      4.20E-04
    2    -286.8460554223      1.05E-04
    3    -286.8460023485      2.16E-04
    4    -286.8460928898      3.06E-05
    5    -286.8460963200      8.21E-06
    6    -286.8460979474      4.30E-06
    7    -286.8460987431      2.96E-06
    8    -286.8460989415      1.06E-06
    9    -286.8460990357      6.49E-07
   10    -286.8460990508      2.48E-07
   11    -286.8460990558      9.07E-08
   12    -286.8460990574      3.61E-08
   13    -286.8460990580      1.42E-08
   14    -286.8460990584      8.72E-09 Convergence criterion met
 ---------------------------------------
 <S^2> = 0.7745
 SCF time:  CPU 36.95 s  wall 42.80 s
 SCF   energy in the final basis set = -286.84609906
 Total energy in the final basis set = -286.84609906
 
 --------------------------------------------------------------
 
                    Orbital Energies (a.u.)
 --------------------------------------------------------------
 
 Alpha MOs
 -- Occupied --
-14.333 -10.232 -10.222 -10.209 -10.204 -10.200 -10.192  -0.940
 -0.822  -0.761  -0.660  -0.631  -0.540  -0.526  -0.513  -0.468
 -0.432  -0.417  -0.398  -0.372  -0.332  -0.301  -0.268  -0.225
 -0.204
 -- Virtual --
  0.003   0.024   0.058   0.117   0.135   0.150   0.156   0.166
  0.169   0.218   0.252   0.263   0.311   0.351   0.426   0.431
  0.499   0.513   0.534   0.539   0.555   0.593   0.599   0.607
  0.610   0.634   0.652   0.673   0.688   0.735   0.759   0.803
  0.816   0.827   0.837   0.856   0.866   0.870   0.910   0.931
  0.970   0.989   1.033   1.088   1.123   1.163   1.220   1.341
  1.391   1.442   1.447   1.469   1.507   1.530   1.619   1.695
  1.734   1.792   1.855   1.889   1.932   1.943   2.005   2.037
  2.050   2.086   2.166   2.191   2.213   2.255   2.285   2.373
  2.389   2.410   2.486   2.537   2.593   2.609   2.638   2.658
  2.682   2.821   2.879   2.962   3.000   3.925   4.086   4.203
  4.273   4.342   4.439   4.601
 
 Beta MOs
 -- Occupied --
-14.324 -10.231 -10.225 -10.205 -10.200 -10.198 -10.192  -0.927
 -0.816  -0.746  -0.658  -0.623  -0.534  -0.522  -0.509  -0.462
 -0.424  -0.410  -0.392  -0.359  -0.318  -0.286  -0.266  -0.218
 -- Virtual --
 -0.096   0.008   0.045   0.064   0.119   0.136   0.155   0.158
  0.167   0.173   0.225   0.258   0.267   0.313   0.357   0.430
  0.436   0.505   0.521   0.537   0.543   0.560   0.596   0.603
  0.610   0.621   0.639   0.655   0.684   0.700   0.738   0.763
  0.808   0.823   0.830   0.847   0.860   0.868   0.880   0.913
  0.934   0.976   0.995   1.038   1.091   1.127   1.170   1.225
  1.349   1.400   1.448   1.451   1.475   1.515   1.538   1.626
  1.701   1.747   1.802   1.862   1.906   1.935   1.949   2.008
  2.041   2.056   2.089   2.173   2.201   2.219   2.268   2.300
  2.379   2.393   2.416   2.495   2.547   2.606   2.618   2.644
  2.664   2.688   2.824   2.881   2.966   3.004   3.938   4.095
  4.203   4.277   4.346   4.448   4.602
 --------------------------------------------------------------
 
          Ground-State Mulliken Net Atomic Charges

     Atom                 Charge (a.u.)    Spin (a.u.)
  --------------------------------------------------------
      1 C                    -0.070990       0.050463
      2 C                    -0.069539      -0.000413
      3 C                    -0.097614       0.057675
      4 C                    -0.100381       0.696955
      5 C                     0.047411      -0.194258
      6 N                    -0.330574       0.442960
      7 H                     0.151213       0.028716
      8 H                     0.136022       0.001482
      9 H                     0.131054       0.009698
     10 H                     0.144101      -0.033094
     11 H                     0.147446       0.006651
     12 C                    -0.232560      -0.094222
     13 H                     0.144411       0.027386
  --------------------------------------------------------
  Sum of atomic charges =    -0.000000
  Sum of spin   charges =     1.000000

 -----------------------------------------------------------------
                    Cartesian Multipole Moments
 -----------------------------------------------------------------
    Charge (ESU x 10^10)
                 0.0000
    Dipole Moment (Debye)
         X      -1.2289      Y      -1.0115      Z       0.6781
       Tot       1.7300
    Quadrupole Moments (Debye-Ang)
        XX     -37.8963     XY      -3.3246     YY     -40.0955
        XZ       0.6470     YZ       0.6473     ZZ     -41.5817
    Octopole Moments (Debye-Ang^2)
       XXX      -8.3737    XXY      -7.0900    XYY     -11.1036
       YYY     -15.8917    XXZ       4.8852    XYZ       4.9704
       YYZ      -0.3399    XZZ      -4.0109    YZZ      -6.1482
       ZZZ      10.0306
    Hexadecapole Moments (Debye-Ang^3)
      XXXX    -252.0136   XXXY      12.8231   XXYY    -110.3112
      XYYY      14.7466   YYYY    -377.4673   XXXZ      25.0222
      XXYZ       9.9073   XYYZ      13.0809   YYYZ       8.7056
      XXZZ     -63.5388   XYZZ       5.1559   YYZZ     -83.4724
      XZZZ      24.9072   YZZZ       7.5046   ZZZZ    -119.1249
 -----------------------------------------------------------------
 Calculating analytic gradient of the SCF energy
 Gradient of SCF Energy
            1           2           3           4           5           6
    1   0.0304767   0.0158211  -0.0164715   0.0068763  -0.0024192  -0.0079036
    2   0.0120146  -0.0017215   0.0249862  -0.0074632   0.0167065  -0.0046388
    3  -0.0158375  -0.0106396   0.0162084   0.0110505  -0.0135683   0.0122628
            7           8           9          10          11          12
    1   0.0124777  -0.0026829  -0.0042902   0.0031142   0.0016922  -0.0333606
    2   0.0002403   0.0029583  -0.0136747  -0.0023718  -0.0026318  -0.0145721
    3  -0.0024684   0.0123001  -0.0013645  -0.0009595  -0.0002862  -0.0182894
           13
    1  -0.0033302
    2  -0.0098317
    3   0.0115916
 Max gradient component =       3.336E-02
 RMS gradient           =       1.265E-02
 Gradient time:  CPU 7.56 s  wall 2.37 s
 Geometry Optimization Parameters
   NAtoms,    NIC,     NZ,  NCons,   NDum,   NFix, NCnnct, MaxDiis
       13     105       0       0       0       0       0       0

 Cartesian Hessian Update
 Hessian Updated using Powell/Murtagh-Sargent Update
  Mixing factors:     0.996675 Powell
                      0.003325 Murtagh-Sargent


** GEOMETRY OPTIMIZATION IN DELOCALIZED INTERNAL COORDINATES **
   Searching for a Transition State

   Optimization Cycle:   5

                       Coordinates (Angstroms)
     ATOM                X               Y               Z
      1  C         1.1638896275    0.1929351674    0.1917567233
      2  C         1.0793588783   -1.1175504549   -0.5780953059
      3  C        -0.1647383303   -1.4848083640   -0.2229063393
      4  C        -1.2669122447    0.7743613819    0.2934424954
      5  C        -0.4473459884    1.6699458800   -0.4654834584
      6  N         0.8338902685    1.3763675758   -0.5092559787
      7  H         2.0548053141    0.3109355063    0.8420107747
      8  H         1.8731612445   -1.6042719274   -1.1127838759
      9  H        -0.7178941119   -2.4185885356   -0.4659435101
     10  H        -2.3205804348    0.9528801377    0.4644198878
     11  H        -0.8154972975    2.5385307200   -0.9995440506
     12  C        -0.5612120310   -0.4123236454    0.7395893512
     13  H        -0.7899116014   -0.8100869644    1.7615688283
   Point Group: c1    Number of degrees of freedom:    33


   Energy is   -286.846099058

 Hessian Updated using Powell/Murtagh-Sargent Update
  Mixing factors:     0.969812 Powell
                      0.030188 Murtagh-Sargent

 33 Hessian modes will be used to form the next step
  Hessian Eigenvalues:
    -0.011475    0.005514    0.010367    0.012210    0.014715    0.021805
     0.025446    0.026740    0.032859    0.035271    0.048538    0.051802
     0.069323    0.084440    0.097221    0.100004    0.115395    0.117886
     0.184189    0.203787    0.217433    0.256211    0.268300    0.286592
     0.295530    0.306835    0.307963    0.358794    0.371033    0.377441
     0.401647    0.464282    0.469419

 Transition State Search - Taking P-RFO Step
 Searching for Lamda that Maximizes Along the Lowest mode
 Value Taken    Lamda =   0.02089495
 Searching for Lamda that Minimizes Along All other modes
 Value Taken    Lamda =  -0.02074122
 Calculated Step too Large.  Step scaled by  0.095797
 Step Taken.  Stepsize is  0.100000

                             Maximum     Tolerance    Cnvgd?
         Gradient           0.031878      0.000010      NO
         Displacement       0.051262      0.001200      NO
         Energy change     -0.000031      0.000001      NO


 New Cartesian Coordinates Obtained by Inverse Iteration

 Displacement from previous Coordinates is:  0.086970
 ----------------------------------------------------------------
             Standard Nuclear Orientation (Angstroms)
    I     Atom           X                Y                Z
 ----------------------------------------------------------------
    1      C       1.1664480095     0.1931186437     0.1912354631
    2      C       1.0838848310    -1.1163718071    -0.5770448724
    3      C      -0.1577680009    -1.4860210245    -0.2225874236
    4      C      -1.2660144782     0.7751083680     0.2960967752
    5      C      -0.4466728422     1.6632908151    -0.4702841881
    6      N       0.8334714324     1.3688533739    -0.5177418992
    7      H       2.0484058948     0.3166633261     0.8502813067
    8      H       1.8749125791    -1.6005972563    -1.1202562434
    9      H      -0.7092810344    -2.4176782773    -0.4688950184
   10      H      -2.3132443021     0.9719396959     0.4881090203
   11      H      -0.8163374038     2.5307018333    -1.0060833483
   12      C      -0.5687193109    -0.4156813937     0.7398772970
   13      H      -0.8080720812    -0.8149998198     1.7560686731
 ----------------------------------------------------------------
 Nuclear Repulsion Energy =   269.5278485985 hartrees
 There are       25 alpha and       24 beta electrons
 Applying Cartesian multipole field
    Component          Value
    ---------          -----
     (2,0,0)        1.00000E-11
     (0,2,0)        2.00000E-11
     (0,0,2)       -3.00000E-11
 Nucleus-field energy     =     0.0000000051 hartrees
 Requested basis set is 6-31G(d)
 There are 40 shells and 117 basis functions
 A cutoff of  1.0D-14 yielded    802 shell pairs
 There are      7074 function pairs
 Smallest overlap matrix eigenvalue = 1.24E-03
 Guess MOs from SCF MO coefficient file
 Reading MOs from coefficient file
 Reading MOs from coefficient file
 An unrestricted hybrid HF-DFT SCF calculation will be
 performed using Pulay DIIS extrapolation
 Exchange:     0.2000 Hartree-Fock + 0.0800 Slater + 0.7200 B88
 Correlation:  0.1900 VWN1RPA + 0.8100 LYP
 Using SG-1 standard quadrature grid
 SCF converges when DIIS error is below 1.0E-08
 Geometry optimization detected.  Setting ReadMinima to 0
 Setting SaveMinima to 0
Using Q-Chem read-in guess as SCF_GUESS READ specified.

 using 4 threads for integral computing
 -------------------------------------------------------
 OpenMP Integral computing Module                
 Release: version 1.0, May 2013, Q-Chem Inc. Pittsburgh 
 -------------------------------------------------------
 -------------------------------------------------------
 OpenMP BLAS3 based DFT computing Module                
 Release: version 1.0, May 2013, Q-Chem Inc. Pittsburgh 
 -------------------------------------------------------
 ---------------------------------------
  Cycle       Energy         DIIS Error
 ---------------------------------------
    1    -286.8482897365      4.11E-04
    2    -286.8460224407      1.06E-04
    3    -286.8459655170      2.22E-04
    4    -286.8460611774      2.95E-05
    5    -286.8460645818      8.18E-06
    6    -286.8460662906      4.43E-06
    7    -286.8460671444      2.81E-06
    8    -286.8460673474      1.06E-06
    9    -286.8460674386      6.31E-07
   10    -286.8460674526      2.52E-07
   11    -286.8460674574      9.07E-08
   12    -286.8460674589      3.72E-08
   13    -286.8460674595      1.50E-08
   14    -286.8460674598      8.73E-09 Convergence criterion met
 ---------------------------------------
 <S^2> = 0.7744
 SCF time:  CPU 36.48 s  wall 38.76 s
 SCF   energy in the final basis set = -286.84606746
 Total energy in the final basis set = -286.84606746
 
 --------------------------------------------------------------
 
                    Orbital Energies (a.u.)
 --------------------------------------------------------------
 
 Alpha MOs
 -- Occupied --
-14.333 -10.233 -10.222 -10.209 -10.204 -10.200 -10.192  -0.940
 -0.821  -0.761  -0.660  -0.631  -0.539  -0.526  -0.513  -0.468
 -0.434  -0.417  -0.398  -0.372  -0.333  -0.302  -0.269  -0.226
 -0.202
 -- Virtual --
  0.003   0.024   0.057   0.117   0.135   0.151   0.156   0.166
  0.169   0.219   0.252   0.264   0.312   0.351   0.427   0.431
  0.500   0.513   0.533   0.539   0.555   0.593   0.599   0.608
  0.612   0.635   0.652   0.672   0.689   0.735   0.759   0.802
  0.816   0.827   0.837   0.857   0.866   0.871   0.910   0.930
  0.971   0.992   1.034   1.087   1.119   1.166   1.215   1.339
  1.393   1.436   1.449   1.472   1.507   1.531   1.619   1.698
  1.729   1.794   1.856   1.892   1.932   1.943   2.005   2.036
  2.052   2.088   2.166   2.191   2.214   2.254   2.285   2.374
  2.387   2.413   2.486   2.538   2.592   2.608   2.639   2.662
  2.683   2.821   2.880   2.962   3.005   3.928   4.085   4.205
  4.272   4.342   4.440   4.597
 
 Beta MOs
 -- Occupied --
-14.324 -10.232 -10.225 -10.205 -10.200 -10.198 -10.191  -0.927
 -0.816  -0.746  -0.658  -0.623  -0.534  -0.523  -0.509  -0.462
 -0.426  -0.410  -0.392  -0.359  -0.318  -0.285  -0.266  -0.218
 -- Virtual --
 -0.096   0.008   0.044   0.065   0.119   0.136   0.156   0.158
  0.167   0.174   0.225   0.258   0.268   0.314   0.357   0.431
  0.435   0.505   0.522   0.536   0.542   0.560   0.597   0.603
  0.610   0.622   0.640   0.656   0.683   0.701   0.738   0.762
  0.807   0.823   0.830   0.846   0.861   0.869   0.881   0.913
  0.933   0.977   0.999   1.038   1.090   1.124   1.173   1.219
  1.347   1.401   1.443   1.452   1.478   1.516   1.540   1.627
  1.704   1.742   1.804   1.862   1.909   1.935   1.948   2.008
  2.040   2.058   2.091   2.174   2.201   2.220   2.267   2.300
  2.379   2.392   2.418   2.495   2.547   2.605   2.617   2.645
  2.668   2.689   2.824   2.882   2.966   3.009   3.941   4.094
  4.204   4.276   4.346   4.449   4.598
 --------------------------------------------------------------
 
          Ground-State Mulliken Net Atomic Charges

     Atom                 Charge (a.u.)    Spin (a.u.)
  --------------------------------------------------------
      1 C                    -0.071752       0.066509
      2 C                    -0.069056      -0.006224
      3 C                    -0.097247       0.062824
      4 C                    -0.100349       0.687382
      5 C                     0.047340      -0.188480
      6 N                    -0.330227       0.437678
      7 H                     0.151974       0.028469
      8 H                     0.136131       0.001304
      9 H                     0.131262       0.010521
     10 H                     0.143815      -0.032943
     11 H                     0.147160       0.006582
     12 C                    -0.232774      -0.100354
     13 H                     0.143723       0.026734
  --------------------------------------------------------
  Sum of atomic charges =    -0.000000
  Sum of spin   charges =     1.000000

 -----------------------------------------------------------------
                    Cartesian Multipole Moments
 -----------------------------------------------------------------
    Charge (ESU x 10^10)
                -0.0000
    Dipole Moment (Debye)
         X      -1.1997      Y      -0.9898      Z       0.6843
       Tot       1.6992
    Quadrupole Moments (Debye-Ang)
        XX     -37.9051     XY      -3.2915     YY     -40.0458
        XZ       0.6316     YZ       0.6870     ZZ     -41.5714
    Octopole Moments (Debye-Ang^2)
       XXX      -8.3449    XXY      -6.8708    XYY     -11.0764
       YYY     -15.6041    XXZ       5.0262    XYZ       4.9681
       YYZ      -0.2996    XZZ      -4.0708    YZZ      -6.0979
       ZZZ      10.1463
    Hexadecapole Moments (Debye-Ang^3)
      XXXX    -252.7931   XXXY      13.1128   XXYY    -109.9641
      XYYY      15.2138   YYYY    -376.2496   XXXZ      25.3040
      XXYZ      10.0891   XYYZ      13.1203   YYYZ       8.9352
      XXZZ     -63.5087   XYZZ       5.1760   YYZZ     -83.3110
      XZZZ      25.3743   YZZZ       7.7741   ZZZZ    -119.8343
 -----------------------------------------------------------------
 Calculating analytic gradient of the SCF energy
 Gradient of SCF Energy
            1           2           3           4           5           6
    1   0.0292398   0.0137495  -0.0144816   0.0068956  -0.0022289  -0.0076547
    2   0.0114028  -0.0014305   0.0230784  -0.0065505   0.0151101  -0.0042824
    3  -0.0147514  -0.0100194   0.0146198   0.0104594  -0.0127908   0.0115438
            7           8           9          10          11          12
    1   0.0116180  -0.0021951  -0.0038931   0.0027600   0.0015096  -0.0321488
    2   0.0002646   0.0024491  -0.0124753  -0.0021479  -0.0024228  -0.0138845
    3  -0.0024473   0.0116150  -0.0012519  -0.0009498  -0.0002678  -0.0161790
           13
    1  -0.0031704
    2  -0.0091112
    3   0.0104193
 Max gradient component =       3.215E-02
 RMS gradient           =       1.180E-02
 Gradient time:  CPU 7.37 s  wall 2.75 s
 Geometry Optimization Parameters
   NAtoms,    NIC,     NZ,  NCons,   NDum,   NFix, NCnnct, MaxDiis
       13     105       0       0       0       0       0       0

 Cartesian Hessian Update
 Hessian Updated using Powell/Murtagh-Sargent Update
  Mixing factors:     0.996914 Powell
                      0.003086 Murtagh-Sargent


** GEOMETRY OPTIMIZATION IN DELOCALIZED INTERNAL COORDINATES **
   Searching for a Transition State

   Optimization Cycle:   6

                       Coordinates (Angstroms)
     ATOM                X               Y               Z
      1  C         1.1664480095    0.1931186437    0.1912354631
      2  C         1.0838848310   -1.1163718071   -0.5770448724
      3  C        -0.1577680009   -1.4860210245   -0.2225874236
      4  C        -1.2660144782    0.7751083680    0.2960967752
      5  C        -0.4466728422    1.6632908151   -0.4702841881
      6  N         0.8334714324    1.3688533739   -0.5177418992
      7  H         2.0484058948    0.3166633261    0.8502813067
      8  H         1.8749125791   -1.6005972563   -1.1202562434
      9  H        -0.7092810344   -2.4176782773   -0.4688950184
     10  H        -2.3132443021    0.9719396959    0.4881090203
     11  H        -0.8163374038    2.5307018333   -1.0060833483
     12  C        -0.5687193109   -0.4156813937    0.7398772970
     13  H        -0.8080720812   -0.8149998198    1.7560686731
   Point Group: c1    Number of degrees of freedom:    33


   Energy is   -286.846067460

 Hessian Updated using Powell/Murtagh-Sargent Update
  Mixing factors:     0.975396 Powell
                      0.024604 Murtagh-Sargent

 33 Hessian modes will be used to form the next step
  Hessian Eigenvalues:
    -0.014110    0.005493    0.010393    0.013407    0.014947    0.021789
     0.025445    0.026776    0.032912    0.035259    0.048567    0.051797
     0.069436    0.084463    0.097245    0.100004    0.115392    0.117887
     0.184172    0.203790    0.217440    0.256213    0.268344    0.286592
     0.295539    0.306851    0.307979    0.358748    0.371029    0.377443
     0.401649    0.464315    0.469402

 Transition State Search - Taking P-RFO Step
 Searching for Lamda that Maximizes Along the Lowest mode
 Value Taken    Lamda =   0.01906606
 Searching for Lamda that Minimizes Along All other modes
 Value Taken    Lamda =  -0.01842313
 Calculated Step too Large.  Step scaled by  0.100685
 Step Taken.  Stepsize is  0.100000

                             Maximum     Tolerance    Cnvgd?
         Gradient           0.029828      0.000010      NO
         Displacement       0.050027      0.001200      NO
         Energy change      0.000032      0.000001      NO


 New Cartesian Coordinates Obtained by Inverse Iteration

 Displacement from previous Coordinates is:  0.085548
 ----------------------------------------------------------------
             Standard Nuclear Orientation (Angstroms)
    I     Atom           X                Y                Z
 ----------------------------------------------------------------
    1      C       1.1690965384     0.1934388766     0.1902905072
    2      C       1.0882432204    -1.1151404438    -0.5761438052
    3      C      -0.1508999221    -1.4874025623    -0.2217439998
    4      C      -1.2650475467     0.7755445208     0.2982873282
    5      C      -0.4459213096     1.6568043480    -0.4749374292
    6      N       0.8332603443     1.3617693709    -0.5257622851
    7      H       2.0415647667     0.3221553170     0.8587088533
    8      H       1.8761884361    -1.5965067021    -1.1284126284
    9      H      -0.7006735399    -2.4172058018    -0.4708366323
   10      H      -2.3051834927     0.9901581813     0.5110904922
   11      H      -0.8169724903     2.5232480398    -1.0121970952
   12      C      -0.5762045388    -0.4190034760     0.7399554579
   13      H      -0.8264371730    -0.8195331911     1.7504767784
 ----------------------------------------------------------------
 Nuclear Repulsion Energy =   269.5550585311 hartrees
 There are       25 alpha and       24 beta electrons
 Applying Cartesian multipole field
    Component          Value
    ---------          -----
     (2,0,0)        1.00000E-11
     (0,2,0)        2.00000E-11
     (0,0,2)       -3.00000E-11
 Nucleus-field energy     =     0.0000000051 hartrees
 Requested basis set is 6-31G(d)
 There are 40 shells and 117 basis functions
 A cutoff of  1.0D-14 yielded    802 shell pairs
 There are      7074 function pairs
 Smallest overlap matrix eigenvalue = 1.25E-03
 Guess MOs from SCF MO coefficient file
 Reading MOs from coefficient file
 Reading MOs from coefficient file
 An unrestricted hybrid HF-DFT SCF calculation will be
 performed using Pulay DIIS extrapolation
 Exchange:     0.2000 Hartree-Fock + 0.0800 Slater + 0.7200 B88
 Correlation:  0.1900 VWN1RPA + 0.8100 LYP
 Using SG-1 standard quadrature grid
 SCF converges when DIIS error is below 1.0E-08
 Geometry optimization detected.  Setting ReadMinima to 0
 Setting SaveMinima to 0
Using Q-Chem read-in guess as SCF_GUESS READ specified.

 using 4 threads for integral computing
 -------------------------------------------------------
 OpenMP Integral computing Module                
 Release: version 1.0, May 2013, Q-Chem Inc. Pittsburgh 
 -------------------------------------------------------
 -------------------------------------------------------
[...]
 Value Taken    Lamda =   0.00000001
 Searching for Lamda that Minimizes Along All other modes
 Value Taken    Lamda =   0.00000000
 Step Taken.  Stepsize is  0.001136

                             Maximum     Tolerance    Cnvgd?
         Gradient           0.000013      0.000010      NO
         Displacement       0.000447      0.001200     YES
         Energy change     -0.000000      0.000001     YES


 New Cartesian Coordinates Obtained by Inverse Iteration

 Displacement from previous Coordinates is:  0.000817
 ----------------------------------------------------------------
             Standard Nuclear Orientation (Angstroms)
    I     Atom           X                Y                Z
 ----------------------------------------------------------------
    1      C       1.2274652642     0.2141256923     0.1478851555
    2      C       1.1073307814    -1.0783012354    -0.5908401282
    3      C      -0.0655245903    -1.5194142703    -0.1346883936
    4      C      -1.2313776940     0.7455250258     0.2744550692
    5      C      -0.4077062877     1.5959157053    -0.5146135987
    6      N       0.8815308637     1.3470199665    -0.5553640183
    7      H       1.9222449248     0.3231477270     0.9844289086
    8      H       1.7679380223    -1.4647380794    -1.3620682358
    9      H      -0.5698121777    -2.4632902295    -0.3523744344
   10      H      -2.1944878513     1.1000423390     0.6348103928
   11      H      -0.7941127689     2.4635243591    -1.0476506744
   12      C      -0.6479132743    -0.4623301562     0.7578830170
   13      H      -1.0745619194    -0.8329003667     1.6969124824
 ----------------------------------------------------------------
 Nuclear Repulsion Energy =   269.8312678321 hartrees
 There are       25 alpha and       24 beta electrons
 Applying Cartesian multipole field
    Component          Value
    ---------          -----
     (2,0,0)        1.00000E-11
     (0,2,0)        2.00000E-11
     (0,0,2)       -3.00000E-11
 Nucleus-field energy     =     0.0000000049 hartrees
 Requested basis set is 6-31G(d)
 There are 40 shells and 117 basis functions
 A cutoff of  1.0D-14 yielded    804 shell pairs
 There are      7076 function pairs
 Smallest overlap matrix eigenvalue = 1.40E-03
 Guess MOs from SCF MO coefficient file
 Reading MOs from coefficient file
 Reading MOs from coefficient file
 An unrestricted hybrid HF-DFT SCF calculation will be
 performed using Pulay DIIS extrapolation
 Exchange:     0.2000 Hartree-Fock + 0.0800 Slater + 0.7200 B88
 Correlation:  0.1900 VWN1RPA + 0.8100 LYP
 Using SG-1 standard quadrature grid
 SCF converges when DIIS error is below 1.0E-08
 Geometry optimization detected.  Setting ReadMinima to 0
 Setting SaveMinima to 0
Using Q-Chem read-in guess as SCF_GUESS READ specified.

 using 4 threads for integral computing
 -------------------------------------------------------
 OpenMP Integral computing Module                
 Release: version 1.0, May 2013, Q-Chem Inc. Pittsburgh 
 -------------------------------------------------------
 -------------------------------------------------------
 OpenMP BLAS3 based DFT computing Module                
 Release: version 1.0, May 2013, Q-Chem Inc. Pittsburgh 
 -------------------------------------------------------
 ---------------------------------------
  Cycle       Energy         DIIS Error
 ---------------------------------------
    1    -286.8452577512      2.74E-06
    2    -286.8452507240      4.40E-07
    3    -286.8452507236      8.20E-07
    4    -286.8452507248      1.44E-07
    5    -286.8452507249      1.07E-07
    6    -286.8452507249      2.34E-08
    7    -286.8452507249      1.52E-08
    8    -286.8452507249      8.27E-09 Convergence criterion met
 ---------------------------------------
 <S^2> = 0.7737
 SCF time:  CPU 20.87 s  wall 20.93 s
 SCF   energy in the final basis set = -286.84525072
 Total energy in the final basis set = -286.84525072
 
 --------------------------------------------------------------
 
                    Orbital Energies (a.u.)
 --------------------------------------------------------------
 
 Alpha MOs
 -- Occupied --
-14.336 -10.242 -10.225 -10.201 -10.200 -10.199 -10.192  -0.948
 -0.820  -0.766  -0.666  -0.637  -0.541  -0.533  -0.515  -0.463
 -0.452  -0.411  -0.402  -0.374  -0.333  -0.310  -0.268  -0.235
 -0.182
 -- Virtual --
 -0.010   0.015   0.045   0.116   0.137   0.144   0.163   0.165
  0.178   0.234   0.257   0.278   0.328   0.359   0.420   0.437
  0.502   0.513   0.534   0.542   0.557   0.590   0.596   0.613
  0.630   0.647   0.660   0.672   0.696   0.723   0.767   0.784
  0.822   0.831   0.838   0.855   0.873   0.876   0.896   0.909
  0.975   0.998   1.046   1.068   1.105   1.142   1.212   1.312
  1.315   1.423   1.475   1.496   1.527   1.583   1.622   1.688
  1.717   1.841   1.859   1.905   1.918   1.949   1.962   2.021
  2.088   2.108   2.144   2.180   2.226   2.243   2.288   2.317
  2.410   2.453   2.486   2.554   2.586   2.608   2.658   2.691
  2.698   2.836   2.885   2.956   3.064   3.949   4.084   4.205
  4.268   4.336   4.450   4.548
 
 Beta MOs
 -- Occupied --
-14.329 -10.237 -10.225 -10.202 -10.199 -10.193 -10.192  -0.935
 -0.814  -0.755  -0.661  -0.629  -0.535  -0.529  -0.510  -0.458
 -0.445  -0.406  -0.397  -0.365  -0.318  -0.290  -0.263  -0.224
 -- Virtual --
 -0.089   0.005   0.021   0.065   0.118   0.139   0.150   0.164
  0.167   0.183   0.240   0.264   0.281   0.332   0.365   0.424
  0.441   0.506   0.522   0.538   0.547   0.560   0.599   0.602
  0.615   0.635   0.651   0.672   0.679   0.705   0.728   0.770
  0.790   0.826   0.837   0.841   0.858   0.878   0.882   0.905
  0.912   0.980   1.002   1.050   1.072   1.110   1.147   1.218
  1.315   1.321   1.430   1.481   1.501   1.537   1.597   1.634
  1.697   1.722   1.850   1.868   1.915   1.923   1.955   1.970
  2.031   2.096   2.111   2.152   2.189   2.235   2.252   2.297
  2.324   2.415   2.463   2.494   2.562   2.597   2.614   2.665
  2.696   2.707   2.840   2.888   2.963   3.070   3.960   4.091
  4.206   4.271   4.344   4.457   4.552
 --------------------------------------------------------------
 
          Ground-State Mulliken Net Atomic Charges

     Atom                 Charge (a.u.)    Spin (a.u.)
  --------------------------------------------------------
      1 C                    -0.066015       0.338519
      2 C                    -0.085210      -0.034470
      3 C                    -0.090939       0.056891
      4 C                    -0.109363       0.463662
      5 C                     0.045699      -0.075979
      6 N                    -0.332981       0.329376
      7 H                     0.167077       0.009392
      8 H                     0.143666       0.004600
      9 H                     0.136992       0.026807
     10 H                     0.140880      -0.026263
     11 H                     0.143115       0.001641
     12 C                    -0.222794      -0.111316
     13 H                     0.129873       0.017139
  --------------------------------------------------------
  Sum of atomic charges =     0.000000
  Sum of spin   charges =     1.000000

 -----------------------------------------------------------------
                    Cartesian Multipole Moments
 -----------------------------------------------------------------
    Charge (ESU x 10^10)
                 0.0000
    Dipole Moment (Debye)
         X      -0.8723      Y      -0.8924      Z       0.5964
       Tot       1.3831
    Quadrupole Moments (Debye-Ang)
        XX     -38.7930     XY      -2.8823     YY     -39.9385
        XZ       0.2667     YZ       0.9902     ZZ     -40.9191
    Octopole Moments (Debye-Ang^2)
       XXX     -11.1273    XXY      -4.9756    XYY     -12.4303
       YYY     -14.3023    XXZ       5.9341    XYZ       5.0196
       YYZ      -0.0231    XZZ      -4.0281    YZZ      -5.6464
       ZZZ       9.8309
    Hexadecapole Moments (Debye-Ang^3)
      XXXX    -264.5572   XXXY      12.2287   XXYY    -110.2724
      XYYY      14.0171   YYYY    -367.6301   XXXZ      29.2185
      XXYZ      11.9337   XYYZ      13.4129   YYYZ      13.5106
      XXZZ     -61.7523   XYZZ       3.2954   YYZZ     -82.0348
      XZZZ      29.5617   YZZZ      14.1181   ZZZZ    -124.1932
 -----------------------------------------------------------------
 Calculating analytic gradient of the SCF energy
 Gradient of SCF Energy
            1           2           3           4           5           6
    1  -0.0000080   0.0000114   0.0000153  -0.0000067  -0.0000051  -0.0000061
    2   0.0000058   0.0000072  -0.0000017  -0.0000099   0.0000037   0.0000155
    3   0.0000188   0.0000051  -0.0000234  -0.0000096   0.0000140   0.0000132
            7           8           9          10          11          12
    1  -0.0000150   0.0000150   0.0000225  -0.0000131  -0.0000103   0.0000046
    2   0.0000045   0.0000287  -0.0000017  -0.0000210   0.0000040  -0.0000139
    3   0.0000199  -0.0000050  -0.0000247  -0.0000062   0.0000168  -0.0000031
           13
    1  -0.0000045
    2  -0.0000214
    3  -0.0000157
 Max gradient component =       2.875E-05
 RMS gradient           =       1.360E-05
 Gradient time:  CPU 7.56 s  wall 5.50 s
 Geometry Optimization Parameters
   NAtoms,    NIC,     NZ,  NCons,   NDum,   NFix, NCnnct, MaxDiis
       13     105       0       0       0       0       0       0

 Cartesian Hessian Update
 Hessian Updated using Powell/Murtagh-Sargent Update
  Mixing factors:     0.948136 Powell
                      0.051864 Murtagh-Sargent


** GEOMETRY OPTIMIZATION IN DELOCALIZED INTERNAL COORDINATES **
   Searching for a Transition State

   Optimization Cycle:  25

                       Coordinates (Angstroms)
     ATOM                X               Y               Z
      1  C         1.2274652642    0.2141256923    0.1478851555
      2  C         1.1073307814   -1.0783012354   -0.5908401282
      3  C        -0.0655245903   -1.5194142703   -0.1346883936
      4  C        -1.2313776940    0.7455250258    0.2744550692
      5  C        -0.4077062877    1.5959157053   -0.5146135987
      6  N         0.8815308637    1.3470199665   -0.5553640183
      7  H         1.9222449248    0.3231477270    0.9844289086
      8  H         1.7679380223   -1.4647380794   -1.3620682358
      9  H        -0.5698121777   -2.4632902295   -0.3523744344
     10  H        -2.1944878513    1.1000423390    0.6348103928
     11  H        -0.7941127689    2.4635243591   -1.0476506744
     12  C        -0.6479132743   -0.4623301562    0.7578830170
     13  H        -1.0745619194   -0.8329003667    1.6969124824
   Point Group: c1    Number of degrees of freedom:    33


   Energy is   -286.845250725

 Hessian Updated using Powell/Murtagh-Sargent Update
**WARNING** Small Scalar Product
 Hessian Update Skipped this cycle

 33 Hessian modes will be used to form the next step
  Hessian Eigenvalues:
    -0.030275    0.006513    0.010383    0.012727    0.015835    0.023301
     0.025492    0.026597    0.031748    0.034061    0.047831    0.051636
     0.070326    0.084562    0.097005    0.099660    0.115253    0.117892
     0.183592    0.203760    0.217099    0.256035    0.268530    0.285768
     0.295725    0.306770    0.307357    0.358179    0.371020    0.377386
     0.401550    0.464267    0.469367

 Transition State Search - Taking P-RFO Step
 Searching for Lamda that Maximizes Along the Lowest mode
 Value Taken    Lamda =   0.00000000
 Searching for Lamda that Minimizes Along All other modes
 Value Taken    Lamda =   0.00000000
 Step Taken.  Stepsize is  0.000720

                             Maximum     Tolerance    Cnvgd?
         Gradient           0.000008      0.000010     YES
         Displacement       0.000348      0.001200     YES
         Energy change     -0.000000      0.000001     YES


                       Distance Matrix (Angstroms)
             C (  1)   C (  2)   C (  3)   C (  4)   C (  5)   N (  6)
   C (  2)  1.493491
   C (  3)  2.181016  1.333508
   C (  4)  2.518792  3.089439  2.580031
   C (  5)  2.240990  3.074505  3.157010  1.422754
   N (  6)  1.377563  2.436068  3.048004  2.348357  1.313675
   H (  7)  1.092891  2.260446  2.932352  3.260031  3.048892  2.121877
   H (  8)  2.321778  1.086521  2.207042  4.069320  3.849573  3.056546
   H (  9)  3.263284  2.188120  1.092060  3.335728  4.065680  4.082409
   H ( 10)  3.568152  4.141184  3.462104  1.087713  2.181663  3.307477
   H ( 11)  3.252058  4.045824  4.150680  2.211490  1.089120  2.072851
   C ( 12)  2.084882  2.297685  1.501095  1.425850  2.431733  2.708794
   H ( 13)  2.965650  3.170913  2.200959  2.130587  3.351819  3.694740
             H (  7)   H (  8)   H (  9)   H ( 10)   H ( 11)   C ( 12)
   H (  8)  2.954047
   H (  9)  3.970092  2.735263
   H ( 10)  4.203961  5.125080  4.038743
   H ( 11)  4.011129  4.700448  4.980685  2.578916
   C ( 12)  2.697038  3.366802  2.289675  2.201828  3.441214
   H ( 13)  3.290126  4.223315  2.666931  2.473573  4.298569  1.095960

 
 Final energy is   -286.845250724930     


 ******************************
 **  OPTIMIZATION CONVERGED  **
 ******************************

                       Coordinates (Angstroms)
     ATOM                X               Y               Z
      1  C         1.2274652642    0.2141256923    0.1478851555
      2  C         1.1073307814   -1.0783012354   -0.5908401282
      3  C        -0.0655245903   -1.5194142703   -0.1346883936
      4  C        -1.2313776940    0.7455250258    0.2744550692
      5  C        -0.4077062877    1.5959157053   -0.5146135987
      6  N         0.8815308637    1.3470199665   -0.5553640183
      7  H         1.9222449248    0.3231477270    0.9844289086
      8  H         1.7679380223   -1.4647380794   -1.3620682358
      9  H        -0.5698121777   -2.4632902295   -0.3523744344
     10  H        -2.1944878513    1.1000423390    0.6348103928
     11  H        -0.7941127689    2.4635243591   -1.0476506744
     12  C        -0.6479132743   -0.4623301562    0.7578830170
     13  H        -1.0745619194   -0.8329003667    1.6969124824

Z-matrix Print:
$molecule
0 2
N 
C  1 1.313675
H  2 1.089120 1 118.942814
C  1 1.377563 2 112.732393 3 -179.306164 0
H  4 1.092891 1 117.928258 2 -119.418434 0
C  2 1.422754 1 118.171815 3 -177.425389 0
H  6 1.087713 2 120.101769 1 157.426086 0
C  6 1.425850 2 117.223492 1 -11.718253 0
H  8 1.095960 6 114.684826 2 151.732335 0
C  4 1.493491 1 116.037856 2 85.205251 0
H  10 1.086521 4 127.587396 1 74.944782 0
C  10 1.333508 4 100.824912 1 -99.348701 0
H  12 1.092060 10 128.598823 4 -176.928781 0
$end

 
 --------------------------------------------------------------
 
                    Orbital Energies (a.u.)
 --------------------------------------------------------------
 
 Alpha MOs
 -- Occupied --
-14.336 -10.242 -10.225 -10.201 -10.200 -10.199 -10.192  -0.948
 -0.820  -0.766  -0.666  -0.637  -0.541  -0.533  -0.515  -0.463
 -0.452  -0.411  -0.402  -0.374  -0.333  -0.310  -0.268  -0.235
 -0.182
 -- Virtual --
 -0.010   0.015   0.045   0.116   0.137   0.144   0.163   0.165
  0.178   0.234   0.257   0.278   0.328   0.359   0.420   0.437
  0.502   0.513   0.534   0.542   0.557   0.590   0.596   0.613
  0.630   0.647   0.660   0.672   0.696   0.723   0.767   0.784
  0.822   0.831   0.838   0.855   0.873   0.876   0.896   0.909
  0.975   0.998   1.046   1.068   1.105   1.142   1.212   1.312
  1.315   1.423   1.475   1.496   1.527   1.583   1.622   1.688
  1.717   1.841   1.859   1.905   1.918   1.949   1.962   2.021
  2.088   2.108   2.144   2.180   2.226   2.243   2.288   2.317
  2.410   2.453   2.486   2.554   2.586   2.608   2.658   2.691
  2.698   2.836   2.885   2.956   3.064   3.949   4.084   4.205
  4.268   4.336   4.450   4.548
 
 Beta MOs
 -- Occupied --
-14.329 -10.237 -10.225 -10.202 -10.199 -10.193 -10.192  -0.935
 -0.814  -0.755  -0.661  -0.629  -0.535  -0.529  -0.510  -0.458
 -0.445  -0.406  -0.397  -0.365  -0.318  -0.290  -0.263  -0.224
 -- Virtual --
 -0.089   0.005   0.021   0.065   0.118   0.139   0.150   0.164
  0.167   0.183   0.240   0.264   0.281   0.332   0.365   0.424
  0.441   0.506   0.522   0.538   0.547   0.560   0.599   0.602
  0.615   0.635   0.651   0.672   0.679   0.705   0.728   0.770
  0.790   0.826   0.837   0.841   0.858   0.878   0.882   0.905
  0.912   0.980   1.002   1.050   1.072   1.110   1.147   1.218
  1.315   1.321   1.430   1.481   1.501   1.537   1.597   1.634
  1.697   1.722   1.850   1.868   1.915   1.923   1.955   1.970
  2.031   2.096   2.111   2.152   2.189   2.235   2.252   2.297
  2.324   2.415   2.463   2.494   2.562   2.597   2.614   2.665
  2.696   2.707   2.840   2.888   2.963   3.070   3.960   4.091
  4.206   4.271   4.344   4.457   4.552
 --------------------------------------------------------------
 
          Ground-State Mulliken Net Atomic Charges

     Atom                 Charge (a.u.)    Spin (a.u.)
  --------------------------------------------------------
      1 C                    -0.066015       0.338519
      2 C                    -0.085210      -0.034470
      3 C                    -0.090939       0.056891
      4 C                    -0.109363       0.463662
      5 C                     0.045699      -0.075979
      6 N                    -0.332981       0.329376
      7 H                     0.167077       0.009392
      8 H                     0.143666       0.004600
      9 H                     0.136992       0.026807
     10 H                     0.140880      -0.026263
     11 H                     0.143115       0.001641
     12 C                    -0.222794      -0.111316
     13 H                     0.129873       0.017139
  --------------------------------------------------------
  Sum of atomic charges =     0.000000
  Sum of spin   charges =     1.000000

 -----------------------------------------------------------------
                    Cartesian Multipole Moments
 -----------------------------------------------------------------
    Charge (ESU x 10^10)
                 0.0000
    Dipole Moment (Debye)
         X      -0.8723      Y      -0.8924      Z       0.5964
       Tot       1.3831
    Quadrupole Moments (Debye-Ang)
        XX     -38.7930     XY      -2.8823     YY     -39.9385
        XZ       0.2667     YZ       0.9902     ZZ     -40.9191
    Octopole Moments (Debye-Ang^2)
       XXX     -11.1273    XXY      -4.9756    XYY     -12.4303
       YYY     -14.3023    XXZ       5.9341    XYZ       5.0196
       YYZ      -0.0231    XZZ      -4.0281    YZZ      -5.6464
       ZZZ       9.8309
    Hexadecapole Moments (Debye-Ang^3)
      XXXX    -264.5572   XXXY      12.2287   XXYY    -110.2724
      XYYY      14.0171   YYYY    -367.6301   XXXZ      29.2185
      XXYZ      11.9337   XYYZ      13.4129   YYYZ      13.5106
      XXZZ     -61.7523   XYZZ       3.2954   YYZZ     -82.0348
      XZZZ      29.5617   YZZZ      14.1181   ZZZZ    -124.1932
 -----------------------------------------------------------------
Archival summary:
1\1\c8-89\TS\ProcedureUnspecified\6-31G*\166(2)\hpark21\WedMar203:48:392022WedMar203:48:392022\0\\#,TS,ProcedureUnspecified,6-31G*,\\0,2\N\C,1,1.31368\H,2,1.08912,1,118.943\C,1,1.37756,2,112.732,3,-179.306,0\H,4,1.09289,1,117.928,2,-119.418,0\C,2,1.42275,1,118.172,3,-177.425,0\H,6,1.08771,2,120.102,1,157.426,0\C,6,1.42585,2,117.223,1,-11.7183,0\H,8,1.09596,6,114.685,2,151.732,0\C,4,1.49349,1,116.038,2,85.2053,0\H,10,1.08652,4,127.587,1,74.9448,0\C,10,1.33351,4,100.825,1,-99.3487,0\H,12,1.09206,10,128.599,4,-176.929,0\\\@

 Total job time:  1117.27s(wall), 1105.63s(cpu) 
 Wed Mar  2 03:48:39 2022

        *************************************************************
        *                                                           *
        *  Thank you very much for using Q-Chem.  Have a nice day.  *
        *                                                           *
        *************************************************************


