
Running Job 1 of 1 qcts1.in
qchem qcts1.in_89582.0 ./qcts1.d/ 1
/home/leeping/opt/qchem/5.0.2-openmp/exe/qcprog.exe_s qcts1.in_89582.0 ./qcts1.d/
Check license passed

                  Welcome to Q-Chem
     A Quantum Leap Into The Future Of Chemistry


 Q-Chem 5.0, Q-Chem, Inc., Pleasanton, CA (2017)

 Yihan Shao,  Zhengting Gan,  E. Epifanovsky,  A. T. B. Gilbert,  M. Wormit,  
 J. Kussmann,  A. W. Lange,  A. Behn,  Jia Deng,  Xintian Feng,  D. Ghosh,  
 M. Goldey,  P. R. Horn,  L. D. Jacobson,  I. Kaliman,  T. Kus,  A. Landau,  
 Jie Liu,  E. I. Proynov,  R. M. Richard,  R. P. Steele,  E. J. Sundstrom,  
 H. L. Woodcock III,  P. M. Zimmerman,  D. Zuev,  B. Albrecht,  E. Alguire,  
 S. A. Baeppler,  D. Barton,  Z. Benda,  Y. A. Bernard,  E. J. Berquist,  
 K. B. Bravaya,  H. Burton,  D. Casanova,  Chun-Min Chang,  Yunqing Chen,  
 A. Chien,  K. D. Closser,  M. P. Coons,  S. Dasgupta,  A. L. Dempwolff,  
 M. Diedenhofen,  Hainam Do,  R. G. Edgar,  Po-Tung Fang,  S. Fatehi,  
 Qingguo Feng,  J. Fosso-Tande,  Qinghui Ge,  A. Ghysels,  G. Gidofalvi,  
 J. Gomes,  J. Gonthier,  A. Gunina,  M. W. D. Hanson-Heine,  
 P. H. P. Harbach,  A. W. Hauser,  J. E. Herr,  E. G. Hohenstein,  
 Z. C. Holden,  Kerwin Hui,  T.-C. Jagau,  Hyunjun Ji,  B. Kaduk,  
 K. Khistyaev,  Jaehoon Kim,  P. Klunzinger,  K. Koh,  D. Kosenkov,  
 L. Koulias,  T. Kowalczyk,  C. M. Krauter,  A. Kunitsa,  Ka Un Lao,  
 A. Laurent,  K. V. Lawler,  Joonho Lee,  D. Lefrancois,  S. Lehtola,  
 D. S. Levine,  Yi-Pei Li,  You-Sheng Lin,  Fenglai Liu,  E. Livshits,  
 A. Luenser,  P. Manohar,  E. Mansoor,  S. F. Manzer,  Shan-Ping Mao,  
 Yuezhi Mao,  N. Mardirossian,  A. V. Marenich,  T. Markovich,  
 L. A. Martinez-Martinez,  S. A. Maurer,  N. J. Mayhall,  S. C. McKenzie,  
 J.-M. Mewes,  A. F. Morrison,  J. W. Mullinax,  K. Nanda,  
 T. S. Nguyen-Beck,  R. Olivares-Amaya,  J. A. Parkhill,  T. M. Perrine,  
 F. Plasser,  S. Prager,  A. Prociuk,  E. Ramos,  D. R. Rehn,  F. Rob,  
 M. Schneider,  N. Sergueev,  S. M. Sharada,  S. Sharma,  D. W. Small,  
 T. Stauch,  T. Stein,  Yu-Chuan Su,  A. J. W. Thom,  A. Tkatchenko,  
 T. Tsuchimochi,  L. Vogt,  O. Vydrov,  M. A. Watson,  J. Wenzel,  
 M. de Wergifosse,  T. A. Wesolowski,  A. White,  J. Witte,  A. Yamada,  
 Jun Yang,  K. Yao,  S. Yeganeh,  S. R. Yost,  Zhi-Qiang You,  A. Zech,  
 Igor Ying Zhang,  Xing Zhang,  Yan Zhao,  Ying Zhu,  B. R. Brooks,  
 G. K. L. Chan,  C. J. Cramer,  M. S. Gordon,  W. J. Hehre,  A. Klamt,  
 M. W. Schmidt,  C. D. Sherrill,  D. G. Truhlar,  A. Aspuru-Guzik,  R. Baer,  
 A. T. Bell,  N. A. Besley,  Jeng-Da Chai,  R. A. DiStasio Jr.,  A. Dreuw,  
 B. D. Dunietz,  T. R. Furlani,  Chao-Ping Hsu,  Yousung Jung,  Jing Kong,  
 D. S. Lambrecht,  WanZhen Liang,  C. Ochsenfeld,  V. A. Rassolov,  
 L. V. Slipchenko,  J. E. Subotnik,  T. Van Voorhis,  J. M. Herbert,  
 A. I. Krylov,  P. M. W. Gill,  M. Head-Gordon

 Contributors to earlier versions of Q-Chem not listed above: 
 R. D. Adamson,  B. Austin,  J. Baker,  G. J. O. Beran,  K. Brandhorst,  
 S. T. Brown,  E. F. C. Byrd,  A. K. Chakraborty,  C.-L. Cheng,  
 Siu Hung Chien,  D. M. Chipman,  D. L. Crittenden,  H. Dachsel,  
 R. J. Doerksen,  A. D. Dutoi,  L. Fusti-Molnar,  W. A. Goddard III,  
 A. Golubeva-Zadorozhnaya,  S. R. Gwaltney,  G. Hawkins,  A. Heyden,  
 S. Hirata,  G. Kedziora,  F. J. Keil,  C. Kelley,  Jihan Kim,  R. A. King,  
 R. Z. Khaliullin,  P. P. Korambath,  W. Kurlancheek,  A. M. Lee,  M. S. Lee,  
 S. V. Levchenko,  Ching Yeh Lin,  D. Liotard,  R. C. Lochan,  I. Lotan,  
 P. E. Maslen,  N. Nair,  D. P. O'Neill,  D. Neuhauser,  E. Neuscamman,  
 C. M. Oana,  R. Olson,  B. Peters,  R. Peverati,  P. A. Pieniazek,  
 Y. M. Rhee,  J. Ritchie,  M. A. Rohrdanz,  E. Rosta,  N. J. Russ,  
 H. F. Schaefer III,  N. E. Schultz,  N. Shenvi,  A. C. Simmonett,  A. Sodt,  
 D. Stuck,  K. S. Thanthiriwatte,  V. Vanovschi,  Tao Wang,  A. Warshel,  
 C. F. Williams,  Q. Wu,  X. Xu,  W. Zhang

 Please cite Q-Chem as follows:
 Y. Shao et al., Mol. Phys. 113, 184-215 (2015)
 DOI: 10.1080/00268976.2014.952696

 Q-Chem 5.0.2 for Intel X86 EM64T Linux

 Parts of Q-Chem use Armadillo 5.200.1 (Boston Tea Smuggler).
 http://arma.sourceforge.net/

 Q-Chem begins on Wed Mar  2 03:23:22 2022  

Host: 
0

     Scratch files written to ./qcts1.d//
 Dec517 15110_ 26548  26544 5633   
Processing $rem in /home/leeping/opt/qchem/5.0.2-openmp/config/preferences.
 MEM_STATIC 2000
 MEM_TOTAL  8000
 SYMMETRY   OFF
 SYM_IGNORE TRUE 

Checking the input file for inconsistencies... 	...done.

--------------------------------------------------------------
User input:
--------------------------------------------------------------
$molecule
0 2
C        1.1549990629    0.1935667456    0.1901721534
C        1.0604395918   -1.1214172388   -0.5835364620
C       -0.1935764292   -1.4805453692   -0.2192340300
C       -1.2689836046    0.7693171305    0.2809451452
C       -0.4493680246    1.6973124098   -0.4456419131
N        0.8371135332    1.4088963709   -0.4724999462
H        2.0771736846    0.2875762474    0.8108946363
H        1.8625955305   -1.6149901888   -1.0889758923
H       -0.7539793843   -2.4242179901   -0.4464601753
H       -2.3413341406    0.8687130283    0.3647688511
H       -0.8109418827    2.5715526464   -0.9711179601
C       -0.5309344231   -0.3981846022    0.7371451837
H       -0.7221902211   -0.7892527125    1.7823159513
$end

$rem
method                b3lyp
basis                 6-31g(d)
unrestricted          true
symmetry              off
sym_ignore            true
incdft                false
incfock               0
scf_convergence       8
thresh                14
jobtype               freq
scf_guess             read
scf_algorithm         diis
max_scf_cycles        100
$end

--------------------------------------------------------------
 ----------------------------------------------------------------
             Standard Nuclear Orientation (Angstroms)
    I     Atom           X                Y                Z
 ----------------------------------------------------------------
    1      C       1.1549990629     0.1935667456     0.1901721534
    2      C       1.0604395918    -1.1214172388    -0.5835364620
    3      C      -0.1935764292    -1.4805453692    -0.2192340300
    4      C      -1.2689836046     0.7693171305     0.2809451452
    5      C      -0.4493680246     1.6973124098    -0.4456419131
    6      N       0.8371135332     1.4088963709    -0.4724999462
    7      H       2.0771736846     0.2875762474     0.8108946363
    8      H       1.8625955305    -1.6149901888    -1.0889758923
    9      H      -0.7539793843    -2.4242179901    -0.4464601753
   10      H      -2.3413341406     0.8687130283     0.3647688511
   11      H      -0.8109418827     2.5715526464    -0.9711179601
   12      C      -0.5309344231    -0.3981846022     0.7371451837
   13      H      -0.7221902211    -0.7892527125     1.7823159513
 ----------------------------------------------------------------
 Nuclear Repulsion Energy =   269.4251042599 hartrees
 There are       25 alpha and       24 beta electrons
 Requested basis set is 6-31G(d)
 There are 40 shells and 117 basis functions

 Total QAlloc Memory Limit   8000 MB
 Mega-Array Size      1956 MB
 MEM_STATIC part      2000 MB

                       Distance Matrix (Angstroms)
             C (  1)   C (  2)   C (  3)   C (  4)   C (  5)   N (  6)
   C (  2)  1.528643
   C (  3)  2.188360  1.354343
   C (  4)  2.493074  3.122246  2.543337
   C (  5)  2.288996  3.200589  3.196165  1.435574
   N (  6)  1.420286  2.542576  3.078204  2.326454  1.318689
   H (  7)  1.115590  2.227880  3.056751  3.421942  3.154307  2.107655
   H (  8)  2.325466  1.068895  2.236598  4.167540  4.090281  3.252006
   H (  9)  3.301863  2.237900  1.120804  3.315572  4.132772  4.150304
   H ( 10)  3.565200  4.053636  3.236192  1.080204  2.218756  3.330968
   H ( 11)  3.296716  4.158162  4.167249  2.241767  1.082200  2.077613
   C ( 12)  1.868615  2.190830  1.483232  1.454612  2.407643  2.569112
   H ( 13)  2.650414  2.980832  2.182549  2.232093  3.349811  3.513898
             H (  7)   H (  8)   H (  9)   H ( 10)   H ( 11)   C ( 12)
   H (  8)  2.697278
   H (  9)  4.117062  2.813208
   H ( 10)  4.478835  5.094623  3.744487
   H ( 11)  4.090639  4.968786  5.023568  2.650728
   C ( 12)  2.697765  3.247202  2.357007  2.240813  3.437427
   H ( 13)  3.152722  3.950605  2.764338  2.716600  4.345606  1.132208

 
 A cutoff of  1.0D-14 yielded    803 shell pairs
 There are      7075 function pairs
 Smallest overlap matrix eigenvalue = 1.23E-03
 Guess MOs from SCF MO coefficient file
 Reading MOs from coefficient file
 Reading MOs from coefficient file
 An unrestricted hybrid HF-DFT SCF calculation will be
 performed using Pulay DIIS extrapolation
 Exchange:     0.2000 Hartree-Fock + 0.0800 Slater + 0.7200 B88
 Correlation:  0.1900 VWN1RPA + 0.8100 LYP
 Using SG-1 standard quadrature grid
 SCF converges when DIIS error is below 1.0E-08
Using Q-Chem read-in guess as SCF_GUESS READ specified.

 -------------------------------------------------------
 OpenMP BLAS3 based DFT computing Module                
 -------------------------------------------------------
 ---------------------------------------
  Cycle       Energy         DIIS Error
 ---------------------------------------
    1    -286.8453671337      1.16E-09
    2    -286.8453671337      1.96E-09 Convergence criterion met
 ---------------------------------------
 <S^2> = 0.7752
 SCF time:  CPU 3.39 s  wall 13.22 s
 SCF   energy in the final basis set = -286.84536713
 Total energy in the final basis set = -286.84536713
 
 --------------------------------------------------------------
 
                    Orbital Energies (a.u.)
 --------------------------------------------------------------
 
 Alpha MOs
 -- Occupied --
-14.332 -10.230 -10.223 -10.211 -10.206 -10.201 -10.194  -0.938
 -0.824  -0.759  -0.658  -0.631  -0.541  -0.524  -0.512  -0.469
 -0.427  -0.418  -0.398  -0.372  -0.331  -0.302  -0.268  -0.223
 -0.208
 -- Virtual --
  0.001   0.023   0.065   0.116   0.133   0.148   0.157   0.166
  0.168   0.215   0.251   0.259   0.308   0.349   0.424   0.432
  0.499   0.513   0.538   0.542   0.555   0.592   0.597   0.602
  0.608   0.632   0.648   0.677   0.688   0.736   0.760   0.805
  0.813   0.827   0.835   0.852   0.863   0.867   0.910   0.933
  0.963   0.976   1.029   1.092   1.125   1.159   1.243   1.350
  1.380   1.440   1.454   1.462   1.514   1.525   1.618   1.683
  1.744   1.791   1.850   1.874   1.934   1.948   2.005   2.036
  2.048   2.079   2.161   2.191   2.211   2.256   2.284   2.361
  2.392   2.407   2.488   2.535   2.595   2.612   2.630   2.645
  2.683   2.820   2.874   2.965   2.983   3.915   4.089   4.197
  4.277   4.339   4.438   4.613
 
 Beta MOs
 -- Occupied --
-14.323 -10.230 -10.226 -10.207 -10.201 -10.200 -10.193  -0.925
 -0.818  -0.743  -0.657  -0.622  -0.536  -0.521  -0.508  -0.463
 -0.420  -0.411  -0.392  -0.360  -0.317  -0.288  -0.264  -0.218
 -- Virtual --
 -0.095   0.006   0.047   0.066   0.119   0.135   0.152   0.160
  0.168   0.170   0.222   0.257   0.263   0.310   0.356   0.429
  0.437   0.504   0.521   0.540   0.546   0.560   0.594   0.601
  0.607   0.618   0.637   0.651   0.684   0.702   0.739   0.764
  0.808   0.820   0.831   0.847   0.857   0.867   0.875   0.914
  0.937   0.969   0.981   1.034   1.095   1.130   1.164   1.247
  1.358   1.391   1.443   1.461   1.468   1.520   1.534   1.625
  1.691   1.755   1.802   1.860   1.890   1.938   1.953   2.009
  2.040   2.051   2.083   2.166   2.203   2.217   2.269   2.298
  2.367   2.399   2.411   2.496   2.544   2.609   2.620   2.636
  2.651   2.689   2.823   2.877   2.969   2.987   3.928   4.098
  4.196   4.281   4.343   4.448   4.614
 --------------------------------------------------------------
 
          Ground-State Mulliken Net Atomic Charges

     Atom                 Charge (a.u.)    Spin (a.u.)
  --------------------------------------------------------
      1 C                    -0.066060       0.000422
      2 C                    -0.072651       0.024380
      3 C                    -0.098641       0.035368
      4 C                    -0.102939       0.721013
      5 C                     0.048058      -0.211429
      6 N                    -0.333608       0.456600
      7 H                     0.148413       0.028502
      8 H                     0.136423       0.002618
      9 H                     0.130991       0.006956
     10 H                     0.145071      -0.033391
     11 H                     0.148604       0.006811
     12 C                    -0.229916      -0.068028
     13 H                     0.146255       0.030178
  --------------------------------------------------------
  Sum of atomic charges =    -0.000000
  Sum of spin   charges =     1.000000

 -----------------------------------------------------------------
                    Cartesian Multipole Moments
 -----------------------------------------------------------------
    Charge (ESU x 10^10)
                -0.0000
    Dipole Moment (Debye)
         X      -1.3195      Y      -1.1265      Z       0.6363
       Tot       1.8480
    Quadrupole Moments (Debye-Ang)
        XX     -37.9205     XY      -3.4392     YY     -40.2905
        XZ       0.6995     YZ       0.4766     ZZ     -41.6078
    Octopole Moments (Debye-Ang^2)
       XXX      -8.4503    XXY      -8.0803    XYY     -11.2975
       YYY     -17.1792    XXZ       4.2391    XYZ       4.9833
       YYZ      -0.5573    XZZ      -3.7044    YZZ      -6.3465
       ZZZ       9.5079
    Hexadecapole Moments (Debye-Ang^3)
      XXXX    -249.2689   XXXY      11.5190   XXYY    -111.8546
      XYYY      12.4800   YYYY    -382.4465   XXXZ      23.9226
      XXYZ       9.1530   XYYZ      12.8535   YYYZ       7.7753
      XXZZ     -63.5293   XYZZ       4.9576   YYZZ     -84.1118
      XZZZ      23.0315   YZZZ       6.5296   ZZZZ    -116.1694
 -----------------------------------------------------------------
 Calculating MO derivatives via CPSCF
   1         3          39      0.250851    0.061776
   2         3          39      0.028894    0.006947
   3         3          39      0.003693    0.000852
   4         3          39      0.000515    0.000099
   5        29          13      0.000035    0.000010
   6        41           1      0.000001    0.000001
   7        42           0      0.000000    0.000000    Roots Converged
 Time for AOints: 5.8 s (CPU) 7.1 s (wall)
 ------------------------------------------------------------------------------
                     AOints        : Timing summary (seconds)
 ------------------------------------------------------------------------------
     job step          cpu (% of tot)      sys (% of tot)     wall (% of tot)
 ------------------------------------------------------------------------------
  cpscf_lag         0.5479E+02 (28.7)   0.3200E-04 (39.5)   0.6498E+02 (28.5)
  iterzp            0.1303E+03 (68.2)   0.4700E-04 (58.0)   0.1555E+03 (68.3)
  make_fx           0.0000E+00 ( 0.0)   0.0000E+00 ( 0.0)   0.0000E+00 ( 0.0)
  AOints            0.5766E+01 ( 3.0)   0.1000E-05 ( 1.2)   0.7071E+01 ( 3.1)
 ------------------------------------------------------------------------------
   Grand Totals     0.1910E+03          0.8100E-04          0.2277E+03
 ------------------------------------------------------------------------------
 Calculating analytic Hessian of the SCF energy
 Polarizability Matrix (a.u.)
            1           2           3
    1 -73.2929325   0.9866195   7.5001886
    2   0.9866195 -66.6743730   4.2537845
    3   7.5001886   4.2537845 -43.6506459
 
 Direct stationary perturbation theory relativistic correction:
 
 rels  =       0.069238549289
 relv  =      -0.337558216168
 rel2e =       0.155416571000
 E_rel =      -0.112903095879
 
 Hessian of the SCF Energy
            1           2           3           4           5           6
    1   0.3921460  -0.0422916   0.1832046  -0.0574868  -0.0003575  -0.0130088
    2  -0.0422916   0.4430758   0.0295369   0.0023276  -0.1368879  -0.0528070
    3   0.1832046   0.0295369   0.3494487  -0.0146774  -0.0718175  -0.0975715
    4  -0.0574868   0.0023276  -0.0146774   0.7784253  -0.0014125  -0.2518258
    5  -0.0003575  -0.1368879  -0.0718175  -0.0014125   0.4139467   0.1475489
    6  -0.0130088  -0.0528070  -0.0975715  -0.2518258   0.1475489   0.3071470
    7  -0.0316866  -0.0342524  -0.0019523  -0.4444893  -0.1132369   0.1091204
    8  -0.0452614  -0.0464403  -0.0057628  -0.1034116  -0.1059528   0.0206104
    9  -0.0135735  -0.0197303   0.0051666   0.1183138   0.0268981  -0.0899450
   10  -0.0342422  -0.0050662   0.0065355   0.0009172   0.0022122   0.0019007
   11   0.0195515   0.0053430  -0.0226243   0.0022049   0.0018750   0.0028061
   12  -0.0116969  -0.0015778   0.0014172  -0.0011358  -0.0061960  -0.0004654
   13  -0.0343877   0.0291863  -0.0065924  -0.0065967  -0.0079690   0.0012828
   14   0.0323922  -0.0302129   0.0143017   0.0000791  -0.0037047   0.0016728
   15  -0.0116252   0.0144482  -0.0102768   0.0010102   0.0011887   0.0016154
   16  -0.0706206   0.0410715  -0.0311243   0.0042570   0.0103774  -0.0008893
   17   0.0190573  -0.1615632   0.0651288   0.0001787  -0.0342187   0.0052583
   18  -0.0201306   0.0457794  -0.0990455   0.0090107  -0.0032282   0.0118948
   19  -0.2047444  -0.0197842  -0.1117527   0.0020212  -0.0012829  -0.0009265
   20  -0.0245932  -0.0470050  -0.0142040  -0.0218096  -0.0024511  -0.0158085
   21  -0.0962353  -0.0093036  -0.1175315  -0.0170783  -0.0022083  -0.0055218
   22   0.0047552  -0.0051463  -0.0009495  -0.2399826   0.1085002   0.1227728
   23   0.0151888  -0.0030369  -0.0063201   0.1110063  -0.1199809  -0.0822479
   24   0.0078461  -0.0020419  -0.0033729   0.1218430  -0.0781232  -0.1100937
   25   0.0003399  -0.0054081   0.0031556  -0.0011832  -0.0193451  -0.0065805
   26  -0.0050627   0.0014615  -0.0063140   0.0009429  -0.0015593  -0.0047809
   27   0.0070904  -0.0072073   0.0032255   0.0027686   0.0074526   0.0084447
   28  -0.0003193  -0.0003114  -0.0003601  -0.0005773   0.0005431   0.0007818
   29  -0.0007408  -0.0036766   0.0061424  -0.0008899  -0.0007718  -0.0005540
   30  -0.0031271   0.0031395   0.0011742  -0.0019127   0.0000350   0.0010812
   31  -0.0033411   0.0009780   0.0014544  -0.0000396   0.0006668  -0.0006351
   32   0.0021653   0.0052606   0.0049441  -0.0002165   0.0013124  -0.0006983
   33   0.0033643   0.0045405   0.0080832  -0.0004590   0.0022003  -0.0005253
   34   0.0318113   0.0346390  -0.0365925  -0.0357020   0.0225454   0.0399965
   35   0.0265314  -0.0264844   0.0056615   0.0111763  -0.0090256  -0.0174019
   36  -0.0338907  -0.0047359  -0.0419896   0.0341467  -0.0200778  -0.0234202
   37   0.0077765   0.0040579   0.0096511   0.0004369  -0.0012412  -0.0019891
   38   0.0034205   0.0001663   0.0013274  -0.0001758  -0.0025812  -0.0035980
   39   0.0017828  -0.0000407   0.0012724  -0.0000040  -0.0036725  -0.0026402
            7           8           9          10          11          12
    1  -0.0316866  -0.0452614  -0.0135735  -0.0342422   0.0195515  -0.0116969
    2  -0.0342524  -0.0464403  -0.0197303  -0.0050662   0.0053430  -0.0015778
    3  -0.0019523  -0.0057628   0.0051666   0.0065355  -0.0226243   0.0014172
    4  -0.4444893  -0.1034116   0.1183138   0.0009172   0.0022049  -0.0011358
    5  -0.1132369  -0.1059528   0.0268981   0.0022122   0.0018750  -0.0061960
    6   0.1091204   0.0206104  -0.0899450   0.0019007   0.0028061  -0.0004654
    7   0.6380858   0.1779684  -0.1478863  -0.0094759   0.0242360   0.0065156
    8   0.1779684   0.5215001   0.1347435   0.0049229  -0.0183830  -0.0104559
    9  -0.1478863   0.1347435   0.2997598   0.0052151   0.0010098   0.0069260
   10  -0.0094759   0.0049229   0.0052151   0.6823813  -0.0681645  -0.0606859
   11   0.0242360  -0.0183830   0.0010098  -0.0681645   0.4105536  -0.1522949
   12   0.0065156  -0.0104559   0.0069260  -0.0606859  -0.1522949   0.2034097
   13  -0.0038061  -0.0011722  -0.0021835  -0.0966923   0.0015733  -0.0030466
   14  -0.0016866  -0.0034324  -0.0010124  -0.0509795  -0.1633325   0.0718921
   15   0.0005921   0.0003489   0.0012699   0.0397998   0.0663262  -0.1026218
   16   0.0027989   0.0000666   0.0013709  -0.0989928  -0.0570120   0.0613991
   17   0.0073959   0.0063074   0.0046879   0.0036953   0.0172373   0.0027333
   18   0.0048521  -0.0027991  -0.0011329   0.0220618   0.0166580   0.0132050
   19  -0.0001422  -0.0002958   0.0009840  -0.0003945   0.0000960   0.0004703
   20   0.0003858  -0.0032792  -0.0028261   0.0008090   0.0000127   0.0004567
   21  -0.0011075  -0.0053042  -0.0039055   0.0007618   0.0013948  -0.0009208
   22  -0.0017017   0.0154236   0.0107370   0.0006913  -0.0001903   0.0003244
   23  -0.0080794   0.0066556   0.0042966  -0.0011994   0.0003000   0.0008796
   24   0.0023785  -0.0011076   0.0031676   0.0032337  -0.0002511  -0.0007152
   25  -0.1169295  -0.0882026  -0.0102984   0.0007902  -0.0014612   0.0004715
   26  -0.0931061  -0.2087057  -0.0418665  -0.0006982   0.0014075  -0.0002000
   27  -0.0155506  -0.0411960  -0.0612100  -0.0017838   0.0006516  -0.0014762
   28  -0.0012380  -0.0000422  -0.0004583  -0.3517405   0.0293426   0.0291691
   29  -0.0004391  -0.0013507  -0.0004215   0.0304492  -0.0472718   0.0107745
   30  -0.0030372  -0.0012433  -0.0010961   0.0239285   0.0150660  -0.0338013
   31  -0.0002232   0.0004917   0.0007353   0.0107715  -0.0149762   0.0074730
   32  -0.0007037   0.0011075   0.0001733   0.0075018  -0.0089899   0.0053237
   33  -0.0011814   0.0012907   0.0001033  -0.0078572   0.0065607  -0.0006507
   34  -0.0347853   0.0384657   0.0295704  -0.1130833   0.0626287  -0.0143789
   35   0.0336203  -0.1567251  -0.0837555   0.0816994  -0.1895582   0.0584162
   36   0.0385719  -0.0945089  -0.1381065  -0.0350711   0.0607610  -0.0792993
   37   0.0035932   0.0010470   0.0074737   0.0090700   0.0021712  -0.0148788
   38   0.0078979   0.0086985  -0.0221970  -0.0051821  -0.0091936   0.0202486
   39   0.0086847   0.0053843  -0.0209973   0.0019612   0.0039361  -0.0050073
           13          14          15          16          17          18
    1  -0.0343877   0.0323922  -0.0116252  -0.0706206   0.0190573  -0.0201306
    2   0.0291863  -0.0302129   0.0144482   0.0410715  -0.1615632   0.0457794
    3  -0.0065924   0.0143017  -0.0102768  -0.0311243   0.0651288  -0.0990455
    4  -0.0065967   0.0000791   0.0010102   0.0042570   0.0001787   0.0090107
    5  -0.0079690  -0.0037047   0.0011887   0.0103774  -0.0342187  -0.0032282
    6   0.0012828   0.0016728   0.0016154  -0.0008893   0.0052583   0.0118948
    7  -0.0038061  -0.0016866   0.0005921   0.0027989   0.0073959   0.0048521
    8  -0.0011722  -0.0034324   0.0003489   0.0000666   0.0063074  -0.0027991
    9  -0.0021835  -0.0010124   0.0012699   0.0013709   0.0046879  -0.0011329
   10  -0.0966923  -0.0509795   0.0397998  -0.0989928   0.0036953   0.0220618
   11   0.0015733  -0.1633325   0.0663262  -0.0570120   0.0172373   0.0166580
   12  -0.0030466   0.0718921  -0.1026218   0.0613991   0.0027333   0.0132050
   13   0.5393661  -0.1537709   0.0369800  -0.3301967   0.0756942  -0.0006729
   14  -0.1537709   0.5787782  -0.2625328   0.0857523  -0.1043439   0.0259349
   15   0.0369800  -0.2625328   0.2916530  -0.0108446   0.0309406  -0.0598928
   16  -0.3301967   0.0857523  -0.0108446   0.5350764  -0.1043443  -0.0094413
   17   0.0756942  -0.1043439   0.0309406  -0.1043443   0.3021700  -0.1220479
   18  -0.0006729   0.0259349  -0.0598928  -0.0094413  -0.1220479   0.1550012
   19   0.0016837   0.0007602  -0.0024847  -0.0053046   0.0058299  -0.0046457
   20   0.0009979  -0.0038806   0.0032599   0.0265432  -0.0015061   0.0193110
   21  -0.0001284   0.0017627  -0.0022235  -0.0157519   0.0036460  -0.0066732
   22   0.0004979  -0.0000737   0.0001560  -0.0001738   0.0010707  -0.0020005
   23   0.0011325  -0.0006488   0.0002065  -0.0005605   0.0015895  -0.0013450
   24   0.0003966   0.0006761   0.0002131  -0.0001464  -0.0010992  -0.0012678
   25   0.0002702   0.0001383  -0.0005031  -0.0012012  -0.0005260  -0.0003017
   26   0.0000600  -0.0001068   0.0001422   0.0005867   0.0001337   0.0008468
   27  -0.0004774   0.0000117  -0.0001330  -0.0014222  -0.0015103   0.0021992
   28  -0.0087589   0.0055043  -0.0024606  -0.0011467   0.0005238   0.0013902
   29  -0.0189373   0.0080653  -0.0014839  -0.0044236   0.0004165   0.0036866
   30   0.0119416  -0.0044268   0.0043290   0.0051408   0.0034688   0.0021653
   31  -0.0815221   0.0711004  -0.0399908  -0.0158017   0.0298405  -0.0169976
   32   0.0746697  -0.2471374   0.1265983   0.0061693  -0.0044410  -0.0020726
   33  -0.0408909   0.1289340  -0.1167581  -0.0016136  -0.0063567  -0.0016407
   34   0.0215441   0.0075171  -0.0103004  -0.0165926  -0.0302392   0.0166406
   35  -0.0034447  -0.0277427   0.0178438  -0.0036901  -0.0181136   0.0181741
   36   0.0052328   0.0224491  -0.0061903   0.0044196   0.0170827  -0.0156868
   37  -0.0014014   0.0032668  -0.0003286  -0.0021016  -0.0081767   0.0002350
   38   0.0019803  -0.0023008   0.0027134  -0.0005366  -0.0036679   0.0011019
   39  -0.0018416   0.0003368  -0.0009842  -0.0010967  -0.0019322   0.0008740
           19          20          21          22          23          24
    1  -0.2047444  -0.0245932  -0.0962353   0.0047552   0.0151888   0.0078461
    2  -0.0197842  -0.0470050  -0.0093036  -0.0051463  -0.0030369  -0.0020419
    3  -0.1117527  -0.0142040  -0.1175315  -0.0009495  -0.0063201  -0.0033729
    4   0.0020212  -0.0218096  -0.0170783  -0.2399826   0.1110063   0.1218430
    5  -0.0012829  -0.0024511  -0.0022083   0.1085002  -0.1199809  -0.0781232
    6  -0.0009265  -0.0158085  -0.0055218   0.1227728  -0.0822479  -0.1100937
    7  -0.0001422   0.0003858  -0.0011075  -0.0017017  -0.0080794   0.0023785
    8  -0.0002958  -0.0032792  -0.0053042   0.0154236   0.0066556  -0.0011076
    9   0.0009840  -0.0028261  -0.0039055   0.0107370   0.0042966   0.0031676
   10  -0.0003945   0.0008090   0.0007618   0.0006913  -0.0011994   0.0032337
   11   0.0000960   0.0000127   0.0013948  -0.0001903   0.0003000  -0.0002511
   12   0.0004703   0.0004567  -0.0009208   0.0003244   0.0008796  -0.0007152
   13   0.0016837   0.0009979  -0.0001284   0.0004979   0.0011325   0.0003966
   14   0.0007602  -0.0038806   0.0017627  -0.0000737  -0.0006488   0.0006761
   15  -0.0024847   0.0032599  -0.0022235   0.0001560   0.0002065   0.0002131
   16  -0.0053046   0.0265432  -0.0157519  -0.0001738  -0.0005605  -0.0001464
   17   0.0058299  -0.0015061   0.0036460   0.0010707   0.0015895  -0.0010992
   18  -0.0046457   0.0193110  -0.0066732  -0.0020005  -0.0013450  -0.0012678
   19   0.2077043   0.0159563   0.1254460  -0.0000143  -0.0004834  -0.0004965
   20   0.0159563   0.0605115   0.0110857   0.0007555   0.0005502   0.0003154
   21   0.1254460   0.0110857   0.1263623   0.0003509  -0.0001419   0.0009469
   22  -0.0000143   0.0007555   0.0003509   0.2389733  -0.1191934  -0.1359821
   23  -0.0004834   0.0005502  -0.0001419  -0.1191934   0.1119682   0.0896572
   24  -0.0004965   0.0003154   0.0009469  -0.1359821   0.0896572   0.1063422
   25   0.0003781   0.0000020  -0.0008900  -0.0002817   0.0008707  -0.0008263
   26  -0.0012082  -0.0018677   0.0008701  -0.0002658  -0.0002666   0.0010959
   27   0.0001407   0.0024743   0.0004572  -0.0004374   0.0007728  -0.0014443
   28  -0.0001056   0.0000888   0.0000504   0.0000797   0.0000447   0.0004076
   29   0.0004523  -0.0000545  -0.0012025  -0.0000108   0.0000416  -0.0004851
   30   0.0001088  -0.0000390  -0.0005506   0.0001207   0.0000448   0.0005448
   31  -0.0002304   0.0009093  -0.0007014   0.0000486   0.0001575   0.0000065
   32   0.0003811  -0.0010054   0.0001576   0.0000837   0.0000569  -0.0000738
   33  -0.0000426  -0.0011458   0.0007238   0.0000646   0.0002795  -0.0001216
   34   0.0002384   0.0003094   0.0041412  -0.0014745  -0.0011099   0.0034432
   35   0.0001421  -0.0000735  -0.0012409  -0.0019895   0.0028315  -0.0100330
   36  -0.0069377  -0.0029477   0.0087182   0.0039884  -0.0059742   0.0048632
   37  -0.0010896  -0.0003545   0.0011425  -0.0014174   0.0022255  -0.0021039
   38  -0.0005634   0.0000486   0.0004845   0.0010362  -0.0000602   0.0014703
   39   0.0001367   0.0000680   0.0001185   0.0008548  -0.0001079   0.0009378
           25          26          27          28          29          30
    1   0.0003399  -0.0050627   0.0070904  -0.0003193  -0.0007408  -0.0031271
    2  -0.0054081   0.0014615  -0.0072073  -0.0003114  -0.0036766   0.0031395
    3   0.0031556  -0.0063140   0.0032255  -0.0003601   0.0061424   0.0011742
    4  -0.0011832   0.0009429   0.0027686  -0.0005773  -0.0008899  -0.0019127
    5  -0.0193451  -0.0015593   0.0074526   0.0005431  -0.0007718   0.0000350
    6  -0.0065805  -0.0047809   0.0084447   0.0007818  -0.0005540   0.0010812
    7  -0.1169295  -0.0931061  -0.0155506  -0.0012380  -0.0004391  -0.0030372
    8  -0.0882026  -0.2087057  -0.0411960  -0.0000422  -0.0013507  -0.0012433
    9  -0.0102984  -0.0418665  -0.0612100  -0.0004583  -0.0004215  -0.0010961
   10   0.0007902  -0.0006982  -0.0017838  -0.3517405   0.0304492   0.0239285
   11  -0.0014612   0.0014075   0.0006516   0.0293426  -0.0472718   0.0150660
   12   0.0004715  -0.0002000  -0.0014762   0.0291691   0.0107745  -0.0338013
   13   0.0002702   0.0000600  -0.0004774  -0.0087589  -0.0189373   0.0119416
   14   0.0001383  -0.0001068   0.0000117   0.0055043   0.0080653  -0.0044268
   15  -0.0005031   0.0001422  -0.0001330  -0.0024606  -0.0014839   0.0043290
   16  -0.0012012   0.0005867  -0.0014222  -0.0011467  -0.0044236   0.0051408
   17  -0.0005260   0.0001337  -0.0015103   0.0005238   0.0004165   0.0034688
   18  -0.0003017   0.0008468   0.0021992   0.0013902   0.0036866   0.0021653
   19   0.0003781  -0.0012082   0.0001407  -0.0001056   0.0004523   0.0001088
   20   0.0000020  -0.0018677   0.0024743   0.0000888  -0.0000545  -0.0000390
   21  -0.0008900   0.0008701   0.0004572   0.0000504  -0.0012025  -0.0005506
   22  -0.0002817  -0.0002658  -0.0004374   0.0000797  -0.0000108   0.0001207
   23   0.0008707  -0.0002666   0.0007728   0.0000447   0.0000416   0.0000448
   24  -0.0008263   0.0010959  -0.0014443   0.0004076  -0.0004851   0.0005448
   25   0.1128142   0.1078271   0.0162203   0.0000007  -0.0000136   0.0000130
   26   0.1078271   0.2166149   0.0495317   0.0002016  -0.0003146  -0.0000575
   27   0.0162203   0.0495317   0.0489453   0.0000251  -0.0002566  -0.0003850
   28   0.0000007   0.0002016   0.0000251   0.3695766  -0.0332476  -0.0306237
   29  -0.0000136  -0.0003146  -0.0002566  -0.0332476   0.0423495  -0.0137560
   30   0.0000130  -0.0000575  -0.0003850  -0.0306237  -0.0137560   0.0215528
   31   0.0000648  -0.0000268  -0.0000090   0.0001059   0.0006742  -0.0007283
   32   0.0000256  -0.0001276   0.0000051  -0.0006105  -0.0002621  -0.0008611
   33  -0.0000174   0.0000679   0.0000648   0.0002240  -0.0006284  -0.0011674
   34   0.0043227  -0.0092979  -0.0075213  -0.0062869   0.0273601  -0.0035862
   35   0.0066274  -0.0069067  -0.0118429  -0.0024595   0.0027003  -0.0010050
   36  -0.0004341   0.0011664   0.0007573   0.0020119  -0.0023431   0.0056027
   37   0.0006147   0.0000474   0.0009567   0.0004105  -0.0002332   0.0017616
   38  -0.0005345   0.0002374   0.0011134   0.0004223   0.0001289  -0.0003653
   39  -0.0000089  -0.0005020   0.0005544  -0.0001575   0.0005277   0.0005505
           31          32          33          34          35          36
    1  -0.0033411   0.0021653   0.0033643   0.0318113   0.0265314  -0.0338907
    2   0.0009780   0.0052606   0.0045405   0.0346390  -0.0264844  -0.0047359
    3   0.0014544   0.0049441   0.0080832  -0.0365925   0.0056615  -0.0419896
    4  -0.0000396  -0.0002165  -0.0004590  -0.0357020   0.0111763   0.0341467
    5   0.0006668   0.0013124   0.0022003   0.0225454  -0.0090256  -0.0200778
    6  -0.0006351  -0.0006983  -0.0005253   0.0399965  -0.0174019  -0.0234202
    7  -0.0002232  -0.0007037  -0.0011814  -0.0347853   0.0336203   0.0385719
    8   0.0004917   0.0011075   0.0012907   0.0384657  -0.1567251  -0.0945089
    9   0.0007353   0.0001733   0.0001033   0.0295704  -0.0837555  -0.1381065
   10   0.0107715   0.0075018  -0.0078572  -0.1130833   0.0816994  -0.0350711
   11  -0.0149762  -0.0089899   0.0065607   0.0626287  -0.1895582   0.0607610
   12   0.0074730   0.0053237  -0.0006507  -0.0143789   0.0584162  -0.0792993
   13  -0.0815221   0.0746697  -0.0408909   0.0215441  -0.0034447   0.0052328
   14   0.0711004  -0.2471374   0.1289340   0.0075171  -0.0277427   0.0224491
   15  -0.0399908   0.1265983  -0.1167581  -0.0103004   0.0178438  -0.0061903
   16  -0.0158017   0.0061693  -0.0016136  -0.0165926  -0.0036901   0.0044196
   17   0.0298405  -0.0044410  -0.0063567  -0.0302392  -0.0181136   0.0170827
   18  -0.0169976  -0.0020726  -0.0016407   0.0166406   0.0181741  -0.0156868
   19  -0.0002304   0.0003811  -0.0000426   0.0002384   0.0001421  -0.0069377
   20   0.0009093  -0.0010054  -0.0011458   0.0003094  -0.0000735  -0.0029477
   21  -0.0007014   0.0001576   0.0007238   0.0041412  -0.0012409   0.0087182
   22   0.0000486   0.0000837   0.0000646  -0.0014745  -0.0019895   0.0039884
   23   0.0001575   0.0000569   0.0002795  -0.0011099   0.0028315  -0.0059742
   24   0.0000065  -0.0000738  -0.0001216   0.0034432  -0.0100330   0.0048632
   25   0.0000648   0.0000256  -0.0000174   0.0043227   0.0066274  -0.0004341
   26  -0.0000268  -0.0001276   0.0000679  -0.0092979  -0.0069067   0.0011664
   27  -0.0000090   0.0000051   0.0000648  -0.0075213  -0.0118429   0.0007573
   28   0.0001059  -0.0006105   0.0002240  -0.0062869  -0.0024595   0.0020119
   29   0.0006742  -0.0002621  -0.0006284   0.0273601   0.0027003  -0.0023431
   30  -0.0007283  -0.0008611  -0.0011674  -0.0035862  -0.0010050   0.0056027
   31   0.0922013  -0.0876416   0.0471504  -0.0028439  -0.0014712   0.0019459
   32  -0.0876416   0.2542939  -0.1377418  -0.0026389   0.0007559   0.0040389
   33   0.0471504  -0.1377418   0.1087077   0.0008399   0.0019551   0.0031812
   34  -0.0028439  -0.0026389   0.0008399   0.2124385  -0.1406708  -0.0480543
   35  -0.0014712   0.0007559   0.0019551  -0.1406708   0.4976815  -0.0393510
   36   0.0019459   0.0040389   0.0031812  -0.0480543  -0.0393510   0.4966868
   37   0.0008097   0.0008146   0.0004189  -0.0595864  -0.0060710   0.0340709
   38  -0.0007026  -0.0008237   0.0000439  -0.0095086  -0.0693393   0.0644406
   39   0.0002967   0.0002064  -0.0000002   0.0258019   0.0625794  -0.2151167
           37          38          39
    1   0.0077765   0.0034205   0.0017828
    2   0.0040579   0.0001663  -0.0000407
    3   0.0096511   0.0013274   0.0012724
    4   0.0004369  -0.0001758  -0.0000040
    5  -0.0012412  -0.0025812  -0.0036725
    6  -0.0019891  -0.0035980  -0.0026402
    7   0.0035932   0.0078979   0.0086847
    8   0.0010470   0.0086985   0.0053843
    9   0.0074737  -0.0221970  -0.0209973
   10   0.0090700  -0.0051821   0.0019612
   11   0.0021712  -0.0091936   0.0039361
   12  -0.0148788   0.0202486  -0.0050073
   13  -0.0014014   0.0019803  -0.0018416
   14   0.0032668  -0.0023008   0.0003368
   15  -0.0003286   0.0027134  -0.0009842
   16  -0.0021016  -0.0005366  -0.0010967
   17  -0.0081767  -0.0036679  -0.0019322
   18   0.0002350   0.0011019   0.0008740
   19  -0.0010896  -0.0005634   0.0001367
   20  -0.0003545   0.0000486   0.0000680
   21   0.0011425   0.0004845   0.0001185
   22  -0.0014174   0.0010362   0.0008548
   23   0.0022255  -0.0000602  -0.0001079
   24  -0.0021039   0.0014703   0.0009378
   25   0.0006147  -0.0005345  -0.0000089
   26   0.0000474   0.0002374  -0.0005020
   27   0.0009567   0.0011134   0.0005544
   28   0.0004105   0.0004223  -0.0001575
   29  -0.0002332   0.0001289   0.0005277
   30   0.0017616  -0.0003653   0.0005505
   31   0.0008097  -0.0007026   0.0002967
   32   0.0008146  -0.0008237   0.0002064
   33   0.0004189   0.0000439  -0.0000002
   34  -0.0595864  -0.0095086   0.0258019
   35  -0.0060710  -0.0693393   0.0625794
   36   0.0340709   0.0644406  -0.2151167
   37   0.0428850   0.0024463  -0.0364100
   38   0.0024463   0.0786871  -0.0667837
   39  -0.0364100  -0.0667837   0.2404383
 Gradient time:  CPU 254.30 s  wall 298.59 s
 **********************************************************************
 **                                                                  **
 **                       VIBRATIONAL ANALYSIS                       **
 **                       --------------------                       **
 **                                                                  **
 **        VIBRATIONAL FREQUENCIES (CM**-1) AND NORMAL MODES         **
 **     FORCE CONSTANTS (mDYN/ANGSTROM) AND REDUCED MASSES (AMU)     **
 **                  INFRARED INTENSITIES (KM/MOL)                   **
 **                                                                  **
 **********************************************************************
 

 Mode:                 1                      2                      3
 Frequency:      -197.84                 224.58                 303.84
 Force Cnst:      0.0723                 0.0846                 0.1924
 Red. Mass:       3.1344                 2.8457                 3.5380
 IR Active:          YES                    YES                    YES
 IR Intens:       20.013                 10.406                  0.203
 Raman Active:       YES                    YES                    YES
               X      Y      Z        X      Y      Z        X      Y      Z
 C         -0.202 -0.073  0.067   -0.114 -0.040  0.016   -0.009 -0.017  0.181
 C         -0.056 -0.047 -0.033    0.138 -0.106  0.114    0.011  0.110  0.017
 C         -0.061 -0.045 -0.002    0.039 -0.017 -0.113   -0.075  0.203 -0.176
 C          0.018 -0.024 -0.078   -0.015  0.112  0.122    0.024 -0.001  0.126
 C         -0.028  0.030  0.004   -0.033  0.082  0.069   -0.018 -0.176 -0.148
 N          0.005  0.068  0.066   -0.069 -0.069 -0.130   -0.008 -0.127 -0.038
 H         -0.208 -0.136  0.087   -0.207  0.099  0.136   -0.013  0.040  0.176
 H          0.011 -0.046  0.071    0.313 -0.232  0.504   -0.005  0.208 -0.097
 H         -0.126 -0.018  0.090    0.041 -0.018 -0.107   -0.199  0.336 -0.399
 H         -0.047 -0.437 -0.443    0.025  0.231  0.446    0.023 -0.041  0.148
 H         -0.022  0.039  0.015    0.002  0.159  0.172   -0.049 -0.361 -0.436
 C          0.313  0.112 -0.025    0.039  0.034 -0.142    0.087  0.024  0.091
 H          0.516  0.215  0.056    0.127 -0.039 -0.148    0.119 -0.116  0.039
 TransDip  -0.051 -0.129  0.038    0.022 -0.004  0.101   -0.007 -0.012 -0.004

 Mode:                 4                      5                      6
 Frequency:       386.57                 518.37                 637.52
 Force Cnst:      0.1919                 0.3592                 0.8405
 Red. Mass:       2.1790                 2.2688                 3.5098
 IR Active:          YES                    YES                    YES
 IR Intens:        3.243                  6.526                  6.565
 Raman Active:       YES                    YES                    YES
               X      Y      Z        X      Y      Z        X      Y      Z
 C          0.171  0.038 -0.093    0.002  0.008 -0.042   -0.091  0.107  0.005
 C          0.010 -0.106  0.114   -0.024 -0.051 -0.023   -0.082  0.056  0.086
 C         -0.105  0.093 -0.084   -0.026 -0.052 -0.013   -0.075 -0.150 -0.076
 C         -0.036 -0.060 -0.013    0.013  0.011  0.036    0.157  0.040  0.191
 C         -0.044 -0.018  0.044   -0.034 -0.085 -0.167    0.065  0.012 -0.045
 N         -0.020  0.061  0.026    0.030  0.159  0.168    0.084  0.154 -0.109
 H          0.292  0.111 -0.276   -0.006 -0.108 -0.017   -0.119  0.059  0.041
 H          0.052 -0.404  0.453    0.051 -0.212  0.242    0.071  0.086  0.284
 H         -0.218  0.196 -0.215    0.002 -0.092  0.084    0.101 -0.261 -0.047
 H         -0.081 -0.253 -0.326    0.104  0.371  0.723    0.059 -0.260 -0.601
 H         -0.081 -0.013  0.079   -0.070 -0.135 -0.227   -0.155 -0.174 -0.207
 C          0.017  0.015  0.022    0.017 -0.003 -0.053   -0.072 -0.178  0.008
 H          0.161 -0.027  0.026    0.125  0.015 -0.030    0.052 -0.233  0.012
 TransDip  -0.027 -0.047 -0.020   -0.048 -0.057  0.032   -0.011 -0.073 -0.037

 Mode:                 7                      8                      9
 Frequency:       663.24                 737.09                 827.99
 Force Cnst:      0.6233                 0.6074                 1.2085
 Red. Mass:       2.4049                 1.8976                 2.9919
 IR Active:          YES                    YES                    YES
 IR Intens:       13.051                 41.751                  0.665
 Raman Active:       YES                    YES                    YES
               X      Y      Z        X      Y      Z        X      Y      Z
 C         -0.029  0.055  0.037   -0.049  0.024 -0.006   -0.149 -0.042 -0.092
 C         -0.045  0.001  0.146   -0.072  0.152 -0.095    0.128 -0.157 -0.076
 C         -0.090 -0.012 -0.026   -0.013  0.056  0.005    0.056  0.202  0.024
 C          0.097 -0.164 -0.156   -0.024 -0.099 -0.060    0.039 -0.063  0.021
 C          0.013  0.037  0.040    0.062 -0.064  0.070    0.014 -0.046 -0.009
 N          0.025  0.064 -0.100    0.059 -0.041 -0.052    0.062  0.125 -0.033
 H         -0.066  0.155  0.072   -0.037 -0.100 -0.004   -0.509 -0.042  0.408
 H         -0.167  0.222 -0.253    0.260 -0.241  0.795   -0.026 -0.319 -0.151
 H         -0.205  0.115 -0.227    0.134 -0.089  0.247   -0.058  0.239  0.108
 H          0.197  0.206  0.614    0.015  0.114  0.148    0.028 -0.031 -0.144
 H         -0.079  0.164  0.316    0.037 -0.033  0.144   -0.151 -0.012  0.161
 C          0.055 -0.066  0.028   -0.012  0.010  0.031   -0.075 -0.011  0.136
 H         -0.037  0.016  0.041    0.063 -0.031  0.028   -0.305 -0.182  0.038
 TransDip  -0.077  0.039  0.077    0.051 -0.061  0.191    0.001 -0.021  0.016

 Mode:                10                     11                     12
 Frequency:       848.33                 887.21                 918.20
 Force Cnst:      1.4653                 0.8081                 0.7815
 Red. Mass:       3.4557                 1.7425                 1.5732
 IR Active:          YES                    YES                    YES
 IR Intens:        6.240                 11.670                  4.749
 Raman Active:       YES                    YES                    YES
               X      Y      Z        X      Y      Z        X      Y      Z
 C         -0.006 -0.027  0.063   -0.083 -0.055 -0.117    0.039  0.026  0.034
 C         -0.009 -0.011 -0.096    0.034  0.051  0.055   -0.032  0.022  0.014
 C          0.010  0.013 -0.015    0.022 -0.018 -0.016   -0.023  0.025  0.006
 C          0.250  0.019 -0.073   -0.036  0.025  0.009    0.065  0.023  0.052
 C         -0.076  0.205 -0.125    0.037 -0.025 -0.110   -0.049 -0.131 -0.079
 N         -0.171 -0.078  0.076   -0.004 -0.023  0.053    0.003 -0.010  0.005
 H          0.156  0.050 -0.189    0.016 -0.032 -0.255    0.007  0.038  0.076
 H          0.158 -0.275  0.417    0.212  0.323  0.073   -0.098 -0.026 -0.039
 H          0.006  0.010  0.006    0.004  0.068 -0.336    0.043 -0.075  0.274
 H          0.243 -0.163  0.039   -0.039  0.134 -0.103    0.036 -0.189 -0.098
 H          0.003  0.266 -0.083    0.236  0.384  0.434    0.010  0.373  0.735
 C          0.025 -0.080  0.143   -0.034 -0.034  0.114    0.022  0.042 -0.098
 H         -0.483 -0.225 -0.002    0.338  0.103  0.222   -0.291 -0.057 -0.185
 TransDip   0.068  0.040 -0.015    0.041  0.090 -0.047   -0.013 -0.013  0.067

 Mode:                13                     14                     15
 Frequency:       967.99                 989.68                1013.23
 Force Cnst:      1.3096                 0.9955                 1.1283
 Red. Mass:       2.3722                 1.7250                 1.8654
 IR Active:          YES                    YES                    YES
 IR Intens:        8.775                  3.067                 18.567
 Raman Active:       YES                    YES                    YES
               X      Y      Z        X      Y      Z        X      Y      Z
 C          0.084  0.010  0.188    0.006  0.040 -0.010    0.026 -0.045  0.089
 C         -0.022 -0.023 -0.137   -0.000 -0.022  0.042    0.027 -0.052 -0.004
 C          0.046 -0.086  0.042   -0.043  0.057 -0.081   -0.028 -0.006 -0.140
 C         -0.131  0.020  0.019   -0.120 -0.068  0.042   -0.015  0.085 -0.078
 C          0.002  0.041 -0.083    0.086  0.104 -0.079   -0.076 -0.039  0.035
 N          0.028  0.073 -0.094   -0.001 -0.017  0.008    0.018  0.044 -0.041
 H          0.022  0.135  0.254   -0.040  0.062  0.050    0.203 -0.106 -0.146
 H         -0.178 -0.499  0.066   -0.152 -0.057 -0.158    0.011  0.046 -0.125
 H         -0.136  0.141 -0.454    0.290 -0.287  0.505    0.409 -0.396  0.348
 H         -0.139  0.013  0.026   -0.136 -0.320  0.220    0.014  0.490 -0.179
 H          0.103  0.302  0.269    0.405  0.225 -0.111   -0.252 -0.038  0.162
 C         -0.005 -0.057  0.056    0.035 -0.039  0.035    0.007  0.007  0.129
 H          0.233  0.025  0.130    0.073 -0.227 -0.022    0.075 -0.003  0.128
 TransDip  -0.033 -0.006  0.089    0.047  0.023  0.020    0.041 -0.090  0.096

 Mode:                16                     17                     18
 Frequency:      1023.50                1084.61                1105.41
 Force Cnst:      0.9115                 1.5601                 1.1802
 Red. Mass:       1.4768                 2.2509                 1.6392
 IR Active:          YES                    YES                    YES
 IR Intens:       20.803                  6.662                  0.793
 Raman Active:       YES                    YES                    YES
               X      Y      Z        X      Y      Z        X      Y      Z
 C          0.002  0.103 -0.036   -0.064  0.217 -0.002    0.092 -0.011 -0.106
 C         -0.015  0.005  0.003    0.015 -0.108 -0.077   -0.037  0.032  0.019
 C          0.000  0.030 -0.008   -0.029 -0.091 -0.020   -0.025 -0.091 -0.056
 C          0.079  0.013 -0.028   -0.061  0.023 -0.004   -0.015  0.020 -0.005
 C          0.009 -0.025  0.016    0.070 -0.077  0.032   -0.035 -0.005  0.013
 N         -0.062 -0.085  0.061   -0.007 -0.045  0.037    0.003 -0.015  0.008
 H         -0.255  0.271  0.298    0.024  0.457 -0.159   -0.398 -0.034  0.573
 H         -0.316 -0.362 -0.117    0.229  0.141  0.002    0.005  0.017  0.098
 H          0.166 -0.076  0.011   -0.308  0.069 -0.003    0.282 -0.214 -0.363
 H          0.097  0.306 -0.191   -0.038  0.366 -0.147   -0.023 -0.116  0.062
 H          0.037 -0.016  0.021    0.257 -0.027 -0.002    0.055 -0.001 -0.041
 C         -0.024 -0.050 -0.029    0.098  0.027  0.064    0.054  0.092  0.096
 H          0.524  0.147  0.129   -0.405 -0.279 -0.124   -0.385  0.125  0.037
 TransDip   0.083  0.120  0.012    0.010  0.037 -0.073    0.019  0.018  0.011

 Mode:                19                     20                     21
 Frequency:      1115.84                1153.39                1285.51
 Force Cnst:      0.9507                 1.3155                 2.7044
 Red. Mass:       1.2960                 1.6784                 2.7776
 IR Active:          YES                    YES                    YES
 IR Intens:       10.113                  4.599                  1.671
 Raman Active:       YES                    YES                    YES
               X      Y      Z        X      Y      Z        X      Y      Z
 C          0.107 -0.019 -0.004   -0.014  0.074  0.054   -0.036  0.153 -0.033
 C          0.020 -0.019 -0.044    0.044 -0.085 -0.081   -0.027 -0.055 -0.001
 C         -0.069  0.003  0.023   -0.036 -0.032 -0.062    0.019  0.027  0.035
 C         -0.003  0.004 -0.009    0.059 -0.041  0.016   -0.014  0.157 -0.094
 C         -0.031  0.036 -0.018    0.019 -0.012  0.008   -0.171  0.013  0.016
 N         -0.020  0.000 -0.007    0.015 -0.018  0.006    0.194 -0.111  0.024
 H         -0.206 -0.025  0.437    0.058  0.167 -0.050   -0.009 -0.272  0.002
 H          0.405  0.443  0.098    0.241  0.153 -0.024    0.046  0.061  0.001
 H         -0.355  0.087  0.364    0.027 -0.111  0.047    0.078  0.036 -0.149
 H         -0.001  0.122 -0.088    0.038 -0.469  0.230   -0.050 -0.523  0.337
 H         -0.034  0.062  0.019   -0.013 -0.009  0.046   -0.209  0.010  0.052
 C         -0.007 -0.055 -0.012   -0.129  0.084  0.014   -0.010 -0.069  0.033
 H          0.259 -0.086  0.025    0.115  0.672  0.258    0.303 -0.457 -0.048
 TransDip   0.077  0.034  0.057    0.062  0.009  0.028   -0.029  0.030  0.001

 Mode:                22                     23                     24
 Frequency:      1318.49                1337.35                1354.01
 Force Cnst:      1.2414                 1.8368                 1.7707
 Red. Mass:       1.2120                 1.7431                 1.6393
 IR Active:          YES                    YES                    YES
 IR Intens:        3.930                 18.931                 11.579
 Raman Active:       YES                    YES                    YES
               X      Y      Z        X      Y      Z        X      Y      Z
 C          0.004 -0.100 -0.009    0.017  0.060  0.040    0.005 -0.062  0.021
 C         -0.020  0.011 -0.015   -0.089 -0.126 -0.025   -0.042 -0.045 -0.021
 C         -0.020  0.003  0.024    0.000  0.070  0.070   -0.022  0.075  0.060
 C         -0.016  0.020 -0.016    0.009 -0.090  0.038    0.042  0.064 -0.042
 C          0.048  0.019 -0.018    0.066  0.038 -0.038   -0.064 -0.093  0.071
 N          0.030 -0.007  0.027   -0.050 -0.007 -0.004   -0.025  0.078 -0.035
 H         -0.057  0.798 -0.053    0.056 -0.322  0.044    0.003  0.325 -0.031
 H          0.037  0.069  0.023    0.212  0.308  0.034    0.141  0.174  0.061
 H          0.132 -0.074 -0.036    0.533 -0.127 -0.419    0.323 -0.070 -0.164
 H         -0.024 -0.123  0.083    0.027  0.186 -0.112    0.041 -0.114  0.066
 H         -0.434 -0.110  0.092   -0.209  0.005  0.086    0.761  0.068 -0.207
 C         -0.011  0.029  0.000   -0.009  0.073 -0.040    0.001 -0.061 -0.025
 H          0.091 -0.247 -0.080    0.160 -0.254 -0.134    0.043 -0.023 -0.009
 TransDip  -0.059 -0.024 -0.003    0.114  0.064 -0.049    0.081 -0.064  0.035

 Mode:                25                     26                     27
 Frequency:      1390.63                1456.98                1603.74
 Force Cnst:      2.2551                 4.2551                 7.2743
 Red. Mass:       1.9792                 3.4021                 4.8004
 IR Active:          YES                    YES                    YES
 IR Intens:        5.290                  1.771                  5.701
 Raman Active:       YES                    YES                    YES
               X      Y      Z        X      Y      Z        X      Y      Z
 C         -0.009  0.011 -0.012    0.017  0.035 -0.007    0.024 -0.016 -0.001
 C         -0.020 -0.026 -0.011    0.007 -0.012  0.003   -0.362 -0.131  0.079
 C         -0.036  0.097  0.041   -0.024  0.042  0.022    0.394  0.036 -0.179
 C         -0.067 -0.013  0.053   -0.052  0.210 -0.104   -0.010  0.018 -0.003
 C         -0.052  0.063 -0.033    0.257 -0.103  0.026    0.011 -0.005  0.003
 N          0.093 -0.046  0.019   -0.196  0.050 -0.009   -0.007  0.012  0.003
 H          0.006  0.165 -0.051   -0.024 -0.338  0.083   -0.086  0.204  0.100
 H          0.099  0.078  0.080    0.047  0.017  0.030   -0.072  0.328  0.235
 H          0.232 -0.020 -0.074    0.051  0.009 -0.018   -0.263  0.396  0.375
 H         -0.072  0.222 -0.118   -0.088 -0.464  0.295   -0.017 -0.029  0.010
 H         -0.226  0.024 -0.003   -0.407 -0.269  0.238   -0.019 -0.020  0.000
 C          0.108 -0.176 -0.060    0.069 -0.157  0.010   -0.009 -0.009  0.029
 H         -0.421  0.692  0.162   -0.123  0.176  0.108   -0.015  0.224  0.096
 TransDip   0.005  0.065 -0.035    0.014 -0.006  0.040    0.023 -0.072 -0.010

 Mode:                28                     29                     30
 Frequency:      2758.10                2892.87                2912.81
 Force Cnst:      4.8542                 5.4027                 5.4203
 Red. Mass:       1.0830                 1.0957                 1.0843
 IR Active:          YES                    YES                    YES
 IR Intens:       25.919                 42.909                 24.875
 Raman Active:       YES                    YES                    YES
               X      Y      Z        X      Y      Z        X      Y      Z
 C          0.001 -0.000  0.001   -0.003  0.000 -0.003   -0.067 -0.007 -0.049
 C         -0.001 -0.000 -0.000    0.006  0.003 -0.002   -0.001 -0.000 -0.000
 C         -0.001 -0.001 -0.002   -0.049 -0.073 -0.015    0.003  0.004  0.000
 C          0.001 -0.001 -0.000    0.000  0.000  0.000    0.000  0.000  0.000
 C         -0.001 -0.000 -0.000    0.000  0.000  0.000    0.001 -0.000 -0.001
 N         -0.000 -0.000  0.001   -0.000 -0.000  0.000   -0.001  0.001 -0.000
 H          0.003  0.001 -0.004    0.040  0.001  0.034    0.805  0.083  0.579
 H         -0.001  0.002  0.001    0.024 -0.019 -0.020   -0.011  0.003  0.006
 H          0.022  0.030  0.007    0.508  0.830  0.200   -0.027 -0.042 -0.010
 H          0.012  0.003 -0.002   -0.003 -0.001  0.001    0.002 -0.002 -0.000
 H          0.001 -0.001 -0.000   -0.001  0.001 -0.001    0.000 -0.005  0.002
 C          0.011  0.028 -0.077   -0.003  0.001  0.005    0.001 -0.001  0.001
 H         -0.154 -0.328  0.928    0.006  0.008 -0.034   -0.005 -0.002  0.002
 TransDip   0.038  0.044 -0.152   -0.086 -0.184 -0.055   -0.129 -0.010 -0.094

 Mode:                31                     32                     33
 Frequency:      3248.24                3267.17                3376.68
 Force Cnst:      6.7691                 6.8732                 7.3621
 Red. Mass:       1.0889                 1.0929                 1.0959
 IR Active:          YES                    YES                    YES
 IR Intens:       11.666                 26.580                 21.126
 Raman Active:       YES                    YES                    YES
               X      Y      Z        X      Y      Z        X      Y      Z
 C         -0.000  0.001 -0.001    0.001 -0.001 -0.000   -0.001 -0.002 -0.001
 C          0.000 -0.000  0.000   -0.000  0.000  0.000   -0.069  0.037  0.042
 C          0.000 -0.000 -0.000   -0.000 -0.000 -0.000    0.008  0.004 -0.001
 C         -0.038  0.006  0.002   -0.077  0.007  0.007    0.000 -0.000 -0.000
 C          0.025 -0.063  0.037   -0.013  0.034 -0.021    0.000 -0.000 -0.000
 N         -0.000  0.000  0.000    0.002 -0.000 -0.000    0.000 -0.000 -0.000
 H          0.002 -0.000  0.001   -0.003  0.000 -0.001    0.006  0.003  0.006
 H         -0.001  0.000  0.001    0.002 -0.001 -0.001    0.743 -0.456 -0.480
 H         -0.000  0.000  0.000    0.001  0.003  0.001   -0.014 -0.019 -0.002
 H          0.453 -0.048 -0.035    0.880 -0.083 -0.073   -0.002  0.001 -0.000
 H         -0.295  0.717 -0.428    0.147 -0.368  0.221   -0.001  0.002 -0.001
 C         -0.000 -0.001  0.001    0.001 -0.003  0.001    0.001  0.000 -0.000
 H         -0.000  0.002 -0.003   -0.001  0.005 -0.007   -0.004 -0.000  0.002
 TransDip  -0.011 -0.091  0.059   -0.131  0.099 -0.013   -0.084  0.092  0.078

 STANDARD THERMODYNAMIC QUANTITIES AT   298.15 K  AND     1.00 ATM

   This Molecule has  1 Imaginary Frequencies
   Zero point vibrational energy:       62.342 kcal/mol

   Atom    1 Element C  Has Mass   12.00000
   Atom    2 Element C  Has Mass   12.00000
   Atom    3 Element C  Has Mass   12.00000
   Atom    4 Element C  Has Mass   12.00000
   Atom    5 Element C  Has Mass   12.00000
   Atom    6 Element N  Has Mass   14.00307
   Atom    7 Element H  Has Mass    1.00783
   Atom    8 Element H  Has Mass    1.00783
   Atom    9 Element H  Has Mass    1.00783
   Atom   10 Element H  Has Mass    1.00783
   Atom   11 Element H  Has Mass    1.00783
   Atom   12 Element C  Has Mass   12.00000
   Atom   13 Element H  Has Mass    1.00783
   Molecular Mass:    92.050050 amu
   Principal axes and moments of inertia in amu*Bohr^2:
                             1           2           3
    Eigenvalues --      352.40397   536.16908   760.00195
          X              -0.27585     0.91599     0.29132
          Y               0.96108     0.25814     0.09838
          Z              -0.01491    -0.30713     0.95155
   Rotational Symmetry Number is   1
   The Molecule is an Asymmetric Top
   Translational Enthalpy:        0.889 kcal/mol
   Rotational Enthalpy:           0.889 kcal/mol
   Vibrational Enthalpy:         63.838 kcal/mol
   gas constant (RT):             0.592 kcal/mol
   Translational Entropy:        39.471  cal/mol.K
   Rotational Entropy:           26.465  cal/mol.K
   Vibrational Entropy:           7.339  cal/mol.K

   Total Enthalpy:               66.208 kcal/mol
   Total Entropy:                73.275  cal/mol.K
Archival summary:
1\1\c8-89\FREQ\ProcedureUnspecified\6-31G*\166(2)\hpark21\WedMar203:28:512022WedMar203:28:512022\0\\#,FREQ,ProcedureUnspecified,6-31G*,\\0,2\N\C,1,1.31869\H,2,1.0822,1,119.521\C,1,1.42029,2,113.328,3,-176.405,0\H,4,1.11559,1,111.871,2,-137.588,0\C,2,1.43557,1,115.208,3,178.636,0\H,6,1.0802,2,123.132,1,-178.49,0\C,6,1.45461,2,112.823,1,-6.00098,0\H,8,1.13221,6,118.753,2,137.984,0\C,8,1.48323,6,119.926,2,-77.1249,0\H,10,1.1208,8,129.154,6,-93.7116,0\C,10,1.35434,8,100.984,6,95.23,0\H,12,1.0689,10,134.396,8,165.55,0\\\@

 Total job time:  329.44s(wall), 257.90s(cpu) 
 Wed Mar  2 03:28:51 2022

        *************************************************************
        *                                                           *
        *  Thank you very much for using Q-Chem.  Have a nice day.  *
        *                                                           *
        *************************************************************


