
Running Job 1 of 1 qcts1.in
qchem qcts1.in_91034.0 ./qcts1.d/ 1
/home/leeping/opt/qchem/5.0.2-openmp/exe/qcprog.exe_s qcts1.in_91034.0 ./qcts1.d/
Check license passed

                  Welcome to Q-Chem
     A Quantum Leap Into The Future Of Chemistry


 Q-Chem 5.0, Q-Chem, Inc., Pleasanton, CA (2017)

 Yihan Shao,  Zhengting Gan,  E. Epifanovsky,  A. T. B. Gilbert,  M. Wormit,  
 J. Kussmann,  A. W. Lange,  A. Behn,  Jia Deng,  Xintian Feng,  D. Ghosh,  
 M. Goldey,  P. R. Horn,  L. D. Jacobson,  I. Kaliman,  T. Kus,  A. Landau,  
 Jie Liu,  E. I. Proynov,  R. M. Richard,  R. P. Steele,  E. J. Sundstrom,  
 H. L. Woodcock III,  P. M. Zimmerman,  D. Zuev,  B. Albrecht,  E. Alguire,  
 S. A. Baeppler,  D. Barton,  Z. Benda,  Y. A. Bernard,  E. J. Berquist,  
 K. B. Bravaya,  H. Burton,  D. Casanova,  Chun-Min Chang,  Yunqing Chen,  
 A. Chien,  K. D. Closser,  M. P. Coons,  S. Dasgupta,  A. L. Dempwolff,  
 M. Diedenhofen,  Hainam Do,  R. G. Edgar,  Po-Tung Fang,  S. Fatehi,  
 Qingguo Feng,  J. Fosso-Tande,  Qinghui Ge,  A. Ghysels,  G. Gidofalvi,  
 J. Gomes,  J. Gonthier,  A. Gunina,  M. W. D. Hanson-Heine,  
 P. H. P. Harbach,  A. W. Hauser,  J. E. Herr,  E. G. Hohenstein,  
 Z. C. Holden,  Kerwin Hui,  T.-C. Jagau,  Hyunjun Ji,  B. Kaduk,  
 K. Khistyaev,  Jaehoon Kim,  P. Klunzinger,  K. Koh,  D. Kosenkov,  
 L. Koulias,  T. Kowalczyk,  C. M. Krauter,  A. Kunitsa,  Ka Un Lao,  
 A. Laurent,  K. V. Lawler,  Joonho Lee,  D. Lefrancois,  S. Lehtola,  
 D. S. Levine,  Yi-Pei Li,  You-Sheng Lin,  Fenglai Liu,  E. Livshits,  
 A. Luenser,  P. Manohar,  E. Mansoor,  S. F. Manzer,  Shan-Ping Mao,  
 Yuezhi Mao,  N. Mardirossian,  A. V. Marenich,  T. Markovich,  
 L. A. Martinez-Martinez,  S. A. Maurer,  N. J. Mayhall,  S. C. McKenzie,  
 J.-M. Mewes,  A. F. Morrison,  J. W. Mullinax,  K. Nanda,  
 T. S. Nguyen-Beck,  R. Olivares-Amaya,  J. A. Parkhill,  T. M. Perrine,  
 F. Plasser,  S. Prager,  A. Prociuk,  E. Ramos,  D. R. Rehn,  F. Rob,  
 M. Schneider,  N. Sergueev,  S. M. Sharada,  S. Sharma,  D. W. Small,  
 T. Stauch,  T. Stein,  Yu-Chuan Su,  A. J. W. Thom,  A. Tkatchenko,  
 T. Tsuchimochi,  L. Vogt,  O. Vydrov,  M. A. Watson,  J. Wenzel,  
 M. de Wergifosse,  T. A. Wesolowski,  A. White,  J. Witte,  A. Yamada,  
 Jun Yang,  K. Yao,  S. Yeganeh,  S. R. Yost,  Zhi-Qiang You,  A. Zech,  
 Igor Ying Zhang,  Xing Zhang,  Yan Zhao,  Ying Zhu,  B. R. Brooks,  
 G. K. L. Chan,  C. J. Cramer,  M. S. Gordon,  W. J. Hehre,  A. Klamt,  
 M. W. Schmidt,  C. D. Sherrill,  D. G. Truhlar,  A. Aspuru-Guzik,  R. Baer,  
 A. T. Bell,  N. A. Besley,  Jeng-Da Chai,  R. A. DiStasio Jr.,  A. Dreuw,  
 B. D. Dunietz,  T. R. Furlani,  Chao-Ping Hsu,  Yousung Jung,  Jing Kong,  
 D. S. Lambrecht,  WanZhen Liang,  C. Ochsenfeld,  V. A. Rassolov,  
 L. V. Slipchenko,  J. E. Subotnik,  T. Van Voorhis,  J. M. Herbert,  
 A. I. Krylov,  P. M. W. Gill,  M. Head-Gordon

 Contributors to earlier versions of Q-Chem not listed above: 
 R. D. Adamson,  B. Austin,  J. Baker,  G. J. O. Beran,  K. Brandhorst,  
 S. T. Brown,  E. F. C. Byrd,  A. K. Chakraborty,  C.-L. Cheng,  
 Siu Hung Chien,  D. M. Chipman,  D. L. Crittenden,  H. Dachsel,  
 R. J. Doerksen,  A. D. Dutoi,  L. Fusti-Molnar,  W. A. Goddard III,  
 A. Golubeva-Zadorozhnaya,  S. R. Gwaltney,  G. Hawkins,  A. Heyden,  
 S. Hirata,  G. Kedziora,  F. J. Keil,  C. Kelley,  Jihan Kim,  R. A. King,  
 R. Z. Khaliullin,  P. P. Korambath,  W. Kurlancheek,  A. M. Lee,  M. S. Lee,  
 S. V. Levchenko,  Ching Yeh Lin,  D. Liotard,  R. C. Lochan,  I. Lotan,  
 P. E. Maslen,  N. Nair,  D. P. O'Neill,  D. Neuhauser,  E. Neuscamman,  
 C. M. Oana,  R. Olson,  B. Peters,  R. Peverati,  P. A. Pieniazek,  
 Y. M. Rhee,  J. Ritchie,  M. A. Rohrdanz,  E. Rosta,  N. J. Russ,  
 H. F. Schaefer III,  N. E. Schultz,  N. Shenvi,  A. C. Simmonett,  A. Sodt,  
 D. Stuck,  K. S. Thanthiriwatte,  V. Vanovschi,  Tao Wang,  A. Warshel,  
 C. F. Williams,  Q. Wu,  X. Xu,  W. Zhang

 Please cite Q-Chem as follows:
 Y. Shao et al., Mol. Phys. 113, 184-215 (2015)
 DOI: 10.1080/00268976.2014.952696

 Q-Chem 5.0.2 for Intel X86 EM64T Linux

 Parts of Q-Chem use Armadillo 5.200.1 (Boston Tea Smuggler).
 http://arma.sourceforge.net/

 Q-Chem begins on Wed Mar  2 03:49:52 2022  

Host: 
0

     Scratch files written to ./qcts1.d//
 Dec517 15110_ 26548  26544 5633   
Processing $rem in /home/leeping/opt/qchem/5.0.2-openmp/config/preferences.
 MEM_STATIC 2000
 MEM_TOTAL  8000
 SYMMETRY   OFF
 SYM_IGNORE TRUE 

Checking the input file for inconsistencies... 	...done.

--------------------------------------------------------------
User input:
--------------------------------------------------------------
$molecule
0 2
C        1.2274652642    0.2141256923    0.1478851555
C        1.1073307814   -1.0783012354   -0.5908401282
C       -0.0655245903   -1.5194142703   -0.1346883936
C       -1.2313776940    0.7455250258    0.2744550692
C       -0.4077062877    1.5959157053   -0.5146135987
N        0.8815308637    1.3470199665   -0.5553640183
H        1.9222449248    0.3231477270    0.9844289086
H        1.7679380223   -1.4647380794   -1.3620682358
H       -0.5698121777   -2.4632902295   -0.3523744344
H       -2.1944878513    1.1000423390    0.6348103928
H       -0.7941127689    2.4635243591   -1.0476506744
C       -0.6479132743   -0.4623301562    0.7578830170
H       -1.0745619194   -0.8329003667    1.6969124824
$end

$rem
method                b3lyp
basis                 6-31g(d)
unrestricted          true
symmetry              off
sym_ignore            true
incdft                false
incfock               0
scf_convergence       8
thresh                14
jobtype               sp
scf_guess             read
scf_algorithm         diis
max_scf_cycles        100
$end

--------------------------------------------------------------
 ----------------------------------------------------------------
             Standard Nuclear Orientation (Angstroms)
    I     Atom           X                Y                Z
 ----------------------------------------------------------------
    1      C       1.2274652642     0.2141256923     0.1478851555
    2      C       1.1073307814    -1.0783012354    -0.5908401282
    3      C      -0.0655245903    -1.5194142703    -0.1346883936
    4      C      -1.2313776940     0.7455250258     0.2744550692
    5      C      -0.4077062877     1.5959157053    -0.5146135987
    6      N       0.8815308637     1.3470199665    -0.5553640183
    7      H       1.9222449248     0.3231477270     0.9844289086
    8      H       1.7679380223    -1.4647380794    -1.3620682358
    9      H      -0.5698121777    -2.4632902295    -0.3523744344
   10      H      -2.1944878513     1.1000423390     0.6348103928
   11      H      -0.7941127689     2.4635243591    -1.0476506744
   12      C      -0.6479132743    -0.4623301562     0.7578830170
   13      H      -1.0745619194    -0.8329003667     1.6969124824
 ----------------------------------------------------------------
 Nuclear Repulsion Energy =   269.8312678309 hartrees
 There are       25 alpha and       24 beta electrons
 Requested basis set is 6-31G(d)
 There are 40 shells and 117 basis functions

 Total QAlloc Memory Limit   8000 MB
 Mega-Array Size      1956 MB
 MEM_STATIC part      2000 MB

                       Distance Matrix (Angstroms)
             C (  1)   C (  2)   C (  3)   C (  4)   C (  5)   N (  6)
   C (  2)  1.493491
   C (  3)  2.181016  1.333508
   C (  4)  2.518792  3.089439  2.580031
   C (  5)  2.240990  3.074505  3.157010  1.422754
   N (  6)  1.377563  2.436068  3.048004  2.348357  1.313675
   H (  7)  1.092891  2.260446  2.932352  3.260031  3.048892  2.121877
   H (  8)  2.321778  1.086521  2.207042  4.069320  3.849573  3.056546
   H (  9)  3.263284  2.188120  1.092060  3.335728  4.065680  4.082409
   H ( 10)  3.568152  4.141184  3.462104  1.087713  2.181663  3.307477
   H ( 11)  3.252058  4.045824  4.150680  2.211490  1.089120  2.072851
   C ( 12)  2.084882  2.297685  1.501095  1.425850  2.431733  2.708794
   H ( 13)  2.965650  3.170913  2.200959  2.130587  3.351819  3.694740
             H (  7)   H (  8)   H (  9)   H ( 10)   H ( 11)   C ( 12)
   H (  8)  2.954047
   H (  9)  3.970092  2.735263
   H ( 10)  4.203961  5.125080  4.038743
   H ( 11)  4.011129  4.700448  4.980685  2.578916
   C ( 12)  2.697038  3.366802  2.289675  2.201828  3.441214
   H ( 13)  3.290126  4.223315  2.666931  2.473573  4.298569  1.095960

 
 A cutoff of  1.0D-14 yielded    804 shell pairs
 There are      7076 function pairs
 
 -------------------------------------------------------
 OpenMP Integral Computing Module                       
 Release: version 1.0, May 2013, Q-Chem Inc. Pittsburgh 
 -------------------------------------------------------
 Integral Job Info:
 Integral job number is                      11
 Integral operator is                         1
 short-range coefficients                     0
 long-range coefficients              100000000
 Omega coefficients                           0
 if combine SR and LR in K                    0
 Integral screening is                        0
 Integral computing path is                   2
 max size of driver memory is            800000
 size of driver memory is                593474
 size of scratch memory is              2361544
 max col of scratch BK array               1296
 max len of scratch array in speh3          155
 max len of scratch index in speh4           18
 max int batch size is                      520
 min int batch size is                       52
 fixed nKL is                                52
 max L of basis functions is                  2
 order of int derivative is                   0
 number of shells is                         40
 number of basis is                         117
 number of cartesian basis is               117
 number of contracted shell pairs           804
 number of primitive shell pairs           3501
 maxK2 (contraction) of shell pair           36
 max number of K2 of shell pair               1
 max number of CS2 of shell pair             89
 max number of PS2 of shell pair            390
 mem total for path MDJ                  535308
 -------------------------------------------------------
 Smallest overlap matrix eigenvalue = 1.40E-03

 Scale SEOQF with 1.000000e-01/1.000000e-01/1.000000e-01

 Standard Electronic Orientation quadrupole field applied
 Nucleus-field energy     =     0.0000000049 hartrees
 Guess MOs from SCF MO coefficient file
 Reading MOs from coefficient file
 Reading MOs from coefficient file
 An unrestricted hybrid HF-DFT SCF calculation will be
 performed using Pulay DIIS extrapolation
 Exchange:     0.2000 Hartree-Fock + 0.0800 Slater + 0.7200 B88
 Correlation:  0.1900 VWN1RPA + 0.8100 LYP
 Using SG-1 standard quadrature grid
 SCF converges when DIIS error is below 1.0E-08
Using Q-Chem read-in guess as SCF_GUESS READ specified.

 using 4 threads for integral computing
 -------------------------------------------------------
 OpenMP Integral computing Module                
 Release: version 1.0, May 2013, Q-Chem Inc. Pittsburgh 
 -------------------------------------------------------
 -------------------------------------------------------
 OpenMP BLAS3 based DFT computing Module                
 Release: version 1.0, May 2013, Q-Chem Inc. Pittsburgh 
 -------------------------------------------------------
 ---------------------------------------
  Cycle       Energy         DIIS Error
 ---------------------------------------
    1    -286.8452507249      3.14E-09
    2    -286.8452507249      5.36E-09 Convergence criterion met
 ---------------------------------------
 <S^2> = 0.7737
 SCF time:  CPU 5.29 s  wall 5.96 s
 SCF   energy in the final basis set = -286.84525072
 Total energy in the final basis set = -286.84525072
 
 --------------------------------------------------------------
 
                    Orbital Energies (a.u.)
 --------------------------------------------------------------
 
 Alpha MOs
 -- Occupied --
-14.336 -10.242 -10.225 -10.201 -10.200 -10.199 -10.192  -0.948
 -0.820  -0.766  -0.666  -0.637  -0.541  -0.533  -0.515  -0.463
 -0.452  -0.411  -0.402  -0.374  -0.333  -0.310  -0.268  -0.235
 -0.182
 -- Virtual --
 -0.010   0.015   0.045   0.116   0.137   0.144   0.163   0.165
  0.178   0.234   0.257   0.278   0.328   0.359   0.420   0.437
  0.502   0.513   0.534   0.542   0.557   0.590   0.596   0.613
  0.630   0.647   0.660   0.672   0.696   0.723   0.767   0.784
  0.822   0.831   0.838   0.855   0.873   0.876   0.896   0.909
  0.975   0.998   1.046   1.068   1.105   1.142   1.212   1.312
  1.315   1.423   1.475   1.496   1.527   1.583   1.622   1.688
  1.717   1.841   1.859   1.905   1.918   1.949   1.962   2.021
  2.088   2.108   2.144   2.180   2.226   2.243   2.288   2.317
  2.410   2.453   2.486   2.554   2.586   2.608   2.658   2.691
  2.698   2.836   2.885   2.956   3.064   3.949   4.084   4.205
  4.268   4.336   4.450   4.548
 
 Beta MOs
 -- Occupied --
-14.329 -10.237 -10.225 -10.202 -10.199 -10.193 -10.192  -0.935
 -0.814  -0.755  -0.661  -0.629  -0.535  -0.529  -0.510  -0.458
 -0.445  -0.406  -0.397  -0.365  -0.318  -0.290  -0.263  -0.224
 -- Virtual --
 -0.089   0.005   0.021   0.065   0.118   0.139   0.150   0.164
  0.167   0.183   0.240   0.264   0.281   0.332   0.365   0.424
  0.441   0.506   0.522   0.538   0.547   0.560   0.599   0.602
  0.615   0.635   0.651   0.672   0.679   0.705   0.728   0.770
  0.790   0.826   0.837   0.841   0.858   0.878   0.882   0.905
  0.912   0.980   1.002   1.050   1.072   1.110   1.147   1.218
  1.315   1.321   1.430   1.481   1.501   1.537   1.597   1.634
  1.697   1.722   1.850   1.868   1.915   1.923   1.955   1.970
  2.031   2.096   2.111   2.152   2.189   2.235   2.252   2.297
  2.324   2.415   2.463   2.494   2.562   2.597   2.614   2.665
  2.696   2.707   2.840   2.888   2.963   3.070   3.960   4.091
  4.206   4.271   4.344   4.457   4.552
 --------------------------------------------------------------
 
          Ground-State Mulliken Net Atomic Charges

     Atom                 Charge (a.u.)    Spin (a.u.)
  --------------------------------------------------------
      1 C                    -0.066015       0.338518
      2 C                    -0.085210      -0.034470
      3 C                    -0.090939       0.056891
      4 C                    -0.109363       0.463662
      5 C                     0.045699      -0.075980
      6 N                    -0.332981       0.329377
      7 H                     0.167077       0.009393
      8 H                     0.143666       0.004600
      9 H                     0.136992       0.026807
     10 H                     0.140880      -0.026263
     11 H                     0.143115       0.001641
     12 C                    -0.222794      -0.111316
     13 H                     0.129873       0.017139
  --------------------------------------------------------
  Sum of atomic charges =     0.000000
  Sum of spin   charges =     1.000000

 -----------------------------------------------------------------
                    Cartesian Multipole Moments
 -----------------------------------------------------------------
    Charge (ESU x 10^10)
                 0.0000
    Dipole Moment (Debye)
         X      -0.8723      Y      -0.8924      Z       0.5964
       Tot       1.3831
    Quadrupole Moments (Debye-Ang)
        XX     -38.7930     XY      -2.8823     YY     -39.9385
        XZ       0.2667     YZ       0.9902     ZZ     -40.9191
    Octopole Moments (Debye-Ang^2)
       XXX     -11.1273    XXY      -4.9756    XYY     -12.4303
       YYY     -14.3023    XXZ       5.9341    XYZ       5.0196
       YYZ      -0.0231    XZZ      -4.0281    YZZ      -5.6464
       ZZZ       9.8309
    Hexadecapole Moments (Debye-Ang^3)
      XXXX    -264.5572   XXXY      12.2287   XXYY    -110.2724
      XYYY      14.0171   YYYY    -367.6301   XXXZ      29.2185
      XXYZ      11.9337   XYYZ      13.4129   YYYZ      13.5106
      XXZZ     -61.7523   XYZZ       3.2954   YYZZ     -82.0348
      XZZZ      29.5617   YZZZ      14.1181   ZZZZ    -124.1932
 -----------------------------------------------------------------
Archival summary:
1\1\c8-89\SP\ProcedureUnspecified\6-31G*\166(2)\hpark21\WedMar203:50:082022WedMar203:50:082022\0\\#,ProcedureUnspecified,6-31G*,\\0,2\N\C,1,1.31368\H,2,1.08912,1,118.943\C,1,1.37756,2,112.732,3,-179.306,0\H,4,1.09289,1,117.928,2,-119.418,0\C,2,1.42275,1,118.172,3,-177.425,0\H,6,1.08771,2,120.102,1,157.426,0\C,6,1.42585,2,117.223,1,-11.7183,0\H,8,1.09596,6,114.685,2,151.732,0\C,4,1.49349,1,116.038,2,85.2053,0\H,10,1.08652,4,127.587,1,74.9448,0\C,10,1.33351,4,100.825,1,-99.3487,0\H,12,1.09206,10,128.599,4,-176.929,0\\\@

 Total job time:  16.26s(wall), 7.16s(cpu) 
 Wed Mar  2 03:50:08 2022

        *************************************************************
        *                                                           *
        *  Thank you very much for using Q-Chem.  Have a nice day.  *
        *                                                           *
        *************************************************************


