13
image # 1 Energy = -286.85497
C 1.67251   0.33110   -0.32218  
C 1.07916   -0.88280  -0.30526  
C -0.35195  -1.05368  -0.00410  
C -1.13899  0.36705   0.11568   
C -0.29419  1.53254   -0.20591  
N 0.98870   1.54777   -0.32122  
H 2.74429   0.42179   -0.47838  
H 1.65806   -1.77601  -0.52709  
H -0.85610  -1.90474  -0.46569  
H -2.17280  0.44266   -0.22711  
H -0.82206  2.46527   -0.41947  
C -0.88497  -0.52510  1.24987   
H -1.62166  -0.96586  1.91087   
13
image # 2 Energy = -286.85259
C 1.64301   0.31763   -0.29183  
C 1.07073   -0.89549  -0.32104  
C -0.34817  -1.12059  -0.02780  
C -1.16114  0.41521   0.12533   
C -0.30228  1.54285   -0.22751  
N 0.96936   1.54028   -0.33183  
H 2.72474   0.42030   -0.39168  
H 1.67663   -1.77536  -0.57061  
H -0.82615  -1.98205  -0.48105  
H -2.20275  0.50279   -0.16448  
H -0.81797  2.48998   -0.46049  
C -0.86962  -0.52396  1.23304   
H -1.57184  -0.93678  1.90930   
13
image # 3 Energy = -286.84991
C 1.62232   0.32118   -0.26071  
C 1.05400   -0.92224  -0.33714  
C -0.33252  -1.16472  -0.03663  
C -1.17509  0.44951   0.14826   
C -0.32568  1.55528   -0.24821  
N 0.96786   1.52893   -0.34160  
H 2.70094   0.41605   -0.30799  
H 1.69017   -1.76858  -0.61387  
H -0.80404  -2.06087  -0.49822  
H -2.23300  0.55982   -0.10572  
H -0.81330  2.50577   -0.50232  
C -0.84066  -0.50919  1.18396   
H -1.53953  -0.92062  1.91818   
13
image # 4 Energy = -286.84683
C 1.59380   0.31738   -0.22358  
C 1.04832   -0.94231  -0.35695  
C -0.32513  -1.23774  -0.05282  
C -1.19489  0.50477   0.16727   
C -0.34608  1.56872   -0.27093  
N 0.96058   1.51503   -0.35421  
H 2.67184   0.41091   -0.21913  
H 1.70312   -1.75944  -0.66117  
H -0.77188  -2.13076  -0.51005  
H -2.25725  0.61814   -0.04412  
H -0.80893  2.52106   -0.54442  
C -0.82499  -0.50493  1.15475   
H -1.49056  -0.89588  1.91017   
13
image # 5 Energy = -286.85666
C 1.56769   0.31690   -0.19366  
C 1.02237   -0.96567  -0.37026  
C -0.26893  -1.31786  -0.04716  
C -1.22366  0.59032   0.21346   
C -0.36565  1.56455   -0.30160  
N 0.95043   1.49936   -0.33232  
H 2.65177   0.40032   -0.11994  
H 1.70654   -1.73900  -0.72836  
H -0.74023  -2.19053  -0.49889  
H -2.29187  0.69232   0.03535   
H -0.80764  2.52079   -0.61522  
C -0.82193  -0.51875  1.05324   
H -1.43250  -0.87284  1.89536   
13
image # 6 Energy = -286.86357
C 1.54934   0.32174   -0.15990  
C 1.02321   -0.99138  -0.38813  
C -0.23050  -1.38643  -0.04466  
C -1.24601  0.65414   0.24767   
C -0.38628  1.57042   -0.32137  
N 0.94720   1.48495   -0.32082  
H 2.62247   0.39161   -0.04558  
H 1.71504   -1.72397  -0.78714  
H -0.71368  -2.26016  -0.49985  
H -2.31634  0.75591   0.09607   
H -0.80577  2.52222   -0.66686  
C -0.83417  -0.50323  1.00628   
H -1.38608  -0.85863  1.87076   
13
image # 7 Energy = -286.86251
C 1.51360   0.30551   -0.11796  
C 1.02740   -1.01225  -0.40388  
C -0.20892  -1.45796  -0.05376  
C -1.26647  0.70428   0.27715   
C -0.40534  1.58512   -0.34046  
N 0.93864   1.47830   -0.32320  
H 2.59064   0.38412   0.03926   
H 1.73119   -1.70896  -0.85112  
H -0.67777  -2.33279  -0.50176  
H -2.33876  0.82293   0.15798   
H -0.80220  2.52775   -0.71541  
C -0.82744  -0.47306  0.96206   
H -1.34419  -0.84821  1.85247   
13
image # 8 Energy = -286.85990
C 1.48717   0.29898   -0.07801  
C 1.02359   -1.05058  -0.41659  
C -0.17656  -1.50473  -0.06461  
C -1.28609  0.75061   0.29592   
C -0.42001  1.59830   -0.35415  
N 0.92596   1.46812   -0.31993  
H 2.55456   0.37532   0.12087   
H 1.74745   -1.68902  -0.91779  
H -0.64157  -2.40367  -0.49474  
H -2.36236  0.89426   0.22183   
H -0.79871  2.53191   -0.76748  
C -0.82935  -0.45740  0.92752   
H -1.29823  -0.83858  1.82335   
13
image # 9 Energy = -286.85265
C 1.45258   0.28825   -0.03816  
C 1.04149   -1.07468  -0.43310  
C -0.17073  -1.54312  -0.07969  
C -1.29839  0.78002   0.30895   
C -0.42978  1.61162   -0.36886  
N 0.90943   1.45232   -0.31991  
H 2.50749   0.36447   0.21168   
H 1.76281   -1.66648  -0.97922  
H -0.61287  -2.46812  -0.48396  
H -2.38072  0.95599   0.28360   
H -0.79682  2.54006   -0.81921  
C -0.81486  -0.43362  0.88940   
H -1.24713  -0.83391  1.79867   
13
image # 10 Energy = -286.84439
C 1.41746   0.26217   -0.00224  
C 1.04031   -1.08961  -0.44272  
C -0.16086  -1.55589  -0.10759  
C -1.31007  0.79807   0.30865   
C -0.45499  1.63276   -0.38874  
N 0.89833   1.44304   -0.32115  
H 2.45454   0.35397   0.31496   
H 1.78437   -1.64936  -1.03605  
H -0.60142  -2.51107  -0.46217  
H -2.38669  0.99864   0.33965   
H -0.79330  2.54073   -0.86835  
C -0.78940  -0.41699  0.85630   
H -1.17837  -0.83421  1.77337   
13
image # 11 Energy = -286.84004
C 1.37851   0.25364   0.02961   
C 1.04790   -1.10632  -0.47170  
C -0.16859  -1.54135  -0.13136  
C -1.31325  0.79862   0.29955   
C -0.46179  1.63693   -0.40678  
N 0.87894   1.43292   -0.32456  
H 2.39438   0.34099   0.42914   
H 1.79789   -1.63417  -1.07104  
H -0.61597  -2.50797  -0.43207  
H -2.38442  1.00767   0.37765   
H -0.79637  2.54362   -0.91425  
C -0.75172  -0.41952  0.81160   
H -1.08666  -0.83370  1.76189   
13
image # 12 Energy = -286.83826
C 1.35507   0.24832   0.04815   
C 1.05272   -1.10162  -0.50251  
C -0.17600  -1.50305  -0.14913  
C -1.30828  0.77851   0.28648   
C -0.46964  1.64437   -0.43522  
N 0.86401   1.41801   -0.32340  
H 2.32843   0.32745   0.54708   
H 1.81159   -1.62876  -1.09948  
H -0.65194  -2.47444  -0.39535  
H -2.37973  0.99746   0.40652   
H -0.79923  2.53380   -0.95127  
C -0.72666  -0.43970  0.76441   
H -0.98267  -0.82998  1.75573   
13
image # 13 Energy = -286.83457
C 1.35155   0.24338   0.05377   
C 1.05479   -1.08936  -0.53702  
C -0.17785  -1.46881  -0.17300  
C -1.29570  0.76634   0.25974   
C -0.48485  1.61564   -0.44726  
N 0.85652   1.41202   -0.33711  
H 2.24866   0.31345   0.66955   
H 1.82333   -1.62832  -1.11298  
H -0.70141  -2.42116  -0.37270  
H -2.36066  0.96297   0.42416   
H -0.80606  2.53730   -0.97995  
C -0.70928  -0.45034  0.73596   
H -0.88264  -0.82378  1.76362   
13
image # 14 Energy = -286.83504
C 1.21892   0.21375   0.16501   
C 1.05690   -1.12481  -0.55014  
C -0.16125  -1.50449  -0.18836  
C -1.28689  0.77351   0.28129   
C -0.45691  1.66555   -0.41772  
N 0.85094   1.42001   -0.44535  
H 2.18262   0.30545   0.70191   
H 1.84440   -1.62864  -1.11080  
H -0.71839  -2.42105  -0.42413  
H -2.37224  0.92276   0.37707   
H -0.81429  2.55443   -0.96438  
C -0.58551  -0.40943  0.75918   
H -0.84181  -0.79746  1.75831   
13
image # 15 Energy = -286.84797
C 1.15500   0.19357   0.19017   
C 1.06044   -1.12142  -0.58354  
C -0.19358  -1.48055  -0.21923  
C -1.26898  0.76932   0.28095   
C -0.44937  1.69731   -0.44564  
N 0.83711   1.40890   -0.47250  
H 2.07717   0.28758   0.81089   
H 1.86260   -1.61499  -1.08898  
H -0.75398  -2.42422  -0.44646  
H -2.34133  0.86871   0.36477   
H -0.81094  2.57155   -0.97112  
C -0.53093  -0.39818  0.73715   
H -0.72219  -0.78925  1.78232   
13
image # 16 Energy = -286.85369
C 1.05884   0.17401   0.23872   
C 1.05777   -1.12666  -0.59620  
C -0.22415  -1.43683  -0.25525  
C -1.24375  0.75615   0.28869   
C -0.44331  1.72776   -0.45849  
N 0.82941   1.40467   -0.48473  
H 1.96086   0.26977   0.92328   
H 1.89030   -1.61602  -1.06498  
H -0.86267  -2.35337  -0.44084  
H -2.32297  0.74390   0.31156   
H -0.82906  2.57425   -0.99111  
C -0.40741  -0.36948  0.69803   
H -0.53861  -0.78017  1.77112   
13
image # 17 Energy = -286.83805
C 1.00712   0.16814   0.25322   
C 1.03504   -1.12235  -0.56724  
C -0.23280  -1.46571  -0.29385  
C -1.23001  0.75836   0.30060   
C -0.44104  1.73894   -0.46827  
N 0.83532   1.40434   -0.47383  
H 1.92055   0.26643   0.94120   
H 1.90703   -1.61917  -1.04431  
H -0.90803  -2.34138  -0.45911  
H -2.31541  0.67472   0.27800   
H -0.83944  2.57696   -0.98503  
C -0.33605  -0.29258  0.72240   
H -0.47288  -0.77716  1.73906   
13
image # 18 Energy = -286.84278
C 1.01860   0.17075   0.24474   
C 1.03123   -1.12841  -0.54617  
C -0.21155  -1.56575  -0.29289  
C -1.23709  0.78818   0.32122   
C -0.43151  1.75573   -0.46586  
N 0.83443   1.39529   -0.49247  
H 1.98409   0.27917   0.83673   
H 1.88966   -1.59897  -1.03298  
H -0.79542  -2.47124  -0.52568  
H -2.31977  0.76547   0.30767   
H -0.81743  2.59391   -0.94399  
C -0.38041  -0.23439  0.79932   
H -0.63141  -0.77840  1.73635   
13
image # 19 Energy = -286.82080
C 1.04068   0.17253   0.25141   
C 1.01325   -1.14577  -0.51106  
C -0.16901  -1.71082  -0.31506  
C -1.24744  0.84510   0.34234   
C -0.41503  1.72892   -0.43276  
N 0.83656   1.40649   -0.52036  
H 2.04346   0.29399   0.71859   
H 1.86847   -1.57603  -1.02094  
H -0.67735  -2.63292  -0.61092  
H -2.33409  0.85289   0.33983   
H -0.79892  2.63272   -0.90956  
C -0.42898  -0.11389  0.91439   
H -0.79418  -0.77964  1.70194   
13
image # 20 Energy = -286.81511
C 1.02213   0.16780   0.25294   
C 0.99748   -1.16256  -0.49056  
C -0.13101  -1.82117  -0.34204  
C -1.25226  0.88778   0.37410   
C -0.40481  1.73815   -0.43459  
N 0.83186   1.38563   -0.53801  
H 2.04322   0.29761   0.68422   
H 1.86408   -1.54842  -1.03125  
H -0.57467  -2.75307  -0.67252  
H -2.34372  0.93128   0.38106   
H -0.77586  2.65130   -0.88794  
C -0.45598  -0.03888  0.97617   
H -0.87634  -0.75907  1.67724   
13
image # 21 Energy = -286.81684
C 0.98779   0.14895   0.26215   
C 0.98982   -1.17238  -0.48952  
C -0.09586  -1.89868  -0.35991  
C -1.25749  0.92469   0.40019   
C -0.39897  1.74474   -0.43885  
N 0.82293   1.35324   -0.56393  
H 1.99519   0.29191   0.69143   
H 1.86771   -1.51467  -1.05643  
H -0.46902  -2.84957  -0.71814  
H -2.34296  1.02334   0.43629   
H -0.74951  2.66806   -0.88378  
C -0.47455  -0.00854  0.99484   
H -0.92370  -0.73128  1.67607   
13
image # 22 Energy = -286.82104
C 0.94631   0.12912   0.24781   
C 0.98602   -1.18370  -0.49886  
C -0.05478  -1.97471  -0.37176  
C -1.25317  0.96728   0.41680   
C -0.39995  1.74931   -0.44057  
N 0.80780   1.31242   -0.58748  
H 1.95142   0.28455   0.70771   
H 1.86248   -1.47244  -1.08217  
H -0.34057  -2.94116  -0.75963  
H -2.33113  1.13972   0.50553   
H -0.71669  2.68215   -0.88664  
C -0.51747  0.00131   1.00535   
H -0.98161  -0.71025  1.69615   
13
image # 23 Energy = -286.82836
C 0.90229   0.10685   0.24970   
C 0.97780   -1.19701  -0.50629  
C -0.01564  -2.03538  -0.38968  
C -1.26932  1.00265   0.43753   
C -0.39575  1.75821   -0.44580  
N 0.79348   1.27897   -0.60370  
H 1.88645   0.27143   0.73904   
H 1.85940   -1.43311  -1.10223  
H -0.24665  -3.01573  -0.79115  
H -2.30508  1.22315   0.56247   
H -0.69431  2.69856   -0.90223  
C -0.53137  0.02063   1.00647   
H -0.99558  -0.69143  1.70148   
13
image # 24 Energy = -286.83498
C 0.85914   0.08137   0.25674   
C 0.97530   -1.20232  -0.51342  
C 0.01766   -2.10850  -0.40666  
C -1.26232  1.02977   0.46130   
C -0.38719  1.76751   -0.45262  
N 0.77130   1.25376   -0.62182  
H 1.81576   0.25410   0.77094   
H 1.85587   -1.39355  -1.12306  
H -0.15019  -3.08410  -0.81825  
H -2.29188  1.31258   0.62368   
H -0.67198  2.71342   -0.92242  
C -0.55326  0.03986   1.00047   
H -1.00475  -0.67231  1.70594   
13
image # 25 Energy = -286.84080
C 0.80642   0.05973   0.26101   
C 0.95648   -1.22008  -0.51755  
C 0.06495   -2.16756  -0.42095  
C -1.25476  1.07541   0.47584   
C -0.39039  1.78386   -0.45888  
N 0.76100   1.23251   -0.64465  
H 1.74909   0.23441   0.81011   
H 1.85312   -1.35471  -1.14410  
H -0.05738  -3.15192  -0.84306  
H -2.28378  1.39983   0.68722   
H -0.65027  2.71993   -0.94442  
C -0.56766  0.03529   0.99963   
H -1.00590  -0.65202  1.70825   
13
image # 26 Energy = -286.84414
C 0.75787   0.04685   0.25098   
C 0.95710   -1.23001  -0.52694  
C 0.09597   -2.24115  -0.43524  
C -1.26821  1.12738   0.49638   
C -0.38284  1.79466   -0.46375  
N 0.74995   1.21494   -0.66781  
H 1.68593   0.21208   0.85528   
H 1.84180   -1.31575  -1.15665  
H 0.02946   -3.21196  -0.86438  
H -2.26157  1.47337   0.74579   
H -0.63181  2.72466   -0.96734  
C -0.58148  0.04549   0.98751   
H -1.00552  -0.64465  1.72205   
13
image # 27 Energy = -286.84854
C 0.72225   0.03406   0.23474   
C 0.93804   -1.25941  -0.53136  
C 0.14712   -2.29359  -0.44942  
C -1.26196  1.16774   0.52516   
C -0.37744  1.80685   -0.46781  
N 0.73357   1.19231   -0.68362  
H 1.60258   0.18419   0.90247   
H 1.83036   -1.27378  -1.16762  
H 0.12025   -3.28668  -0.89184  
H -2.23776  1.54760   0.80875   
H -0.61393  2.72990   -0.99405  
C -0.61631  0.08386   0.96996   
H -0.99325  -0.63455  1.73110   
13
image # 28 Energy = -286.85056
C 0.68106   0.01486   0.23161   
C 0.93168   -1.27304  -0.53122  
C 0.18763   -2.35196  -0.46969  
C -1.25574  1.21435   0.54259   
C -0.37879  1.81738   -0.47149  
N 0.71653   1.17027   -0.68440  
H 1.51748   0.15793   0.93817   
H 1.81800   -1.24208  -1.17571  
H 0.19169   -3.34165  -0.90889  
H -2.21692  1.60318   0.85960   
H -0.60147  2.73351   -1.01759  
C -0.62726  0.10549   0.97240   
H -0.96387  -0.60824  1.71462   
