13   
From optimize.out: Frame 32 / 33, Energy=    -286.8383360531
C        1.2467903328    0.2391493530    0.2452889900
C        0.5671291017   -1.1296078278   -0.2130786642
C       -0.7462328251   -0.8837993413   -0.7938688356
C       -1.0526486561    0.2204303567    0.2141082371
C       -0.4347294886    1.4776613843   -0.3838562609
N        0.8482391741    1.4593432948   -0.4109522628
H        2.2856112669    0.1481923634    0.5460922891
H        1.2042191783   -2.0016887613   -0.3225968500
H       -1.1575096410   -1.0762076433   -1.7821280533
H       -2.0596013823    0.2974853457    0.6304837076
H       -1.0062005099    2.2666915076   -0.8701299983
C        0.1476016803   -0.3534424927    1.0501550238
H        0.1573317683   -0.6642075387    2.0904826776
13   
From optimize.out: Frame 31 / 33, Energy=    -286.8383302494
C        1.2474257974    0.2386842607    0.2449450255
C        0.5687431131   -1.1281942364   -0.2146038653
C       -0.7455526657   -0.8834177884   -0.7942062712
C       -1.0532498572    0.2213269768    0.2132626974
C       -0.4346603508    1.4781397566   -0.3844571304
N        0.8483662163    1.4602216102   -0.4092929328
H        2.2860573102    0.1502881083    0.5472257035
H        1.2033864972   -2.0021893678   -0.3226951336
H       -1.1591091926   -1.0820987827   -1.7802426894
H       -2.0595048715    0.3003044063    0.6309151016
H       -1.0058622330    2.2681043931   -0.8697329274
C        0.1475173411   -0.3531940317    1.0496735741
H        0.1564428954   -0.6679753052    2.0892088481
13   
From optimize.out: Frame 30 / 33, Energy=    -286.8383108368
C        1.2478388608    0.2396087778    0.2438842662
C        0.5699740676   -1.1245896276   -0.2160843213
C       -0.7456403125   -0.8823098295   -0.7932736356
C       -1.0533547932    0.2220202083    0.2129594173
C       -0.4326166059    1.4799332721   -0.3853633946
N        0.8486357279    1.4602502714   -0.4114353210
H        2.2855706785    0.1516041881    0.5492654513
H        1.2003797115   -2.0026423302   -0.3194527385
H       -1.1598068018   -1.0852649035   -1.7778899162
H       -2.0587475208    0.2961992051    0.6327444123
H       -1.0045678645    2.2699514504   -0.8695237496
C        0.1472499969   -0.3516485311    1.0488149036
H        0.1550848555   -0.6731121512    2.0853546261
13   
From optimize.out: Frame 29 / 33, Energy=    -286.8382245391
C        1.2491587673    0.2400180262    0.2397838103
C        0.5707305458   -1.1240388335   -0.2157856149
C       -0.7494570988   -0.8892715240   -0.7882993776
C       -1.0564626540    0.2220571810    0.2144542298
C       -0.4339264032    1.4785404392   -0.3877922541
N        0.8472751617    1.4581505202   -0.4182794888
H        2.2870879106    0.1556258022    0.5453040750
H        1.1965602232   -2.0066423973   -0.3074417120
H       -1.1457905211   -1.0732749775   -1.7845709661
H       -2.0583477986    0.2984716730    0.6415504726
H       -1.0065510924    2.2710973894   -0.8671628176
C        0.1476872595   -0.3497976933    1.0473662276
H        0.1520357002   -0.6809356058    2.0808734157
13   
From optimize.out: Frame 28 / 33, Energy=    -286.8381931996
C        1.2519139565    0.2412530115    0.2425948462
C        0.5765940491   -1.1167646613   -0.2232351366
C       -0.7390851405   -0.8776222891   -0.7989663472
C       -1.0553802799    0.2252371283    0.2119692186
C       -0.4308401205    1.4859058975   -0.3821125870
N        0.8522558559    1.4663216204   -0.4057798185
H        2.2874168433    0.1515937199    0.5550554004
H        1.2009636262   -1.9996913430   -0.3185679039
H       -1.1761771979   -1.1166892948   -1.7650169946
H       -2.0612020520    0.3032746165    0.6298465286
H       -1.0022732817    2.2751156909   -0.8690407577
C        0.1457054513   -0.3506594566    1.0456123955
H        0.1501082902   -0.6872746403    2.0776411563
13   
From optimize.out: Frame 27 / 33, Energy=    -286.8379151194
C        1.2519872675    0.2437092802    0.2444135930
C        0.5825778592   -1.1160744322   -0.2307250617
C       -0.7409051742   -0.8811455566   -0.8043694781
C       -1.0575491711    0.2269508305    0.2022849005
C       -0.4236155326    1.4895427912   -0.3729238269
N        0.8605923473    1.4631683157   -0.4102417795
H        2.2880535202    0.1632659240    0.5573774641
H        1.2199463337   -1.9895922279   -0.3215981200
H       -1.2073481336   -1.1531907144   -1.7474009889
H       -2.0637857669    0.3035645680    0.6189524455
H       -0.9850942807    2.2913629369   -0.8498103360
C        0.1419436675   -0.3515213563    1.0408597998
H        0.1331970637   -0.6900403593    2.0731813880
13   
From optimize.out: Frame 25 / 33, Energy=    -286.8374456494
C        1.2555225519    0.2469444301    0.2492663596
C        0.5863363222   -1.0977827052   -0.2398170960
C       -0.7312347550   -0.8551855697   -0.8188584179
C       -1.0494629822    0.2325205448    0.2174900510
C       -0.4243389083    1.5020892549   -0.3708073699
N        0.8609032764    1.4773829021   -0.3937242032
H        2.2853874960    0.1594261485    0.5806375371
H        1.1929804524   -1.9943237872   -0.3262287881
H       -1.2184064212   -1.1825606786   -1.7294302388
H       -2.0643355685    0.3041639376    0.6152767708
H       -0.9917252823    2.2772423995   -0.8844916516
C        0.1412214409   -0.3560449978    1.0386931864
H        0.1571523776   -0.7138718790    2.0619938607
13   
From optimize.out: Frame 24 / 33, Energy=    -286.8370844118
C        1.2530707223    0.2449823863    0.2574134357
C        0.5872658591   -1.0940011295   -0.2446978987
C       -0.7238409289   -0.8384460460   -0.8258589399
C       -1.0445794680    0.2358909568    0.2131611444
C       -0.4205427581    1.5089047075   -0.3675310006
N        0.8623978419    1.4813272799   -0.3811728827
H        2.2823379621    0.1546892466    0.5902038067
H        1.1998455168   -1.9846772824   -0.3533354022
H       -1.2426978729   -1.2158798188   -1.6976574202
H       -2.0650004322    0.3008725536    0.5973217905
H       -0.9848327860    2.2785836174   -0.8921371589
C        0.1387874627   -0.3607828919    1.0391282563
H        0.1577888811   -0.7114635796    2.0651622696
13   
From optimize.out: Frame 23 / 33, Energy=    -286.8357357624
C        1.2530115347    0.2495622418    0.2694255017
C        0.5908620942   -1.0828995939   -0.2409402862
C       -0.7194907779   -0.8041748674   -0.8375592928
C       -1.0443233892    0.2262930359    0.2360812331
C       -0.4141785642    1.4797925812   -0.3862499988
N        0.8594130270    1.4779847729   -0.3749251984
H        2.2792324773    0.1732071483    0.6135640669
H        1.1871017316   -1.9832317502   -0.3728561767
H       -1.2540281469   -1.1790703776   -1.7002146261
H       -2.0634850056    0.3252674553    0.6122349480
H       -0.9900566356    2.2215965141   -0.9363194284
C        0.1382333409   -0.3749709604    1.0476393409
H        0.1777083135   -0.7293562000    2.0701199168
13   
From optimize.out: Frame 22 / 33, Energy=    -286.8328680989
C        1.2538823097    0.2448978982    0.2798410417
C        0.5897766136   -1.0710005816   -0.2383157433
C       -0.7046693882   -0.7539321815   -0.8340050395
C       -1.0438181372    0.2238786739    0.2590979555
C       -0.4205093978    1.4586369995   -0.4127039704
N        0.8528738032    1.4735893903   -0.3711985517
H        2.2779741352    0.1609189284    0.6284638863
H        1.1729706490   -1.9772674397   -0.3996357627
H       -1.2347616440   -1.1422096184   -1.6916043659
H       -2.0588761191    0.3341603384    0.6360870929
H       -1.0072162940    2.1733245295   -0.9845775004
C        0.1378246744   -0.3859463373    1.0554993827
H        0.1845487952   -0.7390505997    2.0730515748
13   
From optimize.out: Frame 21 / 33, Energy=    -286.8279535091
C        1.2539453286    0.2455556007    0.2811833886
C        0.5897278612   -1.0642204701   -0.2331645267
C       -0.6985371125   -0.7142520828   -0.8357436269
C       -1.0490352127    0.2168133970    0.2881158486
C       -0.4163769710    1.4156689754   -0.4394778987
N        0.8375066181    1.4617816389   -0.3740388512
H        2.2777242840    0.1753284977    0.6335665565
H        1.1580493704   -1.9774814617   -0.4041988024
H       -1.2161138863   -1.0726533705   -1.7137845447
H       -2.0576906355    0.3411297374    0.6753317047
H       -1.0063843371    2.1139988057   -1.0256300322
C        0.1382679915   -0.3948302603    1.0655920181
H        0.1889167013   -0.7468390073    2.0822487664
13   
From optimize.out: Frame 20 / 33, Energy=    -286.8236048051
C        1.2591201018    0.2421147376    0.2868803220
C        0.5908568448   -1.0567256631   -0.2289456557
C       -0.6921648252   -0.6603941766   -0.8443470353
C       -1.0568354419    0.2102174506    0.3079665537
C       -0.4216989555    1.3753546715   -0.4635281300
N        0.8440527838    1.4454844945   -0.3826061083
H        2.2812350226    0.1715075301    0.6441122208
H        1.1565212197   -1.9672644207   -0.4153497727
H       -1.2137722156   -1.0132924994   -1.7226154858
H       -2.0619422696    0.3319267794    0.7048216543
H       -1.0138252955    2.0619019876   -1.0599475231
C        0.1397011123   -0.3999689137    1.0758647738
H        0.1887519183   -0.7408619779    2.0976941865
13   
From optimize.out: Frame 19 / 33, Energy=    -286.8198568265
C        1.2796717778    0.2431509982    0.2942072197
C        0.5986304324   -1.0517691774   -0.2221239021
C       -0.6921313356   -0.6382806162   -0.8605421136
C       -1.0730910253    0.2088438407    0.3299948326
C       -0.4327605995    1.3290134515   -0.4906419306
N        0.8652332294    1.4458178190   -0.3749236095
H        2.3008270987    0.1812747835    0.6554738496
H        1.1466998732   -1.9656411291   -0.4134595675
H       -1.2291340047   -0.9505403641   -1.7484616384
H       -2.0777017660    0.3390651223    0.7301987514
H       -1.0291718746    2.0088492400   -1.0961341657
C        0.1438507913   -0.3991300968    1.0843240315
H        0.1990774030   -0.7506538717    2.1120882426
13   
From optimize.out: Frame 18 / 33, Energy=    -286.8164537288
C        1.2790327433    0.2366478647    0.2997234465
C        0.5968261649   -1.0424813300   -0.2189162926
C       -0.6853715590   -0.5753898781   -0.8577823175
C       -1.0752511788    0.2004673355    0.3410913829
C       -0.4396075995    1.2922308472   -0.5128408419
N        0.8677367836    1.4248359091   -0.3876834692
H        2.2994259670    0.1710316231    0.6628350325
H        1.1481275302   -1.9534433752   -0.4237727163
H       -1.2202547088   -0.8889847689   -1.7447014825
H       -2.0749776747    0.3211665999    0.7535608824
H       -1.0360012049    1.9599564523   -1.1266922250
C        0.1455896869   -0.4035166238    1.0929674022
H        0.1947250498   -0.7425206557    2.1222111986
13   
From optimize.out: Frame 17 / 33, Energy=    -286.8157532990
C        1.2845128983    0.2369575698    0.2966946277
C        0.5975403380   -1.0394423269   -0.2129703263
C       -0.6906307722   -0.5699821827   -0.8510941421
C       -1.0801454461    0.1969980275    0.3534809857
C       -0.4470850178    1.2664578055   -0.5278216476
N        0.8653881666    1.4192951076   -0.3937102618
H        2.3054618148    0.1796269115    0.6593729172
H        1.1313337816   -1.9642365390   -0.4014363497
H       -1.1961462367   -0.8259020669   -1.7731624280
H       -2.0745920542    0.3245037438    0.7764432352
H       -1.0476727720    1.9286888967   -1.1430322578
C        0.1497333942   -0.3998846059    1.0965404333
H        0.2023019055   -0.7530803411    2.1206952141
13   
From optimize.out: Frame 16 / 33, Energy=    -286.8150871207
C        1.2889624797    0.2377811066    0.2928950516
C        0.5984828690   -1.0365938324   -0.2087565230
C       -0.6960718710   -0.5687631476   -0.8450028097
C       -1.0837332144    0.1948158564    0.3638343893
C       -0.4537142691    1.2455612863   -0.5391869332
N        0.8620921187    1.4145502550   -0.4013337633
H        2.3111670238    0.1890612733    0.6530360936
H        1.1130407111   -1.9766222371   -0.3738715741
H       -1.1698702283   -0.7694815239   -1.7973896412
H       -2.0739588965    0.3286438783    0.7946652110
H       -1.0594921969    1.9033798912   -1.1537698511
C        0.1535970878   -0.3949864493    1.0990123110
H        0.2094983861   -0.7673463568    2.1158680390
13   
From optimize.out: Frame 15 / 33, Energy=    -286.8141193350
C        1.2927373935    0.2389086973    0.2892743083
C        0.5999324664   -1.0336906420   -0.2058939841
C       -0.7009021732   -0.5695550430   -0.8402473089
C       -1.0863611306    0.1931918280    0.3727591489
C       -0.4598989069    1.2279047861   -0.5477828218
N        0.8583053225    1.4099172307   -0.4105947444
H        2.3173195578    0.1995087969    0.6434983133
H        1.0924794082   -1.9901360971   -0.3412207683
H       -1.1425479373   -0.7184913479   -1.8177880346
H       -2.0738277371    0.3324022033    0.8081854271
H       -1.0712088094    1.8832505314   -1.1593978892
C        0.1574935222   -0.3885611562    1.1009773939
H        0.2164790236   -0.7846497874    2.1082309598
13   
From optimize.out: Frame 14 / 33, Energy=    -286.8126848691
C        1.2961936679    0.2399321673    0.2863818440
C        0.6017223702   -1.0309100838   -0.2037204277
C       -0.7048419448   -0.5708168674   -0.8370055656
C       -1.0884781394    0.1914369572    0.3810007048
C       -0.4661752898    1.2117269973   -0.5543332068
N        0.8542691782    1.4047660556   -0.4211637319
H        2.3243366594    0.2108518194    0.6308602486
H        1.0688401494   -2.0041407186   -0.3056152385
H       -1.1136727030   -0.6712348282   -1.8354209954
H       -2.0745919719    0.3348509261    0.8180755767
H       -1.0824382306    1.8669698047   -1.1610273918
C        0.1616072924   -0.3806447706    1.1029780211
H        0.2232289621   -0.8027874591    2.0989901625
13   
From optimize.out: Frame 13 / 33, Energy=    -286.8106843651
C        1.2996493731    0.2404534066    0.2844565857
C        0.6036366040   -1.0285095001   -0.2016460771
C       -0.7078063805   -0.5719348394   -0.8352680793
C       -1.0904443612    0.1889143681    0.3890203375
C       -0.4729631437    1.1959267585   -0.5590345914
N        0.8500033476    1.3986022927   -0.4327802414
H        2.3324861479    0.2231548413    0.6150261255
H        1.0415092381   -2.0182355322   -0.2690748846
H       -1.0824594130   -0.6265469610   -1.8510726917
H       -2.0764969613    0.3353514641    0.8251140682
H       -1.0926445745    1.8538135234   -1.1593657276
C        0.1660262879   -0.3712353177    1.1053622834
H        0.2295038359   -0.8197545044    2.0892628929
13   
From optimize.out: Frame 12 / 33, Energy=    -286.8080125167
C        1.3034946678    0.2400131809    0.2836472758
C        0.6055102459   -1.0267114816   -0.1991014457
C       -0.7097503538   -0.5727292172   -0.8349773416
C       -1.0926204854    0.1848952879    0.3970452630
C       -0.4805860245    1.1796740952   -0.5618424624
N        0.8454466640    1.3909917044   -0.4451917026
H        2.3420460936    0.2367443697    0.5957228057
H        1.0102452352   -2.0321302607   -0.2334357236
H       -1.0484902842   -0.5834186265   -1.8651401914
H       -2.0797869850    0.3334444976    0.8296915672
H       -1.1011263691    1.8433732876   -1.1549089774
C        0.1707803083   -0.3602954050    1.1083512738
H        0.2348372872   -0.8338514322    2.0801396592
13   
From optimize.out: Frame 11 / 33, Energy=    -286.8045105186
C        1.3082324524    0.2380182162    0.2841253684
C        0.6072201781   -1.0256826255   -0.1955190479
C       -0.7106514974   -0.5731923918   -0.8360410913
C       -1.0954093341    0.1785398570    0.4050923344
C       -0.4892306247    1.1622186781   -0.5626231909
N        0.8405842527    1.3815382972   -0.4580548787
H        2.3533119665    0.2522207412    0.5725794091
H        0.9753230452   -2.0455962922   -0.2005346826
H       -1.0119854818   -0.5407598714   -1.8776290594
H       -2.0847613261    0.3287304043    0.8318359731
H       -1.1070321401    1.8352639551   -1.1480982952
C        0.1758467493   -0.3477592127    1.1120826224
H        0.2385517600   -0.8435397556    2.0727845385
13   
From optimize.out: Frame 10 / 33, Energy=    -286.7999184228
C        1.3144996062    0.2337512761    0.2862077944
C        0.6087422397   -1.0255089022   -0.1904971083
C       -0.7106187367   -0.5733589608   -0.8382874669
C       -1.0992497817    0.1690865047    0.4129756414
C       -0.4988869829    1.1428737700   -0.5612407399
N        0.8355327352    1.3699312461   -0.4707420827
H        2.3664945669    0.2704198745    0.5453732581
H        0.9376385998   -2.0584645761   -0.1724672501
H       -0.9739821264   -0.4976821425   -1.8880958803
H       -2.0917681566    0.3208648163    0.8312789509
H       -1.1093658942    1.8289836541   -1.1394136276
C        0.1811820611   -0.3335444588    1.1165380271
H        0.2397818695   -0.8473521012    2.0683704842
13   
From optimize.out: Frame 9 / 33, Energy=    -286.7938333979
C        1.3230035441    0.2267841893    0.2903638839
C        0.6103132209   -1.0260394076   -0.1839446128
C       -0.7100510437   -0.5732708411   -0.8413748381
C       -1.1046066489    0.1560915218    0.4203603317
C       -0.5093928386    1.1210850112   -0.5576201154
N        0.8305508298    1.3561368061   -0.4824450482
H        2.3814692070    0.2914380151    0.5146234768
H        0.8989136308   -2.0704048206   -0.1515845582
H       -0.9364009232   -0.4539122278   -1.8957741356
H       -2.1011666513    0.3096386234    0.8276385292
H       -1.1071753190    1.8238335309   -1.1294034677
C        0.1868068022   -0.3174897145    1.1213689329
H        0.2377361901   -0.8438906861    2.0677916215
13   
From optimize.out: Frame 8 / 33, Energy=    -286.7857080725
C        1.3343902813    0.2175818934    0.2969500140
C        0.6125032786   -1.0266717232   -0.1760874450
C       -0.7096689693   -0.5729284615   -0.8447907602
C       -1.1118976624    0.1395868726    0.4268306962
C       -0.5206412399    1.0966279122   -0.5518303045
N        0.8260657303    1.3407640127   -0.4927351641
H        2.3978193159    0.3129984376    0.4822185362
H        0.8615391854   -2.0806391179   -0.1395397117
H       -0.9017097286   -0.4097327769   -1.8999176696
H       -2.1132155351    0.2948561165    0.8207228153
H       -1.1002471606    1.8188532633   -1.1185794082
C        0.1929045805   -0.2992073915    1.1256868873
H        0.2321579239   -0.8320890374    2.0710715143
13   
From optimize.out: Frame 7 / 33, Energy=    -286.7748796055
C        1.3492095494    0.2073295785    0.3060496148
C        0.6160519343   -1.0265194293   -0.1674270342
C       -0.7104456695   -0.5722628929   -0.8479744901
C       -1.1214266345    0.1202051290    0.4319593590
C       -0.5327641661    1.0696729751   -0.5441077203
N        0.8227118439    1.3249722926   -0.5018146190
H        2.4155561243    0.3310686482    0.4511578896
H        0.8276964427   -2.0880987021   -0.1362100795
H       -0.8722378315   -0.3657401421   -1.9001830269
H       -2.1279951460    0.2764619776    0.8107157528
H       -1.0895938534    1.8129139519   -1.1072180337
C        0.1998298044   -0.2782000460    1.1280685455
H        0.2234076021   -0.8118033406    2.0769838419
13   
From optimize.out: Frame 6 / 33, Energy=    -286.7605467556
C        1.3680891248    0.1971349169    0.3176487238
C        0.6216171958   -1.0248329524   -0.1586456069
C       -0.7135421054   -0.5712043342   -0.8504239906
C       -1.1335127970    0.0991725517    0.4353027387
C       -0.5462394866    1.0406770425   -0.5347909385
N        0.8216971704    1.3099636062   -0.5100585958
H        2.4356778208    0.3422481908    0.4246176537
H        0.7986848990   -2.0918409045   -0.1399716754
H       -0.8498118917   -0.3229385644   -1.8966684577
H       -2.1455833353    0.2549944583    0.7979771338
H       -1.0772866728    1.8049785776   -1.0953421694
C        0.2080755767   -0.2542280475    1.1268503542
H        0.2121345013   -0.7841245409    2.0835048303
13   
From optimize.out: Frame 5 / 33, Energy=    -286.7416889334
C        1.3918636684    0.1876256945    0.3317217540
C        0.6296260197   -1.0212937315   -0.1504341373
C       -0.7202673315   -0.5698023146   -0.8517133911
C       -1.1486503338    0.0781160612    0.4363099845
C       -0.5618421569    1.0103801277   -0.5242901939
N        0.8254415604    1.2967483396   -0.5174370636
H        2.4598400594    0.3451333693    0.4052751743
H        0.7748893969   -2.0913664131   -0.1485895292
H       -0.8358070865   -0.2828209102   -1.8897527614
H       -2.1662734959    0.2318259527    0.7826306803
H       -1.0663167883    1.7943248858   -1.0828903053
C        0.2183427156   -0.2276472831    1.1205671640
H        0.1991537723   -0.7512237785    2.0886026248
13   
From optimize.out: Frame 4 / 33, Energy=    -286.7170652046
C        1.4211597116    0.1790269644    0.3479989390
C        0.6403237606   -1.0162938728   -0.1431922156
C       -0.7319280108   -0.5681009809   -0.8516450178
C       -1.1673950576    0.0587645173    0.4342192553
C       -0.5801584820    0.9797822685   -0.5131024048
N        0.8361557574    1.2856622400   -0.5232657879
H        2.4893600138    0.3405448781    0.3945658463
H        0.7562272950   -2.0869336703   -0.1596584333
H       -0.8309951743   -0.2467913090   -1.8800639097
H       -2.1904811320    0.2091093196    0.7641721808
H       -1.0596961747    1.7809191308   -1.0699128575
C        0.2316455104   -0.1995918601    1.1085708737
H        0.1857819825   -0.7160976256    2.0913135316
13   
From optimize.out: Frame 3 / 33, Energy=    -286.6854870044
C        1.4553557513    0.1715224560    0.3655193339
C        0.6535321080   -1.0106670005   -0.1371248730
C       -0.7489970420   -0.5659794717   -0.8502812123
C       -1.1894327651    0.0422683785    0.4282680587
C       -0.6006592862    0.9496617757   -0.5015765733
N        0.8529920400    1.2755175615   -0.5265804988
H        2.5239341386    0.3309978902    0.3916540168
H        0.7423144321   -2.0793379786   -0.1712255949
H       -0.8347548259   -0.2152753163   -1.8682244344
H       -2.2178094440    0.1888487903    0.7416834270
H       -1.0583785789    1.7653585457   -1.0563121671
C        0.2486116152   -0.1712395403    1.0911744416
H        0.1732918568   -0.6816760905    2.0930260756
13   
From optimize.out: Frame 2 / 33, Energy=    -286.6460069400
C        1.4927213391    0.1651399390    0.3833045804
C        0.6686510425   -1.0045520427   -0.1327524169
C       -0.7705571266   -0.5629033505   -0.8471400264
C       -1.2124280690    0.0289462898    0.4180090441
C       -0.6221577681    0.9197651339   -0.4902402486
N        0.8714372215    1.2626460985   -0.5259368827
H        2.5621006819    0.3186405771    0.3942038011
H        0.7323023718   -2.0685374878   -0.1833823100
H       -0.8448476600   -0.1862261766   -1.8532105136
H       -2.2457209771    0.1721647035    0.7141546197
H       -1.0618747862    1.7475324285   -1.0428732878
C        0.2687778406   -0.1429517989    1.0694435356
H        0.1615958896   -0.6496643138    2.0964201051
13   
From optimize.out: Frame 1 / 33, Energy=    -286.5986829163
C        1.5262669548    0.1593193879    0.3969085725
C        0.6814460065   -0.9956640920   -0.1329846225
C       -0.7900886263   -0.5603606086   -0.8409311581
C       -1.2278521289    0.0151833462    0.4041764813
C       -0.6387826792    0.8865302590   -0.4750671207
N        0.8842210219    1.2385735434   -0.5171378956
H        2.5971912197    0.3037122175    0.3976579219
H        0.7224359753   -2.0513659131   -0.1985414216
H       -0.8539860885   -0.1572941830   -1.8300797679
H       -2.2645119737    0.1561460064    0.6827523119
H       -1.0661005420    1.7228465244   -1.0227242638
C        0.2856522765   -0.1108128962    1.0418764810
H        0.1441085840   -0.6068135919    2.0940944816
13   
C6H6N->C6H6N atoms 1-13 frame 173 charge -0.000 sz -1.000 sz^2 0.900
C        1.5262669548    0.1593193879    0.3969085725
C        0.6814460065   -0.9956640920   -0.1329846225
C       -0.7900886263   -0.5603606086   -0.8409311581
C       -1.2278521289    0.0151833462    0.4041764813
C       -0.6387826792    0.8865302590   -0.4750671207
N        0.8842210219    1.2385735434   -0.5171378956
H        2.5971912197    0.3037122175    0.3976579219
H        0.7224359753   -2.0513659131   -0.1985414216
H       -0.8539860885   -0.1572941830   -1.8300797679
H       -2.2645119737    0.1561460064    0.6827523119
H       -1.0661005420    1.7228465244   -1.0227242638
C        0.2856522765   -0.1108128962    1.0418764810
H        0.1441085840   -0.6068135919    2.0940944816
13   
C6H6N->C6H6N atoms 1-13 frame 174 charge +0.000 sz -1.000 sz^2 0.921
C        1.5298939844    0.1586733737    0.3868733028
C        0.6823780671   -0.9958100899   -0.1290801055
C       -0.7945356374   -0.5640287818   -0.8605164664
C       -1.2273975891    0.0115137686    0.4032313738
C       -0.6442536601    0.8704415215   -0.4865023756
N        0.8911737412    1.2426148097   -0.5238992263
H        2.6101602497    0.3072507899    0.4321457567
H        0.7064666537   -2.0452342610   -0.1994547865
H       -0.8804013055   -0.1573192024   -1.8462787607
H       -2.2700004234    0.1490754092    0.6615986902
H       -1.0628169987    1.7190686784   -0.9966920044
C        0.2821943621   -0.1060867829    1.0403372117
H        0.1771385560   -0.5901592332    2.1182373901
13   
C6H6N->C6H6N atoms 1-13 frame 175 charge -0.000 sz -1.000 sz^2 0.939
C        1.5331539187    0.1585053426    0.3763560101
C        0.6827184294   -0.9957418572   -0.1255646416
C       -0.7980282051   -0.5671342179   -0.8805996523
C       -1.2270531622    0.0087595163    0.4030470419
C       -0.6484941530    0.8568698145   -0.4981408947
N        0.8983878077    1.2473233290   -0.5298537223
H        2.6217998914    0.3097415458    0.4698257177
H        0.6931779999   -2.0414950423   -0.1992969477
H       -0.9096891286   -0.1609026854   -1.8664472699
H       -2.2748063492    0.1425213157    0.6434921485
H       -1.0608671866    1.7161013903   -0.9710365866
C        0.2779062780   -0.1029552227    1.0408442711
H        0.2117938597   -0.5715932287    2.1373745259
13   
C6H6N->C6H6N atoms 1-13 frame 176 charge -0.000 sz -1.000 sz^2 0.955
C        1.5361947732    0.1588427157    0.3654830122
C        0.6826154321   -0.9954250138   -0.1224041949
C       -0.8004745819   -0.5695750374   -0.9010117019
C       -1.2266884756    0.0068228470    0.4036630216
C       -0.6513804476    0.8458095013   -0.5098284367
N        0.9059511612    1.2527109664   -0.5348605774
H        2.6312380251    0.3110400624    0.5102866874
H        0.6828073745   -2.0405215794   -0.1980574297
H       -0.9415324658   -0.1681324971   -1.8902532374
H       -2.2787874855    0.1365577069    0.6287190923
H       -1.0606366221    1.7146386568   -0.9462640103
C        0.2729994082   -0.1014196535    1.0434424531
H        0.2476939043   -0.5513486755    2.1510853218
13   
C6H6N->C6H6N atoms 1-13 frame 177 charge -0.000 sz -1.000 sz^2 0.967
C        1.5391398829    0.1596989836    0.3543736144
C        0.6822058708   -0.9948615320   -0.1195864445
C       -0.8017964454   -0.5712352705   -0.9216374706
C       -1.2261772609    0.0056130785    0.4050639621
C       -0.6528068037    0.8372242888   -0.5214450759
N        0.9139529098    1.2587784835   -0.5388020841
H        2.6376704303    0.3109784376    0.5530128164
H        0.6755258666   -2.0423828740   -0.1957628430
H       -0.9755542597   -0.1791304543   -1.9171568451
H       -2.2818166014    0.1312604291    0.6174660925
H       -1.0624113476    1.7153150592   -0.9228268223
C        0.2676683301   -0.1014770882    1.0481028301
H        0.2843994281   -0.5297815413    2.1591982700
13   
From optimize.out: Frame 1 / 23, Energy=    -286.6031855838
C        1.5420781371    0.1610729279    0.3431344119
C        0.6816010107   -0.9940875547   -0.1171215605
C       -0.8019403201   -0.5719842547   -0.9424139941
C       -1.2254077097    0.0050554883    0.4071834731
C       -0.6526962420    0.8310624994   -0.5329117300
N        0.9224745868    1.2655144792   -0.5415901882
H        2.6404033762    0.3093770518    0.5973938756
H        0.6714342254   -2.0468417836   -0.1924755410
H       -1.0113159272   -0.1940288541   -1.9464496081
H       -2.2837918856    0.1267131750    0.6098199923
H       -1.0663429815    1.7186065233   -0.9010836908
C        0.2620780123   -0.1031175779    1.0547232533
H        0.3214257176   -0.5073421199    2.1617913066
13   
From optimize.out: Frame 2 / 23, Energy=    -286.6482004836
C        1.5053605148    0.1690723062    0.3299099958
C        0.6724358987   -1.0019987010   -0.1148633161
C       -0.7766322401   -0.5710292515   -0.9364849463
C       -1.2064430267    0.0165485209    0.4210416738
C       -0.6334842580    0.8650302838   -0.5437035488
N        0.9065795222    1.2858671514   -0.5458279461
H        2.5861096401    0.3191787326    0.5771856460
H        0.6861175358   -2.0649272097   -0.1779125074
H       -0.9887362474   -0.2208110698   -1.9485304807
H       -2.2610762991    0.1416813530    0.6441976626
H       -1.0618175701    1.7541634661   -0.9308284254
C        0.2485294901   -0.1359031527    1.0762800939
H        0.3230570397   -0.5568724293    2.1495360986
13   
From optimize.out: Frame 3 / 23, Energy=    -286.6862075464
C        1.4656568261    0.1769185605    0.3144817067
C        0.6593921917   -1.0079391648   -0.1177835518
C       -0.7499651274   -0.5702642193   -0.9272373290
C       -1.1830791182    0.0285878889    0.4312186554
C       -0.6105303051    0.8965709639   -0.5507628392
N        0.8826361292    1.2932598938   -0.5429974243
H        2.5327656954    0.3270545397    0.5588110914
H        0.6995421041   -2.0773299624   -0.1685579029
H       -0.9623007133   -0.2465958597   -1.9461647502
H       -2.2325841445    0.1581677064    0.6751307791
H       -1.0566636270    1.7798899438   -0.9535956180
C        0.2327849025   -0.1646532120    1.0932608955