13   
From optimize.out: Frame 1 / 2, Energy=    -286.8383360532
C        1.2467903328    0.2391493530    0.2452889900
C        0.5671291017   -1.1296078278   -0.2130786642
C       -0.7462328251   -0.8837993413   -0.7938688356
C       -1.0526486561    0.2204303567    0.2141082371
C       -0.4347294886    1.4776613843   -0.3838562609
N        0.8482391741    1.4593432948   -0.4109522628
H        2.2856112669    0.1481923634    0.5460922891
H        1.2042191783   -2.0016887613   -0.3225968500
H       -1.1575096410   -1.0762076433   -1.7821280533
H       -2.0596013823    0.2974853457    0.6304837076
H       -1.0062005099    2.2666915076   -0.8701299983
C        0.1476016803   -0.3534424927    1.0501550238
H        0.1573317683   -0.6642075387    2.0904826776
13   
From optimize.out: Frame 32 / 33, Energy=    -286.8383360531
C        1.2467903328    0.2391493530    0.2452889900
C        0.5671291017   -1.1296078278   -0.2130786642
C       -0.7462328251   -0.8837993413   -0.7938688356
C       -1.0526486561    0.2204303567    0.2141082371
C       -0.4347294886    1.4776613843   -0.3838562609
N        0.8482391741    1.4593432948   -0.4109522628
H        2.2856112669    0.1481923634    0.5460922891
H        1.2042191783   -2.0016887613   -0.3225968500
H       -1.1575096410   -1.0762076433   -1.7821280533
H       -2.0596013823    0.2974853457    0.6304837076
H       -1.0062005099    2.2666915076   -0.8701299983
C        0.1476016803   -0.3534424927    1.0501550238
H        0.1573317683   -0.6642075387    2.0904826776
13   
From optimize.out: Frame 30 / 33, Energy=    -286.8383108368
C        1.2519821287    0.2435371067    0.2442861069
C        0.5821584206   -1.1161228142   -0.2302000511
C       -0.7407775979   -0.8808985911   -0.8039907425
C       -1.0573971415    0.2268307076    0.2029637284
C       -0.4241219442    1.4892878611   -0.3735679183
N        0.8600079961    1.4633893484   -0.4099290157
H        2.2880088919    0.1624477542    0.5572146977
H        1.2186157299   -1.9903001312   -0.3213857153
H       -1.2051631889   -1.1506321264   -1.7486357929
H       -2.0636046599    0.3035442437    0.6197160725
H       -0.9862984526    2.2902240769   -0.8511583034
C        0.1422073519   -0.3514609410    1.0411929358
H        0.1343824659   -0.6898464946    2.0734939981
13   
From optimize.out: Frame 28 / 33, Energy=    -286.8381931996
C        1.2530588506    0.2459010035    0.2598227890
C        0.5879871839   -1.0917744083   -0.2439442052
C       -0.7229683854   -0.8315720097   -0.8282057705
C       -1.0445281043    0.2339658273    0.2177584045
C       -0.4192662424    1.5030654624   -0.3712856153
N        0.8617991544    1.4806568474   -0.3799197361
H        2.2817150709    0.1584035259    0.5948893554
H        1.1972893969   -1.9843873408   -0.3572508355
H       -1.2449704739   -1.2084966635   -1.6981703389
H       -2.0646964713    0.3057656284    0.6003130382
H       -0.9858805740    2.2671532718   -0.9009991396
C        0.1386763182   -0.3636287029    1.0408353906
H        0.1617842763   -0.7150524414    2.0661566634
13   
From optimize.out: Frame 25 / 33, Energy=    -286.8374456494
C        1.2537079840    0.2458316811    0.2777558924
C        0.5899939225   -1.0733827162   -0.2388411662
C       -0.7076365710   -0.7639905657   -0.8347165868
C       -1.0439192866    0.2243620194    0.2544901000
C       -0.4192419903    1.4628722620   -0.4074079914
N        0.8541829296    1.4744693283   -0.3719446114
H        2.2782260503    0.1633789807    0.6254810023
H        1.1757996350   -1.9784614707   -0.3942745970
H       -1.2386187206   -1.1495889945   -1.6933281055
H       -2.0597987997    0.3323800189    0.6313119892
H       -1.0037809992    2.1829883872   -0.9749164280
C        0.1379064878   -0.3837491109    1.0539258339
H        0.1831793582   -0.7371098197    2.0724646686
13   
From optimize.out: Frame 22 / 33, Energy=    -286.8328680989
C        1.2550426663    0.2448259476    0.2823914531
C        0.5899672681   -1.0626311571   -0.2322698930
C       -0.6971858356   -0.7028312318   -0.8375680247
C       -1.0506892922    0.2154146920    0.2923252946
C       -0.4175055256    1.4071201162   -0.4445778762
N        0.8388947668    1.4583257441   -0.3758555829
H        2.2784687545    0.1745182415    0.6358028198
H        1.1577253181   -1.9753148847   -0.4065634241
H       -1.2156173228   -1.0600655870   -1.7156571920
H       -2.0585922168    0.3391782020    0.6815852029
H       -1.0079622313    2.1029514027   -1.0329072358
C        0.1385718922   -0.3959199386    1.0677704097
H        0.1888817582   -0.7455715469    2.0855240486
13   
From optimize.out: Frame 20 / 33, Energy=    -286.8236048051
C        1.2731768823    0.2428235114    0.2918917183
C        0.5961737647   -1.0533355634   -0.2242797641
C       -0.6921419192   -0.6452691102   -0.8554240230
C       -1.0679538134    0.2092779393    0.3230332899
C       -0.4292648154    1.3436585530   -0.4820732230
N        0.8585396254    1.4457124793   -0.3773514907
H        2.2946354632    0.1781880625    0.6518832621
H        1.1498036891   -1.9661541340   -0.4140569244
H       -1.2242792564   -0.9703717667   -1.7402935425
H       -2.0727213312    0.3368092094    0.7221788900
H       -1.0243219330    2.0256153690   -1.0846981903
C        0.1425393785   -0.3993951860    1.0816506732
H        0.1958142655   -0.7475593636    2.1075393246
13   
From optimize.out: Frame 18 / 33, Energy=    -286.8164537288
C        1.2801857426    0.2367130253    0.2990861970
C        0.5969764236   -1.0418419378   -0.2176652887
C       -0.6864780732   -0.5742521240   -0.8563751563
C       -1.0762809101    0.1997374091    0.3436980982
C       -0.4411808138    1.2868083181   -0.5159927343
N        0.8672426454    1.4236701500   -0.3889514786
H        2.3006958816    0.1728400322    0.6621066194
H        1.1445942029   -1.9557142071   -0.4190732478
H       -1.2151823975   -0.8757124593   -1.7506895342
H       -2.0748965419    0.3218687196    0.7583752239
H       -1.0384568488    1.9533779028   -1.1301300926
C        0.1464615038   -0.4027524640    1.0937191515
H        0.1963191853   -0.7447423648    2.1218922425
13   
From optimize.out: Frame 16 / 33, Energy=    -286.8150871207
C        1.2897097361    0.2380043169    0.2921783137
C        0.5987698215   -1.0360191365   -0.2081898741
C       -0.6970280450   -0.5689199058   -0.8440614429
C       -1.0842534189    0.1944943747    0.3656010744
C       -0.4549385382    1.2420661248   -0.5408885172
N        0.8613425101    1.4136331328   -0.4031670046
H        2.3123849379    0.1911293945    0.6511480590
H        1.1089705344   -1.9792973495   -0.3674082411
H       -1.1644616921   -0.7593878531   -1.8014275693
H       -2.0739329331    0.3293878509    0.7973415816
H       -1.0618115383    1.8993952191   -1.1548839395
C        0.1543683996   -0.3937145417    1.0994013055
H        0.2108802260   -0.7707716270    2.1143562544
13   
From optimize.out: Frame 14 / 33, Energy=    -286.8126848691
C        1.2974486921    0.2401214682    0.2856826392
C        0.6024175712   -1.0300382529   -0.2029670764
C       -0.7059185524   -0.5712228864   -0.8363745548
C       -1.0891922211    0.1905208170    0.3839132313
C       -0.4686404656    1.2059887527   -0.5560406300
N        0.8527199371    1.4025275338   -0.4253825525
H        2.3272963462    0.2153199638    0.6251096981
H        1.0589142580   -2.0092595962   -0.2923447120
H       -1.1023368306   -0.6550053323   -1.8411052931
H       -2.0752838156    0.3350327088    0.8206317777
H       -1.0861449149    1.8621917782   -1.1604239177
C        0.1632121591   -0.3772274968    1.1038439245
H        0.2255078366   -0.8089494581    2.0954574658
13   
From optimize.out: Frame 12 / 33, Energy=    -286.8080125167
C        1.3058675910    0.2390140012    0.2838867289
C        0.6063666668   -1.0261961782   -0.1973071989
C       -0.7102016923   -0.5729611985   -0.8355101215
C       -1.0940172825    0.1817121653    0.4010756451
C       -0.4849156794    1.1709315357   -0.5622334909
N        0.8430113214    1.3862569579   -0.4516342346
H        2.3476886150    0.2444957227    0.5841314171
H        0.9927544286   -2.0388747333   -0.2169572110
H       -1.0302068248   -0.5620529550   -1.8713952509
H       -2.0822783877    0.3310834402    0.8307655946
H       -1.1040842792    1.8393117219   -1.1514978418
C        0.1733178393   -0.3540166431    1.1102201227
H        0.2366976838   -0.8387038367    2.0764558411
13   
From optimize.out: Frame 9 / 33, Energy=    -286.7938333979
C        1.3189457802    0.2301086248    0.2883807521
C        0.6095636069   -1.0257862701   -0.1870712207
C       -0.7103219257   -0.5733128885   -0.8399016591
C       -1.1020505505    0.1622922458    0.4168366313
C       -0.5043798338    1.1314817990   -0.5593477432
N        0.8329280103    1.3627190014   -0.4768608270
H        2.3743238640    0.2814089377    0.5292961323
H        0.9173917502   -2.0647073786   -0.1615490046
H       -0.9543332800   -0.4747976083   -1.8921103568
H       -2.0966820381    0.3149953464    0.8293756034
H       -1.1082205803    1.8262909787   -1.1341799449
C        0.1841228843   -0.3251504433    1.1190638037
H        0.2387123124   -0.8455423451    2.0680678333
13   
From optimize.out: Frame 7 / 33, Energy=    -286.7748796055
C        1.3409412167    0.2130498037    0.3009725404
C        0.6140719805   -1.0266044009   -0.1722590649
C       -0.7100123137   -0.5726342434   -0.8461981448
C       -1.1161099946    0.1310190709    0.4290978486
C       -0.5260002432    1.0847123405   -0.5484164955
N        0.8245831272    1.3337831998   -0.4967487849
H        2.4056599653    0.3209864692    0.4684880140
H        0.8465788230   -2.0839366663   -0.1380678303
H       -0.8886815215   -0.3902856013   -1.9000349722
H       -2.1197489398    0.2867248907    0.8162991407
H       -1.0955378101    1.8162277595   -1.1135570529
C        0.1959659121   -0.2899209839    1.1267397118
H        0.2282897981   -0.8231216384    2.0736850898
13   
From optimize.out: Frame 5 / 33, Energy=    -286.7416889334
C        1.3755234020    0.1941613921    0.3220493469
C        0.6241215474   -1.0237262414   -0.1560778882
C       -0.7156450772   -0.5707659240   -0.8508271849
C       -1.1382462904    0.0925882071    0.4356177035
C       -0.5511184268    1.0312032261   -0.5315073656
N        0.8228680376    1.3058312049   -0.5123658357
H        2.4432333298    0.3431503834    0.4185692788
H        0.7912440681   -2.0916925315   -0.1426664701
H       -0.8454326024   -0.3103938121   -1.8945059261
H       -2.1520531288    0.2477496886    0.7931783124
H       -1.0738564004    1.8016471783   -1.0914484834
C        0.2112861013   -0.2459162678    1.1248856066
H        0.2080754397   -0.7738365038    2.0850989058
13   
From optimize.out: Frame 3 / 33, Energy=    -286.6854870044
C        1.4247141175    0.1782469305    0.3498200444
C        0.6416966631   -1.0157090043   -0.1425615637
C       -0.7337022006   -0.5678804669   -0.8515032611
C       -1.1696857017    0.0570498751    0.4336006758
C       -0.5822893773    0.9766514832   -0.5119043864
N        0.8379057549    1.2846077815   -0.5236103257
H        2.4929537186    0.3395525448    0.3942631848
H        0.7547811637   -2.0861441587   -0.1608607476
H       -0.8313859601   -0.2435154726   -1.8788332906
H       -2.1933216923    0.2070033990    0.7618346540
H       -1.0595592211    1.7793017320   -1.0684991741
C        0.2334090019   -0.1966448623    1.1067626532
H        0.1844837335   -0.7125197813    2.0914915369
13   
From optimize.out: Frame 1 / 33, Energy=    -286.5986829163
C        1.4834449972    0.1667244560    0.3788892336
C        0.6648976316   -1.0060701358   -0.1338379183
C       -0.7652046424   -0.5636670251   -0.8479198539
C       -1.2067192788    0.0322536177    0.4205559364
C       -0.6168205774    0.9271872431   -0.4930545928
N        0.8668580400    1.2658415545   -0.5260966661
H        2.5526254956    0.3217083907    0.3935707943
H        0.7347879555   -2.0712188064   -0.1803642965
H       -0.8423420235   -0.1934378858   -1.8569378539
H       -2.2387916890    0.1763066775    0.7209888928
H       -1.0610068214    1.7519579218   -1.0462096100
C        0.2637713945   -0.1499744841    1.0748384277
H        0.1644995182   -0.6576115241    2.0955775069
13   
C6H6N->C6H6N atoms 1-13 frame 174 charge +0.000 sz -1.000 sz^2 0.921
C        1.5277592504    0.1590535935    0.3927796874
C        0.6818294910   -0.9957241610   -0.1313781582
C       -0.7919182929   -0.5618698322   -0.8489892860
C       -1.2276651142    0.0136735448    0.4037876288
C       -0.6410336453    0.8799107511   -0.4797720120
N        0.8870816305    1.2402362714   -0.5199197598
H        2.6025271634    0.3051681184    0.4118475062
H        0.7158655995   -2.0488431222   -0.1989172140
H       -0.8648542961   -0.1573044769   -1.8367446390
H       -2.2667701271    0.1532368984    0.6740489212
H       -1.0647495696    1.7212921773   -1.0120136193
C        0.2842295613   -0.1088683966    1.0412431681
H        0.1576983491   -0.5999613662    2.1040277765
13   
C6H6N->C6H6N atoms 1-13 frame 176 charge -0.000 sz -1.000 sz^2 0.955
C        1.5351223196    0.1587237304    0.3693177193
C        0.6826517573   -0.9955367587   -0.1235188265
C       -0.7996117896   -0.5687142051   -0.8938127461
C       -1.2268170939    0.0075058748    0.4034457768
C       -0.6503625044    0.8497102711   -0.5057064548
N        0.9032837050    1.2508108455   -0.5330947514
H        2.6279093683    0.3105820994    0.4960168449
H        0.6864649040   -2.0408649019   -0.1984945850
H       -0.9303019043   -0.1655826750   -1.8818573089
H       -2.2773834117    0.1386609624    0.6339292785
H       -1.0607179380    1.7151545361   -0.9550008440
C        0.2747299712   -0.1019612206    1.0425261219
H        0.2350326165   -0.5584885584    2.1462497753
13   
From optimize.out: Frame 2 / 23, Energy=    -286.6482004836
C        1.5415236097    0.1608136277    0.3452555510
C        0.6817151641   -0.9942336250   -0.1175867502
C       -0.8019131671   -0.5718429012   -0.9384929066
C       -1.2255529447    0.0051607205    0.4067834645
C       -0.6527171080    0.8322253944   -0.5307476647
N        0.9208663177    1.2642432160   -0.5410639981
H        2.6398875960    0.3096792763    0.5890179787
H        0.6722064279   -2.0460002676   -0.1930959431
H       -1.0045667408   -0.1912171262   -1.9409212776
H       -2.2834190965    0.1275713639    0.6112630166
H       -1.0656009767    1.7179853357   -0.9051872033
C        0.2631330553   -0.1028079735    1.0534738018
H        0.3144378631   -0.5115770409    2.1613019310
13   
From optimize.out: Frame 4 / 23, Energy=    -286.7168793349
C        1.4956204222    0.1709971461    0.3261251343
C        0.6692360218   -1.0034560131   -0.1155797071
C       -0.7700902749   -0.5708415742   -0.9342163246
C       -1.2007114022    0.0195020137    0.4235382868
C       -0.6278532037    0.8727678305   -0.5454353310
N        0.9007057389    1.2876807360   -0.5451335636
H        2.5730233255    0.3211108223    0.5726780078
H        0.6894108454   -2.0679698479   -0.1756176396
H       -0.9822510931   -0.2271365839   -1.9479501207
H       -2.2540866154    0.1457257785    0.6517861620
H       -1.0605532069    1.7604746751   -0.9364136637
C        0.2446670343   -0.1429561054    1.0804458172
H        0.3228824082   -0.5658988776    2.1457729424
13   
From optimize.out: Frame 6 / 23, Energy=    -286.7601188850
C        1.4395694762    0.1832626501    0.3042566032
C        0.6503164054   -1.0120754366   -0.1218306988
C       -0.7340648509   -0.5689282155   -0.9192054649
C       -1.1680940324    0.0404144771    0.4355946308
C       -0.5948924898    0.9201656805   -0.5561138789
N        0.8654138326    1.2971920384   -0.5384726829
H        2.5006892065    0.3313893204    0.5492683860
H        0.7113920167   -2.0842741439   -0.1635245109
H       -0.9467249066   -0.2675304752   -1.9435921818
H       -2.2136508155    0.1736500118    0.6939298279
H       -1.0561916636    1.7954542874   -0.9708048523
C        0.2234303571   -0.1860160103    1.1036768882
H        0.3228074643   -0.6227041843    2.1268179344
13   
From optimize.out: Frame 8 / 23, Energy=    -286.7862627147
C        1.3904084245    0.1984441432    0.2855203399
C        0.6327199641   -1.0199111054   -0.1349026322
C       -0.7086806452   -0.5640483350   -0.8991288679
C       -1.1409150668    0.0731886016    0.4392863152
C       -0.5634845622    0.9750816053   -0.5680410383
N        0.8390102060    1.3101816432   -0.5241969008
H        2.4419467290    0.3332634547    0.5408124673
H        0.7464676017   -2.0940518201   -0.1557596311
H       -0.9262238834   -0.3244554160   -1.9363236507
H       -2.1768350529    0.2135809586    0.7314186690
H       -1.0652035120    1.8228915732   -1.0102705811
C        0.2072853477   -0.2342099038    1.1195407260
H        0.3235044494   -0.6899553995    2.1120447847
13   
From optimize.out: Frame 10 / 23, Energy=    -286.8016925110
C        1.3546362975    0.2146011651    0.2747003549
C        0.6198533427   -1.0234525513   -0.1545996872
C       -0.6978598241   -0.5548144561   -0.8774184001
C       -1.1211301344    0.1134258180    0.4355866461
C       -0.5361271737    1.0322563442   -0.5800188389
N        0.8342397763    1.3330996377   -0.5033977657
H        2.3989470758    0.3176918917    0.5548250613
H        0.7999836625   -2.0917284482   -0.1582829765
H       -0.9337452066   -0.4000564144   -1.9250369249
H       -2.1451399023    0.2570099979    0.7674073982
H       -1.0867593458    1.8371386639   -1.0524531276
C        0.1951995372   -0.2812776477    1.1229418817
H        0.3179018948   -0.7538940008    2.0957463786
13   
From optimize.out: Frame 12 / 23, Energy=    -286.8109479957
C        1.3319941839    0.2288386307    0.2739029590
C        0.6124955986   -1.0214592435   -0.1765921067
C       -0.6970820267   -0.5399134574   -0.8608201682
C       -1.1079335694    0.1506872044    0.4270550719
C       -0.5115539859    1.0811909872   -0.5900886423
N        0.8427377681    1.3606829815   -0.4762513989
H        2.3692611839    0.2874377481    0.5849883971
H        0.8701737803   -2.0746614649   -0.1814997266
H       -0.9733252242   -0.4848124457   -1.9077140430
H       -2.1184256986    0.2928949775    0.8001045425
H       -1.1044335871    1.8367327835   -1.0944384901
C        0.1846666642   -0.3203977265    1.1172352519
H        0.3014249130   -0.7972209745    2.0841183534
13   
From optimize.out: Frame 15 / 23, Energy=    -286.8197272793
C        1.3189641699    0.2392170935    0.2817275707
C        0.6082982508   -1.0160534944   -0.1941998699
C       -0.6964172928   -0.5188178332   -0.8543205304
C       -1.1009693127    0.1767841908    0.4166569137
C       -0.4907157432    1.1147811756   -0.5981979796
N        0.8552670908    1.3862683534   -0.4419626474
H        2.3494223710    0.2539043817    0.6188777985
H        0.9466475436   -2.0454068090   -0.2300545189
H       -1.0375712362   -0.5695156387   -1.8815189796
H       -2.0981241512    0.3167502913    0.8255780746
H       -1.1056123786    1.8283822491   -1.1358071157
C        0.1745549222   -0.3512523715    1.1097246151
H        0.2762557664   -0.8150415885    2.0834966688
13   
From optimize.out: Frame 17 / 23, Energy=    -286.8235590170
C        1.3120979311    0.2460228684    0.2950799065
C        0.6039799818   -1.0098969089   -0.2049425495
C       -0.6888817291   -0.4866487239   -0.8608900630
C       -1.0988907195    0.1913915923    0.4071987258
C       -0.4751000802    1.1302580761   -0.6083528577
N        0.8681774953    1.4072739962   -0.4027241858
H        2.3366122526    0.2243902166    0.6507071693
H        1.0154615146   -2.0083565957   -0.2964524760
H       -1.1116931878   -0.6528798399   -1.8440363865
H       -2.0845783795    0.3290049136    0.8434088077
H       -1.0912609660    1.8198873485   -1.1738812155
C        0.1650703341   -0.3763025822    1.1035062223
H        0.2490055525   -0.8141443608    2.0913789024
13   
From optimize.out: Frame 19 / 23, Energy=    -286.8249003977
C        1.3081153133    0.2509973473    0.3126167425
C        0.5970843113   -1.0042929634   -0.2108466417
C       -0.6720737391   -0.4362528618   -0.8821204300
C       -1.0988597975    0.1981250702    0.4016362392
C       -0.4633309468    1.1249938053   -0.6285465055
N        0.8806651518    1.4224546822   -0.3635617873
H        2.3275817948    0.2018681368    0.6806742461
H        1.0669290150   -1.9676985607   -0.3697042592
H       -1.1812644168   -0.7366965368   -1.7896544649
H       -2.0773499820    0.3344918092    0.8519828888
H       -1.0704119256    1.8157244976   -1.2018672602
C        0.1558688624   -0.3977339273    1.0985652635
H        0.2270463592   -0.8059804987    2.1008259688
13   
From optimize.out: Frame 21 / 23, Energy=    -286.8249791841
C        1.3035349115    0.2523066102    0.3291060060
C        0.5913190029   -1.0055985115   -0.2087984477
C       -0.6517611496   -0.3983700877   -0.9062857724
C       -1.0960336310    0.1940264597    0.4023153426
C       -0.4550144255    1.1112153377   -0.6552227711
N        0.8877986525    1.4248347785   -0.3426448046
H        2.3209426189    0.1918218841    0.6997751194
H        1.0959359131   -1.9394821022   -0.4294483782
H       -1.2322645499   -0.8069703200   -1.7257967944
H       -2.0887632482    0.3397693960    0.8132460567
H       -1.0540937113    1.8412841126   -1.1880377433
C        0.1477433481   -0.4135200186    1.0993477139
H        0.2306562686   -0.7913175388    2.1124444732
13   
From optimize.out: Frame 1 / 3, Energy=    -286.8249802177
C        1.3035349115    0.2523066102    0.3291060060
C        0.5913190029   -1.0055985115   -0.2087984477
C       -0.6517611496   -0.3983700877   -0.9062857724
C       -1.0960336310    0.1940264597    0.4023153426
C       -0.4550144255    1.1112153377   -0.6552227711
N        0.8877986525    1.4248347785   -0.3426448046
H        2.3209426189    0.1918218841    0.6997751194
H        1.0959359131   -1.9394821022   -0.4294483782
H       -1.2322645499   -0.8069703200   -1.7257967944
H       -2.0887632482    0.3397693960    0.8132460567
H       -1.0540937113    1.8412841126   -1.1880377433
C        0.1477433481   -0.4135200186    1.0993477139
H        0.2306562686   -0.7913175388    2.1124444732
13   
From optimize.out: Frame 2 / 3, Energy=    -286.8249843035
C        1.3034546361    0.2523792074    0.3288982450
C        0.5916208169   -1.0050615106   -0.2092733159
C       -0.6521746658   -0.3977619576   -0.9052004810
C       -1.0959615426    0.1946255814    0.4034628598
C       -0.4551047710    1.1111037542   -0.6554759130
N        0.8876507590    1.4247890291   -0.3428919214
H        2.3207843931    0.1923823779    0.6997398880
H        1.0948072486   -1.9399707229   -0.4291213193
H       -1.2305206661   -0.8066343762   -1.7260998326
H       -2.0890181747    0.3400189988    0.8137148189
H       -1.0542314864    1.8406678575   -1.1890933672
C        0.1477966174   -0.4136884767    1.0994451576
H        0.2308968352   -0.7928497623    2.1118951812
