
Running Job 1 of 1 optimize.in
qchem optimize.in_36734.0 ./optimize.d/ 1
/home/leeping/opt/qchem/5.0.2-openmp/exe/qcprog.exe_s optimize.in_36734.0 ./optimize.d/
Check license passed

                  Welcome to Q-Chem
     A Quantum Leap Into The Future Of Chemistry


 Q-Chem 5.0, Q-Chem, Inc., Pleasanton, CA (2017)

 Yihan Shao,  Zhengting Gan,  E. Epifanovsky,  A. T. B. Gilbert,  M. Wormit,  
 J. Kussmann,  A. W. Lange,  A. Behn,  Jia Deng,  Xintian Feng,  D. Ghosh,  
 M. Goldey,  P. R. Horn,  L. D. Jacobson,  I. Kaliman,  T. Kus,  A. Landau,  
 Jie Liu,  E. I. Proynov,  R. M. Richard,  R. P. Steele,  E. J. Sundstrom,  
 H. L. Woodcock III,  P. M. Zimmerman,  D. Zuev,  B. Albrecht,  E. Alguire,  
 S. A. Baeppler,  D. Barton,  Z. Benda,  Y. A. Bernard,  E. J. Berquist,  
 K. B. Bravaya,  H. Burton,  D. Casanova,  Chun-Min Chang,  Yunqing Chen,  
 A. Chien,  K. D. Closser,  M. P. Coons,  S. Dasgupta,  A. L. Dempwolff,  
 M. Diedenhofen,  Hainam Do,  R. G. Edgar,  Po-Tung Fang,  S. Fatehi,  
 Qingguo Feng,  J. Fosso-Tande,  Qinghui Ge,  A. Ghysels,  G. Gidofalvi,  
 J. Gomes,  J. Gonthier,  A. Gunina,  M. W. D. Hanson-Heine,  
 P. H. P. Harbach,  A. W. Hauser,  J. E. Herr,  E. G. Hohenstein,  
 Z. C. Holden,  Kerwin Hui,  T.-C. Jagau,  Hyunjun Ji,  B. Kaduk,  
 K. Khistyaev,  Jaehoon Kim,  P. Klunzinger,  K. Koh,  D. Kosenkov,  
 L. Koulias,  T. Kowalczyk,  C. M. Krauter,  A. Kunitsa,  Ka Un Lao,  
 A. Laurent,  K. V. Lawler,  Joonho Lee,  D. Lefrancois,  S. Lehtola,  
 D. S. Levine,  Yi-Pei Li,  You-Sheng Lin,  Fenglai Liu,  E. Livshits,  
 A. Luenser,  P. Manohar,  E. Mansoor,  S. F. Manzer,  Shan-Ping Mao,  
 Yuezhi Mao,  N. Mardirossian,  A. V. Marenich,  T. Markovich,  
 L. A. Martinez-Martinez,  S. A. Maurer,  N. J. Mayhall,  S. C. McKenzie,  
 J.-M. Mewes,  A. F. Morrison,  J. W. Mullinax,  K. Nanda,  
 T. S. Nguyen-Beck,  R. Olivares-Amaya,  J. A. Parkhill,  T. M. Perrine,  
 F. Plasser,  S. Prager,  A. Prociuk,  E. Ramos,  D. R. Rehn,  F. Rob,  
 M. Schneider,  N. Sergueev,  S. M. Sharada,  S. Sharma,  D. W. Small,  
 T. Stauch,  T. Stein,  Yu-Chuan Su,  A. J. W. Thom,  A. Tkatchenko,  
 T. Tsuchimochi,  L. Vogt,  O. Vydrov,  M. A. Watson,  J. Wenzel,  
 M. de Wergifosse,  T. A. Wesolowski,  A. White,  J. Witte,  A. Yamada,  
 Jun Yang,  K. Yao,  S. Yeganeh,  S. R. Yost,  Zhi-Qiang You,  A. Zech,  
 Igor Ying Zhang,  Xing Zhang,  Yan Zhao,  Ying Zhu,  B. R. Brooks,  
 G. K. L. Chan,  C. J. Cramer,  M. S. Gordon,  W. J. Hehre,  A. Klamt,  
 M. W. Schmidt,  C. D. Sherrill,  D. G. Truhlar,  A. Aspuru-Guzik,  R. Baer,  
 A. T. Bell,  N. A. Besley,  Jeng-Da Chai,  R. A. DiStasio Jr.,  A. Dreuw,  
 B. D. Dunietz,  T. R. Furlani,  Chao-Ping Hsu,  Yousung Jung,  Jing Kong,  
 D. S. Lambrecht,  WanZhen Liang,  C. Ochsenfeld,  V. A. Rassolov,  
 L. V. Slipchenko,  J. E. Subotnik,  T. Van Voorhis,  J. M. Herbert,  
 A. I. Krylov,  P. M. W. Gill,  M. Head-Gordon

 Contributors to earlier versions of Q-Chem not listed above: 
 R. D. Adamson,  B. Austin,  J. Baker,  G. J. O. Beran,  K. Brandhorst,  
 S. T. Brown,  E. F. C. Byrd,  A. K. Chakraborty,  C.-L. Cheng,  
 Siu Hung Chien,  D. M. Chipman,  D. L. Crittenden,  H. Dachsel,  
 R. J. Doerksen,  A. D. Dutoi,  L. Fusti-Molnar,  W. A. Goddard III,  
 A. Golubeva-Zadorozhnaya,  S. R. Gwaltney,  G. Hawkins,  A. Heyden,  
 S. Hirata,  G. Kedziora,  F. J. Keil,  C. Kelley,  Jihan Kim,  R. A. King,  
 R. Z. Khaliullin,  P. P. Korambath,  W. Kurlancheek,  A. M. Lee,  M. S. Lee,  
 S. V. Levchenko,  Ching Yeh Lin,  D. Liotard,  R. C. Lochan,  I. Lotan,  
 P. E. Maslen,  N. Nair,  D. P. O'Neill,  D. Neuhauser,  E. Neuscamman,  
 C. M. Oana,  R. Olson,  B. Peters,  R. Peverati,  P. A. Pieniazek,  
 Y. M. Rhee,  J. Ritchie,  M. A. Rohrdanz,  E. Rosta,  N. J. Russ,  
 H. F. Schaefer III,  N. E. Schultz,  N. Shenvi,  A. C. Simmonett,  A. Sodt,  
 D. Stuck,  K. S. Thanthiriwatte,  V. Vanovschi,  Tao Wang,  A. Warshel,  
 C. F. Williams,  Q. Wu,  X. Xu,  W. Zhang

 Please cite Q-Chem as follows:
 Y. Shao et al., Mol. Phys. 113, 184-215 (2015)
 DOI: 10.1080/00268976.2014.952696

 Q-Chem 5.0.2 for Intel X86 EM64T Linux

 Parts of Q-Chem use Armadillo 5.200.1 (Boston Tea Smuggler).
 http://arma.sourceforge.net/

 Q-Chem begins on Tue Mar  1 16:18:20 2022  

Host: 
0

     Scratch files written to ./optimize.d//
 Dec517 15110_ 26548  26544 5633   
Processing $rem in /home/leeping/opt/qchem/5.0.2-openmp/config/preferences.
 MEM_STATIC 2000
 MEM_TOTAL  8000
 SYMMETRY   OFF
 SYM_IGNORE TRUE 

Checking the input file for inconsistencies... 	...done.

--------------------------------------------------------------
User input:
--------------------------------------------------------------
$molecule
0 2
C        1.1401006700    0.1754594708    0.4451856889
C        0.8123354904   -1.0251546123   -0.4554534135
C       -0.5151182147   -1.0057123693   -0.6587281972
C       -1.0649680133    0.2080973500    0.1171049735
C       -0.3889347317    1.4433667314   -0.5130601822
N        0.8759507581    1.4475767414   -0.3465700902
H        2.1248965745    0.1903984484    0.9097901079
H        1.5411237209   -1.7185386434   -0.8605346292
H       -1.1119168936   -1.6729215791   -1.2710693614
H       -2.1425460325    0.2491666144    0.2763487898
H       -0.9097481773    2.2254832354   -1.0629243891
C       -0.1107148966    0.1065284331    1.3121973442
H       -0.2504602542   -0.6237498208    2.1077133583
$end

$rem
method                b3lyp
basis                 6-31g(d)
unrestricted          true
symmetry              off
sym_ignore            true
incdft                false
incfock               0
scf_convergence       8
thresh                14
jobtype               opt
scf_guess             read
scf_algorithm         diis
max_scf_cycles        100
geom_opt_tol_gradient 600
geom_opt_tol_displacement 2400
geom_opt_tol_energy   200
geom_opt_max_cycles   100
$end

--------------------------------------------------------------
 ----------------------------------------------------------------
             Standard Nuclear Orientation (Angstroms)
    I     Atom           X                Y                Z
 ----------------------------------------------------------------
    1      C       1.1401006700     0.1754594708     0.4451856889
    2      C       0.8123354904    -1.0251546123    -0.4554534135
    3      C      -0.5151182147    -1.0057123693    -0.6587281972
    4      C      -1.0649680133     0.2080973500     0.1171049735
    5      C      -0.3889347317     1.4433667314    -0.5130601822
    6      N       0.8759507581     1.4475767414    -0.3465700902
    7      H       2.1248965745     0.1903984484     0.9097901079
    8      H       1.5411237209    -1.7185386434    -0.8605346292
    9      H      -1.1119168936    -1.6729215791    -1.2710693614
   10      H      -2.1425460325     0.2491666144     0.2763487898
   11      H      -0.9097481773     2.2254832354    -1.0629243891
   12      C      -0.1107148966     0.1065284331     1.3121973442
   13      H      -0.2504602542    -0.6237498208     2.1077133583
 ----------------------------------------------------------------
 Nuclear Repulsion Energy =   279.1026941377 hartrees
 There are       25 alpha and       24 beta electrons
 Requested basis set is 6-31G(d)
 There are 40 shells and 117 basis functions

 Total QAlloc Memory Limit   8000 MB
 Mega-Array Size      1956 MB
 MEM_STATIC part      2000 MB
 A cutoff of  1.0D-14 yielded    814 shell pairs
 There are      7086 function pairs
 
 -------------------------------------------------------
 OpenMP Integral Computing Module                       
 Release: version 1.0, May 2013, Q-Chem Inc. Pittsburgh 
 -------------------------------------------------------
 Integral Job Info:
 Integral job number is                      11
 Integral operator is                         1
 short-range coefficients                     0
 long-range coefficients              100000000
 Omega coefficients                           0
 if combine SR and LR in K                    0
 Integral screening is                        0
 Integral computing path is                   2
 max size of driver memory is            800000
 size of driver memory is                593474
 size of scratch memory is              2361544
 max col of scratch BK array               1296
 max len of scratch array in speh3          155
 max len of scratch index in speh4           18
 max int batch size is                      520
 min int batch size is                       52
 fixed nKL is                                52
 max L of basis functions is                  2
 order of int derivative is                   0
 number of shells is                         40
 number of basis is                         117
 number of cartesian basis is               117
 number of contracted shell pairs           814
 number of primitive shell pairs           3589
 maxK2 (contraction) of shell pair           36
 max number of K2 of shell pair               1
 max number of CS2 of shell pair             85
 max number of PS2 of shell pair            390
 mem total for path MDJ                  535308
 -------------------------------------------------------
 Smallest overlap matrix eigenvalue = 1.11E-03

 Scale SEOQF with 1.000000e-01/1.000000e-01/1.000000e-01

 Standard Electronic Orientation quadrupole field applied
 Nucleus-field energy     =     0.0000000022 hartrees
 Guess MOs from SCF MO coefficient file
 Reading MOs from coefficient file
 Reading MOs from coefficient file
 An unrestricted hybrid HF-DFT SCF calculation will be
 performed using Pulay DIIS extrapolation
 Exchange:     0.2000 Hartree-Fock + 0.0800 Slater + 0.7200 B88
 Correlation:  0.1900 VWN1RPA + 0.8100 LYP
 Using SG-1 standard quadrature grid
 SCF converges when DIIS error is below 1.0E-08
Using Q-Chem read-in guess as SCF_GUESS READ specified.

 using 4 threads for integral computing
 -------------------------------------------------------
 OpenMP Integral computing Module                
 Release: version 1.0, May 2013, Q-Chem Inc. Pittsburgh 
 -------------------------------------------------------
 -------------------------------------------------------
 OpenMP BLAS3 based DFT computing Module                
 Release: version 1.0, May 2013, Q-Chem Inc. Pittsburgh 
 -------------------------------------------------------
 ---------------------------------------
  Cycle       Energy         DIIS Error
 ---------------------------------------
    1    -286.8516599220      3.18E-10
    2    -286.8516599220      6.54E-10 Convergence criterion met
 ---------------------------------------
 <S^2> = 0.7537
 SCF time:  CPU 5.41 s  wall 3.38 s
 SCF   energy in the final basis set = -286.85165992
 Total energy in the final basis set = -286.85165992
 
 --------------------------------------------------------------
 
                    Orbital Energies (a.u.)
 --------------------------------------------------------------
 
 Alpha MOs
 -- Occupied --
-14.322 -10.224 -10.220 -10.210 -10.204 -10.201 -10.197  -0.952
 -0.821  -0.726  -0.705  -0.579  -0.573  -0.531  -0.512  -0.472
 -0.418  -0.410  -0.381  -0.373  -0.348  -0.294  -0.271  -0.258
 -0.196
 -- Virtual --
 -0.021   0.029   0.103   0.140   0.150   0.154   0.159   0.163
  0.172   0.210   0.215   0.255   0.288   0.322   0.346   0.366
  0.495   0.510   0.532   0.540   0.570   0.599   0.606   0.622
  0.635   0.641   0.655   0.690   0.700   0.728   0.779   0.791
  0.799   0.817   0.825   0.846   0.858   0.876   0.891   0.940
  0.965   1.005   1.059   1.092   1.201   1.264   1.334   1.339
  1.395   1.406   1.487   1.510   1.563   1.611   1.659   1.725
  1.784   1.796   1.827   1.891   1.954   1.986   2.000   2.048
  2.097   2.138   2.172   2.208   2.235   2.276   2.315   2.335
  2.425   2.476   2.515   2.532   2.548   2.618   2.629   2.645
  2.722   2.835   2.856   2.904   2.939   3.922   4.187   4.267
  4.279   4.396   4.543   4.678
 
 Beta MOs
 -- Occupied --
-14.321 -10.224 -10.221 -10.210 -10.200 -10.196 -10.190  -0.949
 -0.815  -0.725  -0.690  -0.577  -0.561  -0.527  -0.509  -0.463
 -0.414  -0.406  -0.379  -0.369  -0.342  -0.287  -0.261  -0.255
 -- Virtual --
 -0.045  -0.016   0.031   0.105   0.143   0.153   0.158   0.160
  0.166   0.176   0.216   0.223   0.267   0.290   0.324   0.348
  0.369   0.497   0.529   0.540   0.544   0.577   0.604   0.611
  0.624   0.641   0.658   0.662   0.693   0.708   0.742   0.782
  0.793   0.810   0.819   0.827   0.848   0.860   0.879   0.894
  0.942   0.973   1.013   1.060   1.099   1.204   1.265   1.338
  1.345   1.400   1.411   1.489   1.513   1.578   1.619   1.665
  1.728   1.793   1.799   1.837   1.910   1.966   1.998   2.003
  2.054   2.119   2.144   2.178   2.224   2.249   2.281   2.318
  2.338   2.428   2.493   2.517   2.541   2.553   2.630   2.636
  2.648   2.729   2.837   2.859   2.906   2.942   3.923   4.190
  4.269   4.306   4.399   4.549   4.679
 --------------------------------------------------------------
 
          Ground-State Mulliken Net Atomic Charges

     Atom                 Charge (a.u.)    Spin (a.u.)
  --------------------------------------------------------
      1 C                    -0.094738      -0.044966
      2 C                    -0.087863       0.040173
      3 C                    -0.095792       0.079334
      4 C                    -0.246322      -0.043892
      5 C                     0.092297      -0.008788
      6 N                    -0.325196       0.021879
      7 H                     0.139811       0.003025
      8 H                     0.146097       0.000889
      9 H                     0.145525       0.000346
     10 H                     0.133903       0.002855
     11 H                     0.149662      -0.000174
     12 C                    -0.096242       0.975800
     13 H                     0.138856      -0.026481
  --------------------------------------------------------
  Sum of atomic charges =    -0.000000
  Sum of spin   charges =     1.000000

 -----------------------------------------------------------------
                    Cartesian Multipole Moments
 -----------------------------------------------------------------
    Charge (ESU x 10^10)
                -0.0000
    Dipole Moment (Debye)
         X      -1.5127      Y      -1.8303      Z      -0.0233
       Tot       2.3746
    Quadrupole Moments (Debye-Ang)
        XX     -38.4672     XY      -4.0880     YY     -42.3593
        XZ       2.0838     YZ       0.2912     ZZ     -40.6553
    Octopole Moments (Debye-Ang^2)
       XXX     -11.5326    XXY     -11.3469    XYY     -11.0098
       YYY     -23.7941    XXZ       1.3404    XYZ       3.1782
       YYZ      -3.5366    XZZ      -4.7669    YZZ      -9.6260
       ZZZ       1.6352
    Hexadecapole Moments (Debye-Ang^3)
      XXXX    -218.6295   XXXY      -8.8855   XXYY     -88.3538
      XYYY     -18.6166   YYYY    -292.6197   XXXZ      -0.9461
      XXYZ       4.3503   XYYZ       4.1391   YYYZ      -0.5223
      XXZZ     -65.5879   XYZZ      -1.1562   YYZZ     -72.8841
      XZZZ      -2.5907   YZZZ      -7.0701   ZZZZ    -173.3391
 -----------------------------------------------------------------
 Calculating analytic gradient of the SCF energy
 Gradient of SCF Energy
            1           2           3           4           5           6
    1  -0.0000683   0.0001831  -0.0000689  -0.0002192   0.0003001  -0.0001708
    2  -0.0003920  -0.0000046   0.0001677  -0.0001695   0.0000425   0.0001670
    3  -0.0004099   0.0002233  -0.0000688   0.0001557  -0.0001610  -0.0000258
            7           8           9          10          11          12
    1  -0.0000268  -0.0000549   0.0000661  -0.0000026  -0.0000267   0.0002649
    2   0.0000773  -0.0000241   0.0000064   0.0000490   0.0000215   0.0000987
    3   0.0000116  -0.0000080  -0.0000457  -0.0000530   0.0000751   0.0002776
           13
    1  -0.0001759
    2  -0.0000399
    3   0.0000293
 Max gradient component =       4.099E-04
 RMS gradient           =       1.555E-04
 Gradient time:  CPU 7.76 s  wall 4.54 s
 Geometry Optimization Parameters
   NAtoms,    NIC,     NZ,  NCons,   NDum,   NFix, NCnnct, MaxDiis
       13     104       0       0       0       0       0       0


** GEOMETRY OPTIMIZATION IN DELOCALIZED INTERNAL COORDINATES **
   Searching for a Minimum

   Optimization Cycle:   1

                       Coordinates (Angstroms)
     ATOM                X               Y               Z
      1  C         1.1401006700    0.1754594708    0.4451856889
      2  C         0.8123354904   -1.0251546123   -0.4554534135
      3  C        -0.5151182147   -1.0057123693   -0.6587281972
      4  C        -1.0649680133    0.2080973500    0.1171049735
      5  C        -0.3889347317    1.4433667314   -0.5130601822
      6  N         0.8759507581    1.4475767414   -0.3465700902
      7  H         2.1248965745    0.1903984484    0.9097901079
      8  H         1.5411237209   -1.7185386434   -0.8605346292
      9  H        -1.1119168936   -1.6729215791   -1.2710693614
     10  H        -2.1425460325    0.2491666144    0.2763487898
     11  H        -0.9097481773    2.2254832354   -1.0629243891
     12  C        -0.1107148966    0.1065284331    1.3121973442
     13  H        -0.2504602542   -0.6237498208    2.1077133583
   Point Group: c1    Number of degrees of freedom:    33


   Energy is   -286.851659922


 Attempting to Generate Delocalized Internal Coordinates

 33 Hessian modes will be used to form the next step
  Hessian Eigenvalues:
     0.009873    0.010801    0.012028    0.014568    0.016786    0.021807
     0.046730    0.047517    0.055613    0.062847    0.065849    0.081567
     0.108034    0.130888    0.141965    0.159746    0.159880    0.159958
     0.185992    0.252999    0.253632    0.263190    0.268546    0.284089
     0.293521    0.348063    0.349294    0.349413    0.349614    0.354474
     0.354635    0.507069    0.664987

 Minimum Search - Taking Simple RFO Step
 Searching for Lamda that Minimizes Along All modes
 Value Taken    Lamda =  -0.00000331
 Step Taken.  Stepsize is  0.011534

                             Maximum     Tolerance    Cnvgd?
         Gradient           0.000219      0.000600     YES
         Displacement       0.005746      0.002400      NO
         Energy change     *********      0.000002      NO


 New Cartesian Coordinates Obtained by Inverse Iteration

 Displacement from previous Coordinates is:  0.010158
 ----------------------------------------------------------------
             Standard Nuclear Orientation (Angstroms)
    I     Atom           X                Y                Z
 ----------------------------------------------------------------
    1      C       1.1399857244     0.1759164277     0.4459604371
    2      C       0.8122131836    -1.0238800590    -0.4565487859
    3      C      -0.5155151954    -1.0061632553    -0.6579902619
    4      C      -1.0650185475     0.2083482994     0.1167869314
    5      C      -0.3886563450     1.4435821147    -0.5127491371
    6      N       0.8762660432     1.4479148589    -0.3455061286
    7      H       2.1247283763     0.1896748817     0.9107828980
    8      H       1.5413262868    -1.7167447235    -0.8620024084
    9      H      -1.1129743001    -1.6740815464    -1.2689571215
   10      H      -2.1425452818     0.2493860349     0.2764065945
   11      H      -0.9086143233     2.2246103179    -1.0649825279
   12      C      -0.1112970403     0.1061087960     1.3118457043
   13      H      -0.2498985810    -0.6246721469     2.1069538058
 ----------------------------------------------------------------
 Nuclear Repulsion Energy =   279.1142602889 hartrees
 There are       25 alpha and       24 beta electrons
 Applying Cartesian multipole field
    Component          Value
    ---------          -----
     (2,0,0)        1.00000E-11
     (0,2,0)        2.00000E-11
     (0,0,2)       -3.00000E-11
 Nucleus-field energy     =     0.0000000022 hartrees
 Requested basis set is 6-31G(d)
 There are 40 shells and 117 basis functions
 A cutoff of  1.0D-14 yielded    814 shell pairs
 There are      7086 function pairs
 Smallest overlap matrix eigenvalue = 1.11E-03
 Guess MOs from SCF MO coefficient file
 Reading MOs from coefficient file
 Reading MOs from coefficient file
 An unrestricted hybrid HF-DFT SCF calculation will be
 performed using Pulay DIIS extrapolation
 Exchange:     0.2000 Hartree-Fock + 0.0800 Slater + 0.7200 B88
 Correlation:  0.1900 VWN1RPA + 0.8100 LYP
 Using SG-1 standard quadrature grid
 SCF converges when DIIS error is below 1.0E-08
 Geometry optimization detected.  Setting ReadMinima to 0
 Setting SaveMinima to 0
Using Q-Chem read-in guess as SCF_GUESS READ specified.

 using 4 threads for integral computing
 -------------------------------------------------------
 OpenMP Integral computing Module                
 Release: version 1.0, May 2013, Q-Chem Inc. Pittsburgh 
 -------------------------------------------------------
 -------------------------------------------------------
 OpenMP BLAS3 based DFT computing Module                
 Release: version 1.0, May 2013, Q-Chem Inc. Pittsburgh 
 -------------------------------------------------------
 ---------------------------------------
  Cycle       Energy         DIIS Error
 ---------------------------------------
    1    -286.8516845889      5.80E-05
    2    -286.8516609816      9.21E-06
    3    -286.8516608358      1.38E-05
    4    -286.8516611684      2.85E-06
    5    -286.8516611808      1.25E-06
    6    -286.8516611834      5.05E-07
    7    -286.8516611840      1.83E-07
    8    -286.8516611841      3.83E-08
    9    -286.8516611842      2.27E-08
   10    -286.8516611842      9.10E-09 Convergence criterion met
 ---------------------------------------
 <S^2> = 0.7537
 SCF time:  CPU 26.63 s  wall 15.03 s
 SCF   energy in the final basis set = -286.85166118
 Total energy in the final basis set = -286.85166118
 
 --------------------------------------------------------------
 
                    Orbital Energies (a.u.)
 --------------------------------------------------------------
 
 Alpha MOs
 -- Occupied --
-14.322 -10.224 -10.220 -10.210 -10.204 -10.201 -10.197  -0.952
 -0.821  -0.726  -0.705  -0.579  -0.573  -0.531  -0.512  -0.472
 -0.418  -0.410  -0.381  -0.373  -0.348  -0.294  -0.271  -0.258
 -0.196
 -- Virtual --
 -0.021   0.029   0.103   0.140   0.150   0.154   0.159   0.163
  0.172   0.210   0.215   0.255   0.288   0.322   0.346   0.366
  0.495   0.510   0.532   0.540   0.570   0.599   0.606   0.622
  0.635   0.641   0.655   0.690   0.700   0.729   0.779   0.791
  0.799   0.817   0.825   0.846   0.858   0.876   0.891   0.940
  0.965   1.005   1.059   1.092   1.201   1.263   1.334   1.339
  1.396   1.406   1.487   1.510   1.563   1.611   1.659   1.725
  1.784   1.796   1.827   1.891   1.954   1.986   2.000   2.048
  2.097   2.138   2.172   2.208   2.234   2.276   2.315   2.335
  2.425   2.476   2.515   2.532   2.548   2.618   2.629   2.645
  2.722   2.835   2.856   2.904   2.939   3.922   4.187   4.267
  4.279   4.396   4.543   4.678
 
 Beta MOs
 -- Occupied --
-14.321 -10.224 -10.221 -10.210 -10.200 -10.196 -10.190  -0.949
 -0.815  -0.725  -0.690  -0.577  -0.561  -0.527  -0.509  -0.463
 -0.414  -0.406  -0.379  -0.369  -0.342  -0.287  -0.261  -0.255
 -- Virtual --
 -0.045  -0.016   0.031   0.105   0.143   0.153   0.158   0.160
  0.166   0.176   0.216   0.223   0.267   0.290   0.324   0.349
  0.369   0.497   0.529   0.540   0.544   0.577   0.604   0.611
  0.624   0.641   0.658   0.662   0.693   0.708   0.742   0.782
  0.793   0.810   0.819   0.827   0.848   0.860   0.879   0.894
  0.942   0.973   1.013   1.060   1.099   1.204   1.265   1.338
  1.345   1.401   1.410   1.489   1.513   1.578   1.619   1.665
  1.728   1.793   1.799   1.837   1.910   1.966   1.998   2.003
  2.054   2.119   2.144   2.179   2.224   2.249   2.281   2.318
  2.339   2.428   2.493   2.517   2.541   2.554   2.630   2.636
  2.648   2.729   2.837   2.859   2.906   2.942   3.923   4.190
  4.269   4.307   4.399   4.549   4.679
 --------------------------------------------------------------
 
          Ground-State Mulliken Net Atomic Charges

     Atom                 Charge (a.u.)    Spin (a.u.)
  --------------------------------------------------------
      1 C                    -0.094615      -0.045004
      2 C                    -0.088099       0.040664
      3 C                    -0.095656       0.079023
      4 C                    -0.246327      -0.043854
      5 C                     0.092239      -0.008758
      6 N                    -0.325140       0.021816
      7 H                     0.139810       0.003022
      8 H                     0.146097       0.000858
      9 H                     0.145561       0.000370
     10 H                     0.133933       0.002869
     11 H                     0.149652      -0.000178
     12 C                    -0.096257       0.975683
     13 H                     0.138803      -0.026512
  --------------------------------------------------------
  Sum of atomic charges =    -0.000000
  Sum of spin   charges =     1.000000

 -----------------------------------------------------------------
                    Cartesian Multipole Moments
 -----------------------------------------------------------------
    Charge (ESU x 10^10)
                 0.0000
    Dipole Moment (Debye)
         X      -1.5115      Y      -1.8323      Z      -0.0253
       Tot       2.3754
    Quadrupole Moments (Debye-Ang)
        XX     -38.4661     XY      -4.0830     YY     -42.3626
        XZ       2.0847     YZ       0.2856     ZZ     -40.6555
    Octopole Moments (Debye-Ang^2)
       XXX     -11.5235    XXY     -11.3660    XYY     -11.0148
       YYY     -23.8326    XXZ       1.3342    XYZ       3.1761
       YYZ      -3.5456    XZZ      -4.7506    YZZ      -9.6222
       ZZZ       1.6120
    Hexadecapole Moments (Debye-Ang^3)
      XXXX    -218.6399   XXXY      -8.9398   XXYY     -88.3687
      XYYY     -18.6367   YYYY    -292.6525   XXXZ      -0.9456
      XXYZ       4.3489   XYYZ       4.1399   YYYZ      -0.5497
      XXZZ     -65.5745   XYZZ      -1.1859   YYZZ     -72.8568
      XZZZ      -2.5824   YZZZ      -7.1037   ZZZZ    -173.3173
 -----------------------------------------------------------------
 Calculating analytic gradient of the SCF energy
 Gradient of SCF Energy
            1           2           3           4           5           6
    1   0.0000330   0.0000718  -0.0001533  -0.0000722   0.0001486  -0.0000250
    2  -0.0002783   0.0002317  -0.0000431  -0.0000854   0.0000618   0.0000797
    3  -0.0000583  -0.0000268   0.0001720  -0.0000765   0.0000323   0.0000053
            7           8           9          10          11          12
    1   0.0000054  -0.0000337  -0.0000003   0.0000041   0.0000057   0.0000698
    2   0.0000321  -0.0000119  -0.0000098   0.0000146  -0.0000137   0.0000212
    3   0.0000105  -0.0000233  -0.0000086  -0.0000180  -0.0000261   0.0000231
           13
    1  -0.0000539
    2   0.0000012
    3  -0.0000056
 Max gradient component =       2.783E-04
 RMS gradient           =       8.199E-05
 Gradient time:  CPU 7.55 s  wall 2.16 s
 Geometry Optimization Parameters
   NAtoms,    NIC,     NZ,  NCons,   NDum,   NFix, NCnnct, MaxDiis
       13     104       0       0       0       0       0       0

 Cartesian Hessian Update
 Hessian Updated using BFGS Update


** GEOMETRY OPTIMIZATION IN DELOCALIZED INTERNAL COORDINATES **
   Searching for a Minimum

   Optimization Cycle:   2

                       Coordinates (Angstroms)
     ATOM                X               Y               Z
      1  C         1.1399857244    0.1759164277    0.4459604371
      2  C         0.8122131836   -1.0238800590   -0.4565487859
      3  C        -0.5155151954   -1.0061632553   -0.6579902619
      4  C        -1.0650185475    0.2083482994    0.1167869314
      5  C        -0.3886563450    1.4435821147   -0.5127491371
      6  N         0.8762660432    1.4479148589   -0.3455061286
      7  H         2.1247283763    0.1896748817    0.9107828980
      8  H         1.5413262868   -1.7167447235   -0.8620024084
      9  H        -1.1129743001   -1.6740815464   -1.2689571215
     10  H        -2.1425452818    0.2493860349    0.2764065945
     11  H        -0.9086143233    2.2246103179   -1.0649825279
     12  C        -0.1112970403    0.1061087960    1.3118457043
     13  H        -0.2498985810   -0.6246721469    2.1069538058
   Point Group: c1    Number of degrees of freedom:    33


   Energy is   -286.851661184

 Hessian Updated using BFGS Update

 33 Hessian modes will be used to form the next step
  Hessian Eigenvalues:
     0.009429    0.010711    0.014444    0.015253    0.017336    0.029632
     0.041561    0.048012    0.055431    0.059483    0.064789    0.079451
     0.106990    0.132965    0.139531    0.156194    0.159910    0.159952
     0.189280    0.244274    0.253428    0.260995    0.266860    0.281408
     0.292142    0.348060    0.349210    0.349441    0.349658    0.354569
     0.354600    0.504312    0.661237

 Minimum Search - Taking Simple RFO Step
 Searching for Lamda that Minimizes Along All modes
 Value Taken    Lamda =  -0.00000114
 Step Taken.  Stepsize is  0.006112

                             Maximum     Tolerance    Cnvgd?
         Gradient           0.000142      0.000600     YES
         Displacement       0.003189      0.002400      NO
         Energy change     -0.000001      0.000002     YES


                       Distance Matrix (Angstroms)
             C (  1)   C (  2)   C (  3)   C (  4)   C (  5)   N (  6)
   C (  2)  1.536707
   C (  3)  2.314455  1.343040
   C (  4)  2.229675  2.317563  1.541840
   C (  5)  2.205186  2.744743  2.457324  1.542590
   N (  6)  1.521166  2.475117  2.838521  2.349218  1.275938
   H (  7)  1.089021  2.250557  3.295749  3.287136  3.148941  2.172576
   H (  8)  2.335382  1.084463  2.185668  3.384826  3.719473  3.274774
   H (  9)  3.382198  2.188405  1.084598  2.337975  3.288816  3.815324
   H ( 10)  3.287728  3.299853  2.257593  1.090058  2.263846  3.307033
   H ( 11)  3.267546  3.726141  3.279949  2.342297  1.088725  2.075259
   C ( 12)  1.523266  2.292807  2.297998  1.532385  2.279234  2.350008
   H ( 13)  2.309030  2.803390  2.803748  2.306319  3.340625  3.402708
             H (  7)   H (  8)   H (  9)   H ( 10)   H ( 11)   C ( 12)
   H (  8)  2.667876
   H (  9)  4.325225  2.685655
   H ( 10)  4.314583  4.328112  2.673554
   H ( 11)  4.152804  4.645179  3.909369  2.687642
   C ( 12)  2.273245  3.283226  3.291349  2.284433  3.282236
   H ( 13)  2.780798  3.635356  3.639084  2.774345  4.314336  1.088783

 
 Final energy is   -286.851661184222     


 ******************************
 **  OPTIMIZATION CONVERGED  **
 ******************************

                       Coordinates (Angstroms)
     ATOM                X               Y               Z
      1  C         1.1399857244    0.1759164277    0.4459604371
      2  C         0.8122131836   -1.0238800590   -0.4565487859
      3  C        -0.5155151954   -1.0061632553   -0.6579902619
      4  C        -1.0650185475    0.2083482994    0.1167869314
      5  C        -0.3886563450    1.4435821147   -0.5127491371
      6  N         0.8762660432    1.4479148589   -0.3455061286
      7  H         2.1247283763    0.1896748817    0.9107828980
      8  H         1.5413262868   -1.7167447235   -0.8620024084
      9  H        -1.1129743001   -1.6740815464   -1.2689571215
     10  H        -2.1425452818    0.2493860349    0.2764065945
     11  H        -0.9086143233    2.2246103179   -1.0649825279
     12  C        -0.1112970403    0.1061087960    1.3118457043
     13  H        -0.2498985810   -0.6246721469    2.1069538058

Z-matrix Print:
$molecule
0 2
N 
C  1 1.275938
H  2 1.088725 1 122.514282
C  1 1.521166 2 103.723046 3 -179.030355 0
H  4 1.089021 1 111.609597 2 -163.295548 0
C  4 1.523266 1 101.050263 2 -34.530125 0
H  6 1.088783 4 123.397547 1 -173.205919 0
C  6 1.532385 4 93.720199 1 53.548768 0
H  8 1.090058 6 120.234241 4 -176.843216 0
C  4 1.536707 1 108.078339 2 66.739391 0
H  10 1.084463 4 125.099640 1 110.930719 0
C  10 1.343040 4 106.777334 1 -67.382174 0
H  12 1.084598 10 128.385158 4 177.727576 0
$end

 
 --------------------------------------------------------------
 
                    Orbital Energies (a.u.)
 --------------------------------------------------------------
 
 Alpha MOs
 -- Occupied --
-14.322 -10.224 -10.220 -10.210 -10.204 -10.201 -10.197  -0.952
 -0.821  -0.726  -0.705  -0.579  -0.573  -0.531  -0.512  -0.472
 -0.418  -0.410  -0.381  -0.373  -0.348  -0.294  -0.271  -0.258
 -0.196
 -- Virtual --
 -0.021   0.029   0.103   0.140   0.150   0.154   0.159   0.163
  0.172   0.210   0.215   0.255   0.288   0.322   0.346   0.366
  0.495   0.510   0.532   0.540   0.570   0.599   0.606   0.622
  0.635   0.641   0.655   0.690   0.700   0.729   0.779   0.791
  0.799   0.817   0.825   0.846   0.858   0.876   0.891   0.940
  0.965   1.005   1.059   1.092   1.201   1.263   1.334   1.339
  1.396   1.406   1.487   1.510   1.563   1.611   1.659   1.725
  1.784   1.796   1.827   1.891   1.954   1.986   2.000   2.048
  2.097   2.138   2.172   2.208   2.234   2.276   2.315   2.335
  2.425   2.476   2.515   2.532   2.548   2.618   2.629   2.645
  2.722   2.835   2.856   2.904   2.939   3.922   4.187   4.267
  4.279   4.396   4.543   4.678
 
 Beta MOs
 -- Occupied --
-14.321 -10.224 -10.221 -10.210 -10.200 -10.196 -10.190  -0.949
 -0.815  -0.725  -0.690  -0.577  -0.561  -0.527  -0.509  -0.463
 -0.414  -0.406  -0.379  -0.369  -0.342  -0.287  -0.261  -0.255
 -- Virtual --
 -0.045  -0.016   0.031   0.105   0.143   0.153   0.158   0.160
  0.166   0.176   0.216   0.223   0.267   0.290   0.324   0.349
  0.369   0.497   0.529   0.540   0.544   0.577   0.604   0.611
  0.624   0.641   0.658   0.662   0.693   0.708   0.742   0.782
  0.793   0.810   0.819   0.827   0.848   0.860   0.879   0.894
  0.942   0.973   1.013   1.060   1.099   1.204   1.265   1.338
  1.345   1.401   1.410   1.489   1.513   1.578   1.619   1.665
  1.728   1.793   1.799   1.837   1.910   1.966   1.998   2.003
  2.054   2.119   2.144   2.179   2.224   2.249   2.281   2.318
  2.339   2.428   2.493   2.517   2.541   2.554   2.630   2.636
  2.648   2.729   2.837   2.859   2.906   2.942   3.923   4.190
  4.269   4.307   4.399   4.549   4.679
 --------------------------------------------------------------
 
          Ground-State Mulliken Net Atomic Charges

     Atom                 Charge (a.u.)    Spin (a.u.)
  --------------------------------------------------------
      1 C                    -0.094615      -0.045004
      2 C                    -0.088099       0.040664
      3 C                    -0.095656       0.079023
      4 C                    -0.246327      -0.043854
      5 C                     0.092239      -0.008758
      6 N                    -0.325140       0.021816
      7 H                     0.139810       0.003022
      8 H                     0.146097       0.000858
      9 H                     0.145561       0.000370
     10 H                     0.133933       0.002869
     11 H                     0.149652      -0.000178
     12 C                    -0.096257       0.975683
     13 H                     0.138803      -0.026512
  --------------------------------------------------------
  Sum of atomic charges =    -0.000000
  Sum of spin   charges =     1.000000

 -----------------------------------------------------------------
                    Cartesian Multipole Moments
 -----------------------------------------------------------------
    Charge (ESU x 10^10)
                 0.0000
    Dipole Moment (Debye)
         X      -1.5115      Y      -1.8323      Z      -0.0253
       Tot       2.3754
    Quadrupole Moments (Debye-Ang)
        XX     -38.4661     XY      -4.0830     YY     -42.3626
        XZ       2.0847     YZ       0.2856     ZZ     -40.6555
    Octopole Moments (Debye-Ang^2)
       XXX     -11.5235    XXY     -11.3660    XYY     -11.0148
       YYY     -23.8326    XXZ       1.3342    XYZ       3.1761
       YYZ      -3.5456    XZZ      -4.7506    YZZ      -9.6222
       ZZZ       1.6120
    Hexadecapole Moments (Debye-Ang^3)
      XXXX    -218.6399   XXXY      -8.9398   XXYY     -88.3687
      XYYY     -18.6367   YYYY    -292.6525   XXXZ      -0.9456
      XXYZ       4.3489   XYYZ       4.1399   YYYZ      -0.5497
      XXZZ     -65.5745   XYZZ      -1.1859   YYZZ     -72.8568
      XZZZ      -2.5824   YZZZ      -7.1037   ZZZZ    -173.3173
 -----------------------------------------------------------------
Archival summary:
1\1\c8-89\OPT\ProcedureUnspecified\6-31G*\166(2)\hpark21\TueMar116:19:032022TueMar116:19:032022\0\\#,OPT,ProcedureUnspecified,6-31G*,\\0,2\N\C,1,1.27594\H,2,1.08873,1,122.514\C,1,1.52117,2,103.723,3,-179.03,0\H,4,1.08902,1,111.61,2,-163.296,0\C,4,1.52327,1,101.05,2,-34.5301,0\H,6,1.08878,4,123.398,1,-173.206,0\C,6,1.53238,4,93.7202,1,53.5488,0\H,8,1.09006,6,120.234,4,-176.843,0\C,4,1.53671,1,108.078,2,66.7394,0\H,10,1.08446,4,125.1,1,110.931,0\C,10,1.34304,4,106.777,1,-67.3822,0\H,12,1.0846,10,128.385,4,177.728,0\\\@

 Total job time:  42.83s(wall), 51.16s(cpu) 
 Tue Mar  1 16:19:03 2022

        *************************************************************
        *                                                           *
        *  Thank you very much for using Q-Chem.  Have a nice day.  *
        *                                                           *
        *************************************************************


