13   
From optimize.out: Frame 1 / 2, Energy=    -286.8516599220
C        1.1401006700    0.1754594708    0.4451856889
C        0.8123354904   -1.0251546123   -0.4554534135
C       -0.5151182147   -1.0057123693   -0.6587281972
C       -1.0649680133    0.2080973500    0.1171049735
C       -0.3889347317    1.4433667314   -0.5130601822
N        0.8759507581    1.4475767414   -0.3465700902
H        2.1248965745    0.1903984484    0.9097901079
H        1.5411237209   -1.7185386434   -0.8605346292
H       -1.1119168936   -1.6729215791   -1.2710693614
H       -2.1425460325    0.2491666144    0.2763487898
H       -0.9097481773    2.2254832354   -1.0629243891
C       -0.1107148966    0.1065284331    1.3121973442
H       -0.2504602542   -0.6237498208    2.1077133583
