13   
From optimize.out: Frame 1 / 2, Energy=    -286.8516599220
C       -0.0947380000   -0.0449660000    0.0000000000
C       -0.0878630000    0.0401730000   -0.0000000000
C       -0.0957920000    0.0793340000   -0.0000000000
C       -0.2463220000   -0.0438920000    0.0000000000
C        0.0922970000   -0.0087880000   -0.0000000000
N       -0.3251960000    0.0218790000   -0.0000000000
H        0.1398110000    0.0030250000    0.0000000000
H        0.1460970000    0.0008890000   -0.0000000000
H        0.1455250000    0.0003460000   -0.0000000000
H        0.1339030000    0.0028550000    0.0000000000
H        0.1496620000   -0.0001740000   -0.0000000000
C       -0.0962420000    0.9758000000    0.0000000000
H        0.1388560000   -0.0264810000    0.0000000000
