13   
From qcts2.out: Frame 3 / 3, Energy=    -286.8141289545
C        1.3588858744    0.4026973838    0.2302127494
C        0.8176575867   -0.9163592135   -0.2372796693
C       -0.5203073405   -0.8730587150   -0.8939603429
C       -1.0709599221    0.3220226415   -0.0451330559
C       -0.4019970795    1.5921127636   -0.3986174033
N        0.8892008847    1.6146440491   -0.1967769774
H        2.2603702660    0.3696593027    0.8338443234
H        1.4339165669   -1.8078828305   -0.2000628012
H       -1.0789757095   -1.8079948537   -0.9265624954
H       -2.1413930723    0.3370867623    0.1482472932
H       -0.9191360082    2.4416035643   -0.8340543119
C       -0.1543048692   -0.5268119355    0.8426392403
H       -0.4729571775   -1.1477189185    1.6775034504
13   
From qcts2.out: Frame 3 / 3, Energy=    -286.8141289545
C        1.3588858744    0.4026973838    0.2302127494
C        0.8176575867   -0.9163592135   -0.2372796693
C       -0.5203073405   -0.8730587150   -0.8939603429
C       -1.0709599221    0.3220226415   -0.0451330559
C       -0.4019970795    1.5921127636   -0.3986174033
N        0.8892008847    1.6146440491   -0.1967769774
H        2.2603702660    0.3696593027    0.8338443234
H        1.4339165669   -1.8078828305   -0.2000628012
H       -1.0789757095   -1.8079948537   -0.9265624954
H       -2.1413930723    0.3370867623    0.1482472932
H       -0.9191360082    2.4416035643   -0.8340543119
C       -0.1543048692   -0.5268119355    0.8426392403
H       -0.4729571775   -1.1477189185    1.6775034504
