13   
Frame  90 IRC: Energy =  -286.8971465980 ; -7.3353 kcal/mol
C        1.4676687242    0.5452840102   -0.6727566149
C       -0.2250796822   -1.1343038639    0.0537042683
C       -1.4650669209   -1.0693263399    0.6457468959
C       -1.7706319697    0.3120927109    0.8583157717
C       -0.7057250004    1.0424611563    0.3870540444
N        0.2428849616    0.1588279203   -0.1066472551
H        1.6090285550    1.6288999340   -0.6873860143
H        0.3695567280   -1.9747181366   -0.2703478386
H       -2.0866687747   -1.9163412881    0.9008662691
H       -2.6675105475    0.7175185915    1.3051629390
H       -0.5316783418    2.1081201048    0.3556225955
C        2.3971812730   -0.2589237913   -1.1532965085
H        3.3660409954   -0.1595910082   -1.6160385524
13   
Frame  90 IRC: Energy =  -286.8971465980 ; -7.3353 kcal/mol
C        1.4676687242    0.5452840102   -0.6727566149
C       -0.2250796822   -1.1343038639    0.0537042683
C       -1.4650669209   -1.0693263399    0.6457468959
C       -1.7706319697    0.3120927109    0.8583157717
C       -0.7057250004    1.0424611563    0.3870540444
N        0.2428849616    0.1588279203   -0.1066472551
H        1.6090285550    1.6288999340   -0.6873860143
H        0.3695567280   -1.9747181366   -0.2703478386
H       -2.0866687747   -1.9163412881    0.9008662691
H       -2.6675105475    0.7175185915    1.3051629390
H       -0.5316783418    2.1081201048    0.3556225955
C        2.3971812730   -0.2589237913   -1.1532965085
H        3.3660409954   -0.1595910082   -1.6160385524
