13   
Frame   0 IRC: Energy =  -286.8952366243 ; +0.0000 kcal/mol
C        0.9683724428    0.5027640436   -1.4234286779
C       -1.1135232367   -0.5112183895   -0.5624863437
C       -1.6461675913   -0.8031520969    0.6709417690
C       -0.6948296408   -0.3854688777    1.6533533516
C        0.3842361800    0.1468484056    0.9857085519
N        0.1310098147    0.0713524697   -0.3726949692
H        0.5356705251    0.3161123568   -2.4050507236
H       -1.5015729335   -0.6612208381   -1.5593076784
H       -2.6072594189   -1.2633784466    0.8523186341
H       -0.7930967599   -0.4684747737    2.7268430292
H        1.3064338740    0.5687295286    1.3544570466
C        2.1519877637    1.0747873978   -1.3211720827
H        2.8787389808    1.4123192209   -0.5994819073
13   
Frame   1 IRC: Energy =  -286.8952359256 ; +0.0004 kcal/mol
C        0.9682513696    0.5030170642   -1.4231840306
C       -1.1139206557   -0.5111566129   -0.5624056803
C       -1.6462701819   -0.8034518075    0.6710313896
C       -0.6949224292   -0.3855906774    1.6533772529
C        0.3837884819    0.1472635167    0.9856206130
N        0.1305092203    0.0719688016   -0.3727472503
H        0.5357255749    0.3174935567   -2.4051212073
H       -1.5016591437   -0.6615748844   -1.5592695935
H       -2.6070544224   -1.2642823201    0.8525488509
H       -0.7929536229   -0.4687381023    2.7268654253
H        1.3057442814    0.5698086934    1.3542260853
C        2.1527979626    1.0730816104   -1.3206883840
H        2.8799635652    1.4121611615   -0.6002534709
13   
Frame   2 IRC: Energy =  -286.8952320702 ; +0.0029 kcal/mol
C        0.9666078187    0.5060713354   -1.4215960360
C       -1.1136471475   -0.5111856638   -0.5623288529
C       -1.6454729366   -0.8060312274    0.6705772712
C       -0.6959048365   -0.3856234119    1.6537972611
C        0.3814942342    0.1507128699    0.9869479181
N        0.1292502523    0.0754977447   -0.3715706137
H        0.5309383409    0.3267233196   -2.4035961189
H       -1.4993527186   -0.6641358010   -1.5595981387
H       -2.6046796965   -1.2703464381    0.8513622331
H       -0.7943189451   -0.4690891607    2.7272175205
H        1.3012982989    0.5771798331    1.3566639579
C        2.1556748253    1.0666263098   -1.3219201092
H        2.8881125104    1.4036002903   -0.6059562925
13   
Frame   3 IRC: Energy =  -286.8952202914 ; +0.0102 kcal/mol
C        0.9647576622    0.5108089513   -1.4190287881
C       -1.1116362308   -0.5118677530   -0.5619352033
C       -1.6444641314   -0.8096692942    0.6696929256
C       -0.6979252058   -0.3862963610    1.6546448604
C        0.3785255881    0.1545117844    0.9899140994
N        0.1287690196    0.0797105908   -0.3690687202
H        0.5222283336    0.3386822797   -2.3993793682
H       -1.4943690313   -0.6674986090   -1.5599198281
H       -2.6024167850   -1.2772280412    0.8486008278
H       -0.7983401723   -0.4695836279    2.7279125266
H        1.2948171556    0.5861372703    1.3622991135
C        2.1596212533    1.0600340678   -1.3265510380
H        2.9004325440    1.3922587419   -0.6171814075
13   
Frame   4 IRC: Energy =  -286.8951772981 ; +0.0372 kcal/mol
C        0.9561265199    0.5297588425   -1.4191725281
C       -1.1055949836   -0.5211221319   -0.5624898067
C       -1.6331966739   -0.8299214556    0.6688858328
C       -0.6995765701   -0.3810282315    1.6544247100
C        0.3660537040    0.1821721834    0.9905292361
N        0.1211458632    0.0964854819   -0.3687598838
H        0.4836530514    0.4202343361   -2.3941721140
H       -1.4816698959   -0.6910211214   -1.5606896309
H       -2.5814865834   -1.3171406185    0.8469055799
H       -0.8030393829   -0.4594159870    2.7277870689
H        1.2679314777    0.6426177705    1.3633436334
C        2.1738071969    1.0274487211   -1.3293610204
H        2.9358462767    1.3009322104   -0.6172310772
13   
Frame   5 IRC: Energy =  -286.8949706810 ; +0.1669 kcal/mol
C        0.9356954168    0.5782935119   -1.4234050359
C       -1.0924225962   -0.5453595486   -0.5642587558
C       -1.6097486447   -0.8646889023    0.6696009546
C       -0.6972981435   -0.3712408688    1.6529140548
C        0.3451548816    0.2316442726    0.9861523235
N        0.1023825149    0.1303763063   -0.3729241565
H        0.4323626842    0.5720876174   -2.3886586345
H       -1.4590084353   -0.7400040834   -1.5614544901
H       -2.5414632731   -1.3826947971    0.8497422925
H       -0.8048078930   -0.4374477231    2.7267703659
H        1.2199394000    0.7452131654    1.3539423483
C        2.1917545869    0.9690526903   -1.3268271105
H        2.9774595015    1.1147683594   -0.6015941562
13   
Frame   6 IRC: Energy =  -286.8945593504 ; +0.4250 kcal/mol
C        0.9222490503    0.6150350215   -1.4284741430
C       -1.0813339235   -0.5635298070   -0.5658383603
C       -1.5827270492   -0.8997182076    0.6710799098
C       -0.6941082924   -0.3600589733    1.6513658092
C        0.3222789451    0.2822122527    0.9801409296
N        0.0848175163    0.1604267771   -0.3787056948
H        0.3981524738    0.7311717277   -2.3755526467
H       -1.4395902877   -0.7792456182   -1.5616742228
H       -2.4943723972   -1.4516464746    0.8544023411
H       -0.8050774296   -0.4144790401    2.7255873613
H        1.1675979626    0.8474421503    1.3413117619
C        2.2044557219    0.9072855024   -1.3231344586
H        2.9976577096    0.9251046891   -0.5905085868
13   
Frame   7 IRC: Energy =  -286.8939265049 ; +0.8221 kcal/mol
C        0.9052155672    0.6622880609   -1.4271536222
C       -1.0651079612   -0.5795104087   -0.5679258756
C       -1.5574575054   -0.9245340777    0.6708359342
C       -0.6924725928   -0.3464274863    1.6498896959
C        0.2981892225    0.3326267709    0.9764491577
N        0.0628334350    0.2025771181   -0.3820004332
H        0.3762012250    0.8868484398   -2.3519794813
H       -1.4048002022   -0.8253765049   -1.5633582408
H       -2.4424785982   -1.5174494444    0.8556010152
H       -0.8029478461   -0.3984581355    2.7241023281
H        1.1158674302    0.9400724835    1.3336809699
C        2.2076659545    0.8418094857   -1.3218278244
H        2.9992918714    0.7255336985   -0.5963136234
13   
Frame   8 IRC: Energy =  -286.8933350000 ; +1.1933 kcal/mol
C        0.8959556112    0.6985129762   -1.4199907396
C       -1.0596811131   -0.5724100055   -0.5695111572
C       -1.5314291767   -0.9478804125    0.6686251610
C       -0.6920513317   -0.3362618494    1.6492928299
C        0.2721298041    0.3810446392    0.9776901660
N        0.0459083224    0.2404224280   -0.3810821982
H        0.3722077864    0.9828226973   -2.3313871301
H       -1.3855858452   -0.8337254256   -1.5657112690
H       -2.3850340632   -1.5851462346    0.8519182792
H       -0.7984963480   -0.3964596982    2.7232487304
H        1.0651189917    1.0205293709    1.3354170137
C        2.2084609646    0.7812652859   -1.3247315467
H        2.9924963974    0.5672862283   -0.6137781395
13   
Frame   9 IRC: Energy =  -286.8933180000 ; +1.2040 kcal/mol
C        0.8953070824    0.6989460765   -1.4197428435
C       -1.0592487104   -0.5722049160   -0.5697440421
C       -1.5309439326   -0.9483748023    0.6681125687
C       -0.6914050754   -0.3356877581    1.6492994982
C        0.2718670194    0.3821125395    0.9772191818
N        0.0453517519    0.2411532267   -0.3811164053
H        0.3724879924    0.9848245075   -2.3312143231
H       -1.3854420601   -0.8340586598   -1.5657076000
H       -2.3841783833   -1.5864372996    0.8521281319
H       -0.7981807038   -0.3964163972    2.7235411491
H        1.0641147163    1.0220466357    1.3351387010
C        2.2082402333    0.7800841204   -1.3248869347
H        2.9920300699    0.5640127267   -0.6130270821
13   
Frame  10 IRC: Energy =  -286.8933000000 ; +1.2153 kcal/mol
C        0.8953164371    0.6994503206   -1.4194024314
C       -1.0592548540   -0.5724869063   -0.5695970943
C       -1.5299171226   -0.9482918409    0.6685160568
C       -0.6915777540   -0.3358895758    1.6488576296
C        0.2710575737    0.3828710174    0.9772640255
N        0.0447589226    0.2419672435   -0.3812089106
H        0.3732541302    0.9868460773   -2.3305563152
H       -1.3851234047   -0.8341381254   -1.5653867079
H       -2.3819843570   -1.5868205307    0.8519466633
H       -0.7975649662   -0.3962676977    2.7225495134
H        1.0628279039    1.0233635742    1.3345972308
C        2.2077466071    0.7785645512   -1.3244422325
H        2.9904608840    0.5608318925   -0.6131374274
13   
Frame  11 IRC: Energy =  -286.8932690000 ; +1.2347 kcal/mol
C        0.8958696911    0.7013958429   -1.4212777819
C       -1.0592442109   -0.5722161923   -0.5696608958
C       -1.5298351186   -0.9501397668    0.6685805028
C       -0.6910966026   -0.3352423329    1.6492690921
C        0.2706582068    0.3850976736    0.9768048616
N        0.0442422069    0.2438916707   -0.3820348817
H        0.3715092279    0.9903397035   -2.3316746317
H       -1.3847072465   -0.8349423361   -1.5657657572
H       -2.3821727188   -1.5904768382    0.8527587755
H       -0.7971976589   -0.3960473018    2.7238214765
H        1.0620245809    1.0271282624    1.3342102606
C        2.2092314580    0.7763747537   -1.3241490797
H        2.9907181846    0.5548368613   -0.6108819409
13   
Frame  12 IRC: Energy =  -286.8932550000 ; +1.2435 kcal/mol
C        0.8953459836    0.7015949543   -1.4213471837
C       -1.0592624390   -0.5721756109   -0.5700477444
C       -1.5296814025   -0.9504668108    0.6684114914
C       -0.6908364822   -0.3349500608    1.6491890955
C        0.2708280560    0.3857567290    0.9766240586
N        0.0442727630    0.2443408080   -0.3822219820
H        0.3709121277    0.9910819848   -2.3322728707
H       -1.3845768690   -0.8351492270   -1.5656854484
H       -2.3827237738   -1.5916109050    0.8530676957
H       -0.7972224141   -0.3960133454    2.7245653578
H        1.0617987627    1.0278758232    1.3341372917
C        2.2099737898    0.7761145157   -1.3243564090
H        2.9911718978    0.5536011449   -0.6100633525
13   
Frame  13 IRC: Energy =  -286.8930130000 ; +1.3953 kcal/mol
C        0.8928746660    0.7086030959   -1.4215012508
C       -1.0583988584   -0.5710768398   -0.5708552501
C       -1.5201044454   -0.9552417669    0.6684893206
C       -0.6866198153   -0.3322335160    1.6474514588
C        0.2640075405    0.4000854336    0.9732792937
N        0.0350897880    0.2579365868   -0.3848152932
H        0.3784011207    1.0156244792   -2.3306628170
H       -1.3839919178   -0.8361861666   -1.5660929555
H       -2.3629879464   -1.6059997561    0.8542102763
H       -0.7879846013   -0.3959891773    2.7217717671
H        1.0484700381    1.0512564104    1.3283057009
C        2.2067791904    0.7550558931   -1.3193800347
H        2.9744652410    0.5081653238   -0.6002002162
13   
Frame  14 IRC: Energy =  -286.8929980000 ; +1.4048 kcal/mol
C        0.8938937360    0.7091710990   -1.4221179704
C       -1.0586400725   -0.5711480416   -0.5706397954
C       -1.5197993801   -0.9553456052    0.6691413188
C       -0.6870322682   -0.3325939540    1.6474201527
C        0.2636311021    0.4003433663    0.9734244562
N        0.0349751898    0.2585400425   -0.3852049663
H        0.3787035332    1.0163147472   -2.3302254826
H       -1.3840287264   -0.8361223323   -1.5663485851
H       -2.3621176364   -1.6061681955    0.8541075372
H       -0.7875986191   -0.3959869886    2.7213491590
H        1.0483217822    1.0520988261    1.3281596767
C        2.2065399034    0.7539843735   -1.3183873194
H        2.9731514559    0.5069126626   -0.6006781815
13   
Frame  15 IRC: Energy =  -286.8929190000 ; +1.4543 kcal/mol
C        0.8922263486    0.7112068345   -1.4221608103
C       -1.0582641845   -0.5704411081   -0.5712351499
C       -1.5171007132   -0.9572608080    0.6684329005
C       -0.6849370696   -0.3311341879    1.6469257671
C        0.2618581856    0.4053720405    0.9719493211
N        0.0320285423    0.2629457050   -0.3859884896
H        0.3801200058    1.0236168143   -2.3310862424
H       -1.3839035076   -0.8365040545   -1.5661550824
H       -2.3571736830   -1.6118141748    0.8550172304
H       -0.7848129094   -0.3960909130    2.7214709525
H        1.0440955803    1.0596286514    1.3261854533
C        2.2064682611    0.7479516301   -1.3177249905
H        2.9693951436    0.4925235706   -0.5956308597
13   
Frame  16 IRC: Energy =  -286.8929030000 ; +1.4644 kcal/mol
C        0.8913004573    0.7111668220   -1.4217541958
C       -1.0578755570   -0.5701824052   -0.5713843515
C       -1.5169569629   -0.9575720243    0.6677512655
C       -0.6842137913   -0.3305712027    1.6468761347
C        0.2618348249    0.4060368779    0.9715203446
N        0.0314214389    0.2631107900   -0.3856385342
H        0.3802495605    1.0243725468   -2.3314456037
H       -1.3838790075   -0.8366438068   -1.5659926137
H       -2.3568206995   -1.6125468803    0.8552154567
H       -0.7846183345   -0.3961071401    2.7217473087
H        1.0434378117    1.0602583319    1.3259590676
C        2.2063469249    0.7477403182   -1.3184762991
H        2.9697733346    0.4909377724   -0.5943779798
13   
Frame  17 IRC: Energy =  -286.8926110000 ; +1.6476 kcal/mol
C        0.8904520860    0.7174376475   -1.4243187035
C       -1.0589854036   -0.5672370467   -0.5724094692
C       -1.5073928398   -0.9624868153    0.6685226931
C       -0.6791171303   -0.3283796332    1.6449647106
C        0.2552596344    0.4214334813    0.9676779534
N        0.0215532573    0.2795206213   -0.3899001958
H        0.3882534986    1.0427054008   -2.3339134460
H       -1.3857443904   -0.8347961438   -1.5666152345
H       -2.3378824787   -1.6283649076    0.8570255691
H       -0.7724980709   -0.3976588039    2.7196899972
H        1.0312448023    1.0845840016    1.3194504394
C        2.2043823166    0.7252691055   -1.3107415598
H        2.9504747183    0.4479730925   -0.5794327540
13   
Frame  18 IRC: Energy =  -286.8925940000 ; +1.6583 kcal/mol
C        0.8896890380    0.7173834227   -1.4237959956
C       -1.0587910707   -0.5670271059   -0.5726241775
C       -1.5070191708   -0.9627224805    0.6679402330
C       -0.6784187823   -0.3278763133    1.6448372074
C        0.2551312101    0.4222277662    0.9673045775
N        0.0208959439    0.2799582717   -0.3897378950
H        0.3885330961    1.0435223154   -2.3343969367
H       -1.3857685322   -0.8348008812   -1.5664083165
H       -2.3372489764   -1.6292014575    0.8572105713
H       -0.7720737820   -0.3977182166    2.7198680633
H        1.0304969515    1.0854618892    1.3191436324
C        2.2041367671    0.7247709842   -1.3113211069
H        2.9504373077    0.4460218056   -0.5780198569
13   
Frame  19 IRC: Energy =  -286.8925370000 ; +1.6940 kcal/mol
C        0.8903275512    0.7188224446   -1.4249304752
C       -1.0592284443   -0.5664568891   -0.5726551339
C       -1.5052206708   -0.9636219434    0.6686568468
C       -0.6778435653   -0.3278410303    1.6445060870
C        0.2537544259    0.4249873105    0.9667512761
N        0.0192253939    0.2833161883   -0.3908613446
H        0.3901758466    1.0467125345   -2.3345510979
H       -1.3862624265   -0.8342820597   -1.5667592238
H       -2.3335247078   -1.6319976825    0.8574549495
H       -0.7696349096   -0.3980739799    2.7192439687
H        1.0284409126    1.0901480081    1.3179294877
C        2.2038084908    0.7200899595   -1.3089366585
H        2.9459821032    0.4381971395   -0.5758486818
13   
Frame  20 IRC: Energy =  -286.8925090000 ; +1.7116 kcal/mol
C        0.8893383461    0.7189785084   -1.4244973065
C       -1.0592159304   -0.5661910317   -0.5729413963
C       -1.5044073495   -0.9640036886    0.6681318936
C       -0.6769651926   -0.3272906550    1.6443002062
C        0.2533582870    0.4264059367    0.9662922773
N        0.0183013239    0.2845223624   -0.3909948127
H        0.3908018683    1.0481607042   -2.3351824980
H       -1.3863819685   -0.8341554031   -1.5665596499
H       -2.3321439889   -1.6334802245    0.8577135388
H       -0.7686777129   -0.3982165806    2.7193253114
H        1.0272233417    1.0920007587    1.3173452974
C        2.2036764343    0.7186727927   -1.3091219334
H        2.9450925416    0.4345965204   -0.5738109279
13   
Frame  21 IRC: Energy =  -286.8923990000 ; +1.7806 kcal/mol
C        0.8895838855    0.7209618469   -1.4257925985
C       -1.0596863782   -0.5648533056   -0.5731338065
C       -1.5013049675   -0.9656057768    0.6685499249
C       -0.6752257751   -0.3267348257    1.6436795078
C        0.2511511494    0.4314565633    0.9649265373
N        0.0148117707    0.2901711715   -0.3924693979
H        0.3938284303    1.0532390058   -2.3361076848
H       -1.3874257172   -0.8330794571   -1.5669307334
H       -2.3256705920   -1.6385261935    0.8582661986
H       -0.7642529095   -0.3989874767    2.7184751099
H        1.0233448674    1.1000354805    1.3151323609
C        2.2028476571    0.7109294501   -1.3058651914
H        2.9379985790    0.4209935172   -0.5687302269
13   
Frame  22 IRC: Energy =  -286.8923760000 ; +1.7951 kcal/mol
C        0.8887917145    0.7209605169   -1.4252835838
C       -1.0595807254   -0.5645798752   -0.5733720348
C       -1.5006795632   -0.9658753342    0.6680293587
C       -0.6744554176   -0.3262303680    1.6434803183
C        0.2509057908    0.4325566461    0.9645097757
N        0.0138846289    0.2909511606   -0.3923738749
H        0.3942970745    1.0542493825   -2.3367690246
H       -1.3875421958   -0.8329678797   -1.5667363496
H       -2.3246163946   -1.6396449608    0.8584749739
H       -0.7635050319   -0.3991081515    2.7185466214
H        1.0223696393    1.1013851347    1.3146730268
C        2.2025954748    0.7100133259   -1.3062947106
H        2.9375350057    0.4182904026   -0.5668844965
13   
Frame  23 IRC: Energy =  -286.8923350000 ; +1.8208 kcal/mol
C        0.8895703363    0.7219291924   -1.4263260000
C       -1.0599596039   -0.5640665069   -0.5733402897
C       -1.4995849915   -0.9664637840    0.6686039206
C       -0.6740924838   -0.3263330425    1.6433215730
C        0.2499846132    0.4343451094    0.9641181403
N        0.0129327949    0.2932629737   -0.3933130233
H        0.3954640020    1.0559370468   -2.3368039712
H       -1.3880224911   -0.8324548466   -1.5670667458
H       -2.3222394092   -1.6414220003    0.8586266890
H       -0.7618149808   -0.3994464662    2.7181692018
H        1.0211773878    1.1044287099    1.3139106847
C        2.2022826332    0.7067735962   -1.3042699209
H        2.9343021928    0.4135100182   -0.5656302584
13   
Frame  24 IRC: Energy =  -286.8923030000 ; +1.8409 kcal/mol
C        0.8885540450    0.7222775225   -1.4259611016
C       -1.0604192062   -0.5634701492   -0.5736643151
C       -1.4987043716   -0.9670428287    0.6681551017
C       -0.6729334188   -0.3259280575    1.6431710760
C        0.2493495621    0.4363536782    0.9637491729
N        0.0119327652    0.2939057438   -0.3932221847
H        0.3960000890    1.0573284484   -2.3379689093
H       -1.3882801625   -0.8323340548   -1.5672294936
H       -2.3207568915   -1.6430355774    0.8588542909
H       -0.7607103019   -0.3996151483    2.7182757987
H        1.0202120524    1.1066617744    1.3134245186
C        2.2022223188    0.7052132237   -1.3045143275
H        2.9335335200    0.4096854249   -0.5630696270
13   
Frame  25 IRC: Energy =  -286.8922480000 ; +1.8754 kcal/mol
C        0.8882735736    0.7212050534   -1.4254508407
C       -1.0591230832   -0.5638317262   -0.5737574717
C       -1.4970247489   -0.9665846591    0.6680355580
C       -0.6729226198   -0.3249857320    1.6423147601
C        0.2495257946    0.4364166192    0.9629226712
N        0.0094179472    0.2979851129   -0.3937818257
H        0.3991896396    1.0590671901   -2.3361642719
H       -1.3889810818   -0.8312513801   -1.5666953517
H       -2.3167828940   -1.6438095611    0.8586793809
H       -0.7585372593   -0.4003061084    2.7167738835
H        1.0178492643    1.1090475142    1.3123579679
C        2.2003636110    0.7022869236   -1.3025901792
H        2.9287518567    0.4047607536   -0.5626442808
13   
Frame  26 IRC: Energy =  -286.8922060000 ; +1.9017 kcal/mol
C        0.8888247106    0.7211502527   -1.4261425787
C       -1.0586321493   -0.5639974093   -0.5735238099
C       -1.4967511354   -0.9664309556    0.6684954528
C       -0.6734145032   -0.3250065709    1.6422024220
C        0.2495060409    0.4358644962    0.9627207736
N        0.0087277820    0.2993919224   -0.3940473476
H        0.4002480122    1.0593591276   -2.3349285992
H       -1.3892614659   -0.8308189869   -1.5667151920
H       -2.3154959024   -1.6435991750    0.8584798674
H       -0.7579135190   -0.4005537472    2.7159898715
H        1.0174506574    1.1096119027    1.3121406601
C        2.2004841093    0.7009982970   -1.3006669957
H        2.9262273629    0.4040308463   -0.5640045241
13   
Frame  27 IRC: Energy =  -286.8918900000 ; +2.1000 kcal/mol
C        0.8874475660    0.7264594139   -1.4288937752
C       -1.0625590040   -0.5576299166   -0.5748961684
C       -1.4882096841   -0.9717123743    0.6679861769
C       -0.6653264108   -0.3235437708    1.6406455696
C        0.2424809832    0.4533820402    0.9586818575
N       -0.0006677962    0.3140523349   -0.3980254427
H        0.4070945514    1.0683572216   -2.3441736659
H       -1.3934864900   -0.8261839911   -1.5674661489
H       -2.2993879982   -1.6601147449    0.8607533802
H       -0.7441614309   -0.4035240164    2.7159301633
H        1.0069043482    1.1324373799    1.3057891197
C        2.1992743542    0.6802705901   -1.2946003163
H        2.9105970111    0.3677498334   -0.5417307499
13   
Frame  28 IRC: Energy =  -286.8918560000 ; +2.1214 kcal/mol
C        0.8888077471    0.7274296559   -1.4302544436
C       -1.0633346404   -0.5573197998   -0.5745262732
C       -1.4878370647   -0.9721631704    0.6688375773
C       -0.6655366075   -0.3241941069    1.6407405039
C        0.2416836121    0.4542060477    0.9588290739
N       -0.0010135543    0.3149791879   -0.3986134872
H        0.4074160517    1.0687541123   -2.3442863128
H       -1.3938194239   -0.8257967801   -1.5679980173
H       -2.2981476602   -1.6606871206    0.8606772771
H       -0.7432452790   -0.4036778417    2.7154840583
H        1.0068847577    1.1341150097    1.3055531255
C        2.1995128561    0.6783430345   -1.2927910616
H        2.9086292053    0.3660117716   -0.5416520203
13   
Frame  29 IRC: Energy =  -286.8917050000 ; +2.2161 kcal/mol
C        0.8863222889    0.7268844236   -1.4291790114
C       -1.0631842335   -0.5552446225   -0.5756722818
C       -1.4836856906   -0.9730873095    0.6674838461
C       -0.6619676048   -0.3221721151    1.6393103638
C        0.2401623485    0.4598851952    0.9565354844
N       -0.0063380200    0.3224363851   -0.3996548345
H        0.4126090076    1.0718864087   -2.3462492216
H       -1.3961388752   -0.8231033889   -1.5675185391
H       -2.2900403241   -1.6664171560    0.8612182928
H       -0.7370340767   -0.4055319927    2.7145090246
H        1.0013638699    1.1425680086    1.3029026200
C        2.1971376667    0.6704271649   -1.2905043032
H        2.9007936434    0.3514689985   -0.5331814398
13   
Frame  30 IRC: Energy =  -286.8916550000 ; +2.2475 kcal/mol
C        0.8840037102    0.7260205649   -1.4274624133
C       -1.0626405775   -0.5548720356   -0.5763457042
C       -1.4830273273   -0.9731115397    0.6666757391
C       -0.6609378814   -0.3213058498    1.6388446096
C        0.2402600624    0.4608749785    0.9556994988
N       -0.0069152395    0.3233894780   -0.3995950983
H        0.4132635210    1.0724429104   -2.3471946740
H       -1.3963455432   -0.8229318822   -1.5670206585
H       -2.2893043045   -1.6675692973    0.8615041506
H       -0.7363695002   -0.4057634199    2.7149283729
H        1.0001515360    1.1434143189    1.3024650317
C        2.1968375264    0.6702263333   -1.2918643407
H        2.9010240177    0.3491854404   -0.5306345138
13   
Frame  31 IRC: Energy =  -286.8912700000 ; +2.4891 kcal/mol
C        0.8860948741    0.7291718250   -1.4317150718
C       -1.0667855141   -0.5484559088   -0.5765894467
C       -1.4744585602   -0.9770164000    0.6671090230
C       -0.6544198185   -0.3208355561    1.6370593455
C        0.2336567477    0.4753632247    0.9522731864
N       -0.0181481336    0.3405549922   -0.4038455723
H        0.4236052129    1.0759530261   -2.3536586878
H       -1.4033173105   -0.8149064952   -1.5679617803
H       -2.2708111954   -1.6814468581    0.8624515781
H       -0.7206549888   -0.4105427169    2.7121907253
H        0.9896257163    1.1654950810    1.2964445577
C        2.1942797543    0.6482363895   -1.2805339260
H        2.8813332157    0.3184293966   -0.5132239312
13   
Frame  32 IRC: Energy =  -286.8912340000 ; +2.5117 kcal/mol
C        0.8854949969    0.7289864728   -1.4310794258
C       -1.0669452504   -0.5479421319   -0.5768852619
C       -1.4737572817   -0.9772922210    0.6668418245
C       -0.6534124420   -0.3203228525    1.6368275436
C        0.2332942918    0.4766826750    0.9519663706
N       -0.0190076269    0.3416517109   -0.4037251464
H        0.4241819946    1.0763619083   -2.3548735962
H       -1.4037985794   -0.8144940517   -1.5679355424
H       -2.2696691430   -1.6827641460    0.8626374615
H       -0.7195755844   -0.4108501706    2.7121331316
H        0.9884804859    1.1669237714    1.2958593976
C        2.1938573009    0.6472328905   -1.2809927406
H        2.8808568379    0.3158261448   -0.5107740159
13   
Frame  33 IRC: Energy =  -286.8907770000 ; +2.7985 kcal/mol
C        0.8853579381    0.7292950836   -1.4326657895
C       -1.0709421384   -0.5413123553   -0.5779114070
C       -1.4649877344   -0.9807221204    0.6661626211
C       -0.6462599909   -0.3194376121    1.6342757929
C        0.2270199735    0.4906316279    0.9476534286
N       -0.0311701843    0.3593419002   -0.4079742527
H        0.4369031703    1.0774170054   -2.3607802827
H       -1.4135450464   -0.8049550638   -1.5678751152
H       -2.2506811794   -1.6964661119    0.8634183296
H       -0.7028348826   -0.4167514574    2.7093346414
H        0.9762740246    1.1889734420    1.2899105662
C        2.1907773243    0.6262128516   -1.2697802256
H        2.8640887256    0.2877728101   -0.4937683072
13   
Frame  34 IRC: Energy =  -286.8907370000 ; +2.8236 kcal/mol
C        0.8870763344    0.7295038058   -1.4332646863
C       -1.0714255391   -0.5409562141   -0.5777116563
C       -1.4645004657   -0.9809487750    0.6666801989
C       -0.6463325718   -0.3198621810    1.6341699501
C        0.2265087981    0.4912938601    0.9475980910
N       -0.0318191342    0.3606478759   -0.4086573552
H        0.4377181182    1.0773910173   -2.3607565863
H       -1.4142264670   -0.8042237934   -1.5680983960
H       -2.2493292841   -1.6970129870    0.8633332134
H       -0.7017316755   -0.4171212321    2.7089172649
H        0.9758375199    1.1904995257    1.2896162442
C        2.1897274258    0.6245796222   -1.2684060402
H        2.8624969412    0.2862094756   -0.4934202423
13   
Frame  35 IRC: Energy =  -286.8905670000 ; +2.9302 kcal/mol
C        0.8849261240    0.7292316788   -1.4326066153
C       -1.0726982287   -0.5383975598   -0.5784722846
C       -1.4613445829   -0.9822024517    0.6655365824
C       -0.6427680566   -0.3187231080    1.6331761325
C        0.2243134297    0.4967660793    0.9457982367
N       -0.0363427642    0.3664458948   -0.4094072847
H        0.4422055344    1.0776765330   -2.3641077362
H       -1.4179405231   -0.8009281272   -1.5676533679
H       -2.2429533581   -1.7026164829    0.8639382867
H       -0.6957663636   -0.4193128559    2.7083377303
H        0.9706281166    1.1981434947    1.2871842888
C        2.1894000125    0.6178842502   -1.2660480012
H        2.8583406598    0.2760326547   -0.4856759675
13   
Frame  36 IRC: Energy =  -286.8905130000 ; +2.9641 kcal/mol
C        0.8825961144    0.7288926066   -1.4317462426
C       -1.0725302610   -0.5379156077   -0.5789197746
C       -1.4608293299   -0.9823537571    0.6645880106
C       -0.6415947524   -0.3179396052    1.6330471791
C        0.2241053116    0.4977641963    0.9450814665
N       -0.0371731408    0.3669678792   -0.4088799235
H        0.4428095687    1.0778342098   -2.3651539429
H       -1.4183940108   -0.8006299171   -1.5672755575
H       -2.2422792061   -1.7038146591    0.8642167928
H       -0.6949957055   -0.4196263476    2.7085648950
H        0.9695116666    1.1990762679    1.2867705666
C        2.1902347543    0.6174152644   -1.2667206375
H        2.8585389910    0.2743294695   -0.4835728320
13   
Frame  37 IRC: Energy =  -286.8900120000 ; +3.2785 kcal/mol
C        0.8864341149    0.7279620638   -1.4325769057
C       -1.0787445958   -0.5318766299   -0.5794418501
C       -1.4528193396   -0.9864046133    0.6650616636
C       -0.6353563212   -0.3185633421    1.6303437448
C        0.2164807693    0.5109173442    0.9411805906
N       -0.0498927743    0.3840459007   -0.4140772529
H        0.4582809334    1.0768717323   -2.3699160313
H       -1.4335356408   -0.7897761073   -1.5668097430
H       -2.2237610448   -1.7172753705    0.8651533391
H       -0.6771698672   -0.4266010589    2.7049750786
H        0.9551688236    1.2221233624    1.2800828366
C        2.1866364021    0.5975177525   -1.2534292077
H        2.8482785403    0.2510589660   -0.4705462625
13   
Frame  38 IRC: Energy =  -286.8899490000 ; +3.3180 kcal/mol
C        0.8847615468    0.7275707163   -1.4319180424
C       -1.0789618741   -0.5310830565   -0.5799097644
C       -1.4519398372   -0.9867722629    0.6643945298
C       -0.6339260348   -0.3178576451    1.6300435196
C        0.2158660765    0.5125268567    0.9403970881
N       -0.0512098449    0.3855604296   -0.4140124865
H        0.4598794813    1.0768727803   -2.3709018587
H       -1.4350780675   -0.7888736545   -1.5665127612
H       -2.2222468402   -1.7191706367    0.8654751511
H       -0.6754480875   -0.4273482452    2.7049604511
H        0.9531835619    1.2241744280    1.2792661699
C        2.1870716085    0.5959463848   -1.2530223340
H        2.8480483111    0.2484539051   -0.4682596622
13   