13   
Frame   0 IRC: Energy =  -286.8952366243 ; +0.0000 kcal/mol
C       -0.0378440000   -0.1392660000   -0.0000000000
C       -0.2133050000    0.0217790000   -0.0000000000
C       -0.0771140000   -0.0208350000    0.0000000000
C       -0.1434040000    0.0342960000    0.0000000000
C       -0.2032110000   -0.0364620000    0.0000000000
N        0.0164640000    0.0368740000   -0.0000000000
H        0.1422790000    0.0383640000   -0.0000000000
H        0.1337140000    0.0002520000   -0.0000000000
H        0.1264620000    0.0017120000    0.0000000000
H        0.1261300000    0.0010070000    0.0000000000
H        0.1343030000   -0.0002820000    0.0000000000
C       -0.1580780000    1.0634820000   -0.0000000000
H        0.1536050000   -0.0009200000   -0.0000000000
13   
Frame   1 IRC: Energy =  -286.8952359256 ; +0.0004 kcal/mol
C       -0.0380020000   -0.1393120000   -0.0000000000
C       -0.2132320000    0.0217910000   -0.0000000000
C       -0.0770300000   -0.0208740000    0.0000000000
C       -0.1433670000    0.0343730000    0.0000000000
C       -0.2033880000   -0.0364870000    0.0000000000
N        0.0165010000    0.0368380000   -0.0000000000
H        0.1423210000    0.0384160000   -0.0000000000
H        0.1337020000    0.0002520000   -0.0000000000
H        0.1264750000    0.0017130000    0.0000000000
H        0.1261300000    0.0010070000    0.0000000000
H        0.1343030000   -0.0002840000    0.0000000000
C       -0.1580930000    1.0636090000   -0.0000000000
H        0.1536810000   -0.0010420000   -0.0000000000
13   
Frame   2 IRC: Energy =  -286.8952320702 ; +0.0029 kcal/mol
C       -0.0374470000   -0.1395760000   -0.0000000000
C       -0.2137410000    0.0218190000   -0.0000000000
C       -0.0760920000   -0.0209850000    0.0000000000
C       -0.1433510000    0.0345060000    0.0000000000
C       -0.2029160000   -0.0366290000    0.0000000000
N        0.0167370000    0.0366960000   -0.0000000000
H        0.1422530000    0.0386700000   -0.0000000000
H        0.1337230000    0.0002540000   -0.0000000000
H        0.1264790000    0.0017060000    0.0000000000
H        0.1261460000    0.0010110000    0.0000000000
H        0.1344730000   -0.0002940000    0.0000000000
C       -0.1600810000    1.0640250000   -0.0000000000
H        0.1538170000   -0.0012030000   -0.0000000000
13   
Frame   3 IRC: Energy =  -286.8952202914 ; +0.0102 kcal/mol
C       -0.0357820000   -0.1403310000   -0.0000000000
C       -0.2153140000    0.0218260000   -0.0000000000
C       -0.0741080000   -0.0210480000    0.0000000000
C       -0.1432670000    0.0344670000    0.0000000000
C       -0.2019700000   -0.0367690000    0.0000000000
N        0.0171400000    0.0365820000   -0.0000000000
H        0.1419120000    0.0390210000   -0.0000000000
H        0.1336940000    0.0002600000   -0.0000000000
H        0.1265120000    0.0016840000    0.0000000000
H        0.1261740000    0.0010210000    0.0000000000
H        0.1347550000   -0.0003120000    0.0000000000
C       -0.1637330000    1.0648190000   -0.0000000000
H        0.1539860000   -0.0012190000   -0.0000000000
13   
Frame   4 IRC: Energy =  -286.8951772981 ; +0.0372 kcal/mol
C       -0.0380320000   -0.1400400000   -0.0000000000
C       -0.2139630000    0.0215800000   -0.0000000000
C       -0.0775130000   -0.0199750000    0.0000000000
C       -0.1429890000    0.0330410000    0.0000000000
C       -0.2026080000   -0.0356050000    0.0000000000
N        0.0162630000    0.0369130000   -0.0000000000
H        0.1418720000    0.0386660000   -0.0000000000
H        0.1337630000    0.0002650000   -0.0000000000
H        0.1264780000    0.0016490000    0.0000000000
H        0.1261740000    0.0010200000    0.0000000000
H        0.1348280000   -0.0003230000    0.0000000000
C       -0.1581250000    1.0636480000   -0.0000000000
H        0.1538520000   -0.0008390000   -0.0000000000
13   
Frame   5 IRC: Energy =  -286.8949706810 ; +0.1669 kcal/mol
C       -0.0580320000   -0.1400170000   -0.0000000000
C       -0.2015100000    0.0200090000   -0.0000000000
C       -0.0970470000   -0.0144510000    0.0000000000
C       -0.1412840000    0.0265310000    0.0000000000
C       -0.2094950000   -0.0295210000    0.0000000000
N        0.0100750000    0.0387040000   -0.0000000000
H        0.1433440000    0.0368420000   -0.0000000000
H        0.1341210000    0.0002660000   -0.0000000000
H        0.1263760000    0.0015270000    0.0000000000
H        0.1261290000    0.0009940000    0.0000000000
H        0.1351070000   -0.0003750000    0.0000000000
C       -0.1217640000    1.0595350000   -0.0000000000
H        0.1539800000   -0.0000440000   -0.0000000000
13   
Frame   6 IRC: Energy =  -286.8945593504 ; +0.4250 kcal/mol
C       -0.0688280000   -0.1436470000   -0.0000000000
C       -0.1857370000    0.0176040000   -0.0000000000
C       -0.1131370000   -0.0081180000    0.0000000000
C       -0.1360570000    0.0177370000    0.0000000000
C       -0.2202880000   -0.0215360000    0.0000000000
N       -0.0015530000    0.0409690000   -0.0000000000
H        0.1459270000    0.0345980000   -0.0000000000
H        0.1343940000    0.0002900000   -0.0000000000
H        0.1261770000    0.0012980000    0.0000000000
H        0.1260940000    0.0009590000    0.0000000000
H        0.1361930000   -0.0004970000    0.0000000000
C       -0.0982970000    1.0595440000   -0.0000000000
H        0.1551110000    0.0007980000   -0.0000000000
13   
Frame   7 IRC: Energy =  -286.8939265049 ; +0.8221 kcal/mol
C       -0.0804660000   -0.1502120000   -0.0000000000
C       -0.1678300000    0.0138900000   -0.0000000000
C       -0.1264520000   -0.0006200000    0.0000000000
C       -0.1284810000    0.0086360000    0.0000000000
C       -0.2336950000   -0.0127570000    0.0000000000
N       -0.0134240000    0.0429560000   -0.0000000000
H        0.1483760000    0.0325430000   -0.0000000000
H        0.1349240000    0.0003320000   -0.0000000000
H        0.1258750000    0.0010050000    0.0000000000
H        0.1259660000    0.0009100000    0.0000000000
H        0.1380590000   -0.0006300000    0.0000000000
C       -0.0797820000    1.0625730000   -0.0000000000
H        0.1569310000    0.0013750000   -0.0000000000
13   
Frame   8 IRC: Energy =  -286.8933350000 ; +1.1933 kcal/mol
C       -0.0835950000   -0.1569510000   -0.0000000000
C       -0.1564940000    0.0116630000   -0.0000000000
C       -0.1346970000    0.0040120000    0.0000000000
C       -0.1227730000    0.0024650000    0.0000000000
C       -0.2414790000   -0.0062810000    0.0000000000
N       -0.0209970000    0.0441490000   -0.0000000000
H        0.1493110000    0.0314650000   -0.0000000000
H        0.1353010000    0.0003830000   -0.0000000000
H        0.1256300000    0.0007140000    0.0000000000
H        0.1258670000    0.0008910000    0.0000000000
H        0.1397630000   -0.0006970000    0.0000000000
C       -0.0745110000    1.0665750000   -0.0000000000
H        0.1586750000    0.0016110000   -0.0000000000
13   
Frame   9 IRC: Energy =  -286.8933180000 ; +1.2040 kcal/mol
C       -0.0838270000   -0.1570400000   -0.0000000000
C       -0.1562310000    0.0115920000   -0.0000000000
C       -0.1349580000    0.0041290000    0.0000000000
C       -0.1227600000    0.0023180000    0.0000000000
C       -0.2417370000   -0.0061310000    0.0000000000
N       -0.0208500000    0.0440250000   -0.0000000000
H        0.1493600000    0.0313600000   -0.0000000000
H        0.1353590000    0.0003850000   -0.0000000000
H        0.1256710000    0.0007070000    0.0000000000
H        0.1259160000    0.0008900000    0.0000000000
H        0.1398220000   -0.0006980000    0.0000000000
C       -0.0744790000    1.0666740000   -0.0000000000
H        0.1587150000    0.0017880000   -0.0000000000
13   
Frame  10 IRC: Energy =  -286.8933000000 ; +1.2153 kcal/mol
C       -0.0836960000   -0.1569490000   -0.0000000000
C       -0.1554840000    0.0115030000   -0.0000000000
C       -0.1352210000    0.0042500000    0.0000000000
C       -0.1220390000    0.0022040000    0.0000000000
C       -0.2419420000   -0.0059740000    0.0000000000
N       -0.0215680000    0.0440800000   -0.0000000000
H        0.1493370000    0.0314140000   -0.0000000000
H        0.1353050000    0.0003860000   -0.0000000000
H        0.1254990000    0.0007010000    0.0000000000
H        0.1258010000    0.0008870000    0.0000000000
H        0.1397550000   -0.0007000000    0.0000000000
C       -0.0743790000    1.0664500000   -0.0000000000
H        0.1586330000    0.0017470000   -0.0000000000
13   
Frame  11 IRC: Energy =  -286.8932690000 ; +1.2347 kcal/mol
C       -0.0838610000   -0.1574750000   -0.0000000000
C       -0.1562680000    0.0113620000   -0.0000000000
C       -0.1346810000    0.0045740000    0.0000000000
C       -0.1225610000    0.0019150000    0.0000000000
C       -0.2428770000   -0.0056690000    0.0000000000
N       -0.0211620000    0.0444540000   -0.0000000000
H        0.1495150000    0.0312220000   -0.0000000000
H        0.1352680000    0.0003880000   -0.0000000000
H        0.1258550000    0.0006870000    0.0000000000
H        0.1259510000    0.0008910000    0.0000000000
H        0.1398630000   -0.0007060000    0.0000000000
C       -0.0740360000    1.0666690000   -0.0000000000
H        0.1589940000    0.0016870000   -0.0000000000
13   
Frame  12 IRC: Energy =  -286.8932550000 ; +1.2435 kcal/mol
C       -0.0841140000   -0.1577780000   -0.0000000000
C       -0.1566960000    0.0113260000   -0.0000000000
C       -0.1342240000    0.0045830000    0.0000000000
C       -0.1225840000    0.0018180000    0.0000000000
C       -0.2430930000   -0.0056080000    0.0000000000
N       -0.0208530000    0.0442370000   -0.0000000000
H        0.1495660000    0.0310500000   -0.0000000000
H        0.1353000000    0.0003890000   -0.0000000000
H        0.1260590000    0.0006820000    0.0000000000
H        0.1260960000    0.0008900000    0.0000000000
H        0.1399480000   -0.0007070000    0.0000000000
C       -0.0744330000    1.0673080000   -0.0000000000
H        0.1590280000    0.0018100000   -0.0000000000
13   
Frame  13 IRC: Energy =  -286.8930130000 ; +1.3953 kcal/mol
C       -0.0845510000   -0.1580940000   -0.0000000000
C       -0.1510800000    0.0100440000   -0.0000000000
C       -0.1374230000    0.0065810000    0.0000000000
C       -0.1173520000   -0.0001280000    0.0000000000
C       -0.2484550000   -0.0032650000    0.0000000000
N       -0.0233980000    0.0445330000   -0.0000000000
H        0.1498420000    0.0304840000   -0.0000000000
H        0.1354300000    0.0004090000   -0.0000000000
H        0.1255650000    0.0005780000    0.0000000000
H        0.1258670000    0.0008740000    0.0000000000
H        0.1401910000   -0.0007450000    0.0000000000
C       -0.0736420000    1.0666010000   -0.0000000000
H        0.1590060000    0.0021270000   -0.0000000000
13   
Frame  14 IRC: Energy =  -286.8929980000 ; +1.4048 kcal/mol
C       -0.0841120000   -0.1579460000   -0.0000000000
C       -0.1509970000    0.0100030000   -0.0000000000
C       -0.1375090000    0.0066970000    0.0000000000
C       -0.1169130000   -0.0001460000    0.0000000000
C       -0.2488590000   -0.0031880000    0.0000000000
N       -0.0239060000    0.0449110000   -0.0000000000
H        0.1498060000    0.0306320000   -0.0000000000
H        0.1353660000    0.0004090000   -0.0000000000
H        0.1254820000    0.0005770000    0.0000000000
H        0.1257930000    0.0008750000    0.0000000000
H        0.1401270000   -0.0007480000    0.0000000000
C       -0.0732680000    1.0661480000   -0.0000000000
H        0.1589900000    0.0017780000   -0.0000000000
13   
Frame  15 IRC: Energy =  -286.8929190000 ; +1.4543 kcal/mol
C       -0.0848710000   -0.1584150000   -0.0000000000
C       -0.1498220000    0.0095850000   -0.0000000000
C       -0.1379390000    0.0072940000    0.0000000000
C       -0.1158610000   -0.0008250000    0.0000000000
C       -0.2505320000   -0.0024300000    0.0000000000
N       -0.0238440000    0.0446430000   -0.0000000000
H        0.1499800000    0.0302090000   -0.0000000000
H        0.1354480000    0.0004170000   -0.0000000000
H        0.1256100000    0.0005400000    0.0000000000
H        0.1258910000    0.0008710000    0.0000000000
H        0.1403110000   -0.0007600000    0.0000000000
C       -0.0735140000    1.0665830000   -0.0000000000
H        0.1591430000    0.0022880000   -0.0000000000
13   
Frame  16 IRC: Energy =  -286.8929030000 ; +1.4644 kcal/mol
C       -0.0853790000   -0.1585280000   -0.0000000000
C       -0.1495400000    0.0095480000   -0.0000000000
C       -0.1381880000    0.0073450000    0.0000000000
C       -0.1161640000   -0.0009190000    0.0000000000
C       -0.2504880000   -0.0023460000    0.0000000000
N       -0.0234170000    0.0444340000   -0.0000000000
H        0.1500510000    0.0300750000   -0.0000000000
H        0.1355170000    0.0004190000   -0.0000000000
H        0.1256390000    0.0005350000    0.0000000000
H        0.1259200000    0.0008710000    0.0000000000
H        0.1403790000   -0.0007600000    0.0000000000
C       -0.0735540000    1.0666540000   -0.0000000000
H        0.1592230000    0.0026700000   -0.0000000000
13   
Frame  17 IRC: Energy =  -286.8926110000 ; +1.6476 kcal/mol
C       -0.0856410000   -0.1589650000   -0.0000000000
C       -0.1453500000    0.0080900000   -0.0000000000
C       -0.1399630000    0.0095130000    0.0000000000
C       -0.1097920000   -0.0028930000    0.0000000000
C       -0.2576760000    0.0001670000    0.0000000000
N       -0.0251670000    0.0448970000   -0.0000000000
H        0.1502320000    0.0294350000   -0.0000000000
H        0.1355060000    0.0004410000   -0.0000000000
H        0.1255670000    0.0004180000    0.0000000000
H        0.1259020000    0.0008590000    0.0000000000
H        0.1406340000   -0.0008100000    0.0000000000
C       -0.0735550000    1.0662740000   -0.0000000000
H        0.1593030000    0.0025750000   -0.0000000000
13   
Frame  18 IRC: Energy =  -286.8925940000 ; +1.6583 kcal/mol
C       -0.0860700000   -0.1589700000   -0.0000000000
C       -0.1450270000    0.0080470000   -0.0000000000
C       -0.1401120000    0.0095670000    0.0000000000
C       -0.1098090000   -0.0029940000    0.0000000000
C       -0.2577610000    0.0002720000    0.0000000000
N       -0.0249550000    0.0446720000   -0.0000000000
H        0.1502650000    0.0293660000   -0.0000000000
H        0.1355590000    0.0004420000   -0.0000000000
H        0.1256020000    0.0004130000    0.0000000000
H        0.1259410000    0.0008590000    0.0000000000
H        0.1407010000   -0.0008110000    0.0000000000
C       -0.0736820000    1.0661890000   -0.0000000000
H        0.1593490000    0.0029480000   -0.0000000000
13   
Frame  19 IRC: Energy =  -286.8925370000 ; +1.6940 kcal/mol
C       -0.0857670000   -0.1590410000   -0.0000000000
C       -0.1444410000    0.0077480000   -0.0000000000
C       -0.1403560000    0.0100260000    0.0000000000
C       -0.1083410000   -0.0033360000    0.0000000000
C       -0.2593480000    0.0007530000    0.0000000000
N       -0.0255040000    0.0450270000   -0.0000000000
H        0.1502730000    0.0293020000   -0.0000000000
H        0.1355020000    0.0004460000   -0.0000000000
H        0.1255560000    0.0003900000    0.0000000000
H        0.1259010000    0.0008570000    0.0000000000
H        0.1406910000   -0.0008220000    0.0000000000
C       -0.0735130000    1.0660830000   -0.0000000000
H        0.1593460000    0.0025660000   -0.0000000000
13   
Frame  20 IRC: Energy =  -286.8925090000 ; +1.7116 kcal/mol
C       -0.0861960000   -0.1591420000   -0.0000000000
C       -0.1440060000    0.0076420000   -0.0000000000
C       -0.1403940000    0.0101340000    0.0000000000
C       -0.1079940000   -0.0035300000    0.0000000000
C       -0.2597210000    0.0009550000    0.0000000000
N       -0.0253950000    0.0447210000   -0.0000000000
H        0.1503040000    0.0291450000   -0.0000000000
H        0.1355530000    0.0004470000   -0.0000000000
H        0.1256150000    0.0003800000    0.0000000000
H        0.1259610000    0.0008560000    0.0000000000
H        0.1407750000   -0.0008250000    0.0000000000
C       -0.0738590000    1.0662960000   -0.0000000000
H        0.1593590000    0.0029200000   -0.0000000000
13   
Frame  21 IRC: Energy =  -286.8923990000 ; +1.7806 kcal/mol
C       -0.0862190000   -0.1592610000   -0.0000000000
C       -0.1426910000    0.0071250000   -0.0000000000
C       -0.1410600000    0.0109190000    0.0000000000
C       -0.1057970000   -0.0041570000    0.0000000000
C       -0.2623350000    0.0018180000    0.0000000000
N       -0.0258260000    0.0450770000   -0.0000000000
H        0.1503540000    0.0289750000   -0.0000000000
H        0.1355260000    0.0004560000   -0.0000000000
H        0.1255550000    0.0003390000    0.0000000000
H        0.1259140000    0.0008530000    0.0000000000
H        0.1408270000   -0.0008440000    0.0000000000
C       -0.0736640000    1.0659990000   -0.0000000000
H        0.1594150000    0.0027000000   -0.0000000000
13   
Frame  22 IRC: Energy =  -286.8923760000 ; +1.7951 kcal/mol
C       -0.0866980000   -0.1592780000   -0.0000000000
C       -0.1422810000    0.0070510000   -0.0000000000
C       -0.1412030000    0.0110080000    0.0000000000
C       -0.1056400000   -0.0042960000    0.0000000000
C       -0.2625840000    0.0019770000    0.0000000000
N       -0.0256310000    0.0448490000   -0.0000000000
H        0.1503870000    0.0288960000   -0.0000000000
H        0.1355830000    0.0004580000   -0.0000000000
H        0.1255890000    0.0003320000    0.0000000000
H        0.1259470000    0.0008530000    0.0000000000
H        0.1409050000   -0.0008450000    0.0000000000
C       -0.0738340000    1.0659020000   -0.0000000000
H        0.1594590000    0.0030920000   -0.0000000000
13   
Frame  23 IRC: Energy =  -286.8923350000 ; +1.8208 kcal/mol
C       -0.0863190000   -0.1592830000   -0.0000000000
C       -0.1420240000    0.0068490000   -0.0000000000
C       -0.1413390000    0.0113340000    0.0000000000
C       -0.1045770000   -0.0045090000    0.0000000000
C       -0.2637770000    0.0022980000    0.0000000000
N       -0.0260340000    0.0451850000   -0.0000000000
H        0.1503750000    0.0288900000   -0.0000000000
H        0.1355200000    0.0004610000   -0.0000000000
H        0.1255650000    0.0003170000    0.0000000000
H        0.1259240000    0.0008520000    0.0000000000
H        0.1408720000   -0.0008540000    0.0000000000
C       -0.0736440000    1.0657810000   -0.0000000000
H        0.1594580000    0.0026800000   -0.0000000000
13   
Frame  24 IRC: Energy =  -286.8923030000 ; +1.8409 kcal/mol
C       -0.0868670000   -0.1594890000   -0.0000000000
C       -0.1415210000    0.0067570000   -0.0000000000
C       -0.1416790000    0.0114600000    0.0000000000
C       -0.1043180000   -0.0047440000    0.0000000000
C       -0.2640500000    0.0025480000    0.0000000000
N       -0.0256700000    0.0449790000   -0.0000000000
H        0.1504650000    0.0287160000   -0.0000000000
H        0.1356230000    0.0004630000   -0.0000000000
H        0.1255990000    0.0003070000    0.0000000000
H        0.1259550000    0.0008510000    0.0000000000
H        0.1410130000   -0.0008560000    0.0000000000
C       -0.0740780000    1.0659320000   -0.0000000000
H        0.1595280000    0.0030770000   -0.0000000000
13   
Frame  25 IRC: Energy =  -286.8922480000 ; +1.8754 kcal/mol
C       -0.0869800000   -0.1589190000   -0.0000000000
C       -0.1402130000    0.0065090000   -0.0000000000
C       -0.1416960000    0.0116920000    0.0000000000
C       -0.1027890000   -0.0048190000    0.0000000000
C       -0.2654260000    0.0027610000    0.0000000000
N       -0.0266620000    0.0447700000   -0.0000000000
H        0.1502460000    0.0288170000   -0.0000000000
H        0.1355890000    0.0004650000   -0.0000000000
H        0.1253760000    0.0002920000    0.0000000000
H        0.1258660000    0.0008470000    0.0000000000
H        0.1409970000   -0.0008650000    0.0000000000
C       -0.0735500000    1.0654800000   -0.0000000000
H        0.1592430000    0.0029710000   -0.0000000000
13   
Frame  26 IRC: Energy =  -286.8922060000 ; +1.9017 kcal/mol
C       -0.0865420000   -0.1590340000   -0.0000000000
C       -0.1398280000    0.0063910000   -0.0000000000
C       -0.1418920000    0.0118210000    0.0000000000
C       -0.1022760000   -0.0048140000    0.0000000000
C       -0.2659730000    0.0027920000    0.0000000000
N       -0.0269200000    0.0449870000   -0.0000000000
H        0.1501800000    0.0287710000   -0.0000000000
H        0.1355210000    0.0004660000   -0.0000000000
H        0.1252170000    0.0002870000    0.0000000000
H        0.1257660000    0.0008460000    0.0000000000
H        0.1409290000   -0.0008690000    0.0000000000
C       -0.0732210000    1.0659810000   -0.0000000000
H        0.1590380000    0.0023750000   -0.0000000000
13   
Frame  27 IRC: Energy =  -286.8918900000 ; +2.1000 kcal/mol
C       -0.0879910000   -0.1598770000   -0.0000000000
C       -0.1371080000    0.0049850000   -0.0000000000
C       -0.1432390000    0.0139150000    0.0000000000
C       -0.0964280000   -0.0068690000    0.0000000000
C       -0.2730060000    0.0054840000    0.0000000000
N       -0.0262880000    0.0451330000   -0.0000000000
H        0.1505150000    0.0279530000   -0.0000000000
H        0.1355770000    0.0004920000   -0.0000000000
H        0.1256600000    0.0001640000    0.0000000000
H        0.1260390000    0.0008430000    0.0000000000
H        0.1412840000   -0.0009200000    0.0000000000
C       -0.0746890000    1.0654820000   -0.0000000000
H        0.1596740000    0.0032150000   -0.0000000000
13   
Frame  28 IRC: Energy =  -286.8918560000 ; +2.1214 kcal/mol
C       -0.0874680000   -0.1599840000   -0.0000000000
C       -0.1369690000    0.0048730000   -0.0000000000
C       -0.1434870000    0.0141330000    0.0000000000
C       -0.0959140000   -0.0069280000    0.0000000000
C       -0.2736100000    0.0056290000    0.0000000000
N       -0.0265730000    0.0456980000   -0.0000000000
H        0.1505290000    0.0279820000   -0.0000000000
H        0.1354900000    0.0004940000   -0.0000000000
H        0.1255780000    0.0001580000    0.0000000000
H        0.1259500000    0.0008440000    0.0000000000
H        0.1412330000   -0.0009260000    0.0000000000
C       -0.0744620000    1.0653870000   -0.0000000000
H        0.1597020000    0.0026410000   -0.0000000000
13   
Frame  29 IRC: Energy =  -286.8917050000 ; +2.2161 kcal/mol
C       -0.0888290000   -0.1598310000   -0.0000000000
C       -0.1349070000    0.0042870000   -0.0000000000
C       -0.1439520000    0.0148160000    0.0000000000
C       -0.0929470000   -0.0076860000    0.0000000000
C       -0.2765820000    0.0066520000    0.0000000000
N       -0.0266180000    0.0449220000   -0.0000000000
H        0.1504490000    0.0277010000   -0.0000000000
H        0.1356370000    0.0005030000   -0.0000000000
H        0.1255940000    0.0001090000    0.0000000000
H        0.1260550000    0.0008400000    0.0000000000
H        0.1414820000   -0.0009450000    0.0000000000
C       -0.0750010000    1.0652000000   -0.0000000000
H        0.1596180000    0.0034330000   -0.0000000000
13   
Frame  30 IRC: Energy =  -286.8916550000 ; +2.2475 kcal/mol
C       -0.0896610000   -0.1598200000   -0.0000000000
C       -0.1349270000    0.0042190000   -0.0000000000
C       -0.1436280000    0.0147450000    0.0000000000
C       -0.0925440000   -0.0078840000    0.0000000000
C       -0.2770090000    0.0068160000    0.0000000000
N       -0.0258850000    0.0439670000   -0.0000000000
H        0.1504600000    0.0275000000   -0.0000000000
H        0.1357750000    0.0005030000   -0.0000000000
H        0.1257390000    0.0000970000    0.0000000000
H        0.1262280000    0.0008360000    0.0000000000
H        0.1416410000   -0.0009430000    0.0000000000
C       -0.0757440000    1.0656810000   -0.0000000000
H        0.1595550000    0.0042830000   -0.0000000000
13   
Frame  31 IRC: Energy =  -286.8912700000 ; +2.4891 kcal/mol
C       -0.0901690000   -0.1602920000   -0.0000000000
C       -0.1310830000    0.0027100000   -0.0000000000
C       -0.1452070000    0.0169440000    0.0000000000
C       -0.0854910000   -0.0095340000    0.0000000000
C       -0.2848890000    0.0093730000    0.0000000000
N       -0.0268110000    0.0451520000   -0.0000000000
H        0.1504280000    0.0271760000   -0.0000000000
H        0.1355930000    0.0005290000   -0.0000000000
H        0.1257000000   -0.0000170000    0.0000000000
H        0.1261350000    0.0008380000    0.0000000000
H        0.1417430000   -0.0010020000    0.0000000000
C       -0.0758020000    1.0647110000   -0.0000000000
H        0.1598520000    0.0034120000   -0.0000000000
13   
Frame  32 IRC: Energy =  -286.8912340000 ; +2.5117 kcal/mol
C       -0.0906760000   -0.1601680000   -0.0000000000
C       -0.1309620000    0.0026330000   -0.0000000000
C       -0.1451440000    0.0170320000    0.0000000000
C       -0.0851400000   -0.0096810000    0.0000000000
C       -0.2851480000    0.0095750000    0.0000000000
N       -0.0266320000    0.0449080000   -0.0000000000
H        0.1504550000    0.0271810000   -0.0000000000
H        0.1356740000    0.0005290000   -0.0000000000
H        0.1257670000   -0.0000250000    0.0000000000
H        0.1261680000    0.0008380000    0.0000000000
H        0.1417920000   -0.0010040000    0.0000000000
C       -0.0760630000    1.0643020000   -0.0000000000
H        0.1599100000    0.0038810000   -0.0000000000
13   
Frame  33 IRC: Energy =  -286.8907770000 ; +2.7985 kcal/mol
C       -0.0923630000   -0.1607570000   -0.0000000000
C       -0.1268620000    0.0011180000   -0.0000000000
C       -0.1462830000    0.0189230000    0.0000000000
C       -0.0772330000   -0.0113920000    0.0000000000
C       -0.2937340000    0.0122130000    0.0000000000
N       -0.0271050000    0.0449270000   -0.0000000000
H        0.1502930000    0.0267920000   -0.0000000000
H        0.1356400000    0.0005520000   -0.0000000000
H        0.1257800000   -0.0001400000    0.0000000000
H        0.1262480000    0.0008370000    0.0000000000
H        0.1421000000   -0.0010570000    0.0000000000
C       -0.0765530000    1.0645040000   -0.0000000000
H        0.1600730000    0.0034800000   -0.0000000000
13   
Frame  34 IRC: Energy =  -286.8907370000 ; +2.8236 kcal/mol
C       -0.0920790000   -0.1603090000   -0.0000000000
C       -0.1267150000    0.0010190000   -0.0000000000
C       -0.1463690000    0.0191470000    0.0000000000
C       -0.0765600000   -0.0113980000    0.0000000000
C       -0.2945150000    0.0123870000    0.0000000000
N       -0.0276690000    0.0454420000   -0.0000000000
H        0.1502030000    0.0271140000   -0.0000000000
H        0.1355480000    0.0005540000   -0.0000000000
H        0.1257150000   -0.0001440000    0.0000000000
H        0.1261870000    0.0008390000    0.0000000000
H        0.1420380000   -0.0010650000    0.0000000000
C       -0.0759300000    1.0632640000   -0.0000000000
H        0.1601450000    0.0031490000   -0.0000000000
13   
Frame  35 IRC: Energy =  -286.8905670000 ; +2.9302 kcal/mol
C       -0.0934980000   -0.1609460000   -0.0000000000
C       -0.1253320000    0.0005130000   -0.0000000000
C       -0.1465640000    0.0196660000    0.0000000000
C       -0.0741600000   -0.0121350000    0.0000000000
C       -0.2970740000    0.0133540000    0.0000000000
N       -0.0270870000    0.0447580000   -0.0000000000
H        0.1502730000    0.0266750000   -0.0000000000
H        0.1356810000    0.0005600000   -0.0000000000
H        0.1258680000   -0.0001860000    0.0000000000
H        0.1263140000    0.0008380000    0.0000000000
H        0.1422350000   -0.0010760000    0.0000000000
C       -0.0768850000    1.0642680000   -0.0000000000
H        0.1602290000    0.0037110000   -0.0000000000
13   
Frame  36 IRC: Energy =  -286.8905130000 ; +2.9641 kcal/mol
C       -0.0942430000   -0.1615450000   -0.0000000000
C       -0.1250180000    0.0004640000   -0.0000000000
C       -0.1466070000    0.0196050000    0.0000000000
C       -0.0741390000   -0.0123550000    0.0000000000
C       -0.2972170000    0.0134850000    0.0000000000
N       -0.0262050000    0.0440580000   -0.0000000000
H        0.1503880000    0.0262560000   -0.0000000000
H        0.1358160000    0.0005600000   -0.0000000000
H        0.1259670000   -0.0001940000    0.0000000000
H        0.1264030000    0.0008350000    0.0000000000
H        0.1423720000   -0.0010710000    0.0000000000
C       -0.0777020000    1.0656600000   -0.0000000000
H        0.1601850000    0.0042420000   -0.0000000000
13   
Frame  37 IRC: Energy =  -286.8900120000 ; +3.2785 kcal/mol
C       -0.0963440000   -0.1615650000   -0.0000000000
C       -0.1212820000   -0.0010180000   -0.0000000000
C       -0.1471400000    0.0214230000    0.0000000000
C       -0.0654990000   -0.0138770000    0.0000000000
C       -0.3065700000    0.0162500000    0.0000000000
N       -0.0279920000    0.0447670000   -0.0000000000
H        0.1500840000    0.0267500000   -0.0000000000
H        0.1357130000    0.0005770000   -0.0000000000
H        0.1259390000   -0.0002890000    0.0000000000
H        0.1263700000    0.0008400000    0.0000000000
H        0.1425120000   -0.0011250000    0.0000000000
C       -0.0764920000    1.0641230000   -0.0000000000
H        0.1607020000    0.0031450000   -0.0000000000
13   
Frame  38 IRC: Energy =  -286.8899490000 ; +3.3180 kcal/mol
C       -0.0970130000   -0.1620550000   -0.0000000000
C       -0.1209960000   -0.0011460000   -0.0000000000
C       -0.1470920000    0.0214710000    0.0000000000
C       -0.0648790000   -0.0141520000    0.0000000000
C       -0.3072190000    0.0165250000    0.0000000000
N       -0.0274930000    0.0442060000   -0.0000000000
H        0.1501570000    0.0264390000   -0.0000000000
H        0.1358330000    0.0005780000   -0.0000000000
H        0.1260490000   -0.0003010000    0.0000000000
H        0.1264560000    0.0008390000    0.0000000000
H        0.1426020000   -0.0011240000    0.0000000000
C       -0.0771030000    1.0652590000   -0.0000000000
H        0.1606990000    0.0034630000   -0.0000000000
13   