13   
Frame   0 IRC: Energy =  -286.8952366243 ; +0.0000 kcal/mol
C        0.9683724428    0.5027640436   -1.4234286779
C       -1.1135232367   -0.5112183895   -0.5624863437
C       -1.6461675913   -0.8031520969    0.6709417690
C       -0.6948296408   -0.3854688777    1.6533533516
C        0.3842361800    0.1468484056    0.9857085519
N        0.1310098147    0.0713524697   -0.3726949692
H        0.5356705251    0.3161123568   -2.4050507236
H       -1.5015729335   -0.6612208381   -1.5593076784
H       -2.6072594189   -1.2633784466    0.8523186341
H       -0.7930967599   -0.4684747737    2.7268430292
H        1.3064338740    0.5687295286    1.3544570466
C        2.1519877637    1.0747873978   -1.3211720827
H        2.8787389808    1.4123192209   -0.5994819073
13   
Frame   1 IRC: Energy =  -286.8951881392 ; +0.0304 kcal/mol
C        0.9583029246    0.5249804909   -1.4191362830
C       -1.1071183276   -0.5187885736   -0.5623499594
C       -1.6360378445   -0.8248147272    0.6690893471
C       -0.6991601667   -0.3823566283    1.6544802225
C        0.3691985794    0.1751974145    0.9903741250
N        0.1230680970    0.0922555723   -0.3688377591
H        0.4933800867    0.3996703977   -2.3954851606
H       -1.4848720744   -0.6850897505   -1.5604955196
H       -2.5867642845   -1.3070763746    0.8473330489
H       -0.8018544431   -0.4619798309    2.7278187039
H        1.2747108951    0.6283758055    1.3630802502
C        2.1702301090    1.0356653510   -1.3286524631
H        2.9269164489    1.3239608532   -0.6172185527
13   
Frame   2 IRC: Energy =  -286.8950830040 ; +0.0964 kcal/mol
C        0.9468023506    0.5519086732   -1.4211041233
C       -1.0995834839   -0.5321833935   -0.5632971043
C       -1.6224956660   -0.8457883208    0.6692121939
C       -0.6985367616   -0.3765615600    1.6537352903
C        0.3565160810    0.2047498256    0.9885317388
N        0.1125828093    0.1119522818   -0.3706603384
H        0.4602455993    0.4895358172   -2.3916559201
H       -1.4713278554   -0.7133755400   -1.5610386907
H       -2.5632210928   -1.3470576649    0.8482001742
H       -0.8038464802   -0.4493903016    2.7273230748
H        1.2460292703    0.6894393654    1.3590531566
C        2.1819978708    1.0007984479   -1.3282046166
H        2.9548373586    1.2159723696   -0.6100948351
13   
Frame   3 IRC: Energy =  -286.8949509967 ; +0.1792 kcal/mol
C        0.9350519370    0.5800517875   -1.4236476195
C       -1.0918919446   -0.5462290916   -0.5643343482
C       -1.6084555183   -0.8663652398    0.6696717305
C       -0.6971454923   -0.3707057560    1.6528399630
C        0.3440601470    0.2340642180    0.9858646465
N        0.1015419367    0.1318143803   -0.3732008337
H        0.4307255446    0.5797006337   -2.3880314437
H       -1.4580791742   -0.7418819984   -1.5614650055
H       -2.5392097255   -1.3859944996    0.8499653005
H       -0.8048207917   -0.4363485501    2.7267137529
H        1.2174345853    0.7501053632    1.3533379080
C        2.1923624034    0.9660968036   -1.3266503976
H        2.9784260926    1.1056919493   -0.6010636530
13   
Frame   4 IRC: Energy =  -286.8947079752 ; +0.3317 kcal/mol
C        0.9271075838    0.6017593271   -1.4266425384
C       -1.0853405589   -0.5569644045   -0.5652676067
C       -1.5924906775   -0.8870611785    0.6705455236
C       -0.6952608713   -0.3640992925    1.6519252319
C        0.3305446355    0.2639406830    0.9823130077
N        0.0911642222    0.1495687347   -0.3766166697
H        0.4105135418    0.6736903650   -2.3802881922
H       -1.4466065860   -0.7650665975   -1.5615948275
H       -2.5113875957   -1.4267323812    0.8527185403
H       -0.8049800388   -0.4227782423    2.7260148126
H        1.1865103300    0.8105040717    1.3458755321
C        2.1998664606    0.9296036467   -1.3244687129
H        2.9903595544    0.9936352684   -0.5945141008
13   
Frame   5 IRC: Energy =  -286.8944161745 ; +0.5148 kcal/mol
C        0.9183953696    0.6257256199   -1.4281753864
C       -1.0776629375   -0.5671452822   -0.5663106429
C       -1.5770100297   -0.9053325872    0.6710247124
C       -0.6937382293   -0.3569749652    1.6510318511
C        0.3168288502    0.2936181088    0.9793056976
N        0.0798438049    0.1699629333   -0.3794511013
H        0.3931861904    0.7663922602   -2.3702194185
H       -1.4317193266   -0.7896823391   -1.5620552176
H       -2.4826318664   -1.4665338370    0.8546735309
H       -0.8045956294   -0.4108544467    2.7252513852
H        1.1558943695    0.8683989755    1.3395853601
C        2.2051820097    0.8924721103   -1.3228388437
H        2.9980274248    0.8799534494   -0.5918219269
13   
Frame   6 IRC: Energy =  -286.8940475723 ; +0.7461 kcal/mol
C        0.9084741808    0.6532482540   -1.4274062462
C       -1.0682120910   -0.5764532180   -0.5675265207
C       -1.5622917298   -0.9197866439    0.6708826083
C       -0.6927855125   -0.3490352764    1.6501720857
C        0.3027977396    0.3229821530    0.9771554171
N        0.0670391295    0.1945134899   -0.3813701288
H        0.3804006385    0.8570664949   -2.3564891777
H       -1.4114557667   -0.8165513730   -1.5630360774
H       -2.4524062119   -1.5048609178    0.8553717012
H       -0.8033552489   -0.4015230364    2.7243864244
H        1.1257638100    0.9223517117    1.3351407889
C        2.2070518166    0.8543354641   -1.3220777919
H        2.9989792459    0.7637128980   -0.5952030830
13   
Frame   7 IRC: Energy =  -286.8936347571 ; +1.0052 kcal/mol
C        0.9006482809    0.6801552686   -1.4236206751
C       -1.0624312780   -0.5760082783   -0.5687077837
C       -1.5446195581   -0.9360491857    0.6697455150
C       -0.6922648143   -0.3414134913    1.6495953038
C        0.2853359408    0.3565079063    0.9770612600
N        0.0544854651    0.2212435527   -0.3815475323
H        0.3742315421    0.9341858035   -2.3418227201
H       -1.3953231088   -0.8294944414   -1.5645188244
H       -2.4141452418   -1.5508395186    0.8537845801
H       -0.8007522346   -0.3974724467    2.7236813083
H        1.0908367881    0.9797562178    1.3345372384
C        2.2080580772    0.8119472823   -1.3232600268
H        2.9959401412    0.6474813307   -0.6049276431
13   
Frame   8 IRC: Energy =  -286.8931513917 ; +1.3085 kcal/mol
C        0.8942879301    0.7045953735   -1.4214131450
C       -1.0588927113   -0.5717051903   -0.5703934645
C       -1.5255811877   -0.9525111288    0.6684448127
C       -0.6890311865   -0.3337870174    1.6484451553
C        0.2679079658    0.3918913254    0.9751920532
N        0.0403412251    0.2501616144   -0.3833322650
H        0.3741184154    1.0015894453   -2.3315835530
H       -1.3843264319   -0.8355931754   -1.5658599158
H       -2.3742742078   -1.5977712521    0.8535568726
H       -0.7932673983   -0.3960029982    2.7233693284
H        1.0560922911    1.0378858324    1.3316405931
C        2.2086060752    0.7670986169   -1.3222258572
H        2.9840192208    0.5341485544   -0.6058406148
13   
Frame   9 IRC: Energy =  -286.8924644840 ; +1.7395 kcal/mol
C        0.8894377136    0.7197811470   -1.4250214991
C       -1.0594063162   -0.5656496664   -0.5730192629
C       -1.5031518444   -0.9646520388    0.6683010670
C       -0.6762612665   -0.3270657161    1.6440490153
C        0.2524650790    0.4284498783    0.9657395750
N        0.0168891342    0.2868083829   -0.3915915636
H        0.3920266898    1.0502158456   -2.3355569125
H       -1.3868043639   -0.8337199778   -1.5667098239
H       -2.3295242654   -1.6355222811    0.8579371951
H       -0.7668870362   -0.3985285551    2.7189812428
H        1.0256537593    1.0952523358    1.3164497426
C        2.2033410359    0.7155391341   -1.3078039603
H        2.9422216810    0.4290915116   -0.5717548155
13   
Frame  10 IRC: Energy =  -286.8915526263 ; +2.3117 kcal/mol
C        0.8845597627    0.7268585031   -1.4285932197
C       -1.0637427400   -0.5531659505   -0.5764105167
C       -1.4807488427   -0.9741498645    0.6667909518
C       -0.6592046909   -0.3211807960    1.6383698976
C        0.2385042029    0.4647274867    0.9547884226
N       -0.0099021308    0.3279538872   -0.4007253238
H        0.4160134365    1.0733762704   -2.3489134925
H       -1.3981993763   -0.8207978855   -1.5672709082
H       -2.2843868802   -1.6712594207    0.8617560770
H       -0.7321909210   -0.4070342625    2.7142004166
H        0.9973526598    1.1492857209    1.3008641530
C        2.1961574000    0.6643790805   -1.2888515181
H        2.8957881200    0.3410072311   -0.5260049395
13   
Frame  11 IRC: Energy =  -286.8903349384 ; +3.0759 kcal/mol
C        0.8839601874    0.7285618801   -1.4320414706
C       -1.0747389127   -0.5357692801   -0.5791053267
C       -1.4579824800   -0.9837934817    0.6647563528
C       -0.6393775366   -0.3181612890    1.6320863450
C        0.2213954547    0.5024389882    0.9436950468
N       -0.0416938564    0.3730376199   -0.4107271188
H        0.4483082836    1.0774921334   -2.3668464482
H       -1.4237755339   -0.7967723385   -1.5671100012
H       -2.2356976219   -1.7085987629    0.8645496530
H       -0.6886601814   -0.4221052465    2.7072890298
H        0.9644140423    1.2072674912    1.2843936644
C        2.1889558553    0.6103434418   -1.2619966985
H        2.8548922995    0.2660588439   -0.4789430276
13   
Frame  12 IRC: Energy =  -286.8886633075 ; +4.1248 kcal/mol
C        0.8896911446    0.7226771713   -1.4272801803
C       -1.0935835868   -0.5222764956   -0.5817271979
C       -1.4389249590   -0.9957665391    0.6633497130
C       -0.6216947451   -0.3183415740    1.6245475061
C        0.1982375258    0.5365431765    0.9310151718
N       -0.0778613727    0.4130882982   -0.4233297711
H        0.4963881878    1.0760372167   -2.3783819546
H       -1.4753231631   -0.7694233709   -1.5616294475
H       -2.1904529941   -1.7461091081    0.8699414667
H       -0.6405415794   -0.4420689680    2.6982432490
H        0.9186958955    1.2681107496    1.2636951566
C        2.1843444723    0.5642975852   -1.2289541900
H        2.8510251744    0.2132318580   -0.4494895218
13   
Frame  13 IRC: Energy =  -286.8859900342 ; +5.8023 kcal/mol
C        0.8990187696    0.7144676351   -1.4158934715
C       -1.1192652671   -0.5176204054   -0.5839036195
C       -1.4270888439   -1.0098379407    0.6634312583
C       -0.6103886851   -0.3202502705    1.6158834114
C        0.1675232736    0.5651471140    0.9158880264
N       -0.1158733790    0.4435401941   -0.4390560202
H        0.5622100682    1.0815663382   -2.3829546736
H       -1.5500290133   -0.7523952697   -1.5473840873
H       -2.1548766573   -1.7796295944    0.8825562123
H       -0.5944788111   -0.4639956108    2.6868276578
H        0.8644687141    1.3213252338    1.2443888759
C        2.1879321954    0.5313911082   -1.1930252802
H        2.8908476358    0.1862914679   -0.4467582896
13   
Frame  14 IRC: Energy =  -286.8815920273 ; +8.5621 kcal/mol
C        0.9145900268    0.7149391611   -1.4145792039
C       -1.1463302447   -0.5161058305   -0.5822734681
C       -1.4223882553   -1.0226782094    0.6667681934
C       -0.6068820239   -0.3210235133    1.6100944875
C        0.1313673420    0.5906687671    0.9034577434
N       -0.1528623341    0.4713118628   -0.4574988412
H        0.6497821372    1.0939707726   -2.4026611476
H       -1.6275029406   -0.7505422571   -1.5211997383
H       -2.1309663484   -1.8070298180    0.9061402078
H       -0.5600765916   -0.4904436999    2.6774654209
H        0.8148833828    1.3522689668    1.2433079224
C        2.1946947338    0.5086747153   -1.1676190141
H        2.9416911161    0.1759890824   -0.4614025620
13   
Frame  15 IRC: Energy =  -286.8712019047 ; +15.0820 kcal/mol
C        0.9721616373    0.7337941382   -1.4714077626
C       -1.1732068690   -0.5176533577   -0.5649438712
C       -1.4227536276   -1.0478627181    0.6856608407
C       -0.6096957037   -0.3304230587    1.6247248825
C        0.0859049751    0.6090927726    0.9026953281
N       -0.2064444207    0.5175880097   -0.4705810404
H        0.6799068762    1.1109788276   -2.4703044396
H       -1.6574685224   -0.7612794792   -1.4987874726
H       -2.1318241182   -1.8363462652    0.9345807163
H       -0.5492548572   -0.5039480090    2.6973441624
H        0.7811290769    1.3591161134    1.2365930494
C        2.2360812563    0.4966762082   -1.1573379392
H        2.9954642971    0.1702668181   -0.4482364537
13   
Frame  16 IRC: Energy =  -286.8508255616 ; +27.8684 kcal/mol
C        1.0729707777    0.7556098041   -1.5614386545
C       -1.1906132077   -0.5221038501   -0.5514395500
C       -1.4208577175   -1.0667496144    0.7023567399
C       -0.6121072674   -0.3383765569    1.6397856433
C        0.0586638137    0.6132021995    0.9108643490
N       -0.2907759215    0.5438740206   -0.4512322062
H        0.6716374316    1.1200910629   -2.5077483623
H       -1.6653489707   -0.7672487153   -1.4898131043
H       -2.1320997082   -1.8508332857    0.9490791497
H       -0.5448926754   -0.5084349771    2.7108249906
H        0.7649134962    1.3608814222    1.2281520117
C        2.2659371751    0.4890328933   -1.1387774722
H        3.0225727741    0.1710555969   -0.4406135347
13   
Frame  17 IRC: Energy =  -286.8370260039 ; +36.5277 kcal/mol (Transition State)
C        1.1906306827    0.7760013160   -1.6540385540
C       -1.1999884736   -0.5140384718   -0.5443296655
C       -1.4163644664   -1.0819037046    0.7226031559
C       -0.6165479926   -0.3451232118    1.6538936931
C        0.0336351679    0.6140824330    0.9164824045
N       -0.3779516117    0.5549533131   -0.4332280180
H        0.6595621263    1.1218568079   -2.5192736008
H       -1.6714629541   -0.7696708640   -1.4839749837
H       -2.1305714998   -1.8623858019    0.9601810829
H       -0.5409650800   -0.5127724379    2.7208000170
H        0.7521862378    1.3602485303    1.2203564638
C        2.2794076722    0.4854733564   -1.1225034909
H        3.0384301912    0.1732787353   -0.4369685042
13   
Frame  18 IRC: Energy =  -286.8384902554 ; +35.6089 kcal/mol
C        1.3064347618    0.7960132069   -1.7473752280
C       -1.2152567102   -0.4954069127   -0.5349730941
C       -1.4114040486   -1.0991236314    0.7554738979
C       -0.6287178339   -0.3606595467    1.6678502146
C       -0.0027450334    0.6210868963    0.9119465272
N       -0.4492481834    0.5722338276   -0.4275150466
H        0.6532161131    1.1201137382   -2.5234419236
H       -1.6797034384   -0.7718642230   -1.4762535303
H       -2.1270238489   -1.8797302010    0.9750632760
H       -0.5366452982   -0.5184192564    2.7324605475
H        0.7348100450    1.3575900955    1.2103099926
C        2.3001556029    0.4840626786   -1.1139541387
H        3.0561278721    0.1741033283   -0.4295914945
13   
Frame  19 IRC: Energy =  -286.8448801419 ; +31.5992 kcal/mol
C        1.4107840357    0.8125280344   -1.8299040899
C       -1.2467607468   -0.4717244857   -0.5172297811
C       -1.4165316740   -1.1138618437    0.7876286389
C       -0.6453749838   -0.3813826660    1.6770761517
C       -0.0462741573    0.6352561166    0.8989094706
N       -0.5000536555    0.5968262357   -0.4214065955
H        0.6623732505    1.1183648369   -2.5243662280
H       -1.6923431140   -0.7717357990   -1.4607988502
H       -2.1170870690   -1.9098887994    0.9949630144
H       -0.5312792847   -0.5277606856    2.7411004097
H        0.7098665287    1.3552062201    1.1987436429
C        2.3367397200    0.4845750287   -1.1210674823
H        3.0759411501    0.1735978070   -0.4236483011
13   
Frame  20 IRC: Energy =  -286.8505536941 ; +28.0390 kcal/mol
C        1.5005687963    0.8254867404   -1.8985051305
C       -1.2944141246   -0.4557647957   -0.4881859141
C       -1.4359241186   -1.1239168206    0.8081000947
C       -0.6617471982   -0.3978542029    1.6829681492
C       -0.0876886825    0.6514132214    0.8914152952
N       -0.5425439429    0.6266862362   -0.4086340571
H        0.6946898951    1.1204897609   -2.5264662592
H       -1.7176767565   -0.7685062277   -1.4401192000
H       -2.0997880520   -1.9522430162    1.0152881363
H       -0.5234970945   -0.5445191560    2.7441406975
H        0.6782376435    1.3606959300    1.1902639427
C        2.3854573515    0.4865954830   -1.1450677045
H        3.1043262834    0.1714368472   -0.4251980502
13   
Frame  21 IRC: Energy =  -286.8546425749 ; +25.4732 kcal/mol
C        1.5716850232    0.8332651206   -1.9385254607
C       -1.3418640200   -0.4449522876   -0.4675729527
C       -1.4556352440   -1.1322346413    0.8257781386
C       -0.6775068612   -0.4074951904    1.6885807296
C       -0.1257437451    0.6650632592    0.8915939731
N       -0.5894021628    0.6430996491   -0.3927323567
H        0.7448636106    1.1300394198   -2.5429278506
H       -1.7632054486   -0.7638520590   -1.4148434863
H       -2.0761178741   -1.9943564041    1.0302993837
H       -0.5113703275   -0.5682333759    2.7445605095
H        0.6358968260    1.3790065073    1.1909710842
C        2.4411983357    0.4889652893   -1.1728332270
H        3.1472018878    0.1716847129   -0.4423484848
13   
Frame  22 IRC: Energy =  -286.8574887019 ; +23.6872 kcal/mol
C        1.6236185681    0.8402912734   -1.9584834293
C       -1.3826999130   -0.4447757103   -0.4491610356
C       -1.4670268505   -1.1432005168    0.8374920878
C       -0.6876071324   -0.4165601498    1.6933770354
C       -0.1604379386    0.6749693630    0.8939584490
N       -0.6319732549    0.6538445478   -0.3797044906
H        0.8002875560    1.1423201001   -2.5653107094
H       -1.8215779482   -0.7583609264   -1.3917847053
H       -2.0549865501   -2.0271813653    1.0409875165
H       -0.4965536613   -0.5896519920    2.7438032881
H        0.5841128915    1.4039354663    1.1975305185
C        2.4907262923    0.4914573747   -1.1931423228
H        3.2041179412    0.1729125353   -0.4695622024
13   
Frame  23 IRC: Energy =  -286.8597173652 ; +22.2887 kcal/mol
C        1.6737717263    0.8479936110   -1.9704615816
C       -1.4222952720   -0.4449914593   -0.4342493625
C       -1.4749412506   -1.1577207361    0.8451737556
C       -0.6925912360   -0.4260264103    1.6957871320
C       -0.1968166347    0.6821849669    0.8995489131
N       -0.6814782643    0.6591110188   -0.3725224247
H        0.8561563351    1.1557206900   -2.5836819698
H       -1.8846821515   -0.7516768352   -1.3638192740
H       -2.0370313436   -2.0595387177    1.0515245516
H       -0.4789681167   -0.6090689668    2.7414605961
H        0.5247803466    1.4346386312    1.2052851705
C        2.5421306469    0.4947784388   -1.2107685318
H        3.2719652144    0.1745957686   -0.5032769745
13   
Frame  24 IRC: Energy =  -286.8614206278 ; +21.2199 kcal/mol
C        1.7213678548    0.8568376221   -1.9775047119
C       -1.4628065053   -0.4491670508   -0.4189545562
C       -1.4798743489   -1.1732909805    0.8546282071
C       -0.6961949794   -0.4363257101    1.6964899094
C       -0.2343995319    0.6905438886    0.8998316418
N       -0.7309597292    0.6683560730   -0.3615155487
H        0.9056295578    1.1690217597   -2.5894928499
H       -1.9489984210   -0.7493881584   -1.3415186787
H       -2.0189781783   -2.0883968235    1.0598720658
H       -0.4594694659   -0.6262289772    2.7349213847
H        0.4622768609    1.4626218913    1.2096947335
C        2.5977712178    0.4987167395   -1.2271748959
H        3.3446356687    0.1766997264   -0.5392767010
13   
Frame  25 IRC: Energy =  -286.8625287119 ; +20.5245 kcal/mol
C        1.7623248334    0.8762376283   -1.9855794902
C       -1.4914147072   -0.4547996466   -0.4057510883
C       -1.4843017775   -1.1899642155    0.8618068761
C       -0.7070929892   -0.4458572423    1.7032291353
C       -0.2748913807    0.6981452822    0.9134906729
N       -0.7673367379    0.6697336224   -0.3481396520
H        0.9432837018    1.2027720738   -2.5859600942
H       -1.9913498408   -0.7519280190   -1.3220698364
H       -2.0019075611   -2.1182962258    1.0641575992
H       -0.4561816636   -0.6414984261    2.7372698907
H        0.3955289034    1.4898730723    1.2298344260
C        2.6521347269    0.5009739796   -1.2591746340
H        3.4212044925    0.1646081168   -0.6031138050
13   
Frame  26 IRC: Energy =  -286.8632838989 ; +20.0507 kcal/mol
C        1.7984970586    0.9043527697   -1.9973813040
C       -1.5075662598   -0.4649120318   -0.3930023896
C       -1.4928294780   -1.2065970521    0.8712198133
C       -0.7274107446   -0.4559594111    1.7172459175
C       -0.3105047336    0.6986296716    0.9340267013
N       -0.7905631628    0.6654671921   -0.3313839663
H        0.9733173111    1.2487606892   -2.5796290702
H       -2.0138336949   -0.7600986836   -1.3065747178
H       -1.9957517530   -2.1442681737    1.0688260524
H       -0.4737066638   -0.6541079891    2.7501087399
H        0.3345353356    1.5069242742    1.2599959836
C        2.7054786685    0.5080047948   -1.3042730893
H        3.5003381167    0.1538039499   -0.6891786709
13   
Frame  27 IRC: Energy =  -286.8638898010 ; +19.6704 kcal/mol
C        1.8348371971    0.9345656898   -2.0102360679
C       -1.5200850954   -0.4781912857   -0.3800295101
C       -1.5055434395   -1.2227012673    0.8825468161
C       -0.7518034078   -0.4666863544    1.7334030106
C       -0.3409807875    0.6928837166    0.9534653828
N       -0.8129416582    0.6597950145   -0.3140621742
H        1.0019316830    1.2941040581   -2.5721558229
H       -2.0306469482   -0.7714153005   -1.2917989931
H       -1.9988135376   -2.1664174607    1.0761177696
H       -0.4998734241   -0.6649884331    2.7666764008
H        0.2811347269    1.5151342149    1.2891971916
C        2.7607604620    0.5209202707   -1.3526362622
H        3.5820242294    0.1529971372   -0.7804877410
13   
Frame  28 IRC: Energy =  -286.8643100545 ; +19.4067 kcal/mol
C        1.8729971883    0.9635510022   -2.0209010066
C       -1.5364119246   -0.4915442404   -0.3669298845
C       -1.5206385872   -1.2374486198    0.8935865396
C       -0.7757883369   -0.4773268231    1.7487592559
C       -0.3733238482    0.6890224811    0.9736014891
N       -0.8385274221    0.6535425508   -0.2954112682
H        1.0304931231    1.3374592048   -2.5579081961
H       -2.0449728520   -0.7848361765   -1.2798022020
H       -2.0039945283   -2.1870573656    1.0823599618
H       -0.5229949233   -0.6770226984    2.7815568105
H        0.2325902184    1.5202998427    1.3171361751
C        2.8181024969    0.5349029429   -1.4023903379
H        3.6624693958    0.1564578994   -0.8736573368
13   
Frame  29 IRC: Energy =  -286.8646753829 ; +19.1775 kcal/mol
C        1.9117480704    0.9924787504   -2.0311642738
C       -1.5531860456   -0.5045141514   -0.3535562566
C       -1.5356725403   -1.2522463608    0.9045995311
C       -0.8005635650   -0.4877727933    1.7643703982
C       -0.4056737467    0.6848846082    0.9934177587
N       -0.8648515589    0.6476444898   -0.2766938275
H        1.0587534909    1.3806345522   -2.5407657169
H       -2.0574549907   -0.7985368154   -1.2685200138
H       -2.0093030372   -2.2075953369    1.0884993778
H       -0.5476171250   -0.6885617545    2.7969335781
H        0.1865643417    1.5234012969    1.3438648186
C        2.8758171274    0.5493225909   -1.4533957764
H        3.7414395791    0.1608609240   -0.9675895976
13   
Frame  30 IRC: Energy =  -286.8649646211 ; +18.9960 kcal/mol
C        1.9513520371    1.0215276562   -2.0410329243
C       -1.5701332727   -0.5166872894   -0.3396475763
C       -1.5501184027   -1.2674109105    0.9156137870
C       -0.8270324246   -0.4978382809    1.7806579636
C       -0.4376745203    0.6798151138    1.0124450671
N       -0.8920602180    0.6425832167   -0.2580989610
H        1.0864091555    1.4238292914   -2.5190274229
H       -2.0666546249   -0.8123996902   -1.2581570951
H       -2.0144598866   -2.2282186316    1.0946329638
H       -0.5758970339   -0.6988648585    2.8136523848
H        0.1447388419    1.5228783376    1.3683665882
C        2.9338921825    0.5644272982   -1.5066868606
H        3.8176381668    0.1663587472   -1.0627179143
13   
Frame  31 IRC: Energy =  -286.8652088202 ; +18.8427 kcal/mol
C        1.9928776784    1.0504551838   -2.0498030601
C       -1.5872910158   -0.5302326526   -0.3268320069
C       -1.5676315057   -1.2813941327    0.9270354263
C       -0.8516232613   -0.5090403629    1.7955012761
C       -0.4695844395    0.6744197745    1.0307777204
N       -0.9194459889    0.6359521829   -0.2401981635
H        1.1144435209    1.4641943036   -2.4917833354
H       -2.0754175547   -0.8282455163   -1.2490235276
H       -2.0262303887   -2.2455223448    1.1027708208
H       -0.6019441163   -0.7102888636    2.8288073533
H        0.1057526954    1.5205465368    1.3911513900
C        2.9935119676    0.5825031868   -1.5611455168
H        3.8925824087    0.1766527043   -1.1572583766
13   
Frame  32 IRC: Energy =  -286.8654281852 ; +18.7051 kcal/mol
C        2.0351653367    1.0788862272   -2.0583034162
C       -1.6049362303   -0.5434854936   -0.3142238406
C       -1.5855389622   -1.2952361581    0.9381976083
C       -0.8763980812   -0.5203953692    1.8101451691
C       -0.5007745015    0.6684827226    1.0489391165
N       -0.9465746069    0.6290123877   -0.2223761753
H        1.1424633072    1.5022482540   -2.4615963094
H       -2.0844929079   -0.8437148284   -1.2401698864
H       -2.0392480254   -2.2621832600    1.1108266758
H       -0.6287933131   -0.7218023145    2.8439125781
H        0.0689874690    1.5167758773    1.4133663722
C        3.0536049493    0.6020220527   -1.6166794615
H        3.9665355663    0.1893899023   -1.2520384306
13   
Frame  33 IRC: Energy =  -286.8656104863 ; +18.5907 kcal/mol
C        2.0780320488    1.1057704998   -2.0670313047
C       -1.6240056585   -0.5543336809   -0.3011836268
C       -1.6016021613   -1.3098244809    0.9480644833
C       -0.9037351272   -0.5310898497    1.8256112002
C       -0.5296338297    0.6610580446    1.0672421724
N       -0.9726538587    0.6226562501   -0.2041017387
H        1.1700422818    1.5354447091   -2.4271913863
H       -2.0950723025   -0.8558648780   -1.2309875609
H       -2.0496256508   -2.2801125990    1.1165332270
H       -0.6606537855   -0.7324576563    2.8604677888
H        0.0367661543    1.5100296384    1.4354379467
C        3.1136940338    0.6233281173   -1.6746276546
H        4.0384478555    0.2053958855   -1.3482335463
13   
Frame  34 IRC: Energy =  -286.8657664989 ; +18.4928 kcal/mol
C        2.1225900505    1.1314601562   -2.0746158649
C       -1.6432956246   -0.5659097664   -0.2889923603
C       -1.6219399004   -1.3227748162    0.9588548803
C       -0.9289059589   -0.5432085702    1.8394269975
C       -0.5584481780    0.6526954535    1.0839677452
N       -0.9984087046    0.6150314597   -0.1876506144
H        1.1985806377    1.5620205756   -2.3895737734
H       -2.1070502736   -0.8686890032   -1.2219874387
H       -2.0674745619   -2.2946435892    1.1247526900
H       -0.6882590830   -0.7452494547    2.8747417904
H        0.0062807943    1.5017044632    1.4546700625
C        3.1752198976    0.6487404489   -1.7315733586
H        4.1111109049    0.2288226428   -1.4420207556
13   
Frame  35 IRC: Energy =  -286.8659060962 ; +18.4052 kcal/mol
C        2.1679098896    1.1563228783   -2.0814416213
C       -1.6627867800   -0.5775529989   -0.2772755103
C       -1.6441537937   -1.3349583956    0.9698525947
C       -0.9532161692   -0.5559633283    1.8524636313
C       -0.5868162274    0.6437204079    1.1000039389
N       -1.0236752465    0.6068026374   -0.1720371483
H        1.2276056153    1.5846087993   -2.3497468579
H       -2.1200613994   -0.8813347569   -1.2130864385
H       -2.0887023660   -2.3076005299    1.1337887176
H       -0.7142384153   -0.7590568366    2.8879762060
H       -0.0229316557    1.4924098277    1.4727156472
C        3.2372184874    0.6763223434   -1.7881443436
H        4.1838480608    0.2562799523   -1.5350688158
13   
Frame  36 IRC: Energy =  -286.8660138133 ; +18.3376 kcal/mol
C        2.2127640605    1.1790443182   -2.0864970850
C       -1.6830882907   -0.5867658538   -0.2661118484
C       -1.6647690978   -1.3473455536    0.9788112551
C       -0.9791076046   -0.5682788379    1.8656482771
C       -0.6115529026    0.6333788189    1.1166557350
N       -1.0461045896    0.5986445557   -0.1560615130
H        1.2568323141    1.6004209186   -2.3042860546
H       -2.1361356209   -0.8896724686   -1.2042810853
H       -2.1079882806   -2.3211230635    1.1394355975
H       -0.7438761846   -0.7727311682    2.9017359062
H       -0.0484231113    1.4813413522    1.4923341193
C        3.2973293195    0.7055096843   -1.8456486180
H        4.2541199887    0.2875772977   -1.6317346859
13   
Frame  37 IRC: Energy =  -286.8661086172 ; +18.2781 kcal/mol
C        2.2575232248    1.2003861854   -2.0899567848
C       -1.7030239851   -0.5953612682   -0.2554351089
C       -1.6867409078   -1.3589219621    0.9876105781
C       -1.0043982626   -0.5811333648    1.8781847348
C       -0.6351584234    0.6222573896    1.1327611429
N       -1.0670671713    0.5903021726   -0.1409005803
H        1.2867867982    1.6115939066   -2.2563850340
H       -2.1527980628   -0.8967246928   -1.1956781390
H       -2.1299463730   -2.3332177151    1.1450605138
H       -0.7725190094   -0.7874600956    2.9146528234
H       -0.0724989049    1.4692146262    1.5114685784
C        3.3564607454    0.7361763877   -1.9022196809
H        4.3233803320    0.3228884307   -1.7291630436
13   
Frame  38 IRC: Energy =  -286.8661889335 ; +18.2277 kcal/mol
C        2.3021757988    1.2201802747   -2.0916261566
C       -1.7225492611   -0.6032639603   -0.2453046598
C       -1.7102346163   -1.3695887698    0.9962311364
C       -1.0290148933   -0.5945926290    1.8899939739
C       -0.6574948733    0.6102610376    1.1482535442
N       -1.0863841561    0.5817530169   -0.1266536832
H        1.3175578035    1.6175621350   -2.2057462717
H       -2.1701204441   -0.9023346957   -1.1873022783
H       -2.1549024498   -2.3437103895    1.1506607886
H       -0.8000455806   -0.8033722011    2.9266242011
H       -0.0949864311    1.4559006218    1.5300600111
C        3.4144933507    0.7685028254   -1.9577437500
H        4.3915057527    0.3627027340   -1.8274468556