13   
Frame   0 IRC: Energy =  -286.8952366243 ; +0.0000 kcal/mol
C        0.9683724428    0.5027640436   -1.4234286779
C       -1.1135232367   -0.5112183895   -0.5624863437
C       -1.6461675913   -0.8031520969    0.6709417690
C       -0.6948296408   -0.3854688777    1.6533533516
C        0.3842361800    0.1468484056    0.9857085519
N        0.1310098147    0.0713524697   -0.3726949692
H        0.5356705251    0.3161123568   -2.4050507236
H       -1.5015729335   -0.6612208381   -1.5593076784
H       -2.6072594189   -1.2633784466    0.8523186341
H       -0.7930967599   -0.4684747737    2.7268430292
H        1.3064338740    0.5687295286    1.3544570466
C        2.1519877637    1.0747873978   -1.3211720827
H        2.8787389808    1.4123192209   -0.5994819073
