
Running Job 1 of 1 qcts2.in
qchem qcts2.in_65419.0 ./qcts2.d/ 1
/home/leeping/opt/qchem/5.0.2-openmp/exe/qcprog.exe_s qcts2.in_65419.0 ./qcts2.d/
Check license passed

                  Welcome to Q-Chem
     A Quantum Leap Into The Future Of Chemistry


 Q-Chem 5.0, Q-Chem, Inc., Pleasanton, CA (2017)

 Yihan Shao,  Zhengting Gan,  E. Epifanovsky,  A. T. B. Gilbert,  M. Wormit,  
 J. Kussmann,  A. W. Lange,  A. Behn,  Jia Deng,  Xintian Feng,  D. Ghosh,  
 M. Goldey,  P. R. Horn,  L. D. Jacobson,  I. Kaliman,  T. Kus,  A. Landau,  
 Jie Liu,  E. I. Proynov,  R. M. Richard,  R. P. Steele,  E. J. Sundstrom,  
 H. L. Woodcock III,  P. M. Zimmerman,  D. Zuev,  B. Albrecht,  E. Alguire,  
 S. A. Baeppler,  D. Barton,  Z. Benda,  Y. A. Bernard,  E. J. Berquist,  
 K. B. Bravaya,  H. Burton,  D. Casanova,  Chun-Min Chang,  Yunqing Chen,  
 A. Chien,  K. D. Closser,  M. P. Coons,  S. Dasgupta,  A. L. Dempwolff,  
 M. Diedenhofen,  Hainam Do,  R. G. Edgar,  Po-Tung Fang,  S. Fatehi,  
 Qingguo Feng,  J. Fosso-Tande,  Qinghui Ge,  A. Ghysels,  G. Gidofalvi,  
 J. Gomes,  J. Gonthier,  A. Gunina,  M. W. D. Hanson-Heine,  
 P. H. P. Harbach,  A. W. Hauser,  J. E. Herr,  E. G. Hohenstein,  
 Z. C. Holden,  Kerwin Hui,  T.-C. Jagau,  Hyunjun Ji,  B. Kaduk,  
 K. Khistyaev,  Jaehoon Kim,  P. Klunzinger,  K. Koh,  D. Kosenkov,  
 L. Koulias,  T. Kowalczyk,  C. M. Krauter,  A. Kunitsa,  Ka Un Lao,  
 A. Laurent,  K. V. Lawler,  Joonho Lee,  D. Lefrancois,  S. Lehtola,  
 D. S. Levine,  Yi-Pei Li,  You-Sheng Lin,  Fenglai Liu,  E. Livshits,  
 A. Luenser,  P. Manohar,  E. Mansoor,  S. F. Manzer,  Shan-Ping Mao,  
 Yuezhi Mao,  N. Mardirossian,  A. V. Marenich,  T. Markovich,  
 L. A. Martinez-Martinez,  S. A. Maurer,  N. J. Mayhall,  S. C. McKenzie,  
 J.-M. Mewes,  A. F. Morrison,  J. W. Mullinax,  K. Nanda,  
 T. S. Nguyen-Beck,  R. Olivares-Amaya,  J. A. Parkhill,  T. M. Perrine,  
 F. Plasser,  S. Prager,  A. Prociuk,  E. Ramos,  D. R. Rehn,  F. Rob,  
 M. Schneider,  N. Sergueev,  S. M. Sharada,  S. Sharma,  D. W. Small,  
 T. Stauch,  T. Stein,  Yu-Chuan Su,  A. J. W. Thom,  A. Tkatchenko,  
 T. Tsuchimochi,  L. Vogt,  O. Vydrov,  M. A. Watson,  J. Wenzel,  
 M. de Wergifosse,  T. A. Wesolowski,  A. White,  J. Witte,  A. Yamada,  
 Jun Yang,  K. Yao,  S. Yeganeh,  S. R. Yost,  Zhi-Qiang You,  A. Zech,  
 Igor Ying Zhang,  Xing Zhang,  Yan Zhao,  Ying Zhu,  B. R. Brooks,  
 G. K. L. Chan,  C. J. Cramer,  M. S. Gordon,  W. J. Hehre,  A. Klamt,  
 M. W. Schmidt,  C. D. Sherrill,  D. G. Truhlar,  A. Aspuru-Guzik,  R. Baer,  
 A. T. Bell,  N. A. Besley,  Jeng-Da Chai,  R. A. DiStasio Jr.,  A. Dreuw,  
 B. D. Dunietz,  T. R. Furlani,  Chao-Ping Hsu,  Yousung Jung,  Jing Kong,  
 D. S. Lambrecht,  WanZhen Liang,  C. Ochsenfeld,  V. A. Rassolov,  
 L. V. Slipchenko,  J. E. Subotnik,  T. Van Voorhis,  J. M. Herbert,  
 A. I. Krylov,  P. M. W. Gill,  M. Head-Gordon

 Contributors to earlier versions of Q-Chem not listed above: 
 R. D. Adamson,  B. Austin,  J. Baker,  G. J. O. Beran,  K. Brandhorst,  
 S. T. Brown,  E. F. C. Byrd,  A. K. Chakraborty,  C.-L. Cheng,  
 Siu Hung Chien,  D. M. Chipman,  D. L. Crittenden,  H. Dachsel,  
 R. J. Doerksen,  A. D. Dutoi,  L. Fusti-Molnar,  W. A. Goddard III,  
 A. Golubeva-Zadorozhnaya,  S. R. Gwaltney,  G. Hawkins,  A. Heyden,  
 S. Hirata,  G. Kedziora,  F. J. Keil,  C. Kelley,  Jihan Kim,  R. A. King,  
 R. Z. Khaliullin,  P. P. Korambath,  W. Kurlancheek,  A. M. Lee,  M. S. Lee,  
 S. V. Levchenko,  Ching Yeh Lin,  D. Liotard,  R. C. Lochan,  I. Lotan,  
 P. E. Maslen,  N. Nair,  D. P. O'Neill,  D. Neuhauser,  E. Neuscamman,  
 C. M. Oana,  R. Olson,  B. Peters,  R. Peverati,  P. A. Pieniazek,  
 Y. M. Rhee,  J. Ritchie,  M. A. Rohrdanz,  E. Rosta,  N. J. Russ,  
 H. F. Schaefer III,  N. E. Schultz,  N. Shenvi,  A. C. Simmonett,  A. Sodt,  
 D. Stuck,  K. S. Thanthiriwatte,  V. Vanovschi,  Tao Wang,  A. Warshel,  
 C. F. Williams,  Q. Wu,  X. Xu,  W. Zhang

 Please cite Q-Chem as follows:
 Y. Shao et al., Mol. Phys. 113, 184-215 (2015)
 DOI: 10.1080/00268976.2014.952696

 Q-Chem 5.0.2 for Intel X86 EM64T Linux

 Parts of Q-Chem use Armadillo 5.200.1 (Boston Tea Smuggler).
 http://arma.sourceforge.net/

 Q-Chem begins on Tue Mar  1 12:02:04 2022  

Host: 
0

     Scratch files written to ./qcts2.d//
 Dec517 15110_ 26548  26544 5633   
Processing $rem in /home/leeping/opt/qchem/5.0.2-openmp/config/preferences.
 MEM_STATIC 2000
 MEM_TOTAL  8000
 SYMMETRY   OFF
 SYM_IGNORE TRUE 

Checking the input file for inconsistencies... 	...done.

--------------------------------------------------------------
User input:
--------------------------------------------------------------
$molecule
0 2
C        1.2105802217    0.8091903406   -1.6761692352
C       -1.2282908505   -0.4906158459   -0.5531545176
C       -1.4279647333   -1.0939078703    0.7099386914
C       -0.6163792518   -0.3812460730    1.6407290983
C        0.0215904412    0.5915263488    0.9110363705
N       -0.4209531113    0.5676970579   -0.4323858610
H        0.6443937301    1.1575920432   -2.5142046045
H       -1.7164153186   -0.7267874143   -1.4912121223
H       -2.1477502011   -1.8721494116    0.9370089246
H       -0.5245303127   -0.5716559601    2.7019297763
H        0.7564817336    1.3247582114    1.2136155470
C        2.2716760991    0.5116414493   -1.1232987459
H        3.0220034107    0.1920514965   -0.4342697475
$end

$rem
method                b3lyp
basis                 6-31+g(d,p)
unrestricted          true
symmetry              off
sym_ignore            true
incdft                false
incfock               0
scf_convergence       8
thresh                14
jobtype               ts
scf_guess             read
scf_algorithm         diis
max_scf_cycles        100
geom_opt_max_cycles   500
geom_opt_dmax         100
geom_opt_tol_gradient 10
geom_opt_hessian      read
$end

--------------------------------------------------------------
 ----------------------------------------------------------------
             Standard Nuclear Orientation (Angstroms)
    I     Atom           X                Y                Z
 ----------------------------------------------------------------
    1      C       1.2105802217     0.8091903406    -1.6761692352
    2      C      -1.2282908505    -0.4906158459    -0.5531545176
    3      C      -1.4279647333    -1.0939078703     0.7099386914
    4      C      -0.6163792518    -0.3812460730     1.6407290983
    5      C       0.0215904412     0.5915263488     0.9110363705
    6      N      -0.4209531113     0.5676970579    -0.4323858610
    7      H       0.6443937301     1.1575920432    -2.5142046045
    8      H      -1.7164153186    -0.7267874143    -1.4912121223
    9      H      -2.1477502011    -1.8721494116     0.9370089246
   10      H      -0.5245303127    -0.5716559601     2.7019297763
   11      H       0.7564817336     1.3247582114     1.2136155470
   12      C       2.2716760991     0.5116414493    -1.1232987459
   13      H       3.0220034107     0.1920514965    -0.4342697475
 ----------------------------------------------------------------
 Nuclear Repulsion Energy =   253.3389376716 hartrees
 There are       25 alpha and       24 beta electrons
 Requested basis set is 6-31+G(d,p)
 There are 53 shells and 163 basis functions

 Total QAlloc Memory Limit   8000 MB
 Mega-Array Size      1956 MB
 MEM_STATIC part      2000 MB
 A cutoff of  1.0D-14 yielded   1352 shell pairs
 There are     13237 function pairs
 
 -------------------------------------------------------
 OpenMP Integral Computing Module                       
 Release: version 1.0, May 2013, Q-Chem Inc. Pittsburgh 
 -------------------------------------------------------
 Integral Job Info:
 Integral job number is                      11
 Integral operator is                         1
 short-range coefficients                     0
 long-range coefficients              100000000
 Omega coefficients                           0
 if combine SR and LR in K                    0
 Integral screening is                        0
 Integral computing path is                   2
 max size of driver memory is            800000
 size of driver memory is                593474
 size of scratch memory is              2361544
 max col of scratch BK array               1296
 max len of scratch array in speh3          155
 max len of scratch index in speh4           18
 max int batch size is                      520
 min int batch size is                       52
 fixed nKL is                                52
 max L of basis functions is                  2
 order of int derivative is                   0
 number of shells is                         53
 number of basis is                         163
 number of cartesian basis is               163
 number of contracted shell pairs          1352
 number of primitive shell pairs           4471
 maxK2 (contraction) of shell pair           36
 max number of K2 of shell pair               1
 max number of CS2 of shell pair            130
 max number of PS2 of shell pair            702
 mem total for path MDJ                  529068
 -------------------------------------------------------
 Smallest overlap matrix eigenvalue = 1.81E-05

 Scale SEOQF with 1.000000e-01/1.000000e-01/1.000000e-01

 Standard Electronic Orientation quadrupole field applied
 Nucleus-field energy     =    -0.0000000026 hartrees
 Guess MOs from SCF MO coefficient file
 Reading MOs from coefficient file
 Reading MOs from coefficient file
 An unrestricted hybrid HF-DFT SCF calculation will be
 performed using Pulay DIIS extrapolation
 Exchange:     0.2000 Hartree-Fock + 0.0800 Slater + 0.7200 B88
 Correlation:  0.1900 VWN1RPA + 0.8100 LYP
 Using SG-1 standard quadrature grid
 SCF converges when DIIS error is below 1.0E-08
Using Q-Chem read-in guess as SCF_GUESS READ specified.

 using 4 threads for integral computing
 -------------------------------------------------------
 OpenMP Integral computing Module                
 Release: version 1.0, May 2013, Q-Chem Inc. Pittsburgh 
 -------------------------------------------------------
 -------------------------------------------------------
 OpenMP BLAS3 based DFT computing Module                
 Release: version 1.0, May 2013, Q-Chem Inc. Pittsburgh 
 -------------------------------------------------------
 ---------------------------------------
  Cycle       Energy         DIIS Error
 ---------------------------------------
    1    -286.8359424659      8.15E-10
    2    -286.8359424659      1.36E-09 Convergence criterion met
 ---------------------------------------
 <S^2> = 0.7757
 SCF time:  CPU 9.72 s  wall 7.37 s
 SCF   energy in the final basis set = -286.83594247
 Total energy in the final basis set = -286.83594247
 
 --------------------------------------------------------------
 
                    Orbital Energies (a.u.)
 --------------------------------------------------------------
 
 Alpha MOs
 -- Occupied --
-14.363 -10.230 -10.223 -10.214 -10.213 -10.210 -10.187  -0.963
 -0.781  -0.759  -0.722  -0.584  -0.570  -0.555  -0.523  -0.495
 -0.421  -0.417  -0.403  -0.391  -0.346  -0.304  -0.270  -0.239
 -0.225
 -- Virtual --
 -0.007   0.005   0.013   0.018   0.028   0.033   0.042   0.046
  0.049   0.052   0.063   0.072   0.079   0.095   0.102   0.109
  0.117   0.126   0.140   0.142   0.147   0.156   0.168   0.180
  0.183   0.187   0.194   0.211   0.218   0.225   0.236   0.250
  0.257   0.261   0.277   0.284   0.288   0.298   0.326   0.329
  0.415   0.454   0.486   0.505   0.638   0.661   0.679   0.693
  0.697   0.709   0.717   0.722   0.734   0.742   0.758   0.799
  0.843   0.872   0.884   0.893   0.900   0.916   0.948   0.973
  0.993   1.028   1.043   1.054   1.088   1.119   1.163   1.195
  1.209   1.216   1.242   1.278   1.325   1.360   1.362   1.382
  1.422   1.432   1.506   1.536   1.586   1.660   1.711   1.780
  1.844   1.852   1.893   1.927   1.934   1.991   2.004   2.009
  2.040   2.075   2.144   2.154   2.192   2.252   2.286   2.373
  2.391   2.416   2.417   2.437   2.463   2.483   2.504   2.547
  2.553   2.614   2.638   2.658   2.738   2.759   2.804   2.843
  2.866   2.906   2.923   3.029   3.209   3.239   3.320   3.594
  3.596   3.697   3.783   4.171   4.336   4.362   4.568   4.603
  4.759   4.850
 
 Beta MOs
 -- Occupied --
-14.356 -10.231 -10.219 -10.214 -10.208 -10.204 -10.188  -0.952
 -0.772  -0.750  -0.713  -0.578  -0.565  -0.551  -0.517  -0.492
 -0.414  -0.403  -0.397  -0.387  -0.331  -0.300  -0.254  -0.221
 -- Virtual --
 -0.142  -0.000   0.007   0.014   0.019   0.028   0.035   0.048
  0.050   0.055   0.062   0.065   0.073   0.081   0.096   0.105
  0.111   0.119   0.130   0.141   0.146   0.150   0.158   0.170
  0.181   0.184   0.189   0.196   0.212   0.219   0.226   0.241
  0.251   0.261   0.263   0.279   0.286   0.290   0.300   0.327
  0.330   0.420   0.457   0.489   0.510   0.647   0.664   0.685
  0.696   0.706   0.713   0.722   0.736   0.743   0.745   0.761
  0.799   0.845   0.875   0.886   0.895   0.903   0.919   0.950
  0.976   1.000   1.036   1.049   1.056   1.093   1.123   1.165
  1.199   1.214   1.220   1.246   1.282   1.330   1.365   1.369
  1.389   1.431   1.438   1.511   1.547   1.599   1.672   1.726
  1.793   1.853   1.858   1.903   1.931   1.935   1.990   2.007
  2.012   2.043   2.081   2.153   2.165   2.197   2.259   2.293
  2.376   2.395   2.417   2.419   2.442   2.464   2.492   2.509
  2.553   2.560   2.618   2.645   2.663   2.743   2.765   2.813
  2.846   2.867   2.909   2.926   3.032   3.211   3.240   3.321
  3.597   3.600   3.702   3.785   4.181   4.341   4.368   4.572
  4.607   4.763   4.857
 --------------------------------------------------------------
 
          Ground-State Mulliken Net Atomic Charges

     Atom                 Charge (a.u.)    Spin (a.u.)
  --------------------------------------------------------
      1 C                    -0.149518      -0.098048
      2 C                    -0.070392      -0.088033
      3 C                    -0.111057       0.428398
      4 C                    -0.013122      -0.143030
      5 C                    -0.310903       0.267891
      6 N                    -0.133053       0.270161
      7 H                     0.172754       0.009381
      8 H                     0.125389       0.001875
      9 H                     0.132966      -0.017003
     10 H                     0.128551       0.004136
     11 H                     0.135709      -0.012145
     12 C                    -0.083600       0.390396
     13 H                     0.176277      -0.013980
  --------------------------------------------------------
  Sum of atomic charges =    -0.000000
  Sum of spin   charges =     1.000000

 -----------------------------------------------------------------
                    Cartesian Multipole Moments
 -----------------------------------------------------------------
    Charge (ESU x 10^10)
                 0.0000
    Dipole Moment (Debye)
         X       0.2830      Y      -0.6536      Z       0.2186
       Tot       0.7450
    Quadrupole Moments (Debye-Ang)
        XX     -39.5124     XY       2.7238     YY     -43.0875
        XZ       3.0703     YZ      -0.7750     ZZ     -38.2918
    Octopole Moments (Debye-Ang^2)
       XXX      10.5831    XXY     -10.9687    XYY      -3.7277
       YYY     -10.3262    XXZ       8.5666    XYZ       3.2753
       YYZ       4.4033    XZZ      -6.0182    YZZ      -0.5098
       ZZZ       5.3271
    Hexadecapole Moments (Debye-Ang^3)
      XXXX    -441.8587   XXXY     -84.2812   XXYY    -110.3854
      XYYY     -82.6948   YYYY    -191.4913   XXXZ     122.8038
      XXYZ      22.1281   XYYZ      34.9120   YYYZ      52.5393
      XXZZ    -164.5553   XYZZ     -23.0620   YYZZ     -94.1585
      XZZZ     114.1259   YZZZ      33.7467   ZZZZ    -364.2831
 -----------------------------------------------------------------
 Calculating analytic gradient of the SCF energy
 Gradient of SCF Energy
            1           2           3           4           5           6
    1   0.0034096   0.0013550   0.0010205   0.0006488  -0.0018220  -0.0007131
    2  -0.0015127   0.0002200   0.0013030   0.0014528  -0.0028502  -0.0002680
    3   0.0037826   0.0026390  -0.0010345  -0.0019300   0.0007579  -0.0009266
            7           8           9          10          11          12
    1   0.0002384  -0.0001858  -0.0003121  -0.0001094   0.0003493  -0.0036542
    2   0.0000793   0.0001835  -0.0001660  -0.0001774   0.0002516   0.0015663
    3  -0.0003206  -0.0003833   0.0001875   0.0003742  -0.0003707  -0.0030311
           13
    1  -0.0002251
    2  -0.0000822
    3   0.0002557
 Max gradient component =       3.783E-03
 RMS gradient           =       1.491E-03
 Gradient time:  CPU 16.05 s  wall 7.36 s
 Geometry Optimization Parameters
   NAtoms,    NIC,     NZ,  NCons,   NDum,   NFix, NCnnct, MaxDiis
       13      84       0       0       0       0       0       0

 Cartesian Hessian read from HESS file


** GEOMETRY OPTIMIZATION IN DELOCALIZED INTERNAL COORDINATES **
   Searching for a Transition State

   Optimization Cycle:   1

                       Coordinates (Angstroms)
     ATOM                X               Y               Z
      1  C         1.2105802217    0.8091903406   -1.6761692352
      2  C        -1.2282908505   -0.4906158459   -0.5531545176
      3  C        -1.4279647333   -1.0939078703    0.7099386914
      4  C        -0.6163792518   -0.3812460730    1.6407290983
      5  C         0.0215904412    0.5915263488    0.9110363705
      6  N        -0.4209531113    0.5676970579   -0.4323858610
      7  H         0.6443937301    1.1575920432   -2.5142046045
      8  H        -1.7164153186   -0.7267874143   -1.4912121223
      9  H        -2.1477502011   -1.8721494116    0.9370089246
     10  H        -0.5245303127   -0.5716559601    2.7019297763
     11  H         0.7564817336    1.3247582114    1.2136155470
     12  C         2.2716760991    0.5116414493   -1.1232987459
     13  H         3.0220034107    0.1920514965   -0.4342697475
   Point Group: c1    Number of degrees of freedom:    33


   Energy is   -286.835942466


 Attempting to Generate Delocalized Internal Coordinates

 Transforming Cartesian Hessian to Internal Coordinates
 Hessian Transformation does not Include Derivative of B-matrix

 33 Hessian modes will be used to form the next step
  Hessian Eigenvalues:
    -0.069825    0.001805    0.004393    0.005883    0.011139    0.013001
     0.014739    0.017316    0.021871    0.031770    0.039141    0.045240
     0.048987    0.062088    0.079615    0.092274    0.102884    0.106528
     0.113884    0.191179    0.206741    0.237985    0.292108    0.362157
     0.365629    0.369649    0.376262    0.386698    0.392763    0.401693
     0.412127    0.529040    0.945446

 Transition State Search - Taking P-RFO Step
 Searching for Lamda that Maximizes Along the Lowest mode
 Value Taken    Lamda =   0.00000084
 Searching for Lamda that Minimizes Along All other modes
 Value Taken    Lamda =  -0.00010864
 Step Taken.  Stepsize is  0.060601

                             Maximum     Tolerance    Cnvgd?
         Gradient           0.003200      0.000010      NO
         Displacement       0.032565      0.001200      NO
         Energy change     *********      0.000001      NO


 New Cartesian Coordinates Obtained by Inverse Iteration

 Displacement from previous Coordinates is:  0.138410
 ----------------------------------------------------------------
             Standard Nuclear Orientation (Angstroms)
    I     Atom           X                Y                Z
 ----------------------------------------------------------------
    1      C       1.2072609849     0.8157991416    -1.6806554799
    2      C      -1.2178037068    -0.4941132860    -0.5541497420
    3      C      -1.4235138467    -1.0960095612     0.7094530589
    4      C      -0.6232259113    -0.3753064055     1.6462591707
    5      C       0.0168401497     0.6016460199     0.9197204214
    6      N      -0.4156366292     0.5701657185    -0.4266568026
    7      H       0.6361166971     1.1816617074    -2.5074653154
    8      H      -1.6928382925    -0.7381253530    -1.4960499128
    9      H      -2.1375689103    -1.8802404170     0.9312310053
   10      H      -0.5386384457    -0.5611706404     2.7083316754
   11      H       0.7425681917     1.3397053996     1.2308097028
   12      C       2.2663346737     0.4947351342    -1.1318561473
   13      H       3.0245469026     0.1593469144    -0.4594080602
 ----------------------------------------------------------------
 Nuclear Repulsion Energy =   253.1523860186 hartrees
 There are       25 alpha and       24 beta electrons
 Applying Cartesian multipole field
    Component          Value
    ---------          -----
     (2,0,0)        1.00000E-11
     (0,2,0)        2.00000E-11
     (0,0,2)       -3.00000E-11
 Nucleus-field energy     =    -0.0000000027 hartrees
 Requested basis set is 6-31+G(d,p)
 There are 53 shells and 163 basis functions
 A cutoff of  1.0D-14 yielded   1351 shell pairs
 There are     13234 function pairs
 Smallest overlap matrix eigenvalue = 1.85E-05
 Guess MOs from SCF MO coefficient file
 Reading MOs from coefficient file
 Reading MOs from coefficient file
 An unrestricted hybrid HF-DFT SCF calculation will be
 performed using Pulay DIIS extrapolation
 Exchange:     0.2000 Hartree-Fock + 0.0800 Slater + 0.7200 B88
 Correlation:  0.1900 VWN1RPA + 0.8100 LYP
 Using SG-1 standard quadrature grid
 SCF converges when DIIS error is below 1.0E-08
 Geometry optimization detected.  Setting ReadMinima to 0
 Setting SaveMinima to 0
Using Q-Chem read-in guess as SCF_GUESS READ specified.

 using 4 threads for integral computing
 -------------------------------------------------------
 OpenMP Integral computing Module                
 Release: version 1.0, May 2013, Q-Chem Inc. Pittsburgh 
 -------------------------------------------------------
 -------------------------------------------------------
 OpenMP BLAS3 based DFT computing Module                
 Release: version 1.0, May 2013, Q-Chem Inc. Pittsburgh 
 -------------------------------------------------------
 ---------------------------------------
  Cycle       Energy         DIIS Error
 ---------------------------------------
    1    -286.8310671936      5.28E-04
    2    -286.8359725843      5.92E-05
    3    -286.8359778210      6.53E-05
    4    -286.8359921641      1.56E-05
    5    -286.8359929227      1.31E-05
    6    -286.8359937368      4.28E-06
    7    -286.8359939551      2.32E-06
    8    -286.8359941768      1.54E-06
    9    -286.8359942988      1.33E-06
   10    -286.8359943520      3.55E-07
   11    -286.8359943545      2.23E-07
   12    -286.8359943571      6.42E-08
   13    -286.8359943578      4.02E-08
   14    -286.8359943579      2.00E-08
   15    -286.8359943580      5.99E-09 Convergence criterion met
 ---------------------------------------
 <S^2> = 0.7759
 SCF time:  CPU 72.57 s  wall 33.91 s
 SCF   energy in the final basis set = -286.83599436
 Total energy in the final basis set = -286.83599436
 
 --------------------------------------------------------------
 
                    Orbital Energies (a.u.)
 --------------------------------------------------------------
 
 Alpha MOs
 -- Occupied --
-14.364 -10.231 -10.222 -10.215 -10.213 -10.209 -10.187  -0.962
 -0.781  -0.758  -0.722  -0.585  -0.570  -0.555  -0.522  -0.496
 -0.421  -0.417  -0.402  -0.391  -0.346  -0.304  -0.269  -0.239
 -0.225
 -- Virtual --
 -0.007   0.004   0.013   0.018   0.027   0.033   0.042   0.046
  0.049   0.052   0.063   0.072   0.079   0.095   0.102   0.109
  0.118   0.126   0.139   0.142   0.147   0.156   0.168   0.179
  0.183   0.187   0.193   0.211   0.218   0.224   0.236   0.250
  0.257   0.262   0.277   0.283   0.287   0.299   0.325   0.328
  0.415   0.453   0.485   0.505   0.640   0.661   0.678   0.692
  0.697   0.709   0.717   0.723   0.736   0.742   0.757   0.799
  0.843   0.871   0.884   0.892   0.900   0.916   0.949   0.973
  0.992   1.029   1.044   1.055   1.088   1.122   1.164   1.195
  1.208   1.218   1.242   1.279   1.323   1.360   1.360   1.380
  1.422   1.432   1.506   1.536   1.587   1.660   1.712   1.776
  1.844   1.851   1.892   1.926   1.933   1.986   2.004   2.007
  2.039   2.074   2.143   2.154   2.190   2.250   2.284   2.369
  2.391   2.412   2.418   2.438   2.464   2.482   2.502   2.546
  2.552   2.613   2.638   2.659   2.738   2.760   2.801   2.843
  2.865   2.905   2.923   3.025   3.209   3.241   3.321   3.589
  3.596   3.704   3.782   4.169   4.336   4.362   4.565   4.603
  4.759   4.869
 
 Beta MOs
 -- Occupied --
-14.357 -10.232 -10.218 -10.214 -10.210 -10.204 -10.188  -0.951
 -0.771  -0.749  -0.713  -0.579  -0.564  -0.551  -0.516  -0.493
 -0.414  -0.402  -0.396  -0.387  -0.330  -0.300  -0.253  -0.220
 -- Virtual --
 -0.142  -0.000   0.006   0.013   0.019   0.028   0.034   0.048
  0.050   0.055   0.062   0.065   0.074   0.081   0.096   0.105
  0.111   0.119   0.130   0.141   0.145   0.149   0.158   0.170
  0.181   0.184   0.189   0.196   0.212   0.219   0.226   0.241
  0.251   0.261   0.264   0.279   0.286   0.289   0.300   0.327
  0.329   0.420   0.456   0.489   0.510   0.649   0.664   0.684
  0.695   0.706   0.714   0.721   0.736   0.744   0.746   0.761
  0.799   0.845   0.874   0.886   0.895   0.902   0.919   0.950
  0.976   0.999   1.036   1.050   1.058   1.093   1.126   1.166
  1.199   1.213   1.223   1.246   1.284   1.328   1.363   1.369
  1.387   1.431   1.438   1.511   1.547   1.600   1.671   1.726
  1.790   1.853   1.857   1.903   1.929   1.934   1.986   2.006
  2.011   2.042   2.080   2.152   2.166   2.195   2.257   2.291
  2.373   2.395   2.413   2.419   2.442   2.464   2.491   2.508
  2.553   2.558   2.617   2.645   2.664   2.743   2.765   2.809
  2.846   2.867   2.909   2.926   3.028   3.211   3.242   3.322
  3.592   3.598   3.709   3.784   4.180   4.340   4.368   4.568
  4.608   4.763   4.876
 --------------------------------------------------------------
 
          Ground-State Mulliken Net Atomic Charges

     Atom                 Charge (a.u.)    Spin (a.u.)
  --------------------------------------------------------
      1 C                    -0.147918      -0.100250
      2 C                    -0.075820      -0.092103
      3 C                    -0.109503       0.423182
      4 C                    -0.019345      -0.139319
      5 C                    -0.305210       0.260349
      6 N                    -0.132254       0.277487
      7 H                     0.173556       0.009542
      8 H                     0.125430       0.002190
      9 H                     0.132608      -0.016709
     10 H                     0.128227       0.004075
     11 H                     0.135773      -0.011765
     12 C                    -0.082998       0.397828
     13 H                     0.177453      -0.014509
  --------------------------------------------------------
  Sum of atomic charges =     0.000000
  Sum of spin   charges =     1.000000

 -----------------------------------------------------------------
                    Cartesian Multipole Moments
 -----------------------------------------------------------------
    Charge (ESU x 10^10)
                 0.0000
    Dipole Moment (Debye)
         X       0.3489      Y      -0.6310      Z       0.1616
       Tot       0.7389
    Quadrupole Moments (Debye-Ang)
        XX     -39.5041     XY       2.6653     YY     -42.9953
        XZ       2.9678     YZ      -0.8088     ZZ     -38.2921
    Octopole Moments (Debye-Ang^2)
       XXX      11.4219    XXY     -11.1828    XYY      -3.6735
       YYY     -10.2023    XXZ       8.1705    XYZ       3.2452
       YYZ       4.1819    XZZ      -5.9952    YZZ      -0.2609
       ZZZ       5.3488
    Hexadecapole Moments (Debye-Ang^3)
      XXXX    -438.3409   XXXY     -84.4230   XXYY    -110.0576
      XYYY     -81.5413   YYYY    -191.9327   XXXZ     122.4341
      XXYZ      21.9497   XYYZ      35.2073   YYYZ      51.7283
      XXZZ    -164.5306   XYZZ     -22.6182   YYZZ     -94.2615
      XZZZ     115.0703   YZZZ      33.0922   ZZZZ    -367.1948
 -----------------------------------------------------------------
 Calculating analytic gradient of the SCF energy
 Gradient of SCF Energy
            1           2           3           4           5           6
    1   0.0000408   0.0000580   0.0000131  -0.0000147  -0.0000217  -0.0000304
    2   0.0000799   0.0000188  -0.0000087  -0.0000001  -0.0000035  -0.0000206
    3   0.0000643  -0.0000305   0.0000122  -0.0000119   0.0000179  -0.0000126
            7           8           9          10          11          12
    1   0.0000128  -0.0000003   0.0000013  -0.0000034  -0.0000017  -0.0000440
    2   0.0000009   0.0000055  -0.0000018  -0.0000069  -0.0000037  -0.0000702
    3   0.0000050   0.0000005  -0.0000053  -0.0000029  -0.0000036  -0.0000478
           13
    1  -0.0000100
    2   0.0000104
    3   0.0000148
 Max gradient component =       7.994E-05
 RMS gradient           =       2.766E-05
 Gradient time:  CPU 15.71 s  wall 4.15 s
 Geometry Optimization Parameters
   NAtoms,    NIC,     NZ,  NCons,   NDum,   NFix, NCnnct, MaxDiis
       13      84       0       0       0       0       0       0

 Cartesian Hessian Update
 Hessian Updated using Powell/Murtagh-Sargent Update
  Mixing factors:     0.990915 Powell
                      0.009085 Murtagh-Sargent


** GEOMETRY OPTIMIZATION IN DELOCALIZED INTERNAL COORDINATES **
   Searching for a Transition State

   Optimization Cycle:   2

                       Coordinates (Angstroms)
     ATOM                X               Y               Z
      1  C         1.2072609849    0.8157991416   -1.6806554799
      2  C        -1.2178037068   -0.4941132860   -0.5541497420
      3  C        -1.4235138467   -1.0960095612    0.7094530589
      4  C        -0.6232259113   -0.3753064055    1.6462591707
      5  C         0.0168401497    0.6016460199    0.9197204214
      6  N        -0.4156366292    0.5701657185   -0.4266568026
      7  H         0.6361166971    1.1816617074   -2.5074653154
      8  H        -1.6928382925   -0.7381253530   -1.4960499128
      9  H        -2.1375689103   -1.8802404170    0.9312310053
     10  H        -0.5386384457   -0.5611706404    2.7083316754
     11  H         0.7425681917    1.3397053996    1.2308097028
     12  C         2.2663346737    0.4947351342   -1.1318561473
     13  H         3.0245469026    0.1593469144   -0.4594080602
   Point Group: c1    Number of degrees of freedom:    33


   Energy is   -286.835994358

 Hessian Updated using Powell/Murtagh-Sargent Update
  Mixing factors:     0.858651 Powell
                      0.141349 Murtagh-Sargent

 33 Hessian modes will be used to form the next step
  Hessian Eigenvalues:
    -0.069810    0.003114    0.004405    0.005776    0.011136    0.012986
     0.014566    0.017188    0.021888    0.031875    0.039584    0.045237
     0.049110    0.062133    0.079655    0.092278    0.102890    0.106514
     0.113896    0.191286    0.206743    0.237981    0.292112    0.362158
     0.365641    0.369656    0.376264    0.386734    0.392763    0.401694
     0.412128    0.528975    0.945425

 Transition State Search - Taking P-RFO Step
 Searching for Lamda that Maximizes Along the Lowest mode
 Value Taken    Lamda =   0.00000000
 Searching for Lamda that Minimizes Along All other modes
 Value Taken    Lamda =  -0.00000187
 Step Taken.  Stepsize is  0.022215

                             Maximum     Tolerance    Cnvgd?
         Gradient           0.000098      0.000010      NO
         Displacement       0.015304      0.001200      NO
         Energy change     -0.000052      0.000001      NO


 New Cartesian Coordinates Obtained by Inverse Iteration

 Displacement from previous Coordinates is:  0.046436
 ----------------------------------------------------------------
             Standard Nuclear Orientation (Angstroms)
    I     Atom           X                Y                Z
 ----------------------------------------------------------------
    1      C       1.2077652204     0.8122333050    -1.6818005770
    2      C      -1.2198438720    -0.4926154065    -0.5538258511
    3      C      -1.4267339769    -1.0947785922     0.7095267100
    4      C      -0.6235534115    -0.3773283592     1.6462727594
    5      C       0.0191098746     0.5982155808     0.9200058127
    6      N      -0.4142413132     0.5689798019    -0.4260196596
    7      H       0.6347093254     1.1705325061    -2.5106072238
    8      H      -1.6962551767    -0.7343866559    -1.4956246582
    9      H      -2.1432813612    -1.8767831046     0.9311414521
   10      H      -0.5388998039    -0.5642284147     2.7081573722
   11      H       0.7471191203     1.3339347302     1.2313162421
   12      C       2.2686526915     0.5006836432    -1.1310397534
   13      H       3.0298945402     0.1736353383    -0.4579390512
 ----------------------------------------------------------------
 Nuclear Repulsion Energy =   253.1277397514 hartrees
 There are       25 alpha and       24 beta electrons
 Applying Cartesian multipole field
    Component          Value
    ---------          -----
     (2,0,0)        1.00000E-11
     (0,2,0)        2.00000E-11
     (0,0,2)       -3.00000E-11
 Nucleus-field energy     =    -0.0000000027 hartrees
 Requested basis set is 6-31+G(d,p)
 There are 53 shells and 163 basis functions
 A cutoff of  1.0D-14 yielded   1351 shell pairs
 There are     13234 function pairs
 Smallest overlap matrix eigenvalue = 1.85E-05
 Guess MOs from SCF MO coefficient file
 Reading MOs from coefficient file
 Reading MOs from coefficient file
 An unrestricted hybrid HF-DFT SCF calculation will be
 performed using Pulay DIIS extrapolation
 Exchange:     0.2000 Hartree-Fock + 0.0800 Slater + 0.7200 B88
 Correlation:  0.1900 VWN1RPA + 0.8100 LYP
 Using SG-1 standard quadrature grid
 SCF converges when DIIS error is below 1.0E-08
 Geometry optimization detected.  Setting ReadMinima to 0
 Setting SaveMinima to 0
Using Q-Chem read-in guess as SCF_GUESS READ specified.

 using 4 threads for integral computing
 -------------------------------------------------------
 OpenMP Integral computing Module                
 Release: version 1.0, May 2013, Q-Chem Inc. Pittsburgh 
 -------------------------------------------------------
 -------------------------------------------------------
 OpenMP BLAS3 based DFT computing Module                
 Release: version 1.0, May 2013, Q-Chem Inc. Pittsburgh 
 -------------------------------------------------------
 ---------------------------------------
  Cycle       Energy         DIIS Error
 ---------------------------------------
    1    -286.8359722288      1.88E-04
    2    -286.8359941095      1.28E-05
    3    -286.8359947290      1.19E-05
    4    -286.8359951006      6.62E-06
    5    -286.8359952381      2.68E-06
    6    -286.8359952613      8.75E-07
    7    -286.8359952651      2.16E-07
    8    -286.8359952656      9.93E-08
    9    -286.8359952659      8.01E-08
   10    -286.8359952662      6.29E-08
   11    -286.8359952663      2.21E-08
   12    -286.8359952663      1.86E-08
   13    -286.8359952663      4.47E-09 Convergence criterion met
 ---------------------------------------
 <S^2> = 0.7759
 SCF time:  CPU 62.90 s  wall 28.66 s
 SCF   energy in the final basis set = -286.83599527
 Total energy in the final basis set = -286.83599527
 
 --------------------------------------------------------------
 
                    Orbital Energies (a.u.)
 --------------------------------------------------------------
 
 Alpha MOs
 -- Occupied --
-14.364 -10.231 -10.222 -10.215 -10.213 -10.209 -10.187  -0.962
 -0.781  -0.758  -0.722  -0.585  -0.570  -0.555  -0.522  -0.496
 -0.421  -0.417  -0.402  -0.391  -0.346  -0.304  -0.269  -0.239
 -0.225
 -- Virtual --
 -0.007   0.004   0.013   0.018   0.028   0.033   0.042   0.046
  0.049   0.052   0.063   0.072   0.079   0.095   0.102   0.109
  0.118   0.126   0.140   0.142   0.147   0.155   0.168   0.179
  0.183   0.187   0.193   0.211   0.218   0.224   0.236   0.250
  0.257   0.262   0.277   0.283   0.287   0.298   0.325   0.328
  0.415   0.453   0.485   0.506   0.640   0.661   0.678   0.692
  0.697   0.709   0.717   0.723   0.736   0.742   0.758   0.799
  0.843   0.872   0.885   0.892   0.900   0.916   0.949   0.972
  0.992   1.028   1.044   1.055   1.088   1.122   1.164   1.195
  1.208   1.218   1.242   1.279   1.323   1.360   1.360   1.380
  1.422   1.432   1.505   1.535   1.587   1.659   1.712   1.776
  1.844   1.851   1.893   1.926   1.933   1.986   2.004   2.007
  2.039   2.074   2.143   2.154   2.190   2.250   2.284   2.369
  2.391   2.411   2.418   2.438   2.464   2.482   2.502   2.546
  2.552   2.613   2.638   2.658   2.738   2.760   2.801   2.843
  2.866   2.906   2.923   3.025   3.209   3.241   3.321   3.588
  3.596   3.705   3.782   4.169   4.336   4.362   4.564   4.603
  4.759   4.871
 
 Beta MOs
 -- Occupied --
-14.357 -10.232 -10.218 -10.214 -10.210 -10.204 -10.188  -0.951
 -0.771  -0.749  -0.713  -0.579  -0.564  -0.551  -0.516  -0.493
 -0.414  -0.402  -0.396  -0.387  -0.330  -0.300  -0.253  -0.220
 -- Virtual --
 -0.142  -0.000   0.006   0.014   0.019   0.028   0.034   0.048
  0.050   0.055   0.062   0.065   0.074   0.081   0.096   0.105
  0.111   0.119   0.130   0.141   0.145   0.149   0.157   0.170
  0.181   0.184   0.189   0.196   0.212   0.219   0.226   0.241
  0.251   0.261   0.264   0.279   0.286   0.289   0.300   0.327
  0.329   0.420   0.456   0.488   0.510   0.649   0.664   0.684
  0.695   0.706   0.714   0.721   0.736   0.744   0.746   0.761
  0.799   0.845   0.874   0.886   0.895   0.902   0.919   0.950
  0.976   0.999   1.036   1.050   1.058   1.094   1.126   1.166
  1.199   1.213   1.222   1.246   1.284   1.328   1.362   1.369
  1.387   1.431   1.438   1.510   1.546   1.600   1.671   1.726
  1.790   1.853   1.857   1.903   1.929   1.934   1.986   2.006
  2.011   2.042   2.080   2.152   2.166   2.195   2.257   2.291
  2.372   2.395   2.413   2.419   2.442   2.464   2.491   2.508
  2.553   2.558   2.618   2.645   2.664   2.743   2.765   2.809
  2.846   2.868   2.909   2.926   3.028   3.211   3.242   3.322
  3.592   3.598   3.710   3.784   4.180   4.340   4.368   4.568
  4.607   4.763   4.878
 --------------------------------------------------------------
 
          Ground-State Mulliken Net Atomic Charges

     Atom                 Charge (a.u.)    Spin (a.u.)
  --------------------------------------------------------
      1 C                    -0.148795      -0.099941
      2 C                    -0.074831      -0.091742
      3 C                    -0.110296       0.423307
      4 C                    -0.018626      -0.139324
      5 C                    -0.305790       0.260307
      6 N                    -0.132220       0.277239
      7 H                     0.173503       0.009547
      8 H                     0.125409       0.002168
      9 H                     0.132614      -0.016701
     10 H                     0.128227       0.004082
     11 H                     0.135668      -0.011768
     12 C                    -0.082276       0.397343
     13 H                     0.177413      -0.014518
  --------------------------------------------------------
  Sum of atomic charges =     0.000000
  Sum of spin   charges =     1.000000

 -----------------------------------------------------------------
                    Cartesian Multipole Moments
 -----------------------------------------------------------------
    Charge (ESU x 10^10)
                 0.0000
    Dipole Moment (Debye)
         X       0.3458      Y      -0.6293      Z       0.1614
       Tot       0.7360
    Quadrupole Moments (Debye-Ang)
        XX     -39.4558     XY       2.6960     YY     -43.0430
        XZ       2.9841     YZ      -0.7926     ZZ     -38.2779
    Octopole Moments (Debye-Ang^2)
       XXX      11.4786    XXY     -11.0518    XYY      -3.6922
       YYY     -10.2288    XXZ       8.1970    XYZ       3.2683
       YYZ       4.2404    XZZ      -6.0169    YZZ      -0.3222
       ZZZ       5.2743
    Hexadecapole Moments (Debye-Ang^3)
      XXXX    -438.6979   XXXY     -84.2198   XXYY    -110.1500
      XYYY     -81.9881   YYYY    -191.6892   XXXZ     122.5297
      XXYZ      21.9583   XYYZ      35.2715   YYYZ      51.9861
      XXZZ    -164.7438   XYZZ     -22.7968   YYZZ     -94.4052
      XZZZ     115.1495   YZZZ      33.3110   ZZZZ    -367.0891
 -----------------------------------------------------------------
 Calculating analytic gradient of the SCF energy
 Gradient of SCF Energy
            1           2           3           4           5           6
    1   0.0000107   0.0000062  -0.0000074  -0.0000056   0.0000012  -0.0000013
    2  -0.0000102   0.0000116   0.0000014  -0.0000025  -0.0000060  -0.0000122
    3   0.0000061  -0.0000080  -0.0000076  -0.0000048   0.0000095   0.0000034
            7           8           9          10          11          12
    1   0.0000086   0.0000050  -0.0000008  -0.0000045  -0.0000033  -0.0000061
    2   0.0000179   0.0000045  -0.0000039  -0.0000106  -0.0000049   0.0000083
    3   0.0000102  -0.0000059  -0.0000114  -0.0000036   0.0000060   0.0000002
           13
    1  -0.0000028
    2   0.0000066
    3   0.0000058
 Max gradient component =       1.794E-05
 RMS gradient           =       7.323E-06
 Gradient time:  CPU 16.12 s  wall 5.57 s
 Geometry Optimization Parameters
   NAtoms,    NIC,     NZ,  NCons,   NDum,   NFix, NCnnct, MaxDiis
       13      84       0       0       0       0       0       0

 Cartesian Hessian Update
 Hessian Updated using Powell/Murtagh-Sargent Update
  Mixing factors:     0.999727 Powell
                      0.000273 Murtagh-Sargent


** GEOMETRY OPTIMIZATION IN DELOCALIZED INTERNAL COORDINATES **
   Searching for a Transition State

   Optimization Cycle:   3

                       Coordinates (Angstroms)
     ATOM                X               Y               Z
      1  C         1.2077652204    0.8122333050   -1.6818005770
      2  C        -1.2198438720   -0.4926154065   -0.5538258511
      3  C        -1.4267339769   -1.0947785922    0.7095267100
      4  C        -0.6235534115   -0.3773283592    1.6462727594
      5  C         0.0191098746    0.5982155808    0.9200058127
      6  N        -0.4142413132    0.5689798019   -0.4260196596
      7  H         0.6347093254    1.1705325061   -2.5106072238
      8  H        -1.6962551767   -0.7343866559   -1.4956246582
      9  H        -2.1432813612   -1.8767831046    0.9311414521
     10  H        -0.5388998039   -0.5642284147    2.7081573722
     11  H         0.7471191203    1.3339347302    1.2313162421
     12  C         2.2686526915    0.5006836432   -1.1310397534
     13  H         3.0298945402    0.1736353383   -0.4579390512
   Point Group: c1    Number of degrees of freedom:    33


   Energy is   -286.835995266

 Hessian Updated using Powell/Murtagh-Sargent Update
  Mixing factors:     0.991352 Powell
                      0.008648 Murtagh-Sargent

 33 Hessian modes will be used to form the next step
  Hessian Eigenvalues:
    -0.069810    0.002862    0.004419    0.005998    0.011136    0.012986
     0.014588    0.017189    0.021889    0.031872    0.039745    0.045238
     0.049114    0.062131    0.079658    0.092278    0.102889    0.106513
     0.113896    0.191286    0.206746    0.237982    0.292112    0.362159
     0.365642    0.369657    0.376264    0.386738    0.392764    0.401695
     0.412132    0.528983    0.945462

 Transition State Search - Taking P-RFO Step
 Searching for Lamda that Maximizes Along the Lowest mode
 Value Taken    Lamda =   0.00000000
 Searching for Lamda that Minimizes Along All other modes
 Value Taken    Lamda =   0.00000000
 Step Taken.  Stepsize is  0.001710

                             Maximum     Tolerance    Cnvgd?
         Gradient           0.000013      0.000010      NO
         Displacement       0.000880      0.001200     YES
         Energy change     -0.000001      0.000001     YES


 New Cartesian Coordinates Obtained by Inverse Iteration

 Displacement from previous Coordinates is:  0.003379
 ----------------------------------------------------------------
             Standard Nuclear Orientation (Angstroms)
    I     Atom           X                Y                Z
 ----------------------------------------------------------------
    1      C       1.2076267962     0.8120801738    -1.6816355089
    2      C      -1.2199747155    -0.4923174217    -0.5538801930
    3      C      -1.4264404055    -1.0948071516     0.7093672428
    4      C      -0.6232100535    -0.3773837501     1.6460982020
    5      C       0.0190535092     0.5984753126     0.9199072976
    6      N      -0.4145213501     0.5694230743    -0.4260649567
    7      H       0.6347741315     1.1700098895    -2.5107483223
    8      H      -1.6965260714    -0.7339998728    -1.4956328242
    9      H      -2.1427726353    -1.8770138428     0.9309664136
   10      H      -0.5383328335    -0.5644637078     2.7079337036
   11      H       0.7469333948     1.3343116258     1.2312479331
   12      C       2.2683823995     0.5003980097    -1.1306603500
   13      H       3.0294496906     0.1733820337    -0.4573350636
 ----------------------------------------------------------------
 Nuclear Repulsion Energy =   253.1348323388 hartrees
 There are       25 alpha and       24 beta electrons
 Applying Cartesian multipole field
    Component          Value
    ---------          -----
     (2,0,0)        1.00000E-11
     (0,2,0)        2.00000E-11
     (0,0,2)       -3.00000E-11
 Nucleus-field energy     =    -0.0000000027 hartrees
 Requested basis set is 6-31+G(d,p)
 There are 53 shells and 163 basis functions
 A cutoff of  1.0D-14 yielded   1351 shell pairs
 There are     13234 function pairs
 Smallest overlap matrix eigenvalue = 1.85E-05
 Guess MOs from SCF MO coefficient file
 Reading MOs from coefficient file
 Reading MOs from coefficient file
 An unrestricted hybrid HF-DFT SCF calculation will be
 performed using Pulay DIIS extrapolation
 Exchange:     0.2000 Hartree-Fock + 0.0800 Slater + 0.7200 B88
 Correlation:  0.1900 VWN1RPA + 0.8100 LYP
 Using SG-1 standard quadrature grid
 SCF converges when DIIS error is below 1.0E-08
 Geometry optimization detected.  Setting ReadMinima to 0
 Setting SaveMinima to 0
Using Q-Chem read-in guess as SCF_GUESS READ specified.

 using 4 threads for integral computing
 -------------------------------------------------------
 OpenMP Integral computing Module                
 Release: version 1.0, May 2013, Q-Chem Inc. Pittsburgh 
 -------------------------------------------------------
 -------------------------------------------------------
 OpenMP BLAS3 based DFT computing Module                
 Release: version 1.0, May 2013, Q-Chem Inc. Pittsburgh 
 -------------------------------------------------------
 ---------------------------------------
  Cycle       Energy         DIIS Error
 ---------------------------------------
    1    -286.8359533599      1.16E-05
    2    -286.8359952673      1.14E-06
    3    -286.8359952574      2.24E-06
    4    -286.8359952753      4.13E-07
    5    -286.8359952759      1.68E-07
    6    -286.8359952760      5.70E-08
    7    -286.8359952760      2.43E-08
    8    -286.8359952760      6.09E-09 Convergence criterion met
 ---------------------------------------
 <S^2> = 0.7759
 SCF time:  CPU 38.66 s  wall 15.61 s
 SCF   energy in the final basis set = -286.83599528
 Total energy in the final basis set = -286.83599528
 
 --------------------------------------------------------------
 
                    Orbital Energies (a.u.)
 --------------------------------------------------------------
 
 Alpha MOs
 -- Occupied --
-14.364 -10.231 -10.222 -10.215 -10.213 -10.209 -10.187  -0.962
 -0.781  -0.758  -0.722  -0.585  -0.570  -0.555  -0.522  -0.496
 -0.421  -0.417  -0.402  -0.391  -0.346  -0.304  -0.269  -0.239
 -0.225
 -- Virtual --
 -0.007   0.004   0.013   0.018   0.028   0.033   0.042   0.046
  0.049   0.052   0.063   0.072   0.079   0.095   0.102   0.109
  0.118   0.126   0.140   0.142   0.147   0.155   0.168   0.179
  0.183   0.187   0.193   0.211   0.218   0.224   0.236   0.250
  0.257   0.262   0.277   0.283   0.287   0.298   0.325   0.328
  0.415   0.453   0.485   0.506   0.640   0.661   0.678   0.692
  0.697   0.709   0.717   0.723   0.736   0.742   0.758   0.799
  0.843   0.872   0.885   0.892   0.900   0.916   0.949   0.972
  0.992   1.028   1.044   1.055   1.088   1.122   1.164   1.195
  1.208   1.218   1.242   1.279   1.323   1.360   1.360   1.380
  1.422   1.432   1.505   1.535   1.587   1.659   1.712   1.776
  1.844   1.851   1.893   1.926   1.933   1.986   2.004   2.007
  2.039   2.074   2.143   2.154   2.190   2.250   2.284   2.369
  2.391   2.411   2.418   2.438   2.464   2.482   2.502   2.546
  2.552   2.613   2.638   2.658   2.738   2.760   2.801   2.843
  2.866   2.906   2.923   3.025   3.209   3.241   3.321   3.588
  3.596   3.705   3.782   4.169   4.336   4.362   4.564   4.603
  4.759   4.871
 
 Beta MOs
 -- Occupied --
-14.357 -10.232 -10.218 -10.214 -10.210 -10.204 -10.188  -0.951
 -0.771  -0.749  -0.713  -0.579  -0.564  -0.551  -0.516  -0.493
 -0.414  -0.402  -0.396  -0.387  -0.330  -0.300  -0.253  -0.220
 -- Virtual --
 -0.142  -0.000   0.006   0.014   0.019   0.028   0.034   0.048
  0.050   0.055   0.062   0.065   0.074   0.081   0.096   0.105
  0.111   0.119   0.130   0.141   0.145   0.149   0.157   0.170
  0.181   0.184   0.189   0.196   0.212   0.219   0.226   0.241
  0.251   0.261   0.264   0.279   0.286   0.289   0.300   0.327
  0.329   0.420   0.456   0.488   0.510   0.649   0.664   0.684
  0.695   0.706   0.714   0.721   0.736   0.744   0.746   0.761
  0.799   0.845   0.874   0.886   0.895   0.902   0.919   0.950
  0.976   0.999   1.036   1.050   1.057   1.094   1.126   1.166
  1.199   1.213   1.222   1.246   1.284   1.328   1.362   1.369
  1.387   1.431   1.438   1.510   1.546   1.600   1.671   1.726
  1.790   1.853   1.857   1.903   1.929   1.934   1.986   2.006
  2.011   2.042   2.080   2.152   2.166   2.195   2.257   2.291
  2.372   2.395   2.413   2.419   2.442   2.464   2.491   2.508
  2.553   2.558   2.618   2.645   2.664   2.743   2.765   2.809
  2.846   2.868   2.909   2.926   3.028   3.211   3.242   3.322
  3.592   3.598   3.710   3.784   4.180   4.340   4.368   4.568
  4.607   4.763   4.878
 --------------------------------------------------------------
 
          Ground-State Mulliken Net Atomic Charges

     Atom                 Charge (a.u.)    Spin (a.u.)
  --------------------------------------------------------
      1 C                    -0.148766      -0.099951
      2 C                    -0.074800      -0.091797
      3 C                    -0.110265       0.423294
      4 C                    -0.018539      -0.139363
      5 C                    -0.305905       0.260364
      6 N                    -0.132286       0.277199
      7 H                     0.173503       0.009549
      8 H                     0.125405       0.002170
      9 H                     0.132614      -0.016703
     10 H                     0.128228       0.004082
     11 H                     0.135669      -0.011771
     12 C                    -0.082277       0.397448
     13 H                     0.177420      -0.014521
  --------------------------------------------------------
  Sum of atomic charges =     0.000000
  Sum of spin   charges =     1.000000

 -----------------------------------------------------------------
                    Cartesian Multipole Moments
 -----------------------------------------------------------------
    Charge (ESU x 10^10)
                 0.0000
    Dipole Moment (Debye)
         X       0.3463      Y      -0.6301      Z       0.1614
       Tot       0.7369
    Quadrupole Moments (Debye-Ang)
        XX     -39.4581     XY       2.6965     YY     -43.0436
        XZ       2.9846     YZ      -0.7925     ZZ     -38.2763
    Octopole Moments (Debye-Ang^2)
       XXX      11.4763    XXY     -11.0525    XYY      -3.6891
       YYY     -10.2399    XXZ       8.1963    XYZ       3.2659
       YYZ       4.2461    XZZ      -6.0095    YZZ      -0.3259
       ZZZ       5.2643
    Hexadecapole Moments (Debye-Ang^3)
      XXXX    -438.6494   XXXY     -84.1868   XXYY    -110.1358
      XYYY     -81.9405   YYYY    -191.6895   XXXZ     122.4857
      XXYZ      21.9521   XYYZ      35.2492   YYYZ      51.9741
      XXZZ    -164.7074   XYZZ     -22.7826   YYZZ     -94.3960
      XZZZ     115.0844   YZZZ      33.2924   ZZZZ    -366.9880
 -----------------------------------------------------------------
 Calculating analytic gradient of the SCF energy
 Gradient of SCF Energy
            1           2           3           4           5           6
    1   0.0000048   0.0000010  -0.0000009  -0.0000029  -0.0000029   0.0000009
    2   0.0000060   0.0000027  -0.0000030  -0.0000066  -0.0000030   0.0000017
    3   0.0000055  -0.0000050  -0.0000075  -0.0000031   0.0000028   0.0000021
            7           8           9          10          11          12
    1   0.0000055   0.0000028  -0.0000026  -0.0000060  -0.0000022   0.0000016
    2   0.0000103   0.0000062  -0.0000029  -0.0000102  -0.0000051   0.0000003
    3   0.0000062  -0.0000064  -0.0000118  -0.0000033   0.0000066   0.0000053
           13
    1   0.0000008
    2   0.0000035
    3   0.0000085
 Max gradient component =       1.176E-05
 RMS gradient           =       5.165E-06
 Gradient time:  CPU 15.79 s  wall 4.18 s
 Geometry Optimization Parameters
   NAtoms,    NIC,     NZ,  NCons,   NDum,   NFix, NCnnct, MaxDiis
       13      84       0       0       0       0       0       0

 Cartesian Hessian Update
 Hessian Updated using Powell/Murtagh-Sargent Update
**WARNING** Small Scalar Product
 Hessian Update Skipped this cycle


** GEOMETRY OPTIMIZATION IN DELOCALIZED INTERNAL COORDINATES **
   Searching for a Transition State

   Optimization Cycle:   4

                       Coordinates (Angstroms)
     ATOM                X               Y               Z
      1  C         1.2076267962    0.8120801738   -1.6816355089
      2  C        -1.2199747155   -0.4923174217   -0.5538801930
      3  C        -1.4264404055   -1.0948071516    0.7093672428
      4  C        -0.6232100535   -0.3773837501    1.6460982020
      5  C         0.0190535092    0.5984753126    0.9199072976
      6  N        -0.4145213501    0.5694230743   -0.4260649567
      7  H         0.6347741315    1.1700098895   -2.5107483223
      8  H        -1.6965260714   -0.7339998728   -1.4956328242
      9  H        -2.1427726353   -1.8770138428    0.9309664136
     10  H        -0.5383328335   -0.5644637078    2.7079337036
     11  H         0.7469333948    1.3343116258    1.2312479331
     12  C         2.2683823995    0.5003980097   -1.1306603500
     13  H         3.0294496906    0.1733820337   -0.4573350636
   Point Group: c1    Number of degrees of freedom:    33


   Energy is   -286.835995276

 Hessian Updated using Powell/Murtagh-Sargent Update
**WARNING** Small Scalar Product
 Hessian Update Skipped this cycle

 33 Hessian modes will be used to form the next step
  Hessian Eigenvalues:
    -0.069810    0.002862    0.004419    0.005998    0.011136    0.012986
     0.014588    0.017189    0.021889    0.031872    0.039745    0.045238
     0.049114    0.062131    0.079658    0.092278    0.102889    0.106513
     0.113896    0.191286    0.206746    0.237982    0.292112    0.362159
     0.365642    0.369657    0.376264    0.386738    0.392764    0.401695
     0.412132    0.528983    0.945462

 Transition State Search - Taking P-RFO Step
 Searching for Lamda that Maximizes Along the Lowest mode
 Value Taken    Lamda =   0.00000000
 Searching for Lamda that Minimizes Along All other modes
 Value Taken    Lamda =   0.00000000
 Step Taken.  Stepsize is  0.000377

                             Maximum     Tolerance    Cnvgd?
         Gradient           0.000002      0.000010     YES
         Displacement       0.000193      0.001200     YES
         Energy change     -0.000000      0.000001     YES


                       Distance Matrix (Angstroms)
             C (  1)   C (  2)   C (  3)   C (  4)   C (  5)   N (  6)
   C (  2)  2.977673
   C (  3)  4.036264  1.414714
   C (  4)  3.980025  2.282377  1.427354
   C (  5)  2.868163  2.212932  2.236288  1.375557
   N (  6)  2.065600  1.338800  2.254517  2.287762  1.414381
   H (  7)  1.069440  3.167453  4.443776  4.610458  3.532019  2.409903
   H (  8)  3.295309  1.082779  2.250590  3.339110  3.248621  2.118118
   H (  9)  5.028130  2.230182  1.083552  2.251527  3.286588  3.288380
   H ( 10)  4.920525  3.333057  2.250393  1.081526  2.204574  3.335113
   H ( 11)  2.994971  3.223660  3.300989  2.231433  1.080832  2.163497
   C ( 12)  1.235282  3.672437  4.425166  4.103924  3.045312  2.774742
   H ( 13)  2.286020  4.302335  4.777495  4.250847  3.337662  3.466809
             H (  7)   H (  8)   H (  9)   H ( 10)   H ( 11)   C ( 12)
   H (  8)  3.176582
   H (  9)  5.370709  2.719191
   H ( 10)  5.623097  4.363499  2.730316
   H ( 11)  3.747280  4.205269  4.330494  2.727244
   C ( 12)  2.240915  4.168626  5.418550  4.873026  2.930671
   H ( 13)  3.308209  4.923033  5.734404  4.826222  3.067401  1.067488

 
 Final energy is   -286.835995276021     


 ******************************
 **  OPTIMIZATION CONVERGED  **
 ******************************

                       Coordinates (Angstroms)
     ATOM                X               Y               Z
      1  C         1.2076267962    0.8120801738   -1.6816355089
      2  C        -1.2199747155   -0.4923174217   -0.5538801930
      3  C        -1.4264404055   -1.0948071516    0.7093672428
      4  C        -0.6232100535   -0.3773837501    1.6460982020
      5  C         0.0190535092    0.5984753126    0.9199072976
      6  N        -0.4145213501    0.5694230743   -0.4260649567
      7  H         0.6347741315    1.1700098895   -2.5107483223
      8  H        -1.6965260714   -0.7339998728   -1.4956328242
      9  H        -2.1427726353   -1.8770138428    0.9309664136
     10  H        -0.5383328335   -0.5644637078    2.7079337036
     11  H         0.7469333948    1.3343116258    1.2312479331
     12  C         2.2683823995    0.5003980097   -1.1306603500
     13  H         3.0294496906    0.1733820337   -0.4573350636

Z-matrix Print:
$molecule
0 2
N 
C  1 1.338800
H  2 1.082779 1 121.657182
C  1 1.414381 2 106.951882 3 179.342895 0
H  4 1.080832 1 119.640155 2 175.128482 0
C  4 1.375557 1 110.162785 2 -5.616313 0
H  6 1.081526 4 127.184690 1 -176.518758 0
C  2 1.414714 1 109.894809 3 -173.949650 0
H  8 1.083552 2 125.911268 1 170.485035 0
C  1 2.065600 2 120.503924 3 -54.754122 0
H  10 1.069440 1 95.158366 2 78.130999 0
C  10 1.235282 1 111.937938 2 -102.242097 0
H  12 1.067488 10 166.133188 1 1.702162 0
$end

 
 --------------------------------------------------------------
 
                    Orbital Energies (a.u.)
 --------------------------------------------------------------
 
 Alpha MOs
 -- Occupied --
-14.364 -10.231 -10.222 -10.215 -10.213 -10.209 -10.187  -0.962
 -0.781  -0.758  -0.722  -0.585  -0.570  -0.555  -0.522  -0.496
 -0.421  -0.417  -0.402  -0.391  -0.346  -0.304  -0.269  -0.239
 -0.225
 -- Virtual --
 -0.007   0.004   0.013   0.018   0.028   0.033   0.042   0.046
  0.049   0.052   0.063   0.072   0.079   0.095   0.102   0.109
  0.118   0.126   0.140   0.142   0.147   0.155   0.168   0.179
  0.183   0.187   0.193   0.211   0.218   0.224   0.236   0.250
  0.257   0.262   0.277   0.283   0.287   0.298   0.325   0.328
  0.415   0.453   0.485   0.506   0.640   0.661   0.678   0.692
  0.697   0.709   0.717   0.723   0.736   0.742   0.758   0.799
  0.843   0.872   0.885   0.892   0.900   0.916   0.949   0.972
  0.992   1.028   1.044   1.055   1.088   1.122   1.164   1.195
  1.208   1.218   1.242   1.279   1.323   1.360   1.360   1.380
  1.422   1.432   1.505   1.535   1.587   1.659   1.712   1.776
  1.844   1.851   1.893   1.926   1.933   1.986   2.004   2.007
  2.039   2.074   2.143   2.154   2.190   2.250   2.284   2.369
  2.391   2.411   2.418   2.438   2.464   2.482   2.502   2.546
  2.552   2.613   2.638   2.658   2.738   2.760   2.801   2.843
  2.866   2.906   2.923   3.025   3.209   3.241   3.321   3.588
  3.596   3.705   3.782   4.169   4.336   4.362   4.564   4.603
  4.759   4.871
 
 Beta MOs
 -- Occupied --
-14.357 -10.232 -10.218 -10.214 -10.210 -10.204 -10.188  -0.951
 -0.771  -0.749  -0.713  -0.579  -0.564  -0.551  -0.516  -0.493
 -0.414  -0.402  -0.396  -0.387  -0.330  -0.300  -0.253  -0.220
 -- Virtual --
 -0.142  -0.000   0.006   0.014   0.019   0.028   0.034   0.048
  0.050   0.055   0.062   0.065   0.074   0.081   0.096   0.105
  0.111   0.119   0.130   0.141   0.145   0.149   0.157   0.170
  0.181   0.184   0.189   0.196   0.212   0.219   0.226   0.241
  0.251   0.261   0.264   0.279   0.286   0.289   0.300   0.327
  0.329   0.420   0.456   0.488   0.510   0.649   0.664   0.684
  0.695   0.706   0.714   0.721   0.736   0.744   0.746   0.761
  0.799   0.845   0.874   0.886   0.895   0.902   0.919   0.950
  0.976   0.999   1.036   1.050   1.057   1.094   1.126   1.166
  1.199   1.213   1.222   1.246   1.284   1.328   1.362   1.369
  1.387   1.431   1.438   1.510   1.546   1.600   1.671   1.726
  1.790   1.853   1.857   1.903   1.929   1.934   1.986   2.006
  2.011   2.042   2.080   2.152   2.166   2.195   2.257   2.291
  2.372   2.395   2.413   2.419   2.442   2.464   2.491   2.508
  2.553   2.558   2.618   2.645   2.664   2.743   2.765   2.809
  2.846   2.868   2.909   2.926   3.028   3.211   3.242   3.322
  3.592   3.598   3.710   3.784   4.180   4.340   4.368   4.568
  4.607   4.763   4.878
 --------------------------------------------------------------
 
          Ground-State Mulliken Net Atomic Charges

     Atom                 Charge (a.u.)    Spin (a.u.)
  --------------------------------------------------------
      1 C                    -0.148766      -0.099951
      2 C                    -0.074800      -0.091797
      3 C                    -0.110265       0.423294
      4 C                    -0.018539      -0.139363
      5 C                    -0.305905       0.260364
      6 N                    -0.132286       0.277199
      7 H                     0.173503       0.009549
      8 H                     0.125405       0.002170
      9 H                     0.132614      -0.016703
     10 H                     0.128228       0.004082
     11 H                     0.135669      -0.011771
     12 C                    -0.082277       0.397448
     13 H                     0.177420      -0.014521
  --------------------------------------------------------
  Sum of atomic charges =     0.000000
  Sum of spin   charges =     1.000000

 -----------------------------------------------------------------
                    Cartesian Multipole Moments
 -----------------------------------------------------------------
    Charge (ESU x 10^10)
                 0.0000
    Dipole Moment (Debye)
         X       0.3463      Y      -0.6301      Z       0.1614
       Tot       0.7369
    Quadrupole Moments (Debye-Ang)
        XX     -39.4581     XY       2.6965     YY     -43.0436
        XZ       2.9846     YZ      -0.7925     ZZ     -38.2763
    Octopole Moments (Debye-Ang^2)
       XXX      11.4763    XXY     -11.0525    XYY      -3.6891
       YYY     -10.2399    XXZ       8.1963    XYZ       3.2659
       YYZ       4.2461    XZZ      -6.0095    YZZ      -0.3259
       ZZZ       5.2643
    Hexadecapole Moments (Debye-Ang^3)
      XXXX    -438.6494   XXXY     -84.1868   XXYY    -110.1358
      XYYY     -81.9405   YYYY    -191.6895   XXXZ     122.4857
      XXYZ      21.9521   XYYZ      35.2492   YYYZ      51.9741
      XXZZ    -164.7074   XYZZ     -22.7826   YYZZ     -94.3960
      XZZZ     115.0844   YZZZ      33.2924   ZZZZ    -366.9880
 -----------------------------------------------------------------
Archival summary:
1\1\c8-73\TS\ProcedureUnspecified\6-31+G**\166(2)\hpark21\TueMar112:04:162022TueMar112:04:162022\0\\#,TS,ProcedureUnspecified,6-31+G**,\\0,2\N\C,1,1.3388\H,2,1.08278,1,121.657\C,1,1.41438,2,106.952,3,179.343,0\H,4,1.08083,1,119.64,2,175.128,0\C,4,1.37556,1,110.163,2,-5.61631,0\H,6,1.08153,4,127.185,1,-176.519,0\C,2,1.41471,1,109.895,3,-173.95,0\H,8,1.08355,2,125.911,1,170.485,0\C,1,2.0656,2,120.504,3,-54.7541,0\H,10,1.06944,1,95.1584,2,78.131,0\C,10,1.23528,1,111.938,2,-102.242,0\H,12,1.06749,10,166.133,1,1.70216,0\\\@

 Total job time:  131.46s(wall), 253.64s(cpu) 
 Tue Mar  1 12:04:16 2022

        *************************************************************
        *                                                           *
        *  Thank you very much for using Q-Chem.  Have a nice day.  *
        *                                                           *
        *************************************************************


