
Running Job 1 of 1 qcts2.in
qchem qcts2.in_64539.0 ./qcts2.d/ 1
/home/leeping/opt/qchem/5.0.2-openmp/exe/qcprog.exe_s qcts2.in_64539.0 ./qcts2.d/
Check license passed

                  Welcome to Q-Chem
     A Quantum Leap Into The Future Of Chemistry


 Q-Chem 5.0, Q-Chem, Inc., Pleasanton, CA (2017)

 Yihan Shao,  Zhengting Gan,  E. Epifanovsky,  A. T. B. Gilbert,  M. Wormit,  
 J. Kussmann,  A. W. Lange,  A. Behn,  Jia Deng,  Xintian Feng,  D. Ghosh,  
 M. Goldey,  P. R. Horn,  L. D. Jacobson,  I. Kaliman,  T. Kus,  A. Landau,  
 Jie Liu,  E. I. Proynov,  R. M. Richard,  R. P. Steele,  E. J. Sundstrom,  
 H. L. Woodcock III,  P. M. Zimmerman,  D. Zuev,  B. Albrecht,  E. Alguire,  
 S. A. Baeppler,  D. Barton,  Z. Benda,  Y. A. Bernard,  E. J. Berquist,  
 K. B. Bravaya,  H. Burton,  D. Casanova,  Chun-Min Chang,  Yunqing Chen,  
 A. Chien,  K. D. Closser,  M. P. Coons,  S. Dasgupta,  A. L. Dempwolff,  
 M. Diedenhofen,  Hainam Do,  R. G. Edgar,  Po-Tung Fang,  S. Fatehi,  
 Qingguo Feng,  J. Fosso-Tande,  Qinghui Ge,  A. Ghysels,  G. Gidofalvi,  
 J. Gomes,  J. Gonthier,  A. Gunina,  M. W. D. Hanson-Heine,  
 P. H. P. Harbach,  A. W. Hauser,  J. E. Herr,  E. G. Hohenstein,  
 Z. C. Holden,  Kerwin Hui,  T.-C. Jagau,  Hyunjun Ji,  B. Kaduk,  
 K. Khistyaev,  Jaehoon Kim,  P. Klunzinger,  K. Koh,  D. Kosenkov,  
 L. Koulias,  T. Kowalczyk,  C. M. Krauter,  A. Kunitsa,  Ka Un Lao,  
 A. Laurent,  K. V. Lawler,  Joonho Lee,  D. Lefrancois,  S. Lehtola,  
 D. S. Levine,  Yi-Pei Li,  You-Sheng Lin,  Fenglai Liu,  E. Livshits,  
 A. Luenser,  P. Manohar,  E. Mansoor,  S. F. Manzer,  Shan-Ping Mao,  
 Yuezhi Mao,  N. Mardirossian,  A. V. Marenich,  T. Markovich,  
 L. A. Martinez-Martinez,  S. A. Maurer,  N. J. Mayhall,  S. C. McKenzie,  
 J.-M. Mewes,  A. F. Morrison,  J. W. Mullinax,  K. Nanda,  
 T. S. Nguyen-Beck,  R. Olivares-Amaya,  J. A. Parkhill,  T. M. Perrine,  
 F. Plasser,  S. Prager,  A. Prociuk,  E. Ramos,  D. R. Rehn,  F. Rob,  
 M. Schneider,  N. Sergueev,  S. M. Sharada,  S. Sharma,  D. W. Small,  
 T. Stauch,  T. Stein,  Yu-Chuan Su,  A. J. W. Thom,  A. Tkatchenko,  
 T. Tsuchimochi,  L. Vogt,  O. Vydrov,  M. A. Watson,  J. Wenzel,  
 M. de Wergifosse,  T. A. Wesolowski,  A. White,  J. Witte,  A. Yamada,  
 Jun Yang,  K. Yao,  S. Yeganeh,  S. R. Yost,  Zhi-Qiang You,  A. Zech,  
 Igor Ying Zhang,  Xing Zhang,  Yan Zhao,  Ying Zhu,  B. R. Brooks,  
 G. K. L. Chan,  C. J. Cramer,  M. S. Gordon,  W. J. Hehre,  A. Klamt,  
 M. W. Schmidt,  C. D. Sherrill,  D. G. Truhlar,  A. Aspuru-Guzik,  R. Baer,  
 A. T. Bell,  N. A. Besley,  Jeng-Da Chai,  R. A. DiStasio Jr.,  A. Dreuw,  
 B. D. Dunietz,  T. R. Furlani,  Chao-Ping Hsu,  Yousung Jung,  Jing Kong,  
 D. S. Lambrecht,  WanZhen Liang,  C. Ochsenfeld,  V. A. Rassolov,  
 L. V. Slipchenko,  J. E. Subotnik,  T. Van Voorhis,  J. M. Herbert,  
 A. I. Krylov,  P. M. W. Gill,  M. Head-Gordon

 Contributors to earlier versions of Q-Chem not listed above: 
 R. D. Adamson,  B. Austin,  J. Baker,  G. J. O. Beran,  K. Brandhorst,  
 S. T. Brown,  E. F. C. Byrd,  A. K. Chakraborty,  C.-L. Cheng,  
 Siu Hung Chien,  D. M. Chipman,  D. L. Crittenden,  H. Dachsel,  
 R. J. Doerksen,  A. D. Dutoi,  L. Fusti-Molnar,  W. A. Goddard III,  
 A. Golubeva-Zadorozhnaya,  S. R. Gwaltney,  G. Hawkins,  A. Heyden,  
 S. Hirata,  G. Kedziora,  F. J. Keil,  C. Kelley,  Jihan Kim,  R. A. King,  
 R. Z. Khaliullin,  P. P. Korambath,  W. Kurlancheek,  A. M. Lee,  M. S. Lee,  
 S. V. Levchenko,  Ching Yeh Lin,  D. Liotard,  R. C. Lochan,  I. Lotan,  
 P. E. Maslen,  N. Nair,  D. P. O'Neill,  D. Neuhauser,  E. Neuscamman,  
 C. M. Oana,  R. Olson,  B. Peters,  R. Peverati,  P. A. Pieniazek,  
 Y. M. Rhee,  J. Ritchie,  M. A. Rohrdanz,  E. Rosta,  N. J. Russ,  
 H. F. Schaefer III,  N. E. Schultz,  N. Shenvi,  A. C. Simmonett,  A. Sodt,  
 D. Stuck,  K. S. Thanthiriwatte,  V. Vanovschi,  Tao Wang,  A. Warshel,  
 C. F. Williams,  Q. Wu,  X. Xu,  W. Zhang

 Please cite Q-Chem as follows:
 Y. Shao et al., Mol. Phys. 113, 184-215 (2015)
 DOI: 10.1080/00268976.2014.952696

 Q-Chem 5.0.2 for Intel X86 EM64T Linux

 Parts of Q-Chem use Armadillo 5.200.1 (Boston Tea Smuggler).
 http://arma.sourceforge.net/

 Q-Chem begins on Tue Mar  1 11:50:59 2022  

Host: 
0

     Scratch files written to ./qcts2.d//
 Dec517 15110_ 26548  26544 5633   
Processing $rem in /home/leeping/opt/qchem/5.0.2-openmp/config/preferences.
 MEM_STATIC 2000
 MEM_TOTAL  8000
 SYMMETRY   OFF
 SYM_IGNORE TRUE 

Checking the input file for inconsistencies... 	...done.

--------------------------------------------------------------
User input:
--------------------------------------------------------------
$molecule
0 2
C        1.2105802217    0.8091903406   -1.6761692352
C       -1.2282908505   -0.4906158459   -0.5531545176
C       -1.4279647333   -1.0939078703    0.7099386914
C       -0.6163792518   -0.3812460730    1.6407290983
C        0.0215904412    0.5915263488    0.9110363705
N       -0.4209531113    0.5676970579   -0.4323858610
H        0.6443937301    1.1575920432   -2.5142046045
H       -1.7164153186   -0.7267874143   -1.4912121223
H       -2.1477502011   -1.8721494116    0.9370089246
H       -0.5245303127   -0.5716559601    2.7019297763
H        0.7564817336    1.3247582114    1.2136155470
C        2.2716760991    0.5116414493   -1.1232987459
H        3.0220034107    0.1920514965   -0.4342697475
$end

$rem
method                b3lyp
basis                 6-31+g(d,p)
unrestricted          true
symmetry              off
sym_ignore            true
incdft                false
incfock               0
scf_convergence       8
thresh                14
jobtype               freq
scf_guess             read
scf_algorithm         diis
max_scf_cycles        100
$end

--------------------------------------------------------------
 ----------------------------------------------------------------
             Standard Nuclear Orientation (Angstroms)
    I     Atom           X                Y                Z
 ----------------------------------------------------------------
    1      C       1.2105802217     0.8091903406    -1.6761692352
    2      C      -1.2282908505    -0.4906158459    -0.5531545176
    3      C      -1.4279647333    -1.0939078703     0.7099386914
    4      C      -0.6163792518    -0.3812460730     1.6407290983
    5      C       0.0215904412     0.5915263488     0.9110363705
    6      N      -0.4209531113     0.5676970579    -0.4323858610
    7      H       0.6443937301     1.1575920432    -2.5142046045
    8      H      -1.7164153186    -0.7267874143    -1.4912121223
    9      H      -2.1477502011    -1.8721494116     0.9370089246
   10      H      -0.5245303127    -0.5716559601     2.7019297763
   11      H       0.7564817336     1.3247582114     1.2136155470
   12      C       2.2716760991     0.5116414493    -1.1232987459
   13      H       3.0220034107     0.1920514965    -0.4342697475
 ----------------------------------------------------------------
 Nuclear Repulsion Energy =   253.3389376716 hartrees
 There are       25 alpha and       24 beta electrons
 Requested basis set is 6-31+G(d,p)
 There are 53 shells and 163 basis functions

 Total QAlloc Memory Limit   8000 MB
 Mega-Array Size      1956 MB
 MEM_STATIC part      2000 MB

                       Distance Matrix (Angstroms)
             C (  1)   C (  2)   C (  3)   C (  4)   C (  5)   N (  6)
   C (  2)  2.983077
   C (  3)  4.034503  1.413943
   C (  4)  3.969475  2.280246  1.425808
   C (  5)  2.855645  2.208413  2.232115  1.373224
   N (  6)  2.065724  1.336565  2.253865  2.288338  1.414636
   H (  7)  1.069698  3.173209  4.445112  4.606631  3.527122  2.411827
   H (  8)  3.310701  1.083510  2.250121  3.337444  3.244906  2.115426
   H (  9)  5.029579  2.230387  1.084118  2.250136  3.282745  3.287844
   H ( 10)  4.907657  3.331279  2.248771  1.082053  2.204210  3.336583
   H ( 11)  2.970332  3.218133  3.297794  2.231059  1.081318  2.160744
   C ( 12)  1.232934  3.685017  4.430112  4.096091  3.034433  2.780424
   H ( 13)  2.281322  4.306410  4.771281  4.227543  3.312387  3.463389
             H (  7)   H (  8)   H (  9)   H ( 10)   H ( 11)   C ( 12)
   H (  8)  3.189172
   H (  9)  5.374595  2.719221
   H ( 10)  5.618251  4.362006  2.727833
   H ( 11)  3.733249  4.200018  4.327966  2.729919
   C ( 12)  2.236050  4.192128  5.427583  4.860522  2.901403
   H ( 13)  3.303245  4.941053  5.733034  4.795508  3.021777  1.067656

 
 A cutoff of  1.0D-14 yielded   1352 shell pairs
 There are     13237 function pairs
 Smallest overlap matrix eigenvalue = 1.81E-05
 Guess MOs from SCF MO coefficient file
 Reading MOs from coefficient file
 Reading MOs from coefficient file
 An unrestricted hybrid HF-DFT SCF calculation will be
 performed using Pulay DIIS extrapolation
 Exchange:     0.2000 Hartree-Fock + 0.0800 Slater + 0.7200 B88
 Correlation:  0.1900 VWN1RPA + 0.8100 LYP
 Using SG-1 standard quadrature grid
 SCF converges when DIIS error is below 1.0E-08
Using Q-Chem read-in guess as SCF_GUESS READ specified.

 -------------------------------------------------------
 OpenMP BLAS3 based DFT computing Module                
 -------------------------------------------------------
 ---------------------------------------
  Cycle       Energy         DIIS Error
 ---------------------------------------
    1    -286.8359424658      1.74E-09
    2    -286.8359424658      3.34E-09 Convergence criterion met
 ---------------------------------------
 <S^2> = 0.7757
 SCF time:  CPU 6.52 s  wall 12.57 s
 SCF   energy in the final basis set = -286.83594247
 Total energy in the final basis set = -286.83594247
 
 --------------------------------------------------------------
 
                    Orbital Energies (a.u.)
 --------------------------------------------------------------
 
 Alpha MOs
 -- Occupied --
-14.363 -10.230 -10.223 -10.214 -10.213 -10.210 -10.187  -0.963
 -0.781  -0.759  -0.722  -0.584  -0.570  -0.555  -0.523  -0.495
 -0.421  -0.417  -0.403  -0.391  -0.346  -0.304  -0.270  -0.239
 -0.225
 -- Virtual --
 -0.007   0.005   0.013   0.018   0.028   0.033   0.042   0.046
  0.049   0.052   0.063   0.072   0.079   0.095   0.102   0.109
  0.117   0.126   0.140   0.142   0.147   0.156   0.168   0.180
  0.183   0.187   0.194   0.211   0.218   0.225   0.236   0.250
  0.257   0.261   0.277   0.284   0.288   0.298   0.326   0.329
  0.415   0.454   0.486   0.505   0.638   0.661   0.679   0.693
  0.697   0.709   0.717   0.722   0.734   0.742   0.758   0.799
  0.843   0.872   0.884   0.893   0.900   0.916   0.948   0.973
  0.993   1.028   1.043   1.054   1.088   1.119   1.163   1.195
  1.209   1.216   1.242   1.278   1.325   1.360   1.362   1.382
  1.422   1.432   1.506   1.536   1.586   1.660   1.711   1.780
  1.844   1.852   1.893   1.927   1.934   1.991   2.004   2.009
  2.040   2.075   2.144   2.154   2.192   2.252   2.286   2.373
  2.391   2.416   2.417   2.437   2.463   2.483   2.504   2.547
  2.553   2.614   2.638   2.658   2.738   2.759   2.804   2.843
  2.866   2.906   2.923   3.029   3.209   3.239   3.320   3.594
  3.596   3.697   3.783   4.171   4.336   4.362   4.568   4.603
  4.759   4.850
 
 Beta MOs
 -- Occupied --
-14.356 -10.231 -10.219 -10.214 -10.208 -10.204 -10.188  -0.952
 -0.772  -0.750  -0.713  -0.578  -0.565  -0.551  -0.517  -0.492
 -0.414  -0.403  -0.397  -0.387  -0.331  -0.300  -0.254  -0.221
 -- Virtual --
 -0.142  -0.000   0.007   0.014   0.019   0.028   0.035   0.048
  0.050   0.055   0.062   0.065   0.073   0.081   0.096   0.105
  0.111   0.119   0.130   0.141   0.146   0.150   0.158   0.170
  0.181   0.184   0.189   0.196   0.212   0.219   0.226   0.241
  0.251   0.261   0.263   0.279   0.286   0.290   0.300   0.327
  0.330   0.420   0.457   0.489   0.510   0.647   0.664   0.685
  0.696   0.706   0.713   0.722   0.736   0.743   0.745   0.761
  0.799   0.845   0.875   0.886   0.895   0.903   0.919   0.950
  0.976   1.000   1.036   1.049   1.056   1.093   1.123   1.165
  1.199   1.214   1.220   1.246   1.282   1.330   1.365   1.369
  1.389   1.431   1.438   1.511   1.547   1.599   1.672   1.726
  1.793   1.853   1.858   1.903   1.931   1.935   1.990   2.007
  2.012   2.043   2.081   2.153   2.165   2.197   2.259   2.293
  2.376   2.395   2.417   2.419   2.442   2.464   2.492   2.509
  2.553   2.560   2.618   2.645   2.663   2.743   2.765   2.813
  2.846   2.867   2.909   2.926   3.032   3.211   3.240   3.321
  3.597   3.600   3.702   3.785   4.181   4.341   4.368   4.572
  4.607   4.763   4.857
 --------------------------------------------------------------
 
          Ground-State Mulliken Net Atomic Charges

     Atom                 Charge (a.u.)    Spin (a.u.)
  --------------------------------------------------------
      1 C                    -0.149518      -0.098047
      2 C                    -0.070392      -0.088033
      3 C                    -0.111057       0.428398
      4 C                    -0.013122      -0.143031
      5 C                    -0.310903       0.267891
      6 N                    -0.133053       0.270161
      7 H                     0.172754       0.009381
      8 H                     0.125389       0.001875
      9 H                     0.132966      -0.017003
     10 H                     0.128551       0.004136
     11 H                     0.135709      -0.012145
     12 C                    -0.083600       0.390396
     13 H                     0.176277      -0.013979
  --------------------------------------------------------
  Sum of atomic charges =    -0.000000
  Sum of spin   charges =     1.000000

 -----------------------------------------------------------------
                    Cartesian Multipole Moments
 -----------------------------------------------------------------
    Charge (ESU x 10^10)
                -0.0000
    Dipole Moment (Debye)
         X       0.2829      Y      -0.6536      Z       0.2186
       Tot       0.7450
    Quadrupole Moments (Debye-Ang)
        XX     -39.5124     XY       2.7238     YY     -43.0875
        XZ       3.0703     YZ      -0.7750     ZZ     -38.2918
    Octopole Moments (Debye-Ang^2)
       XXX      10.5831    XXY     -10.9687    XYY      -3.7277
       YYY     -10.3262    XXZ       8.5666    XYZ       3.2753
       YYZ       4.4033    XZZ      -6.0182    YZZ      -0.5098
       ZZZ       5.3271
    Hexadecapole Moments (Debye-Ang^3)
      XXXX    -441.8587   XXXY     -84.2813   XXYY    -110.3854
      XYYY     -82.6948   YYYY    -191.4913   XXXZ     122.8039
      XXYZ      22.1281   XYYZ      34.9120   YYYZ      52.5393
      XXZZ    -164.5553   XYZZ     -23.0620   YYZZ     -94.1585
      XZZZ     114.1259   YZZZ      33.7467   ZZZZ    -364.2831
 -----------------------------------------------------------------
 Calculating MO derivatives via CPSCF
   1         3          39      0.346263    0.083102
   2         3          39      0.069685    0.022975
   3         3          39      0.013254    0.004631
   4         3          39      0.002318    0.000826
   5        19          23      0.000315    0.000116
   6        38           4      0.000022    0.000010
   7        42           0      0.000000    0.000000    Roots Converged
 Time for AOints: 18.9 s (CPU) 23.4 s (wall)
 ------------------------------------------------------------------------------
                     AOints        : Timing summary (seconds)
 ------------------------------------------------------------------------------
     job step          cpu (% of tot)      sys (% of tot)     wall (% of tot)
 ------------------------------------------------------------------------------
  cpscf_lag         0.1087E+03 (27.0)   0.4600E-04 (37.4)   0.1204E+03 (26.6)
  iterzp            0.2742E+03 (68.2)   0.7400E-04 (60.2)   0.3086E+03 (68.1)
  make_fx           0.0000E+00 ( 0.0)   0.0000E+00 ( 0.0)   0.0000E+00 ( 0.0)
  AOints            0.1888E+02 ( 4.7)   0.1000E-05 ( 0.8)   0.2339E+02 ( 5.2)
 ------------------------------------------------------------------------------
   Grand Totals     0.4021E+03          0.1230E-03          0.4530E+03
 ------------------------------------------------------------------------------
 Calculating analytic Hessian of the SCF energy
 Polarizability Matrix (a.u.)
            1           2           3
    1-132.5058456 -30.6662619  36.5936246
    2 -30.6662619 -70.1108554  18.3318949
    3  36.5936246  18.3318949-101.9870395
 
 Direct stationary perturbation theory relativistic correction:
 
 rels  =       0.069303346054
 relv  =      -0.332965159362
 rel2e =       0.150592135204
 E_rel =      -0.113069678104
 
 Hessian of the SCF Energy
            1           2           3           4           5           6
    1   0.6396702  -0.2605753   0.5910597  -0.0523849  -0.0761127   0.0217979
    2  -0.2605753   0.1607572  -0.2149291  -0.0045450  -0.0030253   0.0065797
    3   0.5910597  -0.2149291   0.5176432   0.0100047   0.0186410  -0.0009370
    4  -0.0523849  -0.0045450   0.0100047   0.3454575   0.1996591   0.1809596
    5  -0.0761127  -0.0030253   0.0186410   0.1996591   0.3255635   0.0298765
    6   0.0217979   0.0065797  -0.0009370   0.1809596   0.0298765   0.7415113
    7  -0.0049278  -0.0028528  -0.0003035  -0.0948775  -0.0508184   0.0343393
    8   0.0180855  -0.0003202  -0.0057849  -0.0197055  -0.0901101   0.0815152
    9  -0.0522569  -0.0039601   0.0100981  -0.0354314  -0.0230206  -0.2507430
   10   0.0080117   0.0025849  -0.0011444   0.0329532   0.0522876  -0.0440808
   11   0.0131122   0.0035393  -0.0030271   0.0246121   0.0695200  -0.0299988
   12  -0.0178237   0.0008403   0.0029072  -0.0156832  -0.0002745  -0.0560303
   13   0.0176999  -0.0002336   0.0045614  -0.0135058  -0.0153711  -0.0348070
   14   0.0115404  -0.0028970   0.0003607  -0.0376432  -0.0311508  -0.0191386
   15  -0.0016234   0.0048785  -0.0080035  -0.0193630   0.0069032  -0.0573609
   16   0.1166294  -0.0004654  -0.0340969  -0.1396657  -0.0894254  -0.0289746
   17   0.0399089  -0.0076650  -0.0107207  -0.1146518  -0.2108281  -0.0255593
   18  -0.0118643  -0.0040222  -0.0185034  -0.0258104  -0.0065771  -0.0885478
   19  -0.1182757   0.0631446  -0.1574568   0.0039912   0.0052505  -0.0004157
   20   0.0724220  -0.0651539   0.0943624   0.0018368   0.0020142  -0.0007127
   21  -0.1825375   0.0960962  -0.2485538  -0.0030235  -0.0053862   0.0002935
   22   0.0027272   0.0006867  -0.0009256  -0.0934150  -0.0376351  -0.1170996
   23  -0.0016856  -0.0002617   0.0004275  -0.0386173  -0.0597805  -0.0414511
   24   0.0001697  -0.0002418   0.0003415  -0.1158102  -0.0463789  -0.2795398
   25   0.0002979   0.0002373   0.0002553  -0.0001573  -0.0006290  -0.0044386
   26   0.0016323  -0.0002844  -0.0006613  -0.0030755  -0.0004733  -0.0010454
   27  -0.0027214   0.0002867   0.0007272   0.0173414   0.0128804   0.0061189
   28  -0.0000789  -0.0001130  -0.0002301  -0.0015053  -0.0049804  -0.0031847
   29   0.0030774  -0.0000005  -0.0000670  -0.0021452   0.0028769  -0.0027652
   30   0.0001343   0.0001208   0.0000790  -0.0010070   0.0007308  -0.0012113
   31  -0.0018347   0.0004279   0.0004856  -0.0000488  -0.0022073   0.0001722
   32   0.0009898  -0.0001961   0.0004401  -0.0000872   0.0012756   0.0001755
   33  -0.0004925  -0.0001666   0.0003631  -0.0014852   0.0014403  -0.0071632
   34  -0.6008637   0.1980996  -0.4058174   0.0122857   0.0185248  -0.0032423
   35   0.1824750  -0.0882006   0.1215659  -0.0056375  -0.0055537   0.0027063
   36  -0.3617203   0.1173093  -0.2612673   0.0091396   0.0106069  -0.0063292
   37  -0.0066707   0.0036040  -0.0063920   0.0008728   0.0014575  -0.0010258
   38  -0.0048699   0.0037082  -0.0006076   0.0000001  -0.0003284  -0.0001822
   39   0.0178784  -0.0027918   0.0051057   0.0001685   0.0005582  -0.0000612
            7           8           9          10          11          12
    1  -0.0049278   0.0180855  -0.0522569   0.0080117   0.0131122  -0.0178237
    2  -0.0028528  -0.0003202  -0.0039601   0.0025849   0.0035393   0.0008403
    3  -0.0003035  -0.0057849   0.0100981  -0.0011444  -0.0030271   0.0029072
    4  -0.0948775  -0.0197055  -0.0354314   0.0329532   0.0246121  -0.0156832
    5  -0.0508184  -0.0901101  -0.0230206   0.0522876   0.0695200  -0.0002745
    6   0.0343393   0.0815152  -0.2507430  -0.0440808  -0.0299988  -0.0560303
    7   0.4094739   0.3213094  -0.0121091  -0.1169051  -0.0501622  -0.0844232
    8   0.3213094   0.4877956  -0.0866343  -0.0725688  -0.1212651  -0.0611415
    9  -0.0121091  -0.0866343   0.4435644  -0.0084584   0.0179855  -0.1939238
   10  -0.1169051  -0.0725688  -0.0084584   0.2583565   0.1735535   0.0522860
   11  -0.0501622  -0.1212651   0.0179855   0.1735535   0.3546420  -0.1366093
   12  -0.0844232  -0.0611415  -0.1939238   0.0522860  -0.1366093   0.8119048
   13  -0.0269520  -0.0391744  -0.0093717  -0.1379444  -0.1201205   0.0809411
   14  -0.0547384  -0.0404718  -0.0468445  -0.0928535  -0.2097168   0.1279836
   15   0.0268982   0.0072757   0.0711428   0.0265369   0.0781626  -0.1836162
   16  -0.0013366  -0.0537476   0.0783885  -0.0030717  -0.0197280   0.0034297
   17  -0.0181641  -0.0542739   0.0977293  -0.0342235  -0.0325189   0.0156840
   18   0.0049080   0.0177614   0.0072136   0.0041862   0.0200617  -0.0619813
   19   0.0001773  -0.0013001   0.0038070  -0.0008050  -0.0012051   0.0015235
   20   0.0003648  -0.0004381   0.0018038  -0.0004282  -0.0007248   0.0000822
   21  -0.0001901   0.0015799  -0.0038155   0.0004371   0.0008805  -0.0015608
   22   0.0056876   0.0031577   0.0081541  -0.0005388  -0.0040641   0.0017239
   23   0.0076817   0.0063619   0.0074708  -0.0002145   0.0022697   0.0032306
   24  -0.0116192  -0.0087990  -0.0093121   0.0005171   0.0020622  -0.0030344
   25  -0.1733517  -0.1540006   0.0351142  -0.0003226  -0.0041514   0.0078809
   26  -0.1513119  -0.1949931   0.0492835  -0.0070432  -0.0054116   0.0057675
   27   0.0365310   0.0479037  -0.0732378  -0.0117764  -0.0134472   0.0111198
   28   0.0011476   0.0073540  -0.0158624  -0.0414554  -0.0096356  -0.0286801
   29   0.0034346   0.0057325  -0.0124005  -0.0110520  -0.0570620   0.0549910
   30   0.0032154   0.0053905  -0.0072483  -0.0286362   0.0543345  -0.3415275
   31   0.0011914  -0.0035084  -0.0025971   0.0015049  -0.0017202  -0.0060001
   32  -0.0040761  -0.0001009   0.0039224  -0.0108481  -0.0042424  -0.0092881
   33   0.0016511   0.0038339  -0.0016763   0.0102908   0.0089766   0.0117207
   34   0.0005895  -0.0056709   0.0093505   0.0002069  -0.0003985   0.0044304
   35  -0.0008556   0.0021886  -0.0055843   0.0011811   0.0013878  -0.0011966
   36   0.0008960  -0.0029078   0.0072697   0.0004124   0.0012643   0.0042042
   37   0.0000834  -0.0002304   0.0012727   0.0000095  -0.0000923   0.0003950
   38   0.0001891  -0.0001055   0.0002490  -0.0003753  -0.0004171  -0.0000692
   39   0.0002061   0.0000071   0.0006682  -0.0005703  -0.0006454  -0.0001825
           13          14          15          16          17          18
    1   0.0176999   0.0115404  -0.0016234   0.1166294   0.0399089  -0.0118643
    2  -0.0002336  -0.0028970   0.0048785  -0.0004654  -0.0076650  -0.0040222
    3   0.0045614   0.0003607  -0.0080035  -0.0340969  -0.0107207  -0.0185034
    4  -0.0135058  -0.0376432  -0.0193630  -0.1396657  -0.1146518  -0.0258104
    5  -0.0153711  -0.0311508   0.0069032  -0.0894254  -0.2108281  -0.0065771
    6  -0.0348070  -0.0191386  -0.0573609  -0.0289746  -0.0255593  -0.0885478
    7  -0.0269520  -0.0547384   0.0268982  -0.0013366  -0.0181641   0.0049080
    8  -0.0391744  -0.0404718   0.0072757  -0.0537476  -0.0542739   0.0177614
    9  -0.0093717  -0.0468445   0.0711428   0.0783885   0.0977293   0.0072136
   10  -0.1379444  -0.0928535   0.0265369  -0.0030717  -0.0342235   0.0041862
   11  -0.1201205  -0.2097168   0.0781626  -0.0197280  -0.0325189   0.0200617
   12   0.0809411   0.1279836  -0.1836162   0.0034297   0.0156840  -0.0619813
   13   0.4463882   0.3530896   0.0622625  -0.1049559  -0.0219359  -0.0395013
   14   0.3530896   0.5363716  -0.0274914  -0.0131397  -0.0675303   0.0160324
   15   0.0622625  -0.0274914   0.4767979  -0.0543893  -0.0336110  -0.2148575
   16  -0.1049559  -0.0131397  -0.0543893   0.2205479   0.1835660   0.0568443
   17  -0.0219359  -0.0675303  -0.0336110   0.1835660   0.3663484  -0.0234995
   18  -0.0395013   0.0160324  -0.2148575   0.0568443  -0.0234995   0.3850316
   19  -0.0029870  -0.0013438   0.0004860  -0.0099604  -0.0045371   0.0123168
   20  -0.0009876   0.0004461  -0.0008226  -0.0026008   0.0007611   0.0026083
   21   0.0025296   0.0015321  -0.0011696   0.0118097   0.0048597  -0.0057885
   22   0.0006755  -0.0046872  -0.0041034  -0.0129789  -0.0042189  -0.0136553
   23  -0.0052871  -0.0029000   0.0043879  -0.0086368  -0.0046556  -0.0279864
   24  -0.0001976   0.0014788   0.0021250  -0.0000175  -0.0026912   0.0018062
   25  -0.0004658  -0.0044859   0.0004428   0.0022898  -0.0041271   0.0011628
   26  -0.0031741   0.0009070  -0.0022421  -0.0042975   0.0026536  -0.0005010
   27  -0.0030915  -0.0021627  -0.0048516   0.0032619   0.0066787  -0.0032001
   28   0.0047478   0.0024270   0.0145714   0.0034399  -0.0056224   0.0028884
   29   0.0059797   0.0015582   0.0180351  -0.0081567  -0.0009483   0.0022275
   30  -0.0039809  -0.0028426  -0.0068378  -0.0008296   0.0011500  -0.0009334
   31  -0.1779839  -0.1543348  -0.0542876  -0.0072353  -0.0027219  -0.0067105
   32  -0.1546768  -0.1850747  -0.0553791   0.0046009   0.0022258   0.0057818
   33  -0.0565479  -0.0450648  -0.0764443  -0.0198132  -0.0231513  -0.0045052
   34  -0.0043666  -0.0034574   0.0019623  -0.0643311  -0.0125685   0.0176090
   35   0.0017359  -0.0000382   0.0000554   0.0117243   0.0065501  -0.0019830
   36  -0.0033008  -0.0040455   0.0035404  -0.0142920  -0.0064044   0.0032798
   37  -0.0003501  -0.0003731   0.0006066   0.0006287  -0.0007037  -0.0023738
   38   0.0001558   0.0004965  -0.0001522   0.0003066  -0.0001188   0.0000960
   39   0.0005041   0.0002025  -0.0004649  -0.0013211  -0.0004642   0.0009860
           19          20          21          22          23          24
    1  -0.1182757   0.0724220  -0.1825375   0.0027272  -0.0016856   0.0001697
    2   0.0631446  -0.0651539   0.0960962   0.0006867  -0.0002617  -0.0002418
    3  -0.1574568   0.0943624  -0.2485538  -0.0009256   0.0004275   0.0003415
    4   0.0039912   0.0018368  -0.0030235  -0.0934150  -0.0386173  -0.1158102
    5   0.0052505   0.0020142  -0.0053862  -0.0376351  -0.0597805  -0.0463789
    6  -0.0004157  -0.0007127   0.0002935  -0.1170996  -0.0414511  -0.2795398
    7   0.0001773   0.0003648  -0.0001901   0.0056876   0.0076817  -0.0116192
    8  -0.0013001  -0.0004381   0.0015799   0.0031577   0.0063619  -0.0087990
    9   0.0038070   0.0018038  -0.0038155   0.0081541   0.0074708  -0.0093121
   10  -0.0008050  -0.0004282   0.0004371  -0.0005388  -0.0002145   0.0005171
   11  -0.0012051  -0.0007248   0.0008805  -0.0040641   0.0022697   0.0020622
   12   0.0015235   0.0000822  -0.0015608   0.0017239   0.0032306  -0.0030344
   13  -0.0029870  -0.0009876   0.0025296   0.0006755  -0.0052871  -0.0001976
   14  -0.0013438   0.0004461   0.0015321  -0.0046872  -0.0029000   0.0014788
   15   0.0004860  -0.0008226  -0.0011696  -0.0041034   0.0043879   0.0021250
   16  -0.0099604  -0.0026008   0.0118097  -0.0129789  -0.0086368  -0.0000175
   17  -0.0045371   0.0007611   0.0048597  -0.0042189  -0.0046556  -0.0026912
   18   0.0123168   0.0026083  -0.0057885  -0.0136553  -0.0279864   0.0018062
   19   0.1407854  -0.0672262   0.1569724  -0.0003428  -0.0001821  -0.0003349
   20  -0.0672262   0.0556499  -0.0979114  -0.0003263  -0.0000028  -0.0000491
   21   0.1569724  -0.0979114   0.2508907   0.0003546  -0.0001402  -0.0000217
   22  -0.0003428  -0.0003263   0.0003546   0.0978659   0.0465965   0.1275617
   23  -0.0001821  -0.0000028  -0.0001402   0.0465965   0.0582693   0.0550261
   24  -0.0003349  -0.0000491  -0.0000217   0.1275617   0.0550261   0.2874764
   25  -0.0000165  -0.0000417  -0.0001088  -0.0008418   0.0004892   0.0006956
   26  -0.0001786  -0.0000094   0.0002419   0.0008897  -0.0007554   0.0000283
   27   0.0002325   0.0000411  -0.0002447  -0.0004188  -0.0007673   0.0000801
   28   0.0000857   0.0000319  -0.0000387   0.0011093  -0.0000028  -0.0007746
   29  -0.0004611  -0.0001068   0.0003291  -0.0002210   0.0011107  -0.0006277
   30   0.0000075  -0.0000457   0.0000308   0.0001036   0.0004078  -0.0002684
   31   0.0001473   0.0000624  -0.0001005   0.0009241  -0.0008803  -0.0001670
   32  -0.0000375   0.0001595   0.0000672  -0.0005260   0.0006309   0.0001792
   33  -0.0000761  -0.0000559  -0.0000884  -0.0012113  -0.0011579   0.0002464
   34  -0.0144796  -0.0037652   0.0143406  -0.0009203   0.0007152  -0.0000737
   35   0.0068991   0.0020347  -0.0035384   0.0004342  -0.0003123   0.0000052
   36  -0.0148768  -0.0007758   0.0079406  -0.0004235   0.0005616   0.0001583
   37   0.0016801   0.0006582  -0.0004448   0.0000480   0.0000239   0.0000505
   38   0.0011774   0.0053704   0.0013897  -0.0000861   0.0000258   0.0000080
   39  -0.0021854   0.0014754   0.0020875  -0.0000604  -0.0000094  -0.0000574
           25          26          27          28          29          30
    1   0.0002979   0.0016323  -0.0027214  -0.0000789   0.0030774   0.0001343
    2   0.0002373  -0.0002844   0.0002867  -0.0001130  -0.0000005   0.0001208
    3   0.0002553  -0.0006613   0.0007272  -0.0002301  -0.0000670   0.0000790
    4  -0.0001573  -0.0030755   0.0173414  -0.0015053  -0.0021452  -0.0010070
    5  -0.0006290  -0.0004733   0.0128804  -0.0049804   0.0028769   0.0007308
    6  -0.0044386  -0.0010454   0.0061189  -0.0031847  -0.0027652  -0.0012113
    7  -0.1733517  -0.1513119   0.0365310   0.0011476   0.0034346   0.0032154
    8  -0.1540006  -0.1949931   0.0479037   0.0073540   0.0057325   0.0053905
    9   0.0351142   0.0492835  -0.0732378  -0.0158624  -0.0124005  -0.0072483
   10  -0.0003226  -0.0070432  -0.0117764  -0.0414554  -0.0110520  -0.0286362
   11  -0.0041514  -0.0054116  -0.0134472  -0.0096356  -0.0570620   0.0543345
   12   0.0078809   0.0057675   0.0111198  -0.0286801   0.0549910  -0.3415275
   13  -0.0004658  -0.0031741  -0.0030915   0.0047478   0.0059797  -0.0039809
   14  -0.0044859   0.0009070  -0.0021627   0.0024270   0.0015582  -0.0028426
   15   0.0004428  -0.0022421  -0.0048516   0.0145714   0.0180351  -0.0068378
   16   0.0022898  -0.0042975   0.0032619   0.0034399  -0.0081567  -0.0008296
   17  -0.0041271   0.0026536   0.0066787  -0.0056224  -0.0009483   0.0011500
   18   0.0011628  -0.0005010  -0.0032001   0.0028884   0.0022275  -0.0009334
   19  -0.0000165  -0.0001786   0.0002325   0.0000857  -0.0004611   0.0000075
   20  -0.0000417  -0.0000094   0.0000411   0.0000319  -0.0001068  -0.0000457
   21  -0.0001088   0.0002419  -0.0002447  -0.0000387   0.0003291   0.0000308
   22  -0.0008418   0.0008897  -0.0004188   0.0011093  -0.0002210   0.0001036
   23   0.0004892  -0.0007554  -0.0007673  -0.0000028   0.0011107   0.0004078
   24   0.0006956   0.0000283   0.0000801  -0.0007746  -0.0006277  -0.0002684
   25   0.1734089   0.1659666  -0.0409493  -0.0008361   0.0009372   0.0000068
   26   0.1659666   0.1993428  -0.0509346   0.0010938  -0.0006813  -0.0004907
   27  -0.0409493  -0.0509346   0.0619301   0.0010334   0.0006506   0.0001470
   28  -0.0008361   0.0010938   0.0010334   0.0350697   0.0078221   0.0302280
   29   0.0009372  -0.0006813   0.0006506   0.0078221   0.0483440  -0.0587742
   30   0.0000068  -0.0004907   0.0001470   0.0302280  -0.0587742   0.3579869
   31   0.0001672  -0.0000749  -0.0002597  -0.0016501   0.0013916   0.0006789
   32  -0.0004256  -0.0002838  -0.0008540   0.0016219  -0.0010679  -0.0000271
   33   0.0002322   0.0004993   0.0010414  -0.0000956  -0.0010277  -0.0000519
   34  -0.0002190  -0.0004371   0.0008036  -0.0000702  -0.0005814   0.0001465
   35   0.0002942  -0.0000423  -0.0002676   0.0000331   0.0002081   0.0000317
   36  -0.0002787   0.0000834   0.0003634   0.0000976  -0.0005523  -0.0001453
   37   0.0000469   0.0000104   0.0000131  -0.0000039  -0.0000253  -0.0000673
   38  -0.0000632   0.0000312  -0.0000077  -0.0000297   0.0000364   0.0000142
   39  -0.0000151  -0.0000289   0.0000064   0.0000474  -0.0000186  -0.0000197
           31          32          33          34          35          36
    1  -0.0018347   0.0009898  -0.0004925  -0.6008637   0.1824750  -0.3617203
    2   0.0004279  -0.0001961  -0.0001666   0.1980996  -0.0882006   0.1173093
    3   0.0004856   0.0004401   0.0003631  -0.4058174   0.1215659  -0.2612673
    4  -0.0000488  -0.0000872  -0.0014852   0.0122857  -0.0056375   0.0091396
    5  -0.0022073   0.0012756   0.0014403   0.0185248  -0.0055537   0.0106069
    6   0.0001722   0.0001755  -0.0071632  -0.0032423   0.0027063  -0.0063292
    7   0.0011914  -0.0040761   0.0016511   0.0005895  -0.0008556   0.0008960
    8  -0.0035084  -0.0001009   0.0038339  -0.0056709   0.0021886  -0.0029078
    9  -0.0025971   0.0039224  -0.0016763   0.0093505  -0.0055843   0.0072697
   10   0.0015049  -0.0108481   0.0102908   0.0002069   0.0011811   0.0004124
   11  -0.0017202  -0.0042424   0.0089766  -0.0003985   0.0013878   0.0012643
   12  -0.0060001  -0.0092881   0.0117207   0.0044304  -0.0011966   0.0042042
   13  -0.1779839  -0.1546768  -0.0565479  -0.0043666   0.0017359  -0.0033008
   14  -0.1543348  -0.1850747  -0.0450648  -0.0034574  -0.0000382  -0.0040455
   15  -0.0542876  -0.0553791  -0.0764443   0.0019623   0.0000554   0.0035404
   16  -0.0072353   0.0046009  -0.0198132  -0.0643311   0.0117243  -0.0142920
   17  -0.0027219   0.0022258  -0.0231513  -0.0125685   0.0065501  -0.0064044
   18  -0.0067105   0.0057818  -0.0045052   0.0176090  -0.0019830   0.0032798
   19   0.0001473  -0.0000375  -0.0000761  -0.0144796   0.0068991  -0.0148768
   20   0.0000624   0.0001595  -0.0000559  -0.0037652   0.0020347  -0.0007758
   21  -0.0001005   0.0000672  -0.0000884   0.0143406  -0.0035384   0.0079406
   22   0.0009241  -0.0005260  -0.0012113  -0.0009203   0.0004342  -0.0004235
   23  -0.0008803   0.0006309  -0.0011579   0.0007152  -0.0003123   0.0005616
   24  -0.0001670   0.0001792   0.0002464  -0.0000737   0.0000052   0.0001583
   25   0.0001672  -0.0004256   0.0002322  -0.0002190   0.0002942  -0.0002787
   26  -0.0000749  -0.0002838   0.0004993  -0.0004371  -0.0000423   0.0000834
   27  -0.0002597  -0.0008540   0.0010414   0.0008036  -0.0002676   0.0003634
   28  -0.0016501   0.0016219  -0.0000956  -0.0000702   0.0000331   0.0000976
   29   0.0013916  -0.0010679  -0.0010277  -0.0005814   0.0002081  -0.0005523
   30   0.0006789  -0.0000271  -0.0000519   0.0001465   0.0000317  -0.0001453
   31   0.1845373   0.1636568   0.0669697   0.0003581  -0.0001663   0.0015532
   32   0.1636568   0.1866738   0.0557985  -0.0003182   0.0000880  -0.0006988
   33   0.0669697   0.0557985   0.0768447   0.0004271   0.0002490  -0.0002083
   34   0.0003581  -0.0003182   0.0004271   0.8800757  -0.2780877   0.5579740
   35  -0.0001663   0.0000880   0.0002490  -0.2780877   0.1402618  -0.1883346
   36   0.0015532  -0.0006988  -0.0002083   0.5579740  -0.1883346   0.4231661
   37  -0.0000774   0.0001259   0.0001509  -0.2082656   0.0799705  -0.1751808
   38   0.0000753  -0.0000877  -0.0001734   0.0879454  -0.0585720   0.0738937
   39   0.0002629  -0.0001175  -0.0000787  -0.1979107   0.0762910  -0.1819726
           37          38          39
    1  -0.0066707  -0.0048699   0.0178784
    2   0.0036040   0.0037082  -0.0027918
    3  -0.0063920  -0.0006076   0.0051057
    4   0.0008728   0.0000001   0.0001685
    5   0.0014575  -0.0003284   0.0005582
    6  -0.0010258  -0.0001822  -0.0000612
    7   0.0000834   0.0001891   0.0002061
    8  -0.0002304  -0.0001055   0.0000071
    9   0.0012727   0.0002490   0.0006682
   10   0.0000095  -0.0003753  -0.0005703
   11  -0.0000923  -0.0004171  -0.0006454
   12   0.0003950  -0.0000692  -0.0001825
   13  -0.0003501   0.0001558   0.0005041
   14  -0.0003731   0.0004965   0.0002025
   15   0.0006066  -0.0001522  -0.0004649
   16   0.0006287   0.0003066  -0.0013211
   17  -0.0007037  -0.0001188  -0.0004642
   18  -0.0023738   0.0000960   0.0009860
   19   0.0016801   0.0011774  -0.0021854
   20   0.0006582   0.0053704   0.0014754
   21  -0.0004448   0.0013897   0.0020875
   22   0.0000480  -0.0000861  -0.0000604
   23   0.0000239   0.0000258  -0.0000094
   24   0.0000505   0.0000080  -0.0000574
   25   0.0000469  -0.0000632  -0.0000151
   26   0.0000104   0.0000312  -0.0000289
   27   0.0000131  -0.0000077   0.0000064
   28  -0.0000039  -0.0000297   0.0000474
   29  -0.0000253   0.0000364  -0.0000186
   30  -0.0000673   0.0000142  -0.0000197
   31  -0.0000774   0.0000753   0.0002629
   32   0.0001259  -0.0000877  -0.0001175
   33   0.0001509  -0.0001734  -0.0000787
   34  -0.2082656   0.0879454  -0.1979107
   35   0.0799705  -0.0585720   0.0762910
   36  -0.1751808   0.0738937  -0.1819726
   37   0.2119982  -0.0844255   0.1829957
   38  -0.0844255   0.0499608  -0.0744585
   39   0.1829957  -0.0744585   0.1739834
 Gradient time:  CPU 522.12 s  wall 581.21 s
 **********************************************************************
 **                                                                  **
 **                       VIBRATIONAL ANALYSIS                       **
 **                       --------------------                       **
 **                                                                  **
 **        VIBRATIONAL FREQUENCIES (CM**-1) AND NORMAL MODES         **
 **     FORCE CONSTANTS (mDYN/ANGSTROM) AND REDUCED MASSES (AMU)     **
 **                  INFRARED INTENSITIES (KM/MOL)                   **
 **                                                                  **
 **********************************************************************
 

 Mode:                 1                      2                      3
 Frequency:      -511.92                  63.87                  87.63
 Force Cnst:      1.3682                 0.0063                 0.0180
 Red. Mass:       8.8613                 2.6122                 3.9694
 IR Active:          YES                    YES                    YES
 IR Intens:      272.686                  0.626                  1.283
 Raman Active:       YES                    YES                    YES
               X      Y      Z        X      Y      Z        X      Y      Z
 C          0.530  0.104 -0.405    0.012 -0.145 -0.060   -0.057 -0.202  0.044
 C         -0.088  0.101  0.057   -0.078  0.043  0.019   -0.076  0.114 -0.018
 C          0.028 -0.100  0.164   -0.124  0.061  0.026    0.137 -0.034 -0.061
 C         -0.021 -0.101  0.076   -0.018 -0.041  0.006    0.203 -0.067 -0.093
 C         -0.143 -0.010 -0.005    0.078 -0.110 -0.007    0.017  0.068 -0.070
 N         -0.351  0.046  0.045    0.046 -0.055  0.007   -0.120  0.155 -0.036
 H         -0.103  0.037  0.040   -0.063 -0.493 -0.155    0.042 -0.446 -0.126
 H         -0.234  0.103  0.121   -0.137  0.111  0.032   -0.148  0.144  0.011
 H          0.113 -0.187  0.145   -0.218  0.152  0.039    0.248 -0.133 -0.049
 H          0.151 -0.182  0.044   -0.014 -0.056  0.003    0.345 -0.160 -0.122
 H         -0.088 -0.032 -0.070    0.165 -0.192 -0.020   -0.037  0.124 -0.076
 C          0.098 -0.024  0.046    0.083  0.245  0.012   -0.108 -0.035  0.238
 H          0.242 -0.012 -0.129    0.189  0.610  0.065   -0.169  0.168  0.398
 TransDip  -0.385 -0.191  0.309   -0.023  0.008  0.006    0.020 -0.028  0.011

 Mode:                 4                      5                      6
 Frequency:       159.37                 301.68                 500.16
 Force Cnst:      0.0537                 0.2004                 0.2015
 Red. Mass:       3.5879                 3.7368                 1.3672
 IR Active:          YES                    YES                    YES
 IR Intens:        1.491                  2.638                157.308
 Raman Active:       YES                    YES                    YES
               X      Y      Z        X      Y      Z        X      Y      Z
 C         -0.045 -0.181 -0.078   -0.006 -0.055  0.294    0.000 -0.004  0.004
 C          0.141  0.064 -0.026   -0.132  0.009  0.014   -0.039  0.031  0.022
 C          0.070 -0.057 -0.111    0.012 -0.033  0.024    0.005 -0.020  0.020
 C         -0.107 -0.030  0.045    0.046 -0.011 -0.036    0.001 -0.027  0.012
 C         -0.117  0.081  0.195   -0.091  0.055 -0.070   -0.042  0.014  0.014
 N          0.015  0.144  0.140   -0.123  0.022 -0.049    0.016 -0.009 -0.016
 H         -0.193 -0.432 -0.082   -0.007  0.014  0.320    0.131  0.005 -0.085
 H          0.285  0.078 -0.105   -0.194 -0.009  0.050   -0.063  0.034  0.034
 H          0.143 -0.166 -0.252    0.087 -0.090  0.069    0.036 -0.051  0.011
 H         -0.212 -0.107  0.040    0.164 -0.033 -0.051    0.020 -0.032  0.009
 H         -0.200  0.113  0.322   -0.101  0.086 -0.120   -0.089  0.051  0.040
 C          0.040 -0.017 -0.163    0.273  0.010 -0.153    0.109  0.028 -0.111
 H          0.179  0.201 -0.214    0.564  0.028 -0.458   -0.666 -0.142  0.675
 TransDip   0.020 -0.032 -0.008    0.016 -0.028  0.041   -0.332 -0.062  0.217

 Mode:                 7                      8                      9
 Frequency:       548.33                 612.41                 643.48
 Force Cnst:      0.4378                 0.7176                 0.4134
 Red. Mass:       2.4717                 3.2474                 1.6944
 IR Active:          YES                    YES                    YES
 IR Intens:        2.766                 11.808                  1.704
 Raman Active:       YES                    YES                    YES
               X      Y      Z        X      Y      Z        X      Y      Z
 C          0.017  0.008 -0.014    0.006 -0.015 -0.064    0.018  0.174  0.055
 C          0.079 -0.115 -0.029   -0.128  0.151  0.051   -0.008  0.013  0.003
 C         -0.145  0.127 -0.002    0.032 -0.042  0.029    0.004 -0.007  0.014
 C          0.198 -0.129 -0.033    0.043 -0.098 -0.009   -0.003 -0.011  0.000
 C         -0.079  0.073  0.064   -0.143  0.113  0.039   -0.018  0.003 -0.011
 N         -0.042  0.009  0.013    0.236 -0.155 -0.083    0.027 -0.022 -0.012
 H          0.008 -0.016 -0.018    0.091  0.164 -0.050   -0.047 -0.616 -0.229
 H          0.247 -0.235 -0.085   -0.230  0.235  0.082   -0.052  0.037  0.019
 H         -0.495  0.478  0.094    0.056 -0.062  0.033    0.000 -0.004  0.015
 H          0.176 -0.164 -0.037   -0.054 -0.011  0.015    0.009 -0.003  0.000
 H         -0.319  0.296  0.107   -0.521  0.433  0.191   -0.038  0.020 -0.002
 C          0.011 -0.006 -0.010   -0.050  0.014  0.054   -0.022 -0.154 -0.046
 H         -0.011  0.012  0.024    0.236 -0.067 -0.304    0.103  0.669  0.197
 TransDip   0.015  0.045 -0.023   -0.011  0.101 -0.041   -0.017  0.036  0.014

 Mode:                10                     11                     12
 Frequency:       713.56                 756.05                 776.98
 Force Cnst:      0.4853                 0.4373                 0.4065
 Red. Mass:       1.6178                 1.2984                 1.1429
 IR Active:          YES                    YES                    YES
 IR Intens:       52.950                 19.563                 72.268
 Raman Active:       YES                    YES                    YES
               X      Y      Z        X      Y      Z        X      Y      Z
 C         -0.018 -0.003  0.009    0.000 -0.013 -0.014   -0.004 -0.060 -0.023
 C          0.090  0.042  0.013   -0.059  0.032  0.048    0.007 -0.019 -0.017
 C         -0.058  0.062  0.086   -0.076  0.029  0.018    0.019 -0.003 -0.021
 C         -0.049 -0.045  0.025    0.013 -0.012 -0.008   -0.001  0.019  0.002
 C         -0.117  0.034 -0.037    0.067 -0.057  0.002   -0.026  0.034  0.016
 N          0.055  0.008 -0.066   -0.005  0.040 -0.035    0.003 -0.022  0.019
 H         -0.050 -0.040  0.016    0.139  0.257 -0.001    0.021  0.623  0.246
 H          0.211 -0.110 -0.014    0.480 -0.428 -0.113   -0.151  0.134  0.027
 H          0.232 -0.246 -0.059    0.336 -0.375 -0.067   -0.070  0.087  0.006
 H          0.543 -0.440 -0.098   -0.080  0.085  0.018    0.104 -0.092 -0.027
 H          0.327 -0.373 -0.129   -0.234  0.184  0.150    0.129 -0.093 -0.051
 C         -0.018  0.008  0.008    0.002 -0.024 -0.008   -0.008 -0.053 -0.016
 H         -0.004 -0.059 -0.041    0.067  0.268  0.056    0.055  0.618  0.227
 TransDip  -0.025 -0.213  0.092    0.142  0.004  0.000    0.048  0.261  0.059

 Mode:                13                     14                     15
 Frequency:       806.82                 847.34                 861.18
 Force Cnst:      1.2590                 0.5770                 0.6507
 Red. Mass:       3.2828                 1.3640                 1.4891
 IR Active:          YES                    YES                    YES
 IR Intens:      270.179                  2.620                131.863
 Raman Active:       YES                    YES                    YES
               X      Y      Z        X      Y      Z        X      Y      Z
 C          0.040  0.037 -0.036    0.004  0.003 -0.001   -0.022  0.003 -0.012
 C         -0.168 -0.116 -0.002   -0.088  0.080  0.012    0.018 -0.038  0.108
 C         -0.108 -0.010 -0.129    0.057 -0.071 -0.008   -0.034 -0.110  0.012
 C          0.045  0.130 -0.117    0.033 -0.022 -0.023   -0.026 -0.003 -0.046
 C          0.055  0.173  0.124   -0.051  0.059  0.005   -0.009  0.023  0.010
 N          0.013 -0.114  0.173    0.015 -0.024  0.021    0.009  0.097 -0.035
 H          0.139 -0.154 -0.188   -0.071 -0.015  0.044    0.708  0.117 -0.483
 H         -0.010 -0.009 -0.106    0.530 -0.342 -0.199   -0.106 -0.016  0.172
 H          0.359 -0.409 -0.021   -0.263  0.261  0.126   -0.258  0.088 -0.014
 H          0.377 -0.314 -0.224   -0.230  0.179  0.035    0.081  0.051 -0.045
 H          0.316 -0.027 -0.027    0.393 -0.317 -0.167    0.117 -0.153  0.130
 C          0.021  0.008  0.008   -0.002 -0.001  0.001    0.006  0.000 -0.002
 H          0.000 -0.142 -0.034   -0.017  0.004  0.020    0.123  0.034 -0.112
 TransDip   0.423 -0.019 -0.313   -0.026 -0.036 -0.026    0.313  0.068 -0.180

 Mode:                16                     17                     18
 Frequency:       878.22                 885.07                 996.78
 Force Cnst:      0.8019                 0.9219                 0.8883
 Red. Mass:       1.7646                 1.9975                 1.5174
 IR Active:          YES                    YES                    YES
 IR Intens:       12.670                 16.799                 38.802
 Raman Active:       YES                    YES                    YES
               X      Y      Z        X      Y      Z        X      Y      Z
 C         -0.007  0.004  0.000   -0.017  0.004 -0.002   -0.029 -0.012  0.019
 C         -0.091  0.022 -0.054   -0.049 -0.044 -0.093    0.039  0.034 -0.074
 C          0.123  0.010 -0.053    0.058  0.157 -0.044    0.036  0.035  0.098
 C         -0.068  0.088  0.125    0.087 -0.056  0.144   -0.067 -0.050 -0.070
 C          0.027 -0.077  0.046   -0.085 -0.018  0.072    0.044  0.024 -0.033
 N         -0.019 -0.023 -0.035   -0.031 -0.020 -0.030   -0.040 -0.040  0.067
 H          0.198 -0.007 -0.150    0.458  0.042 -0.322    0.347  0.070 -0.213
 H          0.160 -0.274 -0.110   -0.223 -0.068  0.002    0.172  0.219 -0.191
 H         -0.228  0.346 -0.003    0.330 -0.123 -0.152    0.169  0.060  0.594
 H          0.512 -0.486 -0.026   -0.396  0.140  0.223   -0.302 -0.367 -0.110
 H         -0.225  0.168  0.065    0.252 -0.267 -0.148   -0.050  0.159 -0.132
 C          0.000  0.003 -0.000    0.000  0.003 -0.002   -0.006  0.002 -0.011
 H          0.034 -0.019 -0.048    0.070  0.007 -0.076    0.022  0.026 -0.033
 TransDip   0.099 -0.042 -0.037    0.113 -0.007 -0.067   -0.157  0.012  0.122

 Mode:                19                     20                     21
 Frequency:      1015.95                1081.63                1135.72
 Force Cnst:      1.0503                 0.9630                 2.5080
 Red. Mass:       1.7271                 1.3970                 3.3002
 IR Active:          YES                    YES                    YES
 IR Intens:       21.766                 20.495                 70.602
 Raman Active:       YES                    YES                    YES
               X      Y      Z        X      Y      Z        X      Y      Z
 C         -0.016 -0.008  0.007    0.004  0.001 -0.003    0.009  0.001 -0.019
 C          0.031  0.054 -0.056   -0.033 -0.028 -0.117   -0.023 -0.026  0.112
 C         -0.052 -0.044  0.004   -0.019 -0.034  0.033    0.153  0.189 -0.042
 C          0.047  0.030  0.067    0.027  0.035 -0.013   -0.040  0.004 -0.186
 C         -0.067 -0.060 -0.112   -0.034 -0.046  0.073   -0.152 -0.132 -0.127
 N         -0.001 -0.042  0.139    0.025  0.048 -0.051    0.041 -0.007  0.181
 H          0.270  0.053 -0.170   -0.068 -0.016  0.041    0.028  0.019 -0.028
 H          0.258  0.342 -0.248   -0.008  0.147 -0.185   -0.146 -0.426  0.302
 H         -0.066 -0.096 -0.195    0.132 -0.017  0.596    0.202  0.217  0.085
 H          0.431  0.486  0.117    0.264  0.338  0.021    0.130  0.176 -0.199
 H         -0.165  0.090 -0.256    0.001 -0.271  0.522   -0.238 -0.300  0.414
 C         -0.003  0.003 -0.007   -0.002  0.000  0.003    0.008 -0.001  0.002
 H          0.016  0.010 -0.024    0.001 -0.006 -0.003    0.001 -0.006  0.010
 TransDip   0.039  0.089 -0.113   -0.006 -0.018  0.144    0.214  0.068 -0.148

 Mode:                22                     23                     24
 Frequency:      1234.31                1304.01                1354.52
 Force Cnst:      1.8157                 1.5342                 3.2124
 Red. Mass:       2.0227                 1.5313                 2.9717
 IR Active:          YES                    YES                    YES
 IR Intens:      166.522                 46.899                 21.001
 Raman Active:       YES                    YES                    YES
               X      Y      Z        X      Y      Z        X      Y      Z
 C         -0.015 -0.008  0.030    0.005  0.005 -0.009   -0.001  0.002  0.013
 C          0.055  0.072  0.002   -0.038 -0.072  0.094    0.106  0.077  0.202
 C          0.053  0.052  0.074    0.001 -0.000 -0.022   -0.011  0.039 -0.191
 C         -0.013 -0.004 -0.078    0.084  0.090  0.049    0.021  0.051 -0.054
 C          0.061  0.051  0.058   -0.058 -0.033 -0.093   -0.059 -0.118  0.160
 N         -0.135 -0.161 -0.054    0.010  0.020 -0.021   -0.087 -0.093 -0.111
 H          0.115 -0.003 -0.052   -0.044 -0.010  0.018    0.025 -0.019 -0.010
 H          0.163  0.211 -0.091    0.331  0.544 -0.243    0.238  0.347  0.096
 H         -0.100  0.023 -0.557   -0.013 -0.002 -0.077    0.209  0.070  0.527
 H          0.096  0.191 -0.058   -0.359 -0.452 -0.010    0.134  0.186 -0.051
 H          0.065 -0.190  0.641   -0.070 -0.202  0.317   -0.003  0.074 -0.502
 C         -0.012  0.005 -0.013    0.006 -0.001  0.004   -0.005  0.003 -0.005
 H         -0.014  0.008 -0.015    0.006 -0.008  0.004   -0.007 -0.003 -0.009
 TransDip  -0.325 -0.058  0.248    0.183  0.011 -0.120   -0.066 -0.058  0.118

 Mode:                25                     26                     27
 Frequency:      1445.65                1517.85                1900.39
 Force Cnst:      3.0083                 4.6800                 9.2789
 Red. Mass:       2.4432                 3.4478                 4.3607
 IR Active:          YES                    YES                    YES
 IR Intens:      141.557                 31.159                 43.716
 Raman Active:       YES                    YES                    YES
               X      Y      Z        X      Y      Z        X      Y      Z
 C         -0.004 -0.009  0.025    0.002 -0.001 -0.001   -0.310  0.101 -0.204
 C          0.125  0.174 -0.068   -0.024 -0.007 -0.087    0.024  0.032 -0.012
 C         -0.102 -0.097 -0.041    0.034 -0.022  0.224   -0.002 -0.007  0.013
 C          0.136  0.149  0.036    0.088  0.161 -0.196    0.004  0.005  0.002
 C         -0.039 -0.032 -0.045   -0.106 -0.182  0.198   -0.004 -0.005  0.006
 N         -0.038 -0.081  0.037    0.045  0.054 -0.013   -0.037 -0.021  0.005
 H          0.095  0.003 -0.031    0.004  0.001 -0.002   -0.425  0.164 -0.353
 H         -0.313 -0.521  0.330   -0.040  0.029 -0.114   -0.012 -0.008  0.020
 H         -0.039 -0.122  0.190   -0.151 -0.074 -0.516   -0.005 -0.008  0.010
 H         -0.300 -0.353 -0.012   -0.207 -0.166 -0.277   -0.007 -0.014  0.001
 H         -0.065 -0.164  0.290   -0.097  0.062 -0.556   -0.001 -0.018  0.010
 C         -0.018  0.006 -0.012   -0.005  0.001  0.000    0.328 -0.098  0.189
 H         -0.021  0.006 -0.019   -0.000  0.002 -0.007    0.493 -0.159  0.305
 TransDip  -0.309 -0.149  0.165   -0.125 -0.093  0.088    0.128  0.095 -0.139

 Mode:                28                     29                     30
 Frequency:      3221.43                3237.21                3248.22
 Force Cnst:      6.6525                 6.7686                 6.7954
 Red. Mass:       1.0880                 1.0962                 1.0931
 IR Active:          YES                    YES                    YES
 IR Intens:        3.827                  8.891                 11.268
 Raman Active:       YES                    YES                    YES
               X      Y      Z        X      Y      Z        X      Y      Z
 C         -0.000 -0.000  0.000    0.000  0.000 -0.000    0.000 -0.000  0.000
 C          0.024  0.012  0.045   -0.029 -0.013 -0.060    0.007  0.003  0.018
 C         -0.043 -0.047  0.012   -0.029 -0.033  0.014    0.024  0.026 -0.006
 C         -0.000  0.004 -0.015   -0.002  0.007 -0.033   -0.007  0.010 -0.065
 C          0.003  0.003  0.000    0.006  0.006  0.004    0.028  0.027  0.013
 N          0.000 -0.000  0.001    0.001  0.001 -0.000   -0.000 -0.000  0.000
 H         -0.000  0.001 -0.002    0.000 -0.002  0.004   -0.001  0.000 -0.000
 H         -0.278 -0.138 -0.534    0.334  0.163  0.652   -0.090 -0.043 -0.177
 H          0.501  0.544 -0.156    0.333  0.362 -0.111   -0.258 -0.279  0.079
 H          0.014 -0.036  0.188    0.033 -0.073  0.396    0.065 -0.129  0.730
 H         -0.036 -0.037 -0.015   -0.072 -0.071 -0.031   -0.338 -0.336 -0.141
 C          0.000 -0.000 -0.000   -0.000  0.000  0.000   -0.000  0.000 -0.000
 H          0.000 -0.000  0.000   -0.001  0.000 -0.001   -0.000 -0.000  0.000
 TransDip  -0.032 -0.039  0.037   -0.044 -0.039 -0.076    0.072  0.062 -0.051

 Mode:                31                     32                     33
 Frequency:      3269.88                3398.15                3476.92
 Force Cnst:      6.9504                 7.4261                 8.3583
 Red. Mass:       1.1033                 1.0915                 1.1735
 IR Active:          YES                    YES                    YES
 IR Intens:        2.303                 53.179                 13.656
 Raman Active:       YES                    YES                    YES
               X      Y      Z        X      Y      Z        X      Y      Z
 C         -0.000  0.000  0.000   -0.047  0.026 -0.061    0.045 -0.020  0.045
 C          0.003  0.002  0.006    0.000  0.000  0.000   -0.001 -0.001 -0.000
 C          0.008  0.009 -0.001    0.000  0.000  0.000   -0.000  0.000 -0.000
 C         -0.002  0.011 -0.046   -0.000 -0.000  0.000   -0.000 -0.000 -0.000
 C         -0.053 -0.055 -0.018   -0.000 -0.000  0.000    0.000  0.000 -0.000
 N          0.000 -0.000  0.001    0.000 -0.000  0.000    0.001  0.000 -0.001
 H         -0.000  0.001 -0.002    0.474 -0.282  0.675   -0.245  0.150 -0.359
 H         -0.027 -0.014 -0.055   -0.001 -0.001 -0.003    0.001  0.001  0.002
 H         -0.076 -0.083  0.022   -0.000 -0.000  0.000    0.001  0.001 -0.000
 H          0.039 -0.088  0.478    0.000 -0.000  0.000    0.000  0.000 -0.001
 H          0.584  0.582  0.236    0.001  0.000  0.000   -0.001  0.000  0.000
 C          0.000 -0.000  0.000   -0.023  0.010 -0.022   -0.078  0.029 -0.061
 H          0.000 -0.000  0.000    0.344 -0.143  0.306    0.619 -0.262  0.567
 TransDip  -0.012 -0.022 -0.042    0.188 -0.061  0.125    0.084 -0.038  0.075

 STANDARD THERMODYNAMIC QUANTITIES AT   298.15 K  AND     1.00 ATM

   This Molecule has  1 Imaginary Frequencies
   Zero point vibrational energy:       60.443 kcal/mol

   Atom    1 Element C  Has Mass   12.00000
   Atom    2 Element C  Has Mass   12.00000
   Atom    3 Element C  Has Mass   12.00000
   Atom    4 Element C  Has Mass   12.00000
   Atom    5 Element C  Has Mass   12.00000
   Atom    6 Element N  Has Mass   14.00307
   Atom    7 Element H  Has Mass    1.00783
   Atom    8 Element H  Has Mass    1.00783
   Atom    9 Element H  Has Mass    1.00783
   Atom   10 Element H  Has Mass    1.00783
   Atom   11 Element H  Has Mass    1.00783
   Atom   12 Element C  Has Mass   12.00000
   Atom   13 Element H  Has Mass    1.00783
   Molecular Mass:    92.050050 amu
   Principal axes and moments of inertia in amu*Bohr^2:
                             1           2           3
    Eigenvalues --      291.76041   895.44293  1058.04686
          X               0.73172     0.55741    -0.39227
          Y               0.34837     0.18882     0.91814
          Z              -0.58585     0.80848     0.05602
   Rotational Symmetry Number is   1
   The Molecule is an Asymmetric Top
   Translational Enthalpy:        0.889 kcal/mol
   Rotational Enthalpy:           0.889 kcal/mol
   Vibrational Enthalpy:         63.008 kcal/mol
   gas constant (RT):             0.592 kcal/mol
   Translational Entropy:        39.471  cal/mol.K
   Rotational Entropy:           27.116  cal/mol.K
   Vibrational Entropy:          16.042  cal/mol.K

   Total Enthalpy:               65.378 kcal/mol
   Total Entropy:                82.629  cal/mol.K
Archival summary:
1\1\c8-73\FREQ\ProcedureUnspecified\6-31+G**\166(2)\hpark21\TueMar112:01:082022TueMar112:01:082022\0\\#,FREQ,ProcedureUnspecified,6-31+G**,\\0,2\N\C,1,1.33656\H,2,1.08351,1,121.53\C,2,1.41394,1,110.025,3,-173.597,0\H,4,1.08412,2,125.955,1,170.214,0\C,1,1.41464,2,106.745,3,179.048,0\H,6,1.08132,1,119.325,2,174.933,0\C,6,1.37322,1,110.326,2,-5.65747,0\H,8,1.08205,6,127.326,1,-176.547,0\C,1,2.06572,2,121.013,3,-55.9128,0\H,10,1.0697,1,95.2637,2,77.8325,0\C,10,1.23293,1,112.428,2,-102.591,0\H,12,1.06766,10,165.12,1,1.90884,0\\\@

 Total job time:  608.65s(wall), 528.89s(cpu) 
 Tue Mar  1 12:01:08 2022

        *************************************************************
        *                                                           *
        *  Thank you very much for using Q-Chem.  Have a nice day.  *
        *                                                           *
        *************************************************************


