
Running Job 1 of 1 qcts2.in
qchem qcts2.in_64250.0 ./qcts2.d/ 1
/home/leeping/opt/qchem/5.0.2-openmp/exe/qcprog.exe_s qcts2.in_64250.0 ./qcts2.d/
Check license passed

                  Welcome to Q-Chem
     A Quantum Leap Into The Future Of Chemistry


 Q-Chem 5.0, Q-Chem, Inc., Pleasanton, CA (2017)

 Yihan Shao,  Zhengting Gan,  E. Epifanovsky,  A. T. B. Gilbert,  M. Wormit,  
 J. Kussmann,  A. W. Lange,  A. Behn,  Jia Deng,  Xintian Feng,  D. Ghosh,  
 M. Goldey,  P. R. Horn,  L. D. Jacobson,  I. Kaliman,  T. Kus,  A. Landau,  
 Jie Liu,  E. I. Proynov,  R. M. Richard,  R. P. Steele,  E. J. Sundstrom,  
 H. L. Woodcock III,  P. M. Zimmerman,  D. Zuev,  B. Albrecht,  E. Alguire,  
 S. A. Baeppler,  D. Barton,  Z. Benda,  Y. A. Bernard,  E. J. Berquist,  
 K. B. Bravaya,  H. Burton,  D. Casanova,  Chun-Min Chang,  Yunqing Chen,  
 A. Chien,  K. D. Closser,  M. P. Coons,  S. Dasgupta,  A. L. Dempwolff,  
 M. Diedenhofen,  Hainam Do,  R. G. Edgar,  Po-Tung Fang,  S. Fatehi,  
 Qingguo Feng,  J. Fosso-Tande,  Qinghui Ge,  A. Ghysels,  G. Gidofalvi,  
 J. Gomes,  J. Gonthier,  A. Gunina,  M. W. D. Hanson-Heine,  
 P. H. P. Harbach,  A. W. Hauser,  J. E. Herr,  E. G. Hohenstein,  
 Z. C. Holden,  Kerwin Hui,  T.-C. Jagau,  Hyunjun Ji,  B. Kaduk,  
 K. Khistyaev,  Jaehoon Kim,  P. Klunzinger,  K. Koh,  D. Kosenkov,  
 L. Koulias,  T. Kowalczyk,  C. M. Krauter,  A. Kunitsa,  Ka Un Lao,  
 A. Laurent,  K. V. Lawler,  Joonho Lee,  D. Lefrancois,  S. Lehtola,  
 D. S. Levine,  Yi-Pei Li,  You-Sheng Lin,  Fenglai Liu,  E. Livshits,  
 A. Luenser,  P. Manohar,  E. Mansoor,  S. F. Manzer,  Shan-Ping Mao,  
 Yuezhi Mao,  N. Mardirossian,  A. V. Marenich,  T. Markovich,  
 L. A. Martinez-Martinez,  S. A. Maurer,  N. J. Mayhall,  S. C. McKenzie,  
 J.-M. Mewes,  A. F. Morrison,  J. W. Mullinax,  K. Nanda,  
 T. S. Nguyen-Beck,  R. Olivares-Amaya,  J. A. Parkhill,  T. M. Perrine,  
 F. Plasser,  S. Prager,  A. Prociuk,  E. Ramos,  D. R. Rehn,  F. Rob,  
 M. Schneider,  N. Sergueev,  S. M. Sharada,  S. Sharma,  D. W. Small,  
 T. Stauch,  T. Stein,  Yu-Chuan Su,  A. J. W. Thom,  A. Tkatchenko,  
 T. Tsuchimochi,  L. Vogt,  O. Vydrov,  M. A. Watson,  J. Wenzel,  
 M. de Wergifosse,  T. A. Wesolowski,  A. White,  J. Witte,  A. Yamada,  
 Jun Yang,  K. Yao,  S. Yeganeh,  S. R. Yost,  Zhi-Qiang You,  A. Zech,  
 Igor Ying Zhang,  Xing Zhang,  Yan Zhao,  Ying Zhu,  B. R. Brooks,  
 G. K. L. Chan,  C. J. Cramer,  M. S. Gordon,  W. J. Hehre,  A. Klamt,  
 M. W. Schmidt,  C. D. Sherrill,  D. G. Truhlar,  A. Aspuru-Guzik,  R. Baer,  
 A. T. Bell,  N. A. Besley,  Jeng-Da Chai,  R. A. DiStasio Jr.,  A. Dreuw,  
 B. D. Dunietz,  T. R. Furlani,  Chao-Ping Hsu,  Yousung Jung,  Jing Kong,  
 D. S. Lambrecht,  WanZhen Liang,  C. Ochsenfeld,  V. A. Rassolov,  
 L. V. Slipchenko,  J. E. Subotnik,  T. Van Voorhis,  J. M. Herbert,  
 A. I. Krylov,  P. M. W. Gill,  M. Head-Gordon

 Contributors to earlier versions of Q-Chem not listed above: 
 R. D. Adamson,  B. Austin,  J. Baker,  G. J. O. Beran,  K. Brandhorst,  
 S. T. Brown,  E. F. C. Byrd,  A. K. Chakraborty,  C.-L. Cheng,  
 Siu Hung Chien,  D. M. Chipman,  D. L. Crittenden,  H. Dachsel,  
 R. J. Doerksen,  A. D. Dutoi,  L. Fusti-Molnar,  W. A. Goddard III,  
 A. Golubeva-Zadorozhnaya,  S. R. Gwaltney,  G. Hawkins,  A. Heyden,  
 S. Hirata,  G. Kedziora,  F. J. Keil,  C. Kelley,  Jihan Kim,  R. A. King,  
 R. Z. Khaliullin,  P. P. Korambath,  W. Kurlancheek,  A. M. Lee,  M. S. Lee,  
 S. V. Levchenko,  Ching Yeh Lin,  D. Liotard,  R. C. Lochan,  I. Lotan,  
 P. E. Maslen,  N. Nair,  D. P. O'Neill,  D. Neuhauser,  E. Neuscamman,  
 C. M. Oana,  R. Olson,  B. Peters,  R. Peverati,  P. A. Pieniazek,  
 Y. M. Rhee,  J. Ritchie,  M. A. Rohrdanz,  E. Rosta,  N. J. Russ,  
 H. F. Schaefer III,  N. E. Schultz,  N. Shenvi,  A. C. Simmonett,  A. Sodt,  
 D. Stuck,  K. S. Thanthiriwatte,  V. Vanovschi,  Tao Wang,  A. Warshel,  
 C. F. Williams,  Q. Wu,  X. Xu,  W. Zhang

 Please cite Q-Chem as follows:
 Y. Shao et al., Mol. Phys. 113, 184-215 (2015)
 DOI: 10.1080/00268976.2014.952696

 Q-Chem 5.0.2 for Intel X86 EM64T Linux

 Parts of Q-Chem use Armadillo 5.200.1 (Boston Tea Smuggler).
 http://arma.sourceforge.net/

 Q-Chem begins on Tue Mar  1 11:44:55 2022  

Host: 
0

     Scratch files written to ./qcts2.d//
 Dec517 15110_ 26548  26544 5633   
Processing $rem in /home/leeping/opt/qchem/5.0.2-openmp/config/preferences.
 MEM_STATIC 2000
 MEM_TOTAL  8000
 SYMMETRY   OFF
 SYM_IGNORE TRUE 

Checking the input file for inconsistencies... 	...done.

--------------------------------------------------------------
User input:
--------------------------------------------------------------
$molecule
0 2
C        1.2105802217    0.8091903406   -1.6761692352
C       -1.2282908505   -0.4906158459   -0.5531545176
C       -1.4279647333   -1.0939078703    0.7099386914
C       -0.6163792518   -0.3812460730    1.6407290983
C        0.0215904412    0.5915263488    0.9110363705
N       -0.4209531113    0.5676970579   -0.4323858610
H        0.6443937301    1.1575920432   -2.5142046045
H       -1.7164153186   -0.7267874143   -1.4912121223
H       -2.1477502011   -1.8721494116    0.9370089246
H       -0.5245303127   -0.5716559601    2.7019297763
H        0.7564817336    1.3247582114    1.2136155470
C        2.2716760991    0.5116414493   -1.1232987459
H        3.0220034107    0.1920514965   -0.4342697475
$end

$rem
method                b3lyp
basis                 6-31+g(d,p)
unrestricted          true
symmetry              off
sym_ignore            true
incdft                false
incfock               0
scf_convergence       6
thresh                14
jobtype               sp
scf_guess             read
scf_algorithm         diis
max_scf_cycles        100
stability_analysis    true
max_cis_cycles        100
cis_n_roots           4
$end

--------------------------------------------------------------
 ----------------------------------------------------------------
             Standard Nuclear Orientation (Angstroms)
    I     Atom           X                Y                Z
 ----------------------------------------------------------------
    1      C       1.2105802217     0.8091903406    -1.6761692352
    2      C      -1.2282908505    -0.4906158459    -0.5531545176
    3      C      -1.4279647333    -1.0939078703     0.7099386914
    4      C      -0.6163792518    -0.3812460730     1.6407290983
    5      C       0.0215904412     0.5915263488     0.9110363705
    6      N      -0.4209531113     0.5676970579    -0.4323858610
    7      H       0.6443937301     1.1575920432    -2.5142046045
    8      H      -1.7164153186    -0.7267874143    -1.4912121223
    9      H      -2.1477502011    -1.8721494116     0.9370089246
   10      H      -0.5245303127    -0.5716559601     2.7019297763
   11      H       0.7564817336     1.3247582114     1.2136155470
   12      C       2.2716760991     0.5116414493    -1.1232987459
   13      H       3.0220034107     0.1920514965    -0.4342697475
 ----------------------------------------------------------------
 Nuclear Repulsion Energy =   253.3389376716 hartrees
 There are       25 alpha and       24 beta electrons
 Requested basis set is 6-31+G(d,p)
 There are 53 shells and 163 basis functions

 Total QAlloc Memory Limit   8000 MB
 Mega-Array Size      1956 MB
 MEM_STATIC part      2000 MB

                       Distance Matrix (Angstroms)
             C (  1)   C (  2)   C (  3)   C (  4)   C (  5)   N (  6)
   C (  2)  2.983077
   C (  3)  4.034503  1.413943
   C (  4)  3.969475  2.280246  1.425808
   C (  5)  2.855645  2.208413  2.232115  1.373224
   N (  6)  2.065724  1.336565  2.253865  2.288338  1.414636
   H (  7)  1.069698  3.173209  4.445112  4.606631  3.527122  2.411827
   H (  8)  3.310701  1.083510  2.250121  3.337444  3.244906  2.115426
   H (  9)  5.029579  2.230387  1.084118  2.250136  3.282745  3.287844
   H ( 10)  4.907657  3.331279  2.248771  1.082053  2.204210  3.336583
   H ( 11)  2.970332  3.218133  3.297794  2.231059  1.081318  2.160744
   C ( 12)  1.232934  3.685017  4.430112  4.096091  3.034433  2.780424
   H ( 13)  2.281322  4.306410  4.771281  4.227543  3.312387  3.463389
             H (  7)   H (  8)   H (  9)   H ( 10)   H ( 11)   C ( 12)
   H (  8)  3.189172
   H (  9)  5.374595  2.719221
   H ( 10)  5.618251  4.362006  2.727833
   H ( 11)  3.733249  4.200018  4.327966  2.729919
   C ( 12)  2.236050  4.192128  5.427583  4.860522  2.901403
   H ( 13)  3.303245  4.941053  5.733034  4.795508  3.021777  1.067656

 
 A cutoff of  1.0D-14 yielded   1352 shell pairs
 There are     13237 function pairs
 Smallest overlap matrix eigenvalue = 1.81E-05

 Scale SEOQF with 1.000000e-01/1.000000e-01/1.000000e-01

 Standard Electronic Orientation quadrupole field applied
 Nucleus-field energy     =    -0.0000000026 hartrees
 Guess MOs from SCF MO coefficient file
 Reading MOs from coefficient file
 Reading MOs from coefficient file
 An unrestricted hybrid HF-DFT SCF calculation will be
 performed using Pulay DIIS extrapolation
 Exchange:     0.2000 Hartree-Fock + 0.0800 Slater + 0.7200 B88
 Correlation:  0.1900 VWN1RPA + 0.8100 LYP
 Using SG-1 standard quadrature grid
 SCF converges when DIIS error is below 1.0E-06
Using Q-Chem read-in guess as SCF_GUESS READ specified.

 -------------------------------------------------------
 OpenMP BLAS3 based DFT computing Module                
 -------------------------------------------------------
 ---------------------------------------
  Cycle       Energy         DIIS Error
 ---------------------------------------
    1    -286.8359424659      3.84E-09
    2    -286.8359424659      7.09E-09 Convergence criterion met
 ---------------------------------------
 <S^2> = 0.7757
 SCF time:  CPU 6.42 s  wall 13.38 s
 SCF   energy in the final basis set = -286.83594247
 Total energy in the final basis set = -286.83594247
 
 Direct TDDFT/TDA calculation will be performed
 Exchange:     0.2000 Hartree-Fock + 0.0800 Slater + 0.7200 B88
 Correlation:  0.1900 VWN1RPA + 0.8100 LYP
 Using SG-1 standard quadrature grid
 CIS energy converged when residual is below 10e- 6
 ---------------------------------------------------
 Iter    Rts Conv    Rts Left    Ttl Dev     Max Dev
 ---------------------------------------------------
   1         0           4      0.004779    0.001720
   2         0           4      0.001357    0.000562
   3         0           4      0.000464    0.000240
   4         0           4      0.000213    0.000142
   5         0           4      0.000103    0.000084
   6         1           3      0.000043    0.000038
   7         3           1      0.000021    0.000019
   8         3           1      0.000008    0.000007
   9         3           1      0.000003    0.000002
  10         4           0      0.000002    0.000001    Roots Converged
 ---------------------------------------------------
 
 ---------------------------------------------------
         TDDFT/TDA Excitation Energies              
 ---------------------------------------------------

 Excited state   1: excitation energy (eV) =    1.1232
 Total energy for state  1:                  -286.79466744 au
    <S**2>     :  0.7798
    Trans. Mom.:  0.6303 X   0.1724 Y  -0.4675 Z
    Strength   :     0.0177637174
    D( 23) --> S(  1) amplitude = -0.3151 beta
    D( 24) --> S(  1) amplitude =  0.9328 beta

 Excited state   2: excitation energy (eV) =    1.8339
 Total energy for state  2:                  -286.76854950 au
    <S**2>     :  0.7805
    Trans. Mom.:  0.8440 X   0.3782 Y  -0.6151 Z
    Strength   :     0.0554281949
    D( 21) --> S(  1) amplitude =  0.2133 beta
    D( 23) --> S(  1) amplitude =  0.9168 beta
    D( 24) --> S(  1) amplitude =  0.2762 beta

 Excited state   3: excitation energy (eV) =    2.9507
 Total energy for state  3:                  -286.72750469 au
    <S**2>     :  0.7858
    Trans. Mom.:  0.1910 X   0.1430 Y  -0.0863 Z
    Strength   :     0.0046544038
    D( 22) --> S(  1) amplitude =  0.9898 beta

 Excited state   4: excitation energy (eV) =    3.9043
 Total energy for state  4:                  -286.69246126 au
    <S**2>     :  0.8533
    Trans. Mom.: -0.7618 X  -0.3234 Y   0.4658 Z
    Strength   :     0.0862712581
    D( 24) --> V(  1) amplitude = -0.2914 alpha
    D( 21) --> S(  1) amplitude =  0.8966 beta
 
 ---------------------------------------------------

 Stability analysis will be performed
 ---------------------------------------------------
 Iter    Rts Conv    Rts Left    Ttl Dev     Max Dev
 ---------------------------------------------------
   1         0           8      0.005147    0.000818
   2         0           8      0.001721    0.000434
   3         0           8      0.000869    0.000349
   4         2           6      0.000618    0.000368
   5         4           4      0.000638    0.000514
   6         4           4      0.000365    0.000293
   7         4           4      0.000193    0.000159
   8         3           5      0.000105    0.000091
   9         6           2      0.000039    0.000035
  10         7           1      0.000012    0.000010
  11         7           1      0.000005    0.000003
  12         8           0      0.000002    0.000001    Roots Converged
 UKS-> UKS   stable,    smallest eigenvalue:      0.0334008
 UKS->CUKS   stable,    smallest eigenvalue:      0.0345505
 ---------------------------------------------------
  SETman timing summary (seconds)
  CPU time               180.40s
  System time              0.00s
  Wall time              285.79s
 
 --------------------------------------------------------------
 
                    Orbital Energies (a.u.)
 --------------------------------------------------------------
 
 Alpha MOs
 -- Occupied --
-14.363 -10.230 -10.223 -10.214 -10.213 -10.210 -10.187  -0.963
 -0.781  -0.759  -0.722  -0.584  -0.570  -0.555  -0.523  -0.495
 -0.421  -0.417  -0.403  -0.391  -0.346  -0.304  -0.270  -0.239
 -0.225
 -- Virtual --
 -0.007   0.005   0.013   0.018   0.028   0.033   0.042   0.046
  0.049   0.052   0.063   0.072   0.079   0.095   0.102   0.109
  0.117   0.126   0.140   0.142   0.147   0.156   0.168   0.180
  0.183   0.187   0.194   0.211   0.218   0.225   0.236   0.250
  0.257   0.261   0.277   0.284   0.288   0.298   0.326   0.329
  0.415   0.454   0.486   0.505   0.638   0.661   0.679   0.693
  0.697   0.709   0.717   0.722   0.734   0.742   0.758   0.799
  0.843   0.872   0.884   0.893   0.900   0.916   0.948   0.973
  0.993   1.028   1.043   1.054   1.088   1.119   1.163   1.195
  1.209   1.216   1.242   1.278   1.325   1.360   1.362   1.382
  1.422   1.432   1.506   1.536   1.586   1.660   1.711   1.780
  1.844   1.852   1.893   1.927   1.934   1.991   2.004   2.009
  2.040   2.075   2.144   2.154   2.192   2.252   2.286   2.373
  2.391   2.416   2.417   2.437   2.463   2.483   2.504   2.547
  2.553   2.614   2.638   2.658   2.738   2.759   2.804   2.843
  2.866   2.906   2.923   3.029   3.209   3.239   3.320   3.594
  3.596   3.697   3.783   4.171   4.336   4.362   4.568   4.603
  4.759   4.850
 
 Beta MOs
 -- Occupied --
-14.356 -10.231 -10.219 -10.214 -10.208 -10.204 -10.188  -0.952
 -0.772  -0.750  -0.713  -0.578  -0.565  -0.551  -0.517  -0.492
 -0.414  -0.403  -0.397  -0.387  -0.331  -0.300  -0.254  -0.221
 -- Virtual --
 -0.142  -0.000   0.007   0.014   0.019   0.028   0.035   0.048
  0.050   0.055   0.062   0.065   0.073   0.081   0.096   0.105
  0.111   0.119   0.130   0.141   0.146   0.150   0.158   0.170
  0.181   0.184   0.189   0.196   0.212   0.219   0.226   0.241
  0.251   0.261   0.263   0.279   0.286   0.290   0.300   0.327
  0.330   0.420   0.457   0.489   0.510   0.647   0.664   0.685
  0.696   0.706   0.713   0.722   0.736   0.743   0.745   0.761
  0.799   0.845   0.875   0.886   0.895   0.903   0.919   0.950
  0.976   1.000   1.036   1.049   1.056   1.093   1.123   1.165
  1.199   1.214   1.220   1.246   1.282   1.330   1.365   1.369
  1.389   1.431   1.438   1.511   1.547   1.599   1.672   1.726
  1.793   1.853   1.858   1.903   1.931   1.935   1.990   2.007
  2.012   2.043   2.081   2.153   2.165   2.197   2.259   2.293
  2.376   2.395   2.417   2.419   2.442   2.464   2.492   2.509
  2.553   2.560   2.618   2.645   2.663   2.743   2.765   2.813
  2.846   2.867   2.909   2.926   3.032   3.211   3.240   3.321
  3.597   3.600   3.702   3.785   4.181   4.341   4.368   4.572
  4.607   4.763   4.857
 --------------------------------------------------------------
 
          Ground-State Mulliken Net Atomic Charges

     Atom                 Charge (a.u.)    Spin (a.u.)
  --------------------------------------------------------
      1 C                    -0.149518      -0.098047
      2 C                    -0.070392      -0.088034
      3 C                    -0.111057       0.428399
      4 C                    -0.013122      -0.143031
      5 C                    -0.310903       0.267892
      6 N                    -0.133053       0.270161
      7 H                     0.172754       0.009381
      8 H                     0.125389       0.001875
      9 H                     0.132966      -0.017003
     10 H                     0.128551       0.004136
     11 H                     0.135709      -0.012145
     12 C                    -0.083600       0.390395
     13 H                     0.176277      -0.013979
  --------------------------------------------------------
  Sum of atomic charges =    -0.000000
  Sum of spin   charges =     1.000000

 -----------------------------------------------------------------
                    Cartesian Multipole Moments
 -----------------------------------------------------------------
    Charge (ESU x 10^10)
                -0.0000
    Dipole Moment (Debye)
         X       0.2829      Y      -0.6536      Z       0.2186
       Tot       0.7450
    Quadrupole Moments (Debye-Ang)
        XX     -39.5124     XY       2.7238     YY     -43.0875
        XZ       3.0703     YZ      -0.7750     ZZ     -38.2918
    Octopole Moments (Debye-Ang^2)
       XXX      10.5831    XXY     -10.9687    XYY      -3.7277
       YYY     -10.3262    XXZ       8.5666    XYZ       3.2753
       YYZ       4.4033    XZZ      -6.0182    YZZ      -0.5098
       ZZZ       5.3271
    Hexadecapole Moments (Debye-Ang^3)
      XXXX    -441.8587   XXXY     -84.2813   XXYY    -110.3854
      XYYY     -82.6948   YYYY    -191.4913   XXXZ     122.8039
      XXYZ      22.1281   XYYZ      34.9120   YYYZ      52.5393
      XXZZ    -164.5553   XYZZ     -23.0620   YYZZ     -94.1585
      XZZZ     114.1259   YZZZ      33.7467   ZZZZ    -364.2831
 -----------------------------------------------------------------
Archival summary:
1\1\c8-73\SP\ProcedureUnspecified\6-31+G**\166(2)\hpark21\TueMar111:50:032022TueMar111:50:032022\0\\#,ProcedureUnspecified,6-31+G**,\\0,2\N\C,1,1.33656\H,2,1.08351,1,121.53\C,2,1.41394,1,110.025,3,-173.597,0\H,4,1.08412,2,125.955,1,170.214,0\C,1,1.41464,2,106.745,3,179.048,0\H,6,1.08132,1,119.325,2,174.933,0\C,6,1.37322,1,110.326,2,-5.65747,0\H,8,1.08205,6,127.326,1,-176.547,0\C,1,2.06572,2,121.013,3,-55.9128,0\H,10,1.0697,1,95.2637,2,77.8325,0\C,10,1.23293,1,112.428,2,-102.591,0\H,12,1.06766,10,165.12,1,1.90884,0\\\@

 Total job time:  308.51s(wall), 187.05s(cpu) 
 Tue Mar  1 11:50:03 2022

        *************************************************************
        *                                                           *
        *  Thank you very much for using Q-Chem.  Have a nice day.  *
        *                                                           *
        *************************************************************


