13
image # 1 Energy = -286.87080
C 1.01840   0.45937   -1.40233  
C -1.09564  -0.52186  -0.58438  
C -1.66932  -0.77657  0.63577   
C -0.75324  -0.32884  1.63712   
C 0.34672   0.18237   0.99325   
N 0.14153   0.06664   -0.37035  
H 0.60792   0.25962   -2.39152  
H -1.44581  -0.70219  -1.59081  
H -2.63720  -1.23126  0.79789   
H -0.89039  -0.37771  2.70909   
H 1.25634   0.61929   1.37718   
C 2.20858   1.00945   -1.27932  
H 2.91211   1.34169   -0.53161  
13
image # 2 Energy = -286.86876
C 1.06828   0.48407   -1.39920  
C -1.09811  -0.52023  -0.56934  
C -1.68995  -0.79091  0.64093   
C -0.78640  -0.34446  1.65563   
C 0.31922   0.17991   1.01754   
N 0.13766   0.07562   -0.35027  
H 0.61763   0.27157   -2.38123  
H -1.45993  -0.70680  -1.57503  
H -2.66080  -1.25539  0.79898   
H -0.93739  -0.40326  2.72956   
H 1.21363   0.61594   1.42392   
C 2.24147   1.01787   -1.35011  
H 3.02275   1.37457   -0.65243  
13
image # 3 Energy = -286.86462
C 1.06775   0.48818   -1.38769  
C -1.09526  -0.51741  -0.56190  
C -1.70438  -0.80256  0.64289   
C -0.81488  -0.35729  1.66870   
C 0.29279   0.17779   1.04501   
N 0.13969   0.08680   -0.32208  
H 0.62716   0.28711   -2.35707  
H -1.46677  -0.70860  -1.56453  
H -2.67473  -1.27592  0.79156   
H -0.98468  -0.42870  2.74256   
H 1.17629   0.61655   1.47723   
C 2.29029   1.03207   -1.39068  
H 3.12364   1.40021   -0.80436  
13
image # 4 Energy = -286.85826
C 1.10864   0.50911   -1.37705  
C -1.10228  -0.51915  -0.55586  
C -1.72171  -0.81597  0.64651   
C -0.84690  -0.37201  1.68531   
C 0.26436   0.17498   1.08331   
N 0.14118   0.09791   -0.30336  
H 0.63238   0.30578   -2.33136  
H -1.47116  -0.70942  -1.54601  
H -2.69000  -1.29708  0.78572   
H -1.03307  -0.45451  2.75683   
H 1.13452   0.61501   1.52911   
C 2.32250   1.03960   -1.43842  
H 3.22391   1.42429   -0.96580  
13
image # 5 Energy = -286.84782
C 1.15332   0.53128   -1.36212  
C -1.10459  -0.51828  -0.52740  
C -1.73373  -0.82716  0.64666   
C -0.88490  -0.38975  1.70372   
C 0.23298   0.17072   1.11048   
N 0.13331   0.10493   -0.27957  
H 0.63429   0.32800   -2.29978  
H -1.47538  -0.71068  -1.53807  
H -2.70512  -1.31853  0.77849   
H -1.08189  -0.48049  2.76879   
H 1.09563   0.61534   1.58417   
C 2.36210   1.04961   -1.48908  
H 3.32009   1.44498   -1.13848  
13
image # 6 Energy = -286.83945
C 1.17479   0.54891   -1.32077  
C -1.09738  -0.51486  -0.52824  
C -1.74795  -0.84084  0.65153   
C -0.91681  -0.40334  1.71470   
C 0.20855   0.17108   1.14719   
N 0.13788   0.11612   -0.24756  
H 0.63563   0.35719   -2.25324  
H -1.46441  -0.70609  -1.52487  
H -2.70798  -1.33722  0.75732   
H -1.13853  -0.50935  2.77548   
H 1.05071   0.61787   1.65189   
C 2.38455   1.04621   -1.51601  
H 3.40974   1.45634   -1.36151  
13
image # 7 Energy = -286.83193
C 1.21269   0.57352   -1.29837  
C -1.09440  -0.51450  -0.51600  
C -1.75478  -0.85042  0.64554   
C -0.94573  -0.41525  1.72984   
C 0.18235   0.16952   1.18962   
N 0.14517   0.12754   -0.21364  
H 0.63484   0.38979   -2.20118  
H -1.44829  -0.70022  -1.51762  
H -2.71599  -1.35781  0.73657   
H -1.19175  -0.53551  2.78228   
H 1.00630   0.61999   1.71307   
C 2.42097   1.04634   -1.54160  
H 3.46117   1.45191   -1.57519  
13
image # 8 Energy = -286.82904
C 1.24391   0.60020   -1.27006  
C -1.07439  -0.50902  -0.50733  
C -1.75574  -0.85900  0.63551   
C -0.97981  -0.42837  1.74271   
C 0.15811   0.16977   1.23661   
N 0.16694   0.14285   -0.17039  
H 0.62563   0.43233   -2.14336  
H -1.41066  -0.68799  -1.51290  
H -2.71782  -1.37910  0.70211   
H -1.25467  -0.56319  2.78915   
H 0.95794   0.62741   1.78985   
C 2.45786   1.03723   -1.54962  
H 3.47785   1.42490   -1.82263  
13
image # 9 Energy = -286.81194
C 1.27155   0.62733   -1.25832  
C -1.04237  -0.50166  -0.49653  
C -1.75920  -0.86970  0.62360   
C -1.00799  -0.43744  1.75679   
C 0.13617   0.16941   1.28780   
N 0.19305   0.15602   -0.12679  
H 0.61013   0.48516   -2.10542  
H -1.35923  -0.67469  -1.51334  
H -2.71411  -1.39707  0.66304   
H -1.31646  -0.58563  2.79457   
H 0.90982   0.63716   1.86627   
C 2.50999   1.02453   -1.54326  
H 3.44830   1.37799   -2.04219  
13
image # 10 Energy = -286.79027
C 1.35262   0.66147   -1.34367  
C -1.05839  -0.51016  -0.47841  
C -1.77897  -0.87993  0.64913   
C -1.04447  -0.45568  1.78105   
C 0.11078   0.16177   1.30357   
N 0.15022   0.14268   -0.09456  
H 0.61630   0.52085   -2.09899  
H -1.37643  -0.68534  -1.49638  
H -2.74763  -1.41665  0.68577   
H -1.33406  -0.59410  2.82016   
H 0.88383   0.62833   1.86616   
C 2.57384   1.04850   -1.61937  
H 3.51508   1.39304   -2.07774  
13
image # 11 Energy = -286.77486
C 1.44209   0.70884   -1.45452  
C -1.09728  -0.52466  -0.45566  
C -1.81558  -0.89840  0.68533   
C -1.06492  -0.46754  1.80150   
C 0.07742   0.14742   1.29718   
N 0.08699   0.12435   -0.07971  
H 0.60846   0.52295   -2.09213  
H -1.41664  -0.69851  -1.47445  
H -2.77899  -1.42844  0.72845   
H -1.33007  -0.60023  2.85080   
H 0.88212   0.61692   1.83710   
C 2.62991   1.08443   -1.70934  
H 3.62095   1.43098   -2.04500  
13
image # 12 Energy = -286.79231
C 1.51381   0.75403   -1.60579  
C -1.10786  -0.53424  -0.42729  
C -1.84432  -0.91907  0.72416   
C -1.10163  -0.48316  1.82508   
C 0.04732   0.13761   1.29816   
N 0.04980   0.10956   -0.04202  
H 0.60358   0.54703   -2.09053  
H -1.42507  -0.70204  -1.45855  
H -2.80046  -1.43840  0.75518   
H -1.33739  -0.60736  2.87973   
H 0.87478   0.60991   1.82722   
C 2.67380   1.10851   -1.76437  
H 3.68131   1.43759   -2.02941  
13
image # 13 Energy = -286.81069
C 1.52471   0.79699   -1.70401  
C -1.13038  -0.52999  -0.41026  
C -1.85909  -0.92256  0.75784   
C -1.10588  -0.49880  1.83558   
C 0.05286   0.13490   1.28094   
N 0.02392   0.10981   -0.06645  
H 0.58894   0.50789   -2.04656  
H -1.42951  -0.69402  -1.44532  
H -2.81014  -1.44635  0.77578   
H -1.32247  -0.61279  2.88937   
H 0.88269   0.60412   1.79638   
C 2.70226   1.12801   -1.78611  
H 3.70448   1.44399   -1.98162  
13
image # 14 Energy = -286.81183
C 1.59992   0.84192   -1.72100  
C -1.15592  -0.53381  -0.39234  
C -1.88273  -0.93477  0.77795   
C -1.13707  -0.51686  1.85056   
C 0.03078   0.13075   1.28404   
N -0.01461  0.10537   -0.05965  
H 0.62752   0.51937   -1.94754  
H -1.45482  -0.69981  -1.43149  
H -2.83506  -1.46456  0.78939   
H -1.34398  -0.62933  2.90005   
H 0.85450   0.59504   1.80397   
C 2.76286   1.14267   -1.86963  
H 3.76567   1.46751   -2.07808  
13
image # 15 Energy = -286.81990
C 1.67027   0.87431   -1.73496  
C -1.18966  -0.54282  -0.37904  
C -1.91278  -0.94968  0.79421   
C -1.16049  -0.52853  1.85942   
C -0.00362  0.12060   1.29376   
N -0.04340  0.10620   -0.05633  
H 0.68177   0.53883   -1.84173  
H -1.48157  -0.70574  -1.41647  
H -2.85617  -1.47876  0.80175   
H -1.36880  -0.64636  2.91137   
H 0.82698   0.58593   1.81705   
C 2.83549   1.15809   -1.95188  
H 3.82309   1.49561   -2.17952  
13
image # 16 Energy = -286.82103
C 1.76140   0.87631   -1.72626  
C -1.21111  -0.54613  -0.36819  
C -1.94240  -0.96523  0.80764   
C -1.19094  -0.54310  1.87626   
C -0.03163  0.11556   1.30656   
N -0.07537  0.10158   -0.03750  
H 0.74535   0.58422   -1.76298  
H -1.50279  -0.71121  -1.39625  
H -2.88038  -1.49568  0.80904   
H -1.40395  -0.66621  2.92660   
H 0.78802   0.57421   1.84346   
C 2.89698   1.18371   -2.05372  
H 3.87460   1.52245   -2.29613  
13
image # 17 Energy = -286.82714
C 1.83139   0.88723   -1.76032  
C -1.23532  -0.55078  -0.34616  
C -1.96838  -0.97940  0.82910   
C -1.22490  -0.56091  1.89359   
C -0.06449  0.10708   1.32012   
N -0.09625  0.10284   -0.02950  
H 0.81880   0.61856   -1.68496  
H -1.51645  -0.71293  -1.38184  
H -2.90328  -1.51112  0.81905   
H -1.43163  -0.68319  2.94259   
H 0.75783   0.56427   1.86011   
C 2.94656   1.20727   -2.14166  
H 3.92610   1.54353   -2.38183  
13
image # 18 Energy = -286.83142
C 1.90738   0.89674   -1.77694  
C -1.24418  -0.55009  -0.33157  
C -1.99482  -0.99543  0.83853   
C -1.25698  -0.57662  1.91570   
C -0.09192  0.10251   1.34000   
N -0.11574  0.10344   -0.00622  
H 0.89137   0.65668   -1.60869  
H -1.51701  -0.71031  -1.36832  
H -2.91987  -1.52634  0.81806   
H -1.46736  -0.70233  2.95485   
H 0.72226   0.55746   1.89097   
C 2.98731   1.22715   -2.22307  
H 3.95517   1.55051   -2.49686  
13
image # 19 Energy = -286.83444
C 1.98110   0.90428   -1.78476  
C -1.24725  -0.54636  -0.30944  
C -2.00547  -1.00325  0.84194   
C -1.28619  -0.59010  1.92215   
C -0.12867  0.09463   1.36281   
N -0.13493  0.10390   0.02460   
H 0.97645   0.69450   -1.52430  
H -1.51333  -0.70598  -1.35814  
H -2.94272  -1.54703  0.81130   
H -1.51093  -0.72501  2.97395   
H 0.68531   0.55356   1.93242   
C 3.03041   1.24872   -2.30173  
H 3.97283   1.55091   -2.63681  
13
image # 20 Energy = -286.83606
C 2.02908   0.92036   -1.80265  
C -1.24984  -0.54269  -0.29155  
C -2.02550  -1.01646  0.84033   
C -1.31082  -0.60164  1.94145   
C -0.15847  0.08957   1.38255   
N -0.14414  0.10899   0.04433   
H 1.06143   0.71676   -1.44324  
H -1.50753  -0.70069  -1.34973  
H -2.95579  -1.56146  0.80561   
H -1.54651  -0.74388  2.98310   
H 0.65337   0.55070   1.96651   
C 3.06643   1.26228   -2.35849  
H 3.98793   1.54912   -2.75839  
13
image # 21 Energy = -286.83991
C 2.11528   0.93477   -1.79593  
C -1.26358  -0.54842  -0.29810  
C -2.04069  -1.02643  0.85451   
C -1.35306  -0.62160  1.94634   
C -0.17505  0.09128   1.43028   
N -0.15349  0.11779   0.07783   
H 1.15270   0.74351   -1.36104  
H -1.49872  -0.69325  -1.33968  
H -2.96733  -1.57651  0.79249   
H -1.58826  -0.76476  2.99141   
H 0.61222   0.54839   2.01028   
C 3.08432   1.27359   -2.43819  
H 4.00139   1.54699   -2.90134  
13
image # 22 Energy = -286.84144
C 2.17803   0.96149   -1.80710  
C -1.27198  -0.55379  -0.28357  
C -2.05159  -1.03226  0.84046   
C -1.36884  -0.62528  1.95789   
C -0.20311  0.08324   1.46231   
N -0.17457  0.11963   0.11628   
H 1.25144   0.75774   -1.28551  
H -1.49183  -0.68658  -1.33813  
H -2.97920  -1.59116  0.78226   
H -1.62547  -0.78397  2.99944   
H 0.58014   0.54991   2.05071   
C 3.10347   1.27688   -2.49310  
H 4.00474   1.54165   -3.02340  
13
image # 23 Energy = -286.83954
C 2.19185   0.98949   -1.81103  
C -1.27000  -0.54556  -0.26919  
C -2.06913  -1.04460  0.85282   
C -1.40507  -0.64304  1.96972   
C -0.23043  0.08299   1.47848   
N -0.17022  0.12633   0.12990   
H 1.36232   0.76394   -1.20859  
H -1.48224  -0.67900  -1.32461  
H -2.98887  -1.60478  0.77431   
H -1.66329  -0.80395  3.00599   
H 0.54175   0.54720   2.08396   
C 3.17008   1.28944   -2.55652  
H 3.98896   1.52991   -3.13591  
13
image # 24 Energy = -286.84372
C 2.27524   1.02251   -1.82823  
C -1.27306  -0.54815  -0.25728  
C -2.08037  -1.05034  0.84800   
C -1.42984  -0.65077  1.97779   
C -0.25643  0.07784   1.50906   
N -0.18454  0.12512   0.16456   
H 1.47253   0.78450   -1.15135  
H -1.47463  -0.67151  -1.31662  
H -2.99752  -1.61903  0.76330   
H -1.70317  -0.82438  3.01048   
H 0.50418   0.54929   2.12395   
C 3.17618   1.28659   -2.58613  
H 3.97145   1.51834   -3.25754  
