13   
From qcopt_rct.out: Frame 2 / 2, Energy=    -286.8708000300
C        1.0183954813    0.4593715561   -1.4023300505
C       -1.0956417493   -0.5218607604   -0.5843778590
C       -1.6693247841   -0.7765667650    0.6357657213
C       -0.7532403170   -0.3288409456    1.6371248331
C        0.3467228349    0.1823739553    0.9932490352
N        0.1415295271    0.0666400021   -0.3703470288
H        0.6079202841    0.2596152290   -2.3915183505
H       -1.4458104655   -0.7021858211   -1.5908056168
H       -2.6371995227   -1.2312635374    0.7978919189
H       -0.8903867239   -0.3777068786    2.7090939850
H        1.2563384701    0.6192877005    1.3771773377
C        2.2085836599    1.0094464343   -1.2793170974
H        2.9121133053    1.3416898307   -0.5316068277
13   
From qcopt_prd.out: Frame 29 / 29, Energy=    -286.8437191745
C        2.2763377536    1.0174178095   -1.8296954736
C       -1.2673111622   -0.5615943775   -0.2566472798
C       -2.0762429098   -1.0561506418    0.8508952567
C       -1.4347146378   -0.6370272402    1.9787365432
C       -0.2647596642    0.0949717330    1.5066392231
N       -0.1863765487    0.1257187167    0.1620241681
H        1.4720991758    0.7815948277   -1.1538698384
H       -1.4624754393   -0.7000419718   -1.3153183403
H       -2.9883838449   -1.6332319355    0.7688576544
H       -1.7119304993   -0.7996720888    3.0121763606
H        0.4889022320    0.5803044316    2.1192668207
C        3.1790188532    1.2790672772   -2.5863768734
H        3.9758366916    1.5086434600   -3.2566882213
