13   
From qcfsm.out: Frame 75 / 75, Energy=       0.0000000000
C        1.3303144407    0.6754004236   -1.4599977822
C       -1.0848264040   -0.5291237704   -0.4892991065
C       -1.7689459615   -0.8849933422    0.6653610171
C       -1.0031380540   -0.4349049619    1.7706886881
C        0.1326188787    0.1677928015    1.2545519185
N        0.0703681642    0.1230069136   -0.1138684605
H        0.5151428669    0.5052420889   -2.1324158606
H       -1.3864344996   -0.6887794939   -1.5173617589
H       -2.7233176010   -1.4022172303    0.7101716764
H       -1.2390931498   -0.5569865314    2.8215010080
H        0.9658951533    0.6315059261    1.7646334970
C        2.5173674171    1.0384098106   -1.5918501756
H        3.5184905871    1.3737417236   -1.7925511668
