[Molden Format]
[Title]
time=   0.0000000000 fs
[Atoms] Angs
C   1   6      1.36030    0.02560    0.00000
C   2   6      0.69710   -1.20200    0.00000
C   3   6     -0.69440   -1.21840    0.00000
C   4   6     -1.38950   -0.01290    0.00000
C   5   6     -0.67120    1.18340    0.00000
N   6   7      0.68160    1.19600    0.00000
H   7   1      2.45300    0.10830    0.00000
H   8   1      1.26650   -2.13650    0.00000
H   9   1     -1.23650   -2.16960    0.00000
H   10   1     -2.48370    0.00110    0.00000
H   11   1     -1.15690    2.16570    0.00000
C   12   6     -3.88194   -3.88194    3.88194
H   13   1     -3.47433   -2.88098    4.02345
[GTO]
    1 0
 s    6 1.00
         3047.524900             0.001835
          457.369510             0.014037
          103.948690             0.068843
           29.210155             0.232184
            9.286663             0.467941
            3.163927             0.362312
 s    3 1.00
            7.868272            -0.119332
            1.881288            -0.160854
            0.544249             1.143456
 s    1 1.00
            0.168714             1.000000
 p    3 1.00
            7.868272             0.068999
            1.881288             0.316424
            0.544249             0.744308
 p    1 1.00
            0.168714             1.000000

    2 0
 s    6 1.00
         3047.524900             0.001835
          457.369510             0.014037
          103.948690             0.068843
           29.210155             0.232184
            9.286663             0.467941
            3.163927             0.362312
 s    3 1.00
            7.868272            -0.119332
            1.881288            -0.160854
            0.544249             1.143456
 s    1 1.00
            0.168714             1.000000
 p    3 1.00
            7.868272             0.068999
            1.881288             0.316424
            0.544249             0.744308
 p    1 1.00
            0.168714             1.000000

    3 0
 s    6 1.00
         3047.524900             0.001835
          457.369510             0.014037
          103.948690             0.068843
           29.210155             0.232184
            9.286663             0.467941
            3.163927             0.362312
 s    3 1.00
            7.868272            -0.119332
            1.881288            -0.160854
            0.544249             1.143456
 s    1 1.00
            0.168714             1.000000
 p    3 1.00
            7.868272             0.068999
            1.881288             0.316424
            0.544249             0.744308
 p    1 1.00
            0.168714             1.000000

    4 0
 s    6 1.00
         3047.524900             0.001835
          457.369510             0.014037
          103.948690             0.068843
           29.210155             0.232184
            9.286663             0.467941
            3.163927             0.362312
 s    3 1.00
            7.868272            -0.119332
            1.881288            -0.160854
            0.544249             1.143456
 s    1 1.00
            0.168714             1.000000
 p    3 1.00
            7.868272             0.068999
            1.881288             0.316424
            0.544249             0.744308
 p    1 1.00
            0.168714             1.000000

    5 0
 s    6 1.00
         3047.524900             0.001835
          457.369510             0.014037
          103.948690             0.068843
           29.210155             0.232184
            9.286663             0.467941
            3.163927             0.362312
 s    3 1.00
            7.868272            -0.119332
            1.881288            -0.160854
            0.544249             1.143456
 s    1 1.00
            0.168714             1.000000
 p    3 1.00
            7.868272             0.068999
            1.881288             0.316424
            0.544249             0.744308
 p    1 1.00
            0.168714             1.000000

    6 0
 s    6 1.00
         4173.511000             0.001835
          627.457900             0.013995
          142.902100             0.068587
           40.234330             0.232241
           12.820210             0.469070
            4.390437             0.360455
 s    3 1.00
           11.626358            -0.114961
            2.716280            -0.169118
            0.772218             1.145852
 s    1 1.00
            0.212031             1.000000
 p    3 1.00
           11.626358             0.067580
            2.716280             0.323907
            0.772218             0.740895
 p    1 1.00
            0.212031             1.000000

    7 0
 s    3 1.00
           18.731137             0.033495
            2.825394             0.234727
            0.640122             0.813757
 s    1 1.00
            0.161278             1.000000

    8 0
 s    3 1.00
           18.731137             0.033495
            2.825394             0.234727
            0.640122             0.813757
 s    1 1.00
            0.161278             1.000000

    9 0
 s    3 1.00
           18.731137             0.033495
            2.825394             0.234727
            0.640122             0.813757
 s    1 1.00
            0.161278             1.000000

   10 0
 s    3 1.00
           18.731137             0.033495
            2.825394             0.234727
            0.640122             0.813757
 s    1 1.00
            0.161278             1.000000

   11 0
 s    3 1.00
           18.731137             0.033495
            2.825394             0.234727
            0.640122             0.813757
 s    1 1.00
            0.161278             1.000000

   12 0
 s    6 1.00
         3047.524900             0.001835
          457.369510             0.014037
          103.948690             0.068843
           29.210155             0.232184
            9.286663             0.467941
            3.163927             0.362312
 s    3 1.00
            7.868272            -0.119332
            1.881288            -0.160854
            0.544249             1.143456
 s    1 1.00
            0.168714             1.000000
 p    3 1.00
            7.868272             0.068999
            1.881288             0.316424
            0.544249             0.744308
 p    1 1.00
            0.168714             1.000000

   13 0
 s    3 1.00
           18.731137             0.033495
            2.825394             0.234727
            0.640122             0.813757
 s    1 1.00
            0.161278             1.000000

[MO]
 Ene=   -14.3337
 Spin= Alpha
 Occup= 1.0
    1   -0.00004
    2    0.00113
    3   -0.01848
    4   -0.00014
    5    0.00018
    6    0.00000
    7    0.01164
    8   -0.00364
    9   -0.00000
   10   -0.00014
   11   -0.00099
   12    0.01371
   13    0.00024
   14    0.00014
   15    0.00000
   16   -0.00621
   17    0.00776
   18    0.00000
   19    0.00011
   20    0.00085
   21   -0.01492
   22    0.00003
   23    0.00006
   24    0.00000
   25   -0.00405
   26   -0.00711
   27   -0.00000
   28   -0.00014
   29   -0.00099
   30    0.01371
   31   -0.00001
   32    0.00028
   33    0.00000
   34    0.00984
   35   -0.00140
   36    0.00000
   37   -0.00004
   38    0.00113
   39   -0.01848
   40    0.00022
   41   -0.00003
   42    0.00000
   43   -0.00907
   44    0.00816
   45   -0.00000
   46   -0.99547
   47   -0.03408
   48    0.03867
   49    0.00141
   50    0.00246
   51   -0.00000
   52   -0.00582
   53   -0.01021
   54    0.00000
   55   -0.00025
   56   -0.00274
   57    0.00045
   58    0.00238
   59   -0.00017
   60   -0.00192
   61    0.00045
   62    0.00238
   63   -0.00025
   64   -0.00274
   65   -0.00000
   66   -0.00000
   67    0.00000
   68   -0.00000
   69   -0.00000
   70    0.00000
   71    0.00000
   72    0.00000
   73   -0.00000
   74   -0.00000
   75   -0.00000
 Ene=   -10.2790
 Spin= Alpha
 Occup= 1.0
    1   -0.00000
    2   -0.00000
    3   -0.00003
    4    0.00000
    5    0.00000
    6    0.00000
    7    0.00001
    8    0.00000
    9    0.00000
   10   -0.00000
   11   -0.00000
   12    0.00005
   13   -0.00000
   14   -0.00000
   15    0.00000
   16   -0.00002
   17    0.00004
   18   -0.00000
   19   -0.00000
   20   -0.00000
   21   -0.00003
   22    0.00000
   23    0.00000
   24   -0.00000
   25   -0.00004
   26   -0.00006
   27    0.00001
   28   -0.00000
   29   -0.00000
   30    0.00004
   31   -0.00000
   32    0.00000
   33   -0.00000
   34    0.00004
   35   -0.00000
   36    0.00000
   37   -0.00000
   38   -0.00000
   39   -0.00003
   40    0.00000
   41    0.00000
   42    0.00000
   43   -0.00001
   44    0.00001
   45   -0.00000
   46   -0.00000
   47   -0.00000
   48    0.00002
   49    0.00000
   50   -0.00000
   51   -0.00000
   52   -0.00000
   53   -0.00001
   54    0.00000
   55   -0.00000
   56   -0.00000
   57    0.00000
   58    0.00001
   59   -0.00000
   60   -0.00004
   61    0.00000
   62    0.00002
   63   -0.00000
   64   -0.00000
   65   -0.99507
   66   -0.03163
   67    0.01520
   68   -0.00109
   69   -0.00268
   70   -0.00038
   71    0.00156
   72    0.00384
   73    0.00054
   74    0.00172
   75   -0.00656
 Ene=   -10.2274
 Spin= Alpha
 Occup= 1.0
    1   -0.14799
    2   -0.00623
    3    0.00834
    4    0.00045
    5   -0.00013
    6   -0.00000
    7   -0.00601
    8   -0.00257
    9    0.00000
   10   -0.00154
   11    0.00046
   12   -0.00695
   13    0.00004
   14   -0.00001
   15   -0.00000
   16    0.00031
   17   -0.00436
   18   -0.00000
   19   -0.00014
   20   -0.00047
   21    0.00331
   22    0.00022
   23   -0.00022
   24   -0.00000
   25   -0.00000
   26    0.00259
   27   -0.00000
   28    0.00992
   29   -0.00142
   30    0.00854
   31   -0.00049
   32   -0.00092
   33   -0.00000
   34    0.00169
   35    0.00571
   36    0.00000
   37    0.98404
   38    0.03481
   39   -0.02460
   40    0.00069
   41   -0.00057
   42    0.00000
   43    0.00222
   44    0.00509
   45   -0.00000
   46   -0.00001
   47   -0.00029
   48    0.00014
   49    0.00066
   50   -0.00005
   51   -0.00000
   52    0.00123
   53    0.00019
   54    0.00000
   55    0.00061
   56    0.00171
   57   -0.00010
   58   -0.00091
   59    0.00011
   60    0.00089
   61   -0.00032
   62   -0.00004
   63   -0.00122
   64    0.00322
   65   -0.00000
   66    0.00000
   67   -0.00000
   68    0.00000
   69    0.00000
   70   -0.00000
   71   -0.00000
   72   -0.00000
   73    0.00000
   74   -0.00000
   75    0.00000
 Ene=   -10.2273
 Spin= Alpha
 Occup= 1.0
    1   -0.98400
    2   -0.03451
    3    0.02318
    4    0.00075
    5   -0.00028
    6   -0.00000
    7   -0.00156
    8   -0.00392
    9    0.00000
   10   -0.00989
   11    0.00134
   12   -0.00680
   13    0.00055
   14    0.00094
   15    0.00000
   16   -0.00433
   17   -0.00323
   18   -0.00000
   19    0.00019
   20    0.00064
   21   -0.00448
   22    0.00025
   23   -0.00001
   24    0.00000
   25   -0.00233
   26   -0.00217
   27    0.00000
   28   -0.00144
   29   -0.00005
   30    0.00464
   31    0.00018
   32    0.00025
   33    0.00000
   34    0.00357
   35    0.00028
   36   -0.00000
   37   -0.14776
   38   -0.00419
   39   -0.00116
   40    0.00014
   41   -0.00016
   42   -0.00000
   43   -0.00157
   44    0.00521
   45    0.00000
   46    0.00001
   47    0.00039
   48   -0.00020
   49    0.00019
   50   -0.00056
   51    0.00000
   52    0.00011
   53   -0.00127
   54   -0.00000
   55    0.00108
   56   -0.00390
   57    0.00037
   58    0.00033
   59   -0.00014
   60   -0.00120
   61    0.00020
   62    0.00096
   63   -0.00026
   64   -0.00278
   65    0.00000
   66   -0.00000
   67    0.00000
   68   -0.00000
   69   -0.00000
   70    0.00000
   71    0.00000
   72    0.00000
   73   -0.00000
   74   -0.00000
   75    0.00000
 Ene=   -10.2120
 Spin= Alpha
 Occup= 1.0
    1   -0.00022
    2   -0.00031
    3   -0.00337
    4    0.00019
    5    0.00024
    6   -0.00000
    7    0.00145
    8    0.00012
    9   -0.00000
   10    0.02955
   11   -0.00131
   12    0.01425
   13    0.00103
   14   -0.00011
   15   -0.00000
   16   -0.00667
   17    0.00395
   18    0.00000
   19    0.99433
   20    0.03617
   21   -0.03672
   22    0.00029
   23    0.00050
   24    0.00000
   25   -0.00449
   26   -0.00788
   27   -0.00000
   28    0.03013
   29   -0.00129
   30    0.01423
   31   -0.00062
   32    0.00083
   33   -0.00000
   34    0.00679
   35   -0.00373
   36    0.00000
   37   -0.00023
   38   -0.00031
   39   -0.00336
   40    0.00011
   41    0.00029
   42   -0.00000
   43   -0.00064
   44    0.00131
   45   -0.00000
   46   -0.00002
   47   -0.00034
   48    0.00230
   49    0.00003
   50    0.00006
   51   -0.00000
   52   -0.00039
   53   -0.00069
   54    0.00000
   55    0.00001
   56    0.00012
   57   -0.00005
   58    0.00153
   59   -0.00127
   60    0.00221
   61   -0.00005
   62    0.00153
   63    0.00001
   64    0.00012
   65   -0.00000
   66    0.00000
   67   -0.00000
   68    0.00000
   69    0.00000
   70   -0.00000
   71   -0.00000
   72   -0.00000
   73    0.00000
   74    0.00000
   75    0.00000
 Ene=   -10.2043
 Spin= Alpha
 Occup= 1.0
    1   -0.00038
    2    0.00005
    3   -0.00357
    4   -0.00003
    5   -0.00006
    6    0.00000
    7    0.00261
    8    0.00088
    9   -0.00000
   10    0.02932
   11    0.00081
   12    0.00629
   13   -0.00025
   14   -0.00004
   15    0.00000
   16   -0.00173
   17    0.00320
   18    0.00000
   19    0.02956
   20    0.00348
   21   -0.01835
   22   -0.00046
   23    0.00098
   24    0.00000
   25   -0.00067
   26   -0.00934
   27   -0.00000
   28   -0.99434
   29   -0.03665
   30    0.03966
   31   -0.00071
   32    0.00006
   33   -0.00000
   34    0.01104
   35   -0.00064
   36    0.00000
   37    0.01022
   38    0.00246
   39   -0.01677
   40   -0.00056
   41   -0.00092
   42    0.00000
   43   -0.00088
   44    0.00841
   45   -0.00000
   46   -0.00005
   47   -0.00056
   48    0.00566
   49   -0.00005
   50    0.00004
   51   -0.00000
   52   -0.00202
   53   -0.00169
   54    0.00000
   55   -0.00012
   56   -0.00075
   57    0.00001
   58    0.00061
   59   -0.00006
   60   -0.00161
   61    0.00135
   62   -0.00166
   63    0.00001
   64   -0.00153
   65    0.00000
   66   -0.00000
   67   -0.00000
   68   -0.00000
   69   -0.00000
   70    0.00000
   71    0.00000
   72    0.00000
   73   -0.00000
   74   -0.00000
   75    0.00000
 Ene=   -10.2042
 Spin= Alpha
 Occup= 1.0
    1   -0.01020
    2   -0.00247
    3    0.01701
    4    0.00051
    5    0.00096
    6   -0.00000
    7   -0.00785
    8   -0.00359
    9    0.00000
   10    0.99434
   11    0.03666
   12   -0.04008
   13   -0.00040
   14    0.00059
   15    0.00000
   16    0.00628
   17   -0.00938
   18   -0.00000
   19   -0.03073
   20   -0.00366
   21    0.01943
   22   -0.00105
   23   -0.00017
   24   -0.00000
   25    0.00774
   26    0.00588
   27    0.00000
   28    0.02848
   29    0.00131
   30   -0.00860
   31   -0.00006
   32    0.00023
   33    0.00000
   34   -0.00428
   35   -0.00011
   36   -0.00000
   37   -0.00022
   38   -0.00019
   39    0.00455
   40    0.00007
   41    0.00011
   42   -0.00000
   43    0.00063
   44   -0.00319
   45    0.00000
   46    0.00005
   47    0.00059
   48   -0.00600
   49   -0.00006
   50    0.00002
   51    0.00000
   52    0.00054
   53    0.00270
   54   -0.00000
   55    0.00000
   56    0.00158
   57   -0.00135
   58    0.00163
   59    0.00006
   60    0.00171
   61   -0.00009
   62   -0.00051
   63    0.00012
   64    0.00084
   65   -0.00000
   66    0.00000
   67   -0.00000
   68    0.00000
   69    0.00000
   70   -0.00000
   71   -0.00000
   72   -0.00000
   73    0.00000
   74   -0.00000
   75    0.00000
 Ene=    -0.9520
 Spin= Alpha
 Occup= 1.0
    1   -0.09678
    2    0.19294
    3    0.04463
    4   -0.08399
    5    0.06634
    6    0.00004
    7    0.02322
    8   -0.02235
    9    0.00004
   10   -0.04986
   11    0.09208
   12    0.07293
   13   -0.00988
   14    0.04649
   15    0.00003
   16   -0.02525
   17    0.02332
   18    0.00003
   19   -0.04049
   20    0.07833
   21   -0.00089
   22    0.01847
   23    0.03245
   24    0.00004
   25   -0.00528
   26   -0.00927
   27    0.00005
   28   -0.04990
   29    0.09215
   30    0.07300
   31    0.04503
   32    0.01521
   33    0.00004
   34    0.03292
   35   -0.00985
   36    0.00005
   37   -0.09684
   38    0.19306
   39    0.04470
   40    0.09992
   41   -0.03846
   42    0.00004
   43   -0.03110
   44    0.00860
   45    0.00005
   46   -0.15621
   47    0.31990
   48    0.35620
   49   -0.06733
   50   -0.11805
   51    0.00005
   52   -0.03686
   53   -0.06464
   54    0.00005
   55    0.02889
   56   -0.00312
   57    0.01558
   58    0.00965
   59    0.01190
   60   -0.00085
   61    0.01560
   62    0.00966
   63    0.02893
   64   -0.00312
   65   -0.00000
   66    0.00000
   67   -0.00002
   68   -0.00000
   69    0.00000
   70    0.00000
   71   -0.00000
   72   -0.00001
   73   -0.00001
   74   -0.00000
   75    0.00004
 Ene=    -0.8125
 Spin= Alpha
 Occup= 1.0
    1   -0.00702
    2    0.01870
    3   -0.01881
    4   -0.00014
    5    0.11484
    6   -0.00001
    7    0.02921
    8   -0.00189
    9    0.00001
   10    0.10429
   11   -0.20679
   12   -0.12059
   13    0.08335
   14   -0.00827
   15   -0.00009
   16   -0.00602
   17    0.00934
   18   -0.00006
   19    0.14762
   20   -0.29205
   21   -0.22102
   22   -0.03326
   23   -0.05867
   24   -0.00016
   25   -0.00621
   26   -0.01097
   27   -0.00027
   28    0.10454
   29   -0.20725
   30   -0.12094
   31   -0.04958
   32    0.06748
   33   -0.00011
   34    0.01117
   35   -0.00039
   36   -0.00014
   37   -0.00689
   38    0.01844
   39   -0.01900
   40    0.09898
   41    0.05852
   42   -0.00002
   43   -0.01647
   44    0.02420
   45    0.00003
   46   -0.08986
   47    0.19079
   48    0.23469
   49   -0.02399
   50   -0.04217
   51    0.00002
   52   -0.01753
   53   -0.03079
   54    0.00003
   55    0.00492
   56   -0.00785
   57   -0.04874
   58   -0.00567
   59   -0.07112
   60   -0.01424
   61   -0.04893
   62   -0.00573
   63    0.00486
   64   -0.00786
   65    0.00001
   66   -0.00004
   67    0.00013
   68   -0.00000
   69   -0.00002
   70   -0.00001
   71    0.00001
   72    0.00008
   73    0.00006
   74    0.00001
   75   -0.00026
 Ene=    -0.7719
 Spin= Alpha
 Occup= 1.0
    1   -0.11775
    2    0.24316
    3    0.17582
    4   -0.03269
    5   -0.03796
    6    0.00005
    7   -0.00232
    8   -0.01537
    9    0.00005
   10   -0.10802
   11    0.21804
   12    0.14874
   13    0.03318
   14    0.05626
   15    0.00007
   16    0.00295
   17   -0.01153
   18    0.00012
   19   -0.00016
   20    0.00033
   21    0.00021
   22    0.09664
   23   -0.05498
   24   -0.00001
   25    0.00355
   26   -0.00202
   27    0.00001
   28    0.10786
   29   -0.21772
   30   -0.14856
   31   -0.03126
   32   -0.05742
   33   -0.00010
   34    0.01152
   35    0.00331
   36   -0.00020
   37    0.11776
   38   -0.24317
   39   -0.17588
   40    0.01597
   41    0.04729
   42   -0.00008
   43    0.01213
   44    0.00978
   45   -0.00006
   46    0.00003
   47   -0.00006
   48   -0.00010
   49    0.13013
   50   -0.07417
   51   -0.00001
   52    0.03269
   53   -0.01862
   54    0.00000
   55    0.06522
   56    0.01372
   57    0.06083
   58    0.00877
   59    0.00008
   60    0.00002
   61   -0.06085
   62   -0.00883
   63   -0.06529
   64   -0.01374
   65    0.00000
   66   -0.00002
   67    0.00007
   68   -0.00000
   69   -0.00001
   70   -0.00000
   71    0.00001
   72    0.00004
   73    0.00002
   74    0.00000
   75   -0.00011
 Ene=    -0.6634
 Spin= Alpha
 Occup= 1.0
    1   -0.00001
    2    0.00001
    3   -0.00031
    4    0.00002
    5   -0.00017
    6   -0.00000
    7    0.00005
    8    0.00009
    9   -0.00003
   10   -0.00009
   11    0.00015
   12    0.00039
   13    0.00006
   14    0.00003
   15   -0.00002
   16   -0.00002
   17    0.00052
   18    0.00011
   19    0.00006
   20   -0.00015
   21    0.00014
   22    0.00014
   23    0.00017
   24    0.00003
   25   -0.00021
   26   -0.00105
   27   -0.00025
   28   -0.00004
   29    0.00001
   30    0.00092
   31    0.00006
   32    0.00013
   33   -0.00000
   34    0.00038
   35    0.00006
   36   -0.00000
   37   -0.00008
   38    0.00017
   39   -0.00021
   40   -0.00010
   41   -0.00003
   42   -0.00001
   43    0.00002
   44    0.00013
   45    0.00001
   46    0.00006
   47   -0.00016
   48   -0.00010
   49   -0.00007
   50    0.00006
   51   -0.00000
   52   -0.00005
   53   -0.00002
   54    0.00001
   55    0.00001
   56    0.00002
   57    0.00008
   58    0.00024
   59   -0.00007
   60   -0.00140
   61    0.00002
   62   -0.00008
   63    0.00007
   64    0.00004
   65    0.19632
   66   -0.41496
   67   -0.39398
   68   -0.07477
   69   -0.18360
   70   -0.02591
   71   -0.02204
   72   -0.05400
   73   -0.00714
   74   -0.24316
   75   -0.09428
 Ene=    -0.6367
 Spin= Alpha
 Occup= 1.0
    1   -0.07998
    2    0.17240
    3    0.15057
    4    0.03498
    5    0.15193
    6    0.00002
    7    0.01812
    8    0.02842
    9    0.00011
   10    0.09396
   11   -0.18999
   12   -0.17026
   13    0.04462
   14    0.08159
   15   -0.00007
   16    0.00231
   17    0.02834
   18   -0.00019
   19    0.00034
   20   -0.00069
   21   -0.00061
   22   -0.17308
   23    0.09872
   24    0.00002
   25   -0.03462
   26    0.01984
   27   -0.00001
   28   -0.09417
   29    0.19039
   30    0.17064
   31   -0.04787
   32   -0.07900
   33    0.00011
   34   -0.02342
   35   -0.01630
   36    0.00031
   37    0.07970
   38   -0.17181
   39   -0.15002
   40   -0.11353
   41   -0.10774
   42   -0.00002
   43   -0.01536
   44   -0.03010
   45   -0.00017
   46    0.00009
   47   -0.00021
   48   -0.00020
   49    0.22757
   50   -0.12967
   51   -0.00000
   52    0.05471
   53   -0.03118
   54    0.00001
   55    0.08149
   56    0.02803
   57   -0.09550
   58   -0.03686
   59   -0.00031
   60   -0.00010
   61    0.09592
   62    0.03716
   63   -0.08125
   64   -0.02799
   65    0.00008
   66   -0.00014
   67   -0.00034
   68   -0.00003
   69   -0.00006
   70   -0.00001
   71   -0.00004
   72   -0.00011
   73   -0.00006
   74   -0.00012
   75    0.00023
 Ene=    -0.6332
 Spin= Alpha
 Occup= 1.0
    1   -0.07085
    2    0.14450
    3    0.14896
    4    0.04932
    5   -0.17377
    6    0.00004
    7    0.00589
    8   -0.03246
    9    0.00005
   10   -0.04868
   11    0.10051
   12    0.06430
   13    0.18238
   14    0.08229
   15    0.00000
   16    0.05131
   17   -0.00314
   18    0.00016
   19    0.11295
   20   -0.23333
   21   -0.17773
   22    0.03302
   23    0.05671
   24   -0.00015
   25    0.02721
   26    0.04742
   27   -0.00045
   28   -0.04816
   29    0.09946
   30    0.06343
   31   -0.02210
   32    0.19936
   33    0.00002
   34   -0.02873
   35    0.04273
   36    0.00019
   37   -0.07113
   38    0.14510
   39    0.14942
   40   -0.17430
   41   -0.04556
   42    0.00006
   43   -0.03102
   44   -0.01131
   45    0.00008
   46    0.07062
   47   -0.15697
   48   -0.19395
   49    0.01023
   50    0.01889
   51   -0.00000
   52    0.00634
   53    0.01144
   54   -0.00006
   55    0.07304
   56    0.03104
   57    0.04970
   58    0.01488
   59   -0.12031
   60   -0.03942
   61    0.04933
   62    0.01485
   63    0.07344
   64    0.03122
   65   -0.00018
   66    0.00038
   67    0.00049
   68    0.00007
   69    0.00016
   70    0.00001
   71   -0.00001
   72    0.00012
   73    0.00014
   74    0.00025
   75   -0.00022
 Ene=    -0.5348
 Spin= Alpha
 Occup= 1.0
    1   -0.02357
    2    0.05198
    3    0.05634
    4    0.20183
    5    0.05405
    6    0.00004
    7    0.09441
    8    0.01229
    9    0.00003
   10    0.00516
   11   -0.01035
   12    0.02381
   13    0.08725
   14   -0.17326
   15    0.00006
   16    0.01971
   17   -0.05092
   18   -0.00003
   19   -0.02507
   20    0.05396
   21    0.04799
   22   -0.12523
   23   -0.22000
   24    0.00012
   25   -0.05123
   26   -0.08969
   27    0.00029
   28    0.00528
   29   -0.01061
   30    0.02325
   31   -0.19398
   32   -0.01332
   33    0.00007
   34   -0.05397
   35   -0.00896
   36    0.00004
   37   -0.02352
   38    0.05183
   39    0.05623
   40   -0.05636
   41    0.20170
   42    0.00006
   43   -0.03762
   44    0.08754
   45    0.00004
   46   -0.02009
   47    0.04428
   48    0.07970
   49    0.05272
   50    0.09252
   51    0.00005
   52    0.01907
   53    0.03354
   54    0.00001
   55    0.11873
   56    0.05305
   57    0.09061
   58    0.05821
   59    0.15135
   60    0.08478
   61    0.09084
   62    0.05862
   63    0.11895
   64    0.05331
   65    0.00012
   66   -0.00024
   67   -0.00062
   68   -0.00004
   69   -0.00006
   70   -0.00002
   71    0.00003
   72   -0.00022
   73   -0.00033
   74   -0.00020
   75    0.00072
 Ene=    -0.4871
 Spin= Alpha
 Occup= 1.0
    1   -0.01526
    2    0.02684
    3   -0.00108
    4    0.04729
    5   -0.27835
    6    0.00001
    7    0.03927
    8   -0.09642
    9    0.00006
   10    0.00757
   11   -0.01917
   12    0.00121
   13    0.22407
   14    0.15290
   15   -0.00002
   16    0.04657
   17    0.06318
   18   -0.00009
   19    0.00010
   20   -0.00022
   21   -0.00040
   22   -0.23888
   23    0.13623
   24    0.00002
   25   -0.08532
   26    0.04863
   27    0.00003
   28   -0.00771
   29    0.01944
   30   -0.00080
   31   -0.01773
   32   -0.27063
   33    0.00004
   34   -0.03078
   35   -0.07247
   36    0.00011
   37    0.01530
   38   -0.02692
   39    0.00110
   40    0.26368
   41    0.10098
   42   -0.00001
   43    0.10308
   44    0.01527
   45   -0.00010
   46   -0.00001
   47    0.00004
   48   -0.00008
   49   -0.25522
   50    0.14541
   51   -0.00000
   52   -0.06155
   53    0.03511
   54    0.00002
   55    0.03258
   56    0.01502
   57   -0.01631
   58   -0.00067
   59   -0.00016
   60   -0.00009
   61    0.01665
   62    0.00090
   63   -0.03276
   64   -0.01517
   65    0.00003
   66   -0.00003
   67   -0.00026
   68    0.00000
   69    0.00000
   70   -0.00001
   71   -0.00003
   72   -0.00010
   73   -0.00008
   74   -0.00004
   75    0.00031
 Ene=    -0.4753
 Spin= Alpha
 Occup= 1.0
    1   -0.05254
    2    0.10865
    3    0.13005
    4    0.15209
    5   -0.02575
    6    0.00002
    7    0.04579
    8    0.01092
    9    0.00017
   10    0.05102
   11   -0.10466
   12   -0.12529
   13   -0.12726
   14    0.18183
   15   -0.00004
   16   -0.03235
   17    0.07932
   18   -0.00026
   19   -0.05832
   20    0.12384
   21    0.15424
   22    0.01204
   23    0.02278
   24    0.00006
   25   -0.00307
   26   -0.00489
   27    0.00031
   28    0.05082
   29   -0.10418
   30   -0.12482
   31    0.22253
   32   -0.01760
   33   -0.00009
   34    0.08493
   35    0.01233
   36   -0.00042
   37   -0.05251
   38    0.10860
   39    0.13012
   40   -0.09950
   41    0.11717
   42    0.00001
   43   -0.01383
   44    0.04475
   45    0.00024
   46    0.04665
   47   -0.10615
   48   -0.17918
   49    0.02737
   50    0.04798
   51    0.00001
   52    0.01382
   53    0.02414
   54   -0.00012
   55    0.14350
   56    0.09278
   57   -0.18568
   58   -0.12196
   59    0.05329
   60    0.01947
   61   -0.18643
   62   -0.12302
   63    0.14324
   64    0.09270
   65   -0.00002
   66   -0.00002
   67    0.00028
   68   -0.00001
   69   -0.00002
   70   -0.00001
   71    0.00009
   72    0.00011
   73    0.00001
   74    0.00001
   75   -0.00032
 Ene=    -0.4415
 Spin= Alpha
 Occup= 1.0
    1    0.01375
    2   -0.03927
    3   -0.05148
    4    0.27550
    5    0.06419
    6   -0.00003
    7    0.08636
    8   -0.00528
    9   -0.00001
   10    0.01715
   11   -0.04189
   12   -0.08171
   13    0.09437
   14   -0.25506
   15   -0.00003
   16    0.05327
   17   -0.06617
   18    0.00005
   19    0.00010
   20   -0.00022
   21   -0.00031
   22   -0.06038
   23    0.03368
   24   -0.00003
   25    0.03243
   26   -0.01878
   27    0.00001
   28   -0.01734
   29    0.04228
   30    0.08247
   31    0.26646
   32    0.04935
   33   -0.00004
   34    0.08357
   35   -0.01204
   36   -0.00018
   37   -0.01371
   38    0.03923
   39    0.05148
   40    0.08523
   41   -0.27025
   42   -0.00003
   43    0.04850
   44   -0.07173
   45   -0.00000
   46   -0.00005
   47    0.00013
   48    0.00022
   49   -0.05796
   50    0.03290
   51   -0.00003
   52    0.00540
   53   -0.00314
   54   -0.00002
   55    0.14867
   56    0.12486
   57    0.14508
   58    0.12894
   59    0.00026
   60    0.00021
   61   -0.14440
   62   -0.12890
   63   -0.14910
   64   -0.12538
   65   -0.00004
   66    0.00004
   67    0.00040
   68   -0.00001
   69   -0.00003
   70    0.00001
   71    0.00006
   72    0.00013
   73    0.00011
   74    0.00004
   75   -0.00047
 Ene=    -0.4087
 Spin= Alpha
 Occup= 1.0
    1    0.02696
    2   -0.06043
    3   -0.08765
    4    0.16245
    5    0.11714
    6   -0.00018
    7    0.06485
    8    0.08851
    9   -0.00018
   10   -0.02353
   11    0.04970
   12    0.10635
   13   -0.15719
   14   -0.12015
   15   -0.00015
   16   -0.01514
   17   -0.01681
   18    0.00012
   19   -0.00436
   20    0.01767
   21    0.02814
   22    0.18545
   23    0.32549
   24   -0.00021
   25    0.05798
   26    0.10116
   27   -0.00054
   28   -0.02356
   29    0.04976
   30    0.10683
   31   -0.02263
   32   -0.19633
   33   -0.00013
   34   -0.00642
   35   -0.02183
   36    0.00015
   37    0.02693
   38   -0.06035
   39   -0.08764
   40    0.01805
   41    0.19892
   42   -0.00018
   43    0.04310
   44    0.10082
   45   -0.00018
   46   -0.03022
   47    0.06901
   48    0.05999
   49    0.08526
   50    0.14958
   51   -0.00018
   52    0.04535
   53    0.07956
   54   -0.00003
   55    0.07318
   56    0.06141
   57    0.04743
   58    0.03023
   59   -0.25370
   60   -0.23021
   61    0.04710
   62    0.03003