
Running Job 1 of 1 optimize.in
qchem optimize.in_61643.0 ./optimize.d/ 1
/home/leeping/opt/qchem/5.0.2-openmp/exe/qcprog.exe_s optimize.in_61643.0 ./optimize.d/
Check license passed

                  Welcome to Q-Chem
     A Quantum Leap Into The Future Of Chemistry


 Q-Chem 5.0, Q-Chem, Inc., Pleasanton, CA (2017)

 Yihan Shao,  Zhengting Gan,  E. Epifanovsky,  A. T. B. Gilbert,  M. Wormit,  
 J. Kussmann,  A. W. Lange,  A. Behn,  Jia Deng,  Xintian Feng,  D. Ghosh,  
 M. Goldey,  P. R. Horn,  L. D. Jacobson,  I. Kaliman,  T. Kus,  A. Landau,  
 Jie Liu,  E. I. Proynov,  R. M. Richard,  R. P. Steele,  E. J. Sundstrom,  
 H. L. Woodcock III,  P. M. Zimmerman,  D. Zuev,  B. Albrecht,  E. Alguire,  
 S. A. Baeppler,  D. Barton,  Z. Benda,  Y. A. Bernard,  E. J. Berquist,  
 K. B. Bravaya,  H. Burton,  D. Casanova,  Chun-Min Chang,  Yunqing Chen,  
 A. Chien,  K. D. Closser,  M. P. Coons,  S. Dasgupta,  A. L. Dempwolff,  
 M. Diedenhofen,  Hainam Do,  R. G. Edgar,  Po-Tung Fang,  S. Fatehi,  
 Qingguo Feng,  J. Fosso-Tande,  Qinghui Ge,  A. Ghysels,  G. Gidofalvi,  
 J. Gomes,  J. Gonthier,  A. Gunina,  M. W. D. Hanson-Heine,  
 P. H. P. Harbach,  A. W. Hauser,  J. E. Herr,  E. G. Hohenstein,  
 Z. C. Holden,  Kerwin Hui,  T.-C. Jagau,  Hyunjun Ji,  B. Kaduk,  
 K. Khistyaev,  Jaehoon Kim,  P. Klunzinger,  K. Koh,  D. Kosenkov,  
 L. Koulias,  T. Kowalczyk,  C. M. Krauter,  A. Kunitsa,  Ka Un Lao,  
 A. Laurent,  K. V. Lawler,  Joonho Lee,  D. Lefrancois,  S. Lehtola,  
 D. S. Levine,  Yi-Pei Li,  You-Sheng Lin,  Fenglai Liu,  E. Livshits,  
 A. Luenser,  P. Manohar,  E. Mansoor,  S. F. Manzer,  Shan-Ping Mao,  
 Yuezhi Mao,  N. Mardirossian,  A. V. Marenich,  T. Markovich,  
 L. A. Martinez-Martinez,  S. A. Maurer,  N. J. Mayhall,  S. C. McKenzie,  
 J.-M. Mewes,  A. F. Morrison,  J. W. Mullinax,  K. Nanda,  
 T. S. Nguyen-Beck,  R. Olivares-Amaya,  J. A. Parkhill,  T. M. Perrine,  
 F. Plasser,  S. Prager,  A. Prociuk,  E. Ramos,  D. R. Rehn,  F. Rob,  
 M. Schneider,  N. Sergueev,  S. M. Sharada,  S. Sharma,  D. W. Small,  
 T. Stauch,  T. Stein,  Yu-Chuan Su,  A. J. W. Thom,  A. Tkatchenko,  
 T. Tsuchimochi,  L. Vogt,  O. Vydrov,  M. A. Watson,  J. Wenzel,  
 M. de Wergifosse,  T. A. Wesolowski,  A. White,  J. Witte,  A. Yamada,  
 Jun Yang,  K. Yao,  S. Yeganeh,  S. R. Yost,  Zhi-Qiang You,  A. Zech,  
 Igor Ying Zhang,  Xing Zhang,  Yan Zhao,  Ying Zhu,  B. R. Brooks,  
 G. K. L. Chan,  C. J. Cramer,  M. S. Gordon,  W. J. Hehre,  A. Klamt,  
 M. W. Schmidt,  C. D. Sherrill,  D. G. Truhlar,  A. Aspuru-Guzik,  R. Baer,  
 A. T. Bell,  N. A. Besley,  Jeng-Da Chai,  R. A. DiStasio Jr.,  A. Dreuw,  
 B. D. Dunietz,  T. R. Furlani,  Chao-Ping Hsu,  Yousung Jung,  Jing Kong,  
 D. S. Lambrecht,  WanZhen Liang,  C. Ochsenfeld,  V. A. Rassolov,  
 L. V. Slipchenko,  J. E. Subotnik,  T. Van Voorhis,  J. M. Herbert,  
 A. I. Krylov,  P. M. W. Gill,  M. Head-Gordon

 Contributors to earlier versions of Q-Chem not listed above: 
 R. D. Adamson,  B. Austin,  J. Baker,  G. J. O. Beran,  K. Brandhorst,  
 S. T. Brown,  E. F. C. Byrd,  A. K. Chakraborty,  C.-L. Cheng,  
 Siu Hung Chien,  D. M. Chipman,  D. L. Crittenden,  H. Dachsel,  
 R. J. Doerksen,  A. D. Dutoi,  L. Fusti-Molnar,  W. A. Goddard III,  
 A. Golubeva-Zadorozhnaya,  S. R. Gwaltney,  G. Hawkins,  A. Heyden,  
 S. Hirata,  G. Kedziora,  F. J. Keil,  C. Kelley,  Jihan Kim,  R. A. King,  
 R. Z. Khaliullin,  P. P. Korambath,  W. Kurlancheek,  A. M. Lee,  M. S. Lee,  
 S. V. Levchenko,  Ching Yeh Lin,  D. Liotard,  R. C. Lochan,  I. Lotan,  
 P. E. Maslen,  N. Nair,  D. P. O'Neill,  D. Neuhauser,  E. Neuscamman,  
 C. M. Oana,  R. Olson,  B. Peters,  R. Peverati,  P. A. Pieniazek,  
 Y. M. Rhee,  J. Ritchie,  M. A. Rohrdanz,  E. Rosta,  N. J. Russ,  
 H. F. Schaefer III,  N. E. Schultz,  N. Shenvi,  A. C. Simmonett,  A. Sodt,  
 D. Stuck,  K. S. Thanthiriwatte,  V. Vanovschi,  Tao Wang,  A. Warshel,  
 C. F. Williams,  Q. Wu,  X. Xu,  W. Zhang

 Please cite Q-Chem as follows:
 Y. Shao et al., Mol. Phys. 113, 184-215 (2015)
 DOI: 10.1080/00268976.2014.952696

 Q-Chem 5.0.2 for Intel X86 EM64T Linux

 Parts of Q-Chem use Armadillo 5.200.1 (Boston Tea Smuggler).
 http://arma.sourceforge.net/

 Q-Chem begins on Wed Mar  2 08:22:11 2022  

Host: 
0

     Scratch files written to ./optimize.d//
 Dec517 15110_ 26548  26544 5633   
Processing $rem in /home/leeping/opt/qchem/5.0.2-openmp/config/preferences.
 MEM_STATIC 2000
 MEM_TOTAL  8000
 SYMMETRY   OFF
 SYM_IGNORE TRUE 

Checking the input file for inconsistencies... 	...done.

--------------------------------------------------------------
User input:
--------------------------------------------------------------
$molecule
0 2
C        1.2554279326    0.3061706373    0.0811228461
C        0.5874597346   -1.1359940821   -0.0720803853
C       -0.7822743869   -1.0224574752   -0.5558702645
C       -1.0354949141    0.2327157912    0.2762937141
C       -0.5232356969    1.3798637558   -0.5862394850
N        0.7519173857    1.3845994248   -0.7325396323
H        2.3208465882    0.2906626744    0.2882617553
H        1.2455168467   -1.9990553820   -0.0951544329
H       -1.2773291767   -1.3914709292   -1.4513235651
H       -2.0009587836    0.3583177072    0.7704877175
H       -1.1665463228    2.0553904906   -1.1479624511
C        0.2569184265   -0.1646565689    1.0764132803
H        0.3677523668   -0.2940860439    2.1485909029
$end

$rem
method                b3lyp
basis                 6-31g(d)
unrestricted          true
symmetry              off
sym_ignore            true
incdft                false
incfock               0
scf_convergence       8
thresh                14
jobtype               opt
scf_guess             read
scf_algorithm         diis
max_scf_cycles        100
geom_opt_tol_gradient 600
geom_opt_tol_displacement 2400
geom_opt_tol_energy   200
geom_opt_max_cycles   100
$end

--------------------------------------------------------------
 ----------------------------------------------------------------
             Standard Nuclear Orientation (Angstroms)
    I     Atom           X                Y                Z
 ----------------------------------------------------------------
    1      C       1.2554279326     0.3061706373     0.0811228461
    2      C       0.5874597346    -1.1359940821    -0.0720803853
    3      C      -0.7822743869    -1.0224574752    -0.5558702645
    4      C      -1.0354949141     0.2327157912     0.2762937141
    5      C      -0.5232356969     1.3798637558    -0.5862394850
    6      N       0.7519173857     1.3845994248    -0.7325396323
    7      H       2.3208465882     0.2906626744     0.2882617553
    8      H       1.2455168467    -1.9990553820    -0.0951544329
    9      H      -1.2773291767    -1.3914709292    -1.4513235651
   10      H      -2.0009587836     0.3583177072     0.7704877175
   11      H      -1.1665463228     2.0553904906    -1.1479624511
   12      C       0.2569184265    -0.1646565689     1.0764132803
   13      H       0.3677523668    -0.2940860439     2.1485909029
 ----------------------------------------------------------------
 Nuclear Repulsion Energy =   282.1735651441 hartrees
 There are       25 alpha and       24 beta electrons
 Requested basis set is 6-31G(d)
 There are 40 shells and 117 basis functions

 Total QAlloc Memory Limit   8000 MB
 Mega-Array Size      1956 MB
 MEM_STATIC part      2000 MB
 A cutoff of  1.0D-14 yielded    812 shell pairs
 There are      7084 function pairs
 
 -------------------------------------------------------
 OpenMP Integral Computing Module                       
 Release: version 1.0, May 2013, Q-Chem Inc. Pittsburgh 
 -------------------------------------------------------
 Integral Job Info:
 Integral job number is                      11
 Integral operator is                         1
 short-range coefficients                     0
 long-range coefficients              100000000
 Omega coefficients                           0
 if combine SR and LR in K                    0
 Integral screening is                        0
 Integral computing path is                   2
 max size of driver memory is            800000
 size of driver memory is                593474
 size of scratch memory is              2361544
 max col of scratch BK array               1296
 max len of scratch array in speh3          155
 max len of scratch index in speh4           18
 max int batch size is                      520
 min int batch size is                       52
 fixed nKL is                                52
 max L of basis functions is                  2
 order of int derivative is                   0
 number of shells is                         40
 number of basis is                         117
 number of cartesian basis is               117
 number of contracted shell pairs           812
 number of primitive shell pairs           3615
 maxK2 (contraction) of shell pair           36
 max number of K2 of shell pair               1
 max number of CS2 of shell pair             84
 max number of PS2 of shell pair            426
 mem total for path MDJ                  535308
 -------------------------------------------------------
 Smallest overlap matrix eigenvalue = 1.65E-03

 Scale SEOQF with 1.000000e-01/1.000000e-01/1.000000e-01

 Standard Electronic Orientation quadrupole field applied
 Nucleus-field energy     =     0.0000000025 hartrees
 Guess MOs from SCF MO coefficient file
 Reading MOs from coefficient file
 Reading MOs from coefficient file
 An unrestricted hybrid HF-DFT SCF calculation will be
 performed using Pulay DIIS extrapolation
 Exchange:     0.2000 Hartree-Fock + 0.0800 Slater + 0.7200 B88
 Correlation:  0.1900 VWN1RPA + 0.8100 LYP
 Using SG-1 standard quadrature grid
 SCF converges when DIIS error is below 1.0E-08
Using Q-Chem read-in guess as SCF_GUESS READ specified.

 using 4 threads for integral computing
 -------------------------------------------------------
 OpenMP Integral computing Module                
 Release: version 1.0, May 2013, Q-Chem Inc. Pittsburgh 
 -------------------------------------------------------
 -------------------------------------------------------
 OpenMP BLAS3 based DFT computing Module                
 Release: version 1.0, May 2013, Q-Chem Inc. Pittsburgh 
 -------------------------------------------------------
 ---------------------------------------
  Cycle       Energy         DIIS Error
 ---------------------------------------
    1    -286.8383090703      2.10E-09
    2    -286.8383090703      3.23E-09 Convergence criterion met
 ---------------------------------------
 <S^2> = 0.7566
 SCF time:  CPU 5.30 s  wall 7.24 s
 SCF   energy in the final basis set = -286.83830907
 Total energy in the final basis set = -286.83830907
 
 --------------------------------------------------------------
 
                    Orbital Energies (a.u.)
 --------------------------------------------------------------
 
 Alpha MOs
 -- Occupied --
-14.320 -10.224 -10.220 -10.210 -10.209 -10.208 -10.206  -0.967
 -0.856  -0.749  -0.664  -0.606  -0.571  -0.535  -0.517  -0.467
 -0.439  -0.405  -0.400  -0.356  -0.336  -0.298  -0.274  -0.256
 -0.182
 -- Virtual --
  0.004   0.101   0.114   0.128   0.150   0.150   0.152   0.162
  0.176   0.200   0.221   0.262   0.280   0.296   0.348   0.391
  0.494   0.512   0.523   0.543   0.558   0.573   0.601   0.604
  0.605   0.659   0.675   0.678   0.720   0.741   0.770   0.777
  0.805   0.807   0.823   0.842   0.855   0.877   0.889   0.937
  0.954   0.973   1.042   1.096   1.206   1.237   1.328   1.390
  1.446   1.474   1.504   1.517   1.587   1.632   1.673   1.713
  1.743   1.828   1.873   1.881   1.933   1.954   1.987   2.026
  2.060   2.167   2.207   2.218   2.232   2.253   2.363   2.380
  2.456   2.490   2.503   2.541   2.590   2.626   2.664   2.676
  2.718   2.808   2.841   2.914   2.963   3.958   4.194   4.239
  4.363   4.433   4.508   4.640
 
 Beta MOs
 -- Occupied --
-14.319 -10.222 -10.219 -10.210 -10.209 -10.207 -10.193  -0.964
 -0.850  -0.741  -0.652  -0.601  -0.567  -0.528  -0.511  -0.461
 -0.434  -0.402  -0.393  -0.348  -0.332  -0.292  -0.262  -0.251
 -- Virtual --
 -0.062   0.020   0.103   0.118   0.134   0.151   0.156   0.157
  0.165   0.181   0.204   0.227   0.267   0.284   0.298   0.359
  0.394   0.497   0.518   0.532   0.553   0.561   0.578   0.607
  0.610   0.622   0.669   0.679   0.683   0.729   0.745   0.775
  0.787   0.808   0.809   0.825   0.844   0.858   0.882   0.892
  0.940   0.958   0.976   1.046   1.108   1.208   1.243   1.335
  1.392   1.450   1.479   1.514   1.525   1.593   1.640   1.677
  1.716   1.751   1.835   1.878   1.894   1.941   1.970   1.994
  2.034   2.068   2.172   2.222   2.226   2.242   2.270   2.368
  2.390   2.462   2.497   2.511   2.545   2.594   2.633   2.666
  2.684   2.725   2.813   2.845   2.916   2.964   3.960   4.208
  4.245   4.369   4.438   4.511   4.644
 --------------------------------------------------------------
 
          Ground-State Mulliken Net Atomic Charges

     Atom                 Charge (a.u.)    Spin (a.u.)
  --------------------------------------------------------
      1 C                    -0.019017       0.096961
      2 C                    -0.163257      -0.095878
      3 C                    -0.066645       0.888296
      4 C                    -0.258022      -0.065660
      5 C                     0.088618       0.047093
      6 N                    -0.342258       0.039316
      7 H                     0.151376       0.002829
      8 H                     0.147206       0.005230
      9 H                     0.136221      -0.019254
     10 H                     0.142800       0.022686
     11 H                     0.143100       0.001379
     12 C                    -0.108236       0.077794
     13 H                     0.148113      -0.000791
  --------------------------------------------------------
  Sum of atomic charges =     0.000000
  Sum of spin   charges =     1.000000

 -----------------------------------------------------------------
                    Cartesian Multipole Moments
 -----------------------------------------------------------------
    Charge (ESU x 10^10)
                 0.0000
    Dipole Moment (Debye)
         X      -1.0349      Y      -1.2987      Z       1.2040
       Tot       2.0511
    Quadrupole Moments (Debye-Ang)
        XX     -38.0965     XY      -4.3082     YY     -42.8580
        XZ       2.8710     YZ       1.6676     ZZ     -40.3708
    Octopole Moments (Debye-Ang^2)
       XXX      -5.4289    XXY      -5.7047    XYY      -6.7620
       YYY     -18.6118    XXZ       4.4681    XYZ       2.5332
       YYZ       2.2783    XZZ      -6.1410    YZZ      -7.3602
       ZZZ      12.3729
    Hexadecapole Moments (Debye-Ang^3)
      XXXX    -223.6514   XXXY      -8.2949   XXYY     -88.1246
      XYYY     -21.5977   YYYY    -291.1993   XXXZ      -6.3243
      XXYZ       9.8905   XYYZ       5.6269   YYYZ      25.6739
      XXZZ     -65.5471   XYZZ      -4.2698   YYZZ     -74.5341
      XZZZ      -3.5532   YZZZ      23.6132   ZZZZ    -147.1508
 -----------------------------------------------------------------
 Calculating analytic gradient of the SCF energy
 Gradient of SCF Energy
            1           2           3           4           5           6
    1  -0.0002239   0.0000920  -0.0000738   0.0001336  -0.0003004   0.0001809
    2   0.0000678  -0.0000566  -0.0000990   0.0002887   0.0001728   0.0001762
    3   0.0001124   0.0003939  -0.0000183  -0.0001248  -0.0000583  -0.0001317
            7           8           9          10          11          12
    1   0.0001947   0.0000429  -0.0001768   0.0002992  -0.0000213   0.0001703
    2   0.0000400   0.0000073  -0.0000070  -0.0001070  -0.0000847  -0.0003980
    3  -0.0000606  -0.0001053  -0.0000481   0.0000188  -0.0001456   0.0002973
           13
    1  -0.0003173
    2  -0.0000007
    3  -0.0001295
 Max gradient component =       3.980E-04
 RMS gradient           =       1.743E-04
 Gradient time:  CPU 7.69 s  wall 5.09 s
 Geometry Optimization Parameters
   NAtoms,    NIC,     NZ,  NCons,   NDum,   NFix, NCnnct, MaxDiis
       13     128       0       0       0       0       0       0


** GEOMETRY OPTIMIZATION IN DELOCALIZED INTERNAL COORDINATES **
   Searching for a Minimum

   Optimization Cycle:   1

                       Coordinates (Angstroms)
     ATOM                X               Y               Z
      1  C         1.2554279326    0.3061706373    0.0811228461
      2  C         0.5874597346   -1.1359940821   -0.0720803853
      3  C        -0.7822743869   -1.0224574752   -0.5558702645
      4  C        -1.0354949141    0.2327157912    0.2762937141
      5  C        -0.5232356969    1.3798637558   -0.5862394850
      6  N         0.7519173857    1.3845994248   -0.7325396323
      7  H         2.3208465882    0.2906626744    0.2882617553
      8  H         1.2455168467   -1.9990553820   -0.0951544329
      9  H        -1.2773291767   -1.3914709292   -1.4513235651
     10  H        -2.0009587836    0.3583177072    0.7704877175
     11  H        -1.1665463228    2.0553904906   -1.1479624511
     12  C         0.2569184265   -0.1646565689    1.0764132803
     13  H         0.3677523668   -0.2940860439    2.1485909029
   Point Group: c1    Number of degrees of freedom:    33


   Energy is   -286.838309070


 Attempting to Generate Delocalized Internal Coordinates

 33 Hessian modes will be used to form the next step
  Hessian Eigenvalues:
     0.011414    0.011991    0.012456    0.015957    0.018831    0.021203
     0.022820    0.037513    0.045984    0.053192    0.058479    0.072307
     0.088640    0.104984    0.119439    0.127312    0.140944    0.158423
     0.171878    0.183167    0.223745    0.262518    0.276561    0.290764
     0.329177    0.346004    0.349393    0.350800    0.353221    0.353305
     0.353404    0.369631    0.638431

 Minimum Search - Taking Simple RFO Step
 Searching for Lamda that Minimizes Along All modes
 Value Taken    Lamda =  -0.00000804
 Step Taken.  Stepsize is  0.018422

                             Maximum     Tolerance    Cnvgd?
         Gradient           0.000409      0.000600     YES
         Displacement       0.011362      0.002400      NO
         Energy change     *********      0.000002      NO


 New Cartesian Coordinates Obtained by Inverse Iteration

 Displacement from previous Coordinates is:  0.017252
 ----------------------------------------------------------------
             Standard Nuclear Orientation (Angstroms)
    I     Atom           X                Y                Z
 ----------------------------------------------------------------
    1      C       1.2554365717     0.3052243243     0.0796732015
    2      C       0.5871240244    -1.1365323003    -0.0717672029
    3      C      -0.7817572684    -1.0226849559    -0.5567463318
    4      C      -1.0364456101     0.2318927763     0.2758857795
    5      C      -0.5234080652     1.3795469949    -0.5853792387
    6      N       0.7514632657     1.3834558523    -0.7333630553
    7      H       2.3204029881     0.2898491721     0.2877425108
    8      H       1.2444640031    -2.0001585268    -0.0925103267
    9      H      -1.2749070434    -1.3920435049    -1.4528788650
   10      H      -2.0029696579     0.3575108675     0.7689018057
   11      H      -1.1664986114     2.0582774185    -1.1433860484
   12      C       0.2569303057    -0.1634945353     1.0757034099
   13      H       0.3701650978    -0.2908435828     2.1481243613
 ----------------------------------------------------------------
 Nuclear Repulsion Energy =   282.1974974547 hartrees
 There are       25 alpha and       24 beta electrons
 Applying Cartesian multipole field
    Component          Value
    ---------          -----
     (2,0,0)        1.00000E-11
     (0,2,0)        2.00000E-11
     (0,0,2)       -3.00000E-11
 Nucleus-field energy     =     0.0000000025 hartrees
 Requested basis set is 6-31G(d)
 There are 40 shells and 117 basis functions
 A cutoff of  1.0D-14 yielded    812 shell pairs
 There are      7084 function pairs
 Smallest overlap matrix eigenvalue = 1.65E-03
 Guess MOs from SCF MO coefficient file
 Reading MOs from coefficient file
 Reading MOs from coefficient file
 An unrestricted hybrid HF-DFT SCF calculation will be
 performed using Pulay DIIS extrapolation
 Exchange:     0.2000 Hartree-Fock + 0.0800 Slater + 0.7200 B88
 Correlation:  0.1900 VWN1RPA + 0.8100 LYP
 Using SG-1 standard quadrature grid
 SCF converges when DIIS error is below 1.0E-08
 Geometry optimization detected.  Setting ReadMinima to 0
 Setting SaveMinima to 0
Using Q-Chem read-in guess as SCF_GUESS READ specified.

 using 4 threads for integral computing
 -------------------------------------------------------
 OpenMP Integral computing Module                
 Release: version 1.0, May 2013, Q-Chem Inc. Pittsburgh 
 -------------------------------------------------------
 -------------------------------------------------------
 OpenMP BLAS3 based DFT computing Module                
 Release: version 1.0, May 2013, Q-Chem Inc. Pittsburgh 
 -------------------------------------------------------
 ---------------------------------------
  Cycle       Energy         DIIS Error
 ---------------------------------------
    1    -286.8385727953      6.99E-05
    2    -286.8383120236      1.57E-05
    3    -286.8383117884      2.06E-05
    4    -286.8383125570      1.88E-06
    5    -286.8383125633      8.21E-07
    6    -286.8383125646      2.98E-07
    7    -286.8383125648      6.52E-08
    8    -286.8383125648      2.94E-08
    9    -286.8383125648      1.35E-08
   10    -286.8383125648      5.40E-09 Convergence criterion met
 ---------------------------------------
 <S^2> = 0.7566
 SCF time:  CPU 26.43 s  wall 24.88 s
 SCF   energy in the final basis set = -286.83831256
 Total energy in the final basis set = -286.83831256
 
 --------------------------------------------------------------
 
                    Orbital Energies (a.u.)
 --------------------------------------------------------------
 
 Alpha MOs
 -- Occupied --
-14.320 -10.224 -10.220 -10.210 -10.209 -10.208 -10.206  -0.968
 -0.856  -0.749  -0.664  -0.606  -0.571  -0.535  -0.517  -0.467
 -0.439  -0.405  -0.400  -0.356  -0.336  -0.298  -0.273  -0.256
 -0.182
 -- Virtual --
  0.004   0.101   0.114   0.128   0.150   0.150   0.153   0.162
  0.177   0.200   0.221   0.262   0.280   0.296   0.348   0.391
  0.494   0.513   0.524   0.543   0.558   0.573   0.601   0.605
  0.605   0.659   0.675   0.678   0.720   0.741   0.770   0.777
  0.805   0.807   0.823   0.842   0.855   0.877   0.889   0.936
  0.954   0.973   1.043   1.096   1.206   1.237   1.327   1.390
  1.446   1.475   1.504   1.517   1.587   1.632   1.673   1.713
  1.743   1.828   1.873   1.881   1.933   1.954   1.987   2.026
  2.060   2.168   2.207   2.218   2.232   2.253   2.363   2.380
  2.456   2.490   2.503   2.542   2.590   2.626   2.664   2.676
  2.718   2.808   2.841   2.914   2.963   3.959   4.194   4.239
  4.363   4.433   4.508   4.641
 
 Beta MOs
 -- Occupied --
-14.319 -10.222 -10.219 -10.211 -10.209 -10.207 -10.193  -0.964
 -0.850  -0.741  -0.652  -0.601  -0.567  -0.528  -0.511  -0.461
 -0.434  -0.403  -0.393  -0.348  -0.332  -0.292  -0.262  -0.251
 -- Virtual --
 -0.062   0.020   0.103   0.118   0.134   0.151   0.156   0.157
  0.165   0.181   0.204   0.227   0.267   0.284   0.298   0.360
  0.394   0.497   0.518   0.532   0.553   0.561   0.578   0.607
  0.610   0.622   0.669   0.679   0.683   0.729   0.745   0.775
  0.787   0.808   0.810   0.825   0.844   0.858   0.882   0.892
  0.940   0.958   0.976   1.047   1.108   1.208   1.243   1.334
  1.392   1.449   1.481   1.514   1.525   1.594   1.640   1.677
  1.716   1.751   1.835   1.878   1.894   1.941   1.970   1.994
  2.035   2.068   2.172   2.222   2.226   2.242   2.270   2.368
  2.390   2.463   2.497   2.511   2.546   2.594   2.633   2.666
  2.684   2.725   2.813   2.846   2.917   2.965   3.961   4.208
  4.245   4.369   4.438   4.511   4.644
 --------------------------------------------------------------
 
          Ground-State Mulliken Net Atomic Charges

     Atom                 Charge (a.u.)    Spin (a.u.)
  --------------------------------------------------------
      1 C                    -0.019052       0.097061
      2 C                    -0.163035      -0.095991
      3 C                    -0.066614       0.888505
      4 C                    -0.257950      -0.065716
      5 C                     0.088574       0.047029
      6 N                    -0.342232       0.039295
      7 H                     0.151451       0.002824
      8 H                     0.147173       0.005291
      9 H                     0.136302      -0.019364
     10 H                     0.142833       0.022710
     11 H                     0.143000       0.001380
     12 C                    -0.108506       0.077767
     13 H                     0.148055      -0.000791
  --------------------------------------------------------
  Sum of atomic charges =     0.000000
  Sum of spin   charges =     1.000000

 -----------------------------------------------------------------
                    Cartesian Multipole Moments
 -----------------------------------------------------------------
    Charge (ESU x 10^10)
                 0.0000
    Dipole Moment (Debye)
         X      -1.0336      Y      -1.2967      Z       1.2061
       Tot       2.0505
    Quadrupole Moments (Debye-Ang)
        XX     -38.0904     XY      -4.3071     YY     -42.8484
        XZ       2.8718     YZ       1.6782     ZZ     -40.3818
    Octopole Moments (Debye-Ang^2)
       XXX      -5.4173    XXY      -5.6795    XYY      -6.7572
       YYY     -18.5551    XXZ       4.4981    XYZ       2.5216
       YYZ       2.3003    XZZ      -6.1130    YZZ      -7.3568
       ZZZ      12.4106
    Hexadecapole Moments (Debye-Ang^3)
      XXXX    -223.6111   XXXY      -8.2497   XXYY     -88.1080
      XYYY     -21.5617   YYYY    -291.0265   XXXZ      -6.3159
      XXYZ       9.8635   XYYZ       5.6333   YYYZ      25.6147
      XXZZ     -65.5421   XYZZ      -4.2287   YYZZ     -74.5459
      XZZZ      -3.5118   YZZZ      23.6370   ZZZZ    -147.1247
 -----------------------------------------------------------------
 Calculating analytic gradient of the SCF energy
 Gradient of SCF Energy
            1           2           3           4           5           6
    1   0.0000851  -0.0001499   0.0001106  -0.0000882  -0.0000766   0.0001295
    2   0.0000933  -0.0000853   0.0000171  -0.0000110  -0.0000862  -0.0000954
    3   0.0000054   0.0001832  -0.0002005  -0.0000795   0.0001705  -0.0000371
            7           8           9          10          11          12
    1   0.0000053   0.0000113  -0.0000413  -0.0000155  -0.0000046   0.0002116
    2   0.0000051   0.0000243  -0.0000226  -0.0000319  -0.0000168   0.0001548
    3  -0.0000334   0.0000036   0.0000191   0.0000432   0.0000148  -0.0001119
           13
    1  -0.0001772
    2   0.0000547
    3   0.0000226
 Max gradient component =       2.116E-04
 RMS gradient           =       9.340E-05
 Gradient time:  CPU 7.79 s  wall 2.12 s
 Geometry Optimization Parameters
   NAtoms,    NIC,     NZ,  NCons,   NDum,   NFix, NCnnct, MaxDiis
       13     128       0       0       0       0       0       0

 Cartesian Hessian Update
 Hessian Updated using BFGS Update


** GEOMETRY OPTIMIZATION IN DELOCALIZED INTERNAL COORDINATES **
   Searching for a Minimum

   Optimization Cycle:   2

                       Coordinates (Angstroms)
     ATOM                X               Y               Z
      1  C         1.2554365717    0.3052243243    0.0796732015
      2  C         0.5871240244   -1.1365323003   -0.0717672029
      3  C        -0.7817572684   -1.0226849559   -0.5567463318
      4  C        -1.0364456101    0.2318927763    0.2758857795
      5  C        -0.5234080652    1.3795469949   -0.5853792387
      6  N         0.7514632657    1.3834558523   -0.7333630553
      7  H         2.3204029881    0.2898491721    0.2877425108
      8  H         1.2444640031   -2.0001585268   -0.0925103267
      9  H        -1.2749070434   -1.3920435049   -1.4528788650
     10  H        -2.0029696579    0.3575108675    0.7689018057
     11  H        -1.1664986114    2.0582774185   -1.1433860484
     12  C         0.2569303057   -0.1634945353    1.0757034099
     13  H         0.3701650978   -0.2908435828    2.1481243613
   Point Group: c1    Number of degrees of freedom:    33


   Energy is   -286.838312565

 Hessian Updated using BFGS Update

 33 Hessian modes will be used to form the next step
  Hessian Eigenvalues:
     0.011302    0.011797    0.014366    0.015946    0.018643    0.020318
     0.024646    0.038447    0.043756    0.052381    0.055890    0.072108
     0.087393    0.110739    0.121795    0.127211    0.139120    0.158392
     0.171516    0.184060    0.222713    0.261937    0.278414    0.293664
     0.328171    0.346913    0.349563    0.350205    0.352699    0.353313
     0.353505    0.378088    0.634705

 Minimum Search - Taking Simple RFO Step
 Searching for Lamda that Minimizes Along All modes
 Value Taken    Lamda =  -0.00000197
 Step Taken.  Stepsize is  0.008612

                             Maximum     Tolerance    Cnvgd?
         Gradient           0.000188      0.000600     YES
         Displacement       0.004008      0.002400      NO
         Energy change     -0.000003      0.000002      NO


 New Cartesian Coordinates Obtained by Inverse Iteration

 Displacement from previous Coordinates is:  0.006443
 ----------------------------------------------------------------
             Standard Nuclear Orientation (Angstroms)
    I     Atom           X                Y                Z
 ----------------------------------------------------------------
    1      C       1.2552131035     0.3053794721     0.0799495648
    2      C       0.5872370076    -1.1362311195    -0.0725120610
    3      C      -0.7822274510    -1.0229933340    -0.5559080014
    4      C      -1.0365378988     0.2320551520     0.2760623020
    5      C      -0.5233877047     1.3791934353    -0.5861791424
    6      N       0.7515018540     1.3839489428    -0.7327848048
    7      H       2.3199432348     0.2901781709     0.2889270854
    8      H       1.2445756403    -1.9998702520    -0.0933051915
    9      H      -1.2751067933    -1.3923153489    -1.4521296157
   10      H      -2.0033110985     0.3584591898     0.7685014442
   11      H      -1.1662433824     2.0580740697    -1.1443004395
   12      C       0.2568392737    -0.1640082497     1.0757046981
   13      H       0.3715042149    -0.2918701285     2.1479741616
 ----------------------------------------------------------------
 Nuclear Repulsion Energy =   282.1964467789 hartrees
 There are       25 alpha and       24 beta electrons
 Applying Cartesian multipole field
    Component          Value
    ---------          -----
     (2,0,0)        1.00000E-11
     (0,2,0)        2.00000E-11
     (0,0,2)       -3.00000E-11
 Nucleus-field energy     =     0.0000000025 hartrees
 Requested basis set is 6-31G(d)
 There are 40 shells and 117 basis functions
 A cutoff of  1.0D-14 yielded    812 shell pairs
 There are      7084 function pairs
 Smallest overlap matrix eigenvalue = 1.65E-03
 Guess MOs from SCF MO coefficient file
 Reading MOs from coefficient file
 Reading MOs from coefficient file
 An unrestricted hybrid HF-DFT SCF calculation will be
 performed using Pulay DIIS extrapolation
 Exchange:     0.2000 Hartree-Fock + 0.0800 Slater + 0.7200 B88
 Correlation:  0.1900 VWN1RPA + 0.8100 LYP
 Using SG-1 standard quadrature grid
 SCF converges when DIIS error is below 1.0E-08
 Geometry optimization detected.  Setting ReadMinima to 0
 Setting SaveMinima to 0
Using Q-Chem read-in guess as SCF_GUESS READ specified.

 using 4 threads for integral computing
 -------------------------------------------------------
 OpenMP Integral computing Module                
 Release: version 1.0, May 2013, Q-Chem Inc. Pittsburgh 
 -------------------------------------------------------
 -------------------------------------------------------
 OpenMP BLAS3 based DFT computing Module                
 Release: version 1.0, May 2013, Q-Chem Inc. Pittsburgh 
 -------------------------------------------------------
 ---------------------------------------
  Cycle       Energy         DIIS Error
 ---------------------------------------
    1    -286.8383387681      4.53E-05
    2    -286.8383133248      6.26E-06
    3    -286.8383132062      1.12E-05
    4    -286.8383134298      1.58E-06
    5    -286.8383134334      8.27E-07
    6    -286.8383134349      2.07E-07
    7    -286.8383134351      7.87E-08
    8    -286.8383134351      1.98E-08
    9    -286.8383134351      8.86E-09 Convergence criterion met
 ---------------------------------------
 <S^2> = 0.7566
 SCF time:  CPU 23.70 s  wall 18.49 s
 SCF   energy in the final basis set = -286.83831344
 Total energy in the final basis set = -286.83831344
 
 --------------------------------------------------------------
 
                    Orbital Energies (a.u.)
 --------------------------------------------------------------
 
 Alpha MOs
 -- Occupied --
-14.320 -10.224 -10.220 -10.210 -10.209 -10.208 -10.206  -0.968
 -0.856  -0.749  -0.664  -0.606  -0.571  -0.535  -0.516  -0.467
 -0.439  -0.405  -0.400  -0.356  -0.336  -0.298  -0.274  -0.256
 -0.182
 -- Virtual --
  0.004   0.100   0.114   0.128   0.150   0.150   0.153   0.162
  0.177   0.200   0.221   0.262   0.280   0.296   0.348   0.391
  0.494   0.513   0.524   0.543   0.558   0.573   0.601   0.605
  0.605   0.659   0.675   0.677   0.720   0.741   0.770   0.777
  0.805   0.807   0.822   0.842   0.854   0.877   0.889   0.936
  0.954   0.973   1.043   1.096   1.206   1.237   1.328   1.390
  1.446   1.475   1.504   1.517   1.587   1.632   1.673   1.713
  1.743   1.828   1.873   1.881   1.932   1.954   1.987   2.026
  2.060   2.168   2.207   2.218   2.232   2.254   2.363   2.380
  2.456   2.491   2.503   2.542   2.590   2.626   2.664   2.676
  2.718   2.808   2.841   2.914   2.963   3.959   4.194   4.239
  4.363   4.433   4.508   4.640
 
 Beta MOs
 -- Occupied --
-14.319 -10.222 -10.219 -10.211 -10.209 -10.207 -10.193  -0.964
 -0.850  -0.741  -0.652  -0.601  -0.567  -0.528  -0.511  -0.461
 -0.434  -0.403  -0.394  -0.348  -0.332  -0.291  -0.262  -0.251
 -- Virtual --
 -0.062   0.020   0.102   0.118   0.134   0.151   0.156   0.157
  0.165   0.181   0.204   0.227   0.267   0.284   0.298   0.359
  0.394   0.497   0.518   0.532   0.553   0.561   0.578   0.607
  0.610   0.622   0.669   0.679   0.683   0.729   0.745   0.775
  0.787   0.808   0.809   0.824   0.844   0.858   0.882   0.892
  0.940   0.958   0.977   1.047   1.108   1.208   1.243   1.334
  1.392   1.449   1.481   1.514   1.525   1.594   1.640   1.677
  1.716   1.751   1.835   1.878   1.894   1.940   1.970   1.994
  2.035   2.068   2.172   2.222   2.226   2.242   2.270   2.368
  2.390   2.463   2.497   2.511   2.546   2.594   2.633   2.666
  2.684   2.725   2.813   2.846   2.917   2.965   3.961   4.208
  4.245   4.369   4.438   4.511   4.644
 --------------------------------------------------------------
 
          Ground-State Mulliken Net Atomic Charges

     Atom                 Charge (a.u.)    Spin (a.u.)
  --------------------------------------------------------
      1 C                    -0.019032       0.096802
      2 C                    -0.163143      -0.095853
      3 C                    -0.066712       0.888242
      4 C                    -0.257917      -0.065651
      5 C                     0.088569       0.046943
      6 N                    -0.342179       0.039365
      7 H                     0.151421       0.002852
      8 H                     0.147212       0.005290
      9 H                     0.136236      -0.019222
     10 H                     0.142824       0.022703
     11 H                     0.143037       0.001378
     12 C                    -0.108402       0.077949
     13 H                     0.148088      -0.000798
  --------------------------------------------------------
  Sum of atomic charges =     0.000000
  Sum of spin   charges =     1.000000

 -----------------------------------------------------------------
                    Cartesian Multipole Moments
 -----------------------------------------------------------------
    Charge (ESU x 10^10)
                 0.0000
    Dipole Moment (Debye)
         X      -1.0324      Y      -1.2954      Z       1.2055
       Tot       2.0487
    Quadrupole Moments (Debye-Ang)
        XX     -38.0926     XY      -4.3104     YY     -42.8497
        XZ       2.8753     YZ       1.6742     ZZ     -40.3795
    Octopole Moments (Debye-Ang^2)
       XXX      -5.4113    XXY      -5.6739    XYY      -6.7537
       YYY     -18.5530    XXZ       4.5027    XYZ       2.5236
       YYZ       2.2952    XZZ      -6.0977    YZZ      -7.3495
       ZZZ      12.4014
    Hexadecapole Moments (Debye-Ang^3)
      XXXX    -223.6475   XXXY      -8.2785   XXYY     -88.1193
      XYYY     -21.5921   YYYY    -291.0613   XXXZ      -6.3173
      XXYZ       9.8691   XYYZ       5.6299   YYYZ      25.6237
      XXZZ     -65.5382   XYZZ      -4.2410   YYZZ     -74.5346
      XZZZ      -3.5136   YZZZ      23.6271   ZZZZ    -147.1008
 -----------------------------------------------------------------
 Calculating analytic gradient of the SCF energy
 Gradient of SCF Energy
            1           2           3           4           5           6
    1   0.0000621  -0.0001618   0.0000419   0.0000107   0.0000020   0.0000152
    2   0.0000973  -0.0000564  -0.0000363   0.0000758  -0.0001505   0.0000183
    3   0.0000297   0.0000086  -0.0000177   0.0000083  -0.0001209   0.0000884
            7           8           9          10          11          12
    1  -0.0000516   0.0000215   0.0000355  -0.0000655   0.0000199   0.0001360
    2   0.0000152   0.0000187  -0.0000026  -0.0000029   0.0000263  -0.0000462
    3   0.0000113   0.0000159   0.0000615   0.0000164   0.0000075  -0.0001655
           13
    1  -0.0000658
    2   0.0000433
    3   0.0000564
 Max gradient component =       1.655E-04
 RMS gradient           =       6.619E-05
 Gradient time:  CPU 7.83 s  wall 2.31 s
 Geometry Optimization Parameters
   NAtoms,    NIC,     NZ,  NCons,   NDum,   NFix, NCnnct, MaxDiis
       13     128       0       0       0       0       0       0

 Cartesian Hessian Update
 Hessian Updated using BFGS Update


** GEOMETRY OPTIMIZATION IN DELOCALIZED INTERNAL COORDINATES **
   Searching for a Minimum

   Optimization Cycle:   3

                       Coordinates (Angstroms)
     ATOM                X               Y               Z
      1  C         1.2552131035    0.3053794721    0.0799495648
      2  C         0.5872370076   -1.1362311195   -0.0725120610
      3  C        -0.7822274510   -1.0229933340   -0.5559080014
      4  C        -1.0365378988    0.2320551520    0.2760623020
      5  C        -0.5233877047    1.3791934353   -0.5861791424
      6  N         0.7515018540    1.3839489428   -0.7327848048
      7  H         2.3199432348    0.2901781709    0.2889270854
      8  H         1.2445756403   -1.9998702520   -0.0933051915
      9  H        -1.2751067933   -1.3923153489   -1.4521296157
     10  H        -2.0033110985    0.3584591898    0.7685014442
     11  H        -1.1662433824    2.0580740697   -1.1443004395
     12  C         0.2568392737   -0.1640082497    1.0757046981
     13  H         0.3715042149   -0.2918701285    2.1479741616
   Point Group: c1    Number of degrees of freedom:    33


   Energy is   -286.838313435

 Hessian Updated using BFGS Update

 33 Hessian modes will be used to form the next step
  Hessian Eigenvalues:
     0.011548    0.012323    0.014409    0.016168    0.017329    0.022265
     0.027927    0.036991    0.042094    0.052901    0.055065    0.072398
     0.087392    0.106099    0.120018    0.127842    0.139159    0.159679
     0.171411    0.184593    0.223544    0.262627    0.278156    0.291992
     0.331061    0.346771    0.349468    0.352045    0.353299    0.353354
     0.356035    0.371691    0.634442

 Minimum Search - Taking Simple RFO Step
 Searching for Lamda that Minimizes Along All modes
 Value Taken    Lamda =   0.00000000
 Step Taken.  Stepsize is  0.005222

                             Maximum     Tolerance    Cnvgd?
         Gradient           0.000074      0.000600     YES
         Displacement       0.002680      0.002400      NO
         Energy change     -0.000001      0.000002     YES


                       Distance Matrix (Angstroms)
             C (  1)   C (  2)   C (  3)   C (  4)   C (  5)   N (  6)
   C (  2)  1.596145
   C (  3)  2.513972  1.456684
   C (  4)  2.301295  2.151826  1.527087
   C (  5)  2.181794  2.797267  2.416281  1.524044
   N (  6)  1.441379  2.610412  2.859542  2.354085  1.283300
   H (  7)  1.085151  2.273225  3.472986  3.357009  3.168011  2.168003
   H (  8)  2.311776  1.085541  2.297003  3.212694  3.845347  3.478834
   H (  9)  3.410565  2.331791  1.087447  2.383724  2.999369  3.511729
   H ( 10)  3.330901  3.106822  2.270136  1.092302  2.251051  3.300679
   H ( 11)  3.230198  3.798290  3.160166  2.317024  1.088872  2.074015
   C ( 12)  1.486137  1.540384  2.116524  1.571343  2.398350  2.431357
   H ( 13)  2.326881  2.385382  3.029293  2.400236  3.326993  3.354332
             H (  7)   H (  8)   H (  9)   H ( 10)   H ( 11)   C ( 12)
   H (  8)  2.558679
   H (  9)  4.334334  2.926487
   H ( 10)  4.350308  4.105265  2.920051
   H ( 11)  4.163303  4.835654  3.465804  2.692245
   C ( 12)  2.254263  2.390104  3.200866  2.340006  3.448367
   H ( 13)  2.755222  2.950060  4.108899  2.822343  4.327352  1.085937

 
 Final energy is   -286.838313435138     


 ******************************
 **  OPTIMIZATION CONVERGED  **
 ******************************

                       Coordinates (Angstroms)
     ATOM                X               Y               Z
      1  C         1.2552131035    0.3053794721    0.0799495648
      2  C         0.5872370076   -1.1362311195   -0.0725120610
      3  C        -0.7822274510   -1.0229933340   -0.5559080014
      4  C        -1.0365378988    0.2320551520    0.2760623020
      5  C        -0.5233877047    1.3791934353   -0.5861791424
      6  N         0.7515018540    1.3839489428   -0.7327848048
      7  H         2.3199432348    0.2901781709    0.2889270854
      8  H         1.2445756403   -1.9998702520   -0.0933051915
      9  H        -1.2751067933   -1.3923153489   -1.4521296157
     10  H        -2.0033110985    0.3584591898    0.7685014442
     11  H        -1.1662433824    2.0580740697   -1.1443004395
     12  C         0.2568392737   -0.1640082497    1.0757046981
     13  H         0.3715042149   -0.2918701285    2.1479741616

Z-matrix Print:
$molecule
0 2
N 
C  1 1.283300
H  2 1.088872 1 121.712068
C  1 1.441379 2 106.259346 3 -176.011933 0
H  4 1.085151 1 117.513538 2 -165.246191 0
C  4 1.486137 1 112.295125 2 -16.575799 0
H  6 1.085937 4 128.891673 1 -128.021146 0
C  2 1.524044 1 113.698169 3 172.199317 0
H  8 1.092302 2 117.772638 1 156.513575 0
C  8 1.527087 2 104.732388 1 -68.341213 0
H  10 1.087447 8 130.741436 2 -72.199825 0
C  10 1.456684 8 92.272791 2 85.229306 0
H  12 1.085541 10 128.665532 8 161.612258 0
$end

 
 --------------------------------------------------------------
 
                    Orbital Energies (a.u.)
 --------------------------------------------------------------
 
 Alpha MOs
 -- Occupied --
-14.320 -10.224 -10.220 -10.210 -10.209 -10.208 -10.206  -0.968
 -0.856  -0.749  -0.664  -0.606  -0.571  -0.535  -0.516  -0.467
 -0.439  -0.405  -0.400  -0.356  -0.336  -0.298  -0.274  -0.256
 -0.182
 -- Virtual --
  0.004   0.100   0.114   0.128   0.150   0.150   0.153   0.162
  0.177   0.200   0.221   0.262   0.280   0.296   0.348   0.391
  0.494   0.513   0.524   0.543   0.558   0.573   0.601   0.605
  0.605   0.659   0.675   0.677   0.720   0.741   0.770   0.777
  0.805   0.807   0.822   0.842   0.854   0.877   0.889   0.936
  0.954   0.973   1.043   1.096   1.206   1.237   1.328   1.390
  1.446   1.475   1.504   1.517   1.587   1.632   1.673   1.713
  1.743   1.828   1.873   1.881   1.932   1.954   1.987   2.026
  2.060   2.168   2.207   2.218   2.232   2.254   2.363   2.380
  2.456   2.491   2.503   2.542   2.590   2.626   2.664   2.676
  2.718   2.808   2.841   2.914   2.963   3.959   4.194   4.239
  4.363   4.433   4.508   4.640
 
 Beta MOs
 -- Occupied --
-14.319 -10.222 -10.219 -10.211 -10.209 -10.207 -10.193  -0.964
 -0.850  -0.741  -0.652  -0.601  -0.567  -0.528  -0.511  -0.461
 -0.434  -0.403  -0.394  -0.348  -0.332  -0.291  -0.262  -0.251
 -- Virtual --
 -0.062   0.020   0.102   0.118   0.134   0.151   0.156   0.157
  0.165   0.181   0.204   0.227   0.267   0.284   0.298   0.359
  0.394   0.497   0.518   0.532   0.553   0.561   0.578   0.607
  0.610   0.622   0.669   0.679   0.683   0.729   0.745   0.775
  0.787   0.808   0.809   0.824   0.844   0.858   0.882   0.892
  0.940   0.958   0.977   1.047   1.108   1.208   1.243   1.334
  1.392   1.449   1.481   1.514   1.525   1.594   1.640   1.677
  1.716   1.751   1.835   1.878   1.894   1.940   1.970   1.994
  2.035   2.068   2.172   2.222   2.226   2.242   2.270   2.368
  2.390   2.463   2.497   2.511   2.546   2.594   2.633   2.666
  2.684   2.725   2.813   2.846   2.917   2.965   3.961   4.208
  4.245   4.369   4.438   4.511   4.644
 --------------------------------------------------------------
 
          Ground-State Mulliken Net Atomic Charges

     Atom                 Charge (a.u.)    Spin (a.u.)
  --------------------------------------------------------
      1 C                    -0.019032       0.096802
      2 C                    -0.163143      -0.095853
      3 C                    -0.066712       0.888242
      4 C                    -0.257917      -0.065651
      5 C                     0.088569       0.046943
      6 N                    -0.342179       0.039365
      7 H                     0.151421       0.002852
      8 H                     0.147212       0.005290
      9 H                     0.136236      -0.019222
     10 H                     0.142824       0.022703
     11 H                     0.143037       0.001378
     12 C                    -0.108402       0.077949
     13 H                     0.148088      -0.000798
  --------------------------------------------------------
  Sum of atomic charges =     0.000000
  Sum of spin   charges =     1.000000

 -----------------------------------------------------------------
                    Cartesian Multipole Moments
 -----------------------------------------------------------------
    Charge (ESU x 10^10)
                 0.0000
    Dipole Moment (Debye)
         X      -1.0324      Y      -1.2954      Z       1.2055
       Tot       2.0487
    Quadrupole Moments (Debye-Ang)
        XX     -38.0926     XY      -4.3104     YY     -42.8497
        XZ       2.8753     YZ       1.6742     ZZ     -40.3795
    Octopole Moments (Debye-Ang^2)
       XXX      -5.4113    XXY      -5.6739    XYY      -6.7537
       YYY     -18.5530    XXZ       4.5027    XYZ       2.5236
       YYZ       2.2952    XZZ      -6.0977    YZZ      -7.3495
       ZZZ      12.4014
    Hexadecapole Moments (Debye-Ang^3)
      XXXX    -223.6475   XXXY      -8.2785   XXYY     -88.1193
      XYYY     -21.5921   YYYY    -291.0613   XXXZ      -6.3173
      XXYZ       9.8691   XYYZ       5.6299   YYYZ      25.6237
      XXZZ     -65.5382   XYZZ      -4.2410   YYZZ     -74.5346
      XZZZ      -3.5136   YZZZ      23.6271   ZZZZ    -147.1008
 -----------------------------------------------------------------
Archival summary:
1\1\c8-90\OPT\ProcedureUnspecified\6-31G*\166(2)\hpark21\WedMar208:23:292022WedMar208:23:292022\0\\#,OPT,ProcedureUnspecified,6-31G*,\\0,2\N\C,1,1.2833\H,2,1.08887,1,121.712\C,1,1.44138,2,106.259,3,-176.012,0\H,4,1.08515,1,117.514,2,-165.246,0\C,4,1.48614,1,112.295,2,-16.5758,0\H,6,1.08594,4,128.892,1,-128.021,0\C,2,1.52404,1,113.698,3,172.199,0\H,8,1.0923,2,117.773,1,156.514,0\C,8,1.52709,2,104.732,1,-68.3412,0\H,10,1.08745,8,130.741,2,-72.1998,0\C,10,1.45668,8,92.2728,2,85.2293,0\H,12,1.08554,10,128.666,8,161.612,0\\\@

 Total job time:  78.21s(wall), 83.83s(cpu) 
 Wed Mar  2 08:23:29 2022

        *************************************************************
        *                                                           *
        *  Thank you very much for using Q-Chem.  Have a nice day.  *
        *                                                           *
        *************************************************************


