13   
From optimize.out: Frame 1 / 3, Energy=    -286.8383090703
C        1.2554279326    0.3061706373    0.0811228461
C        0.5874597346   -1.1359940821   -0.0720803853
C       -0.7822743869   -1.0224574752   -0.5558702645
C       -1.0354949141    0.2327157912    0.2762937141
C       -0.5232356969    1.3798637558   -0.5862394850
N        0.7519173857    1.3845994248   -0.7325396323
H        2.3208465882    0.2906626744    0.2882617553
H        1.2455168467   -1.9990553820   -0.0951544329
H       -1.2773291767   -1.3914709292   -1.4513235651
H       -2.0009587836    0.3583177072    0.7704877175
H       -1.1665463228    2.0553904906   -1.1479624511
C        0.2569184265   -0.1646565689    1.0764132803
H        0.3677523668   -0.2940860439    2.1485909029
13   
From optimize.out: Frame 2 / 3, Energy=    -286.8383125648
C        1.2554365717    0.3052243243    0.0796732015
C        0.5871240244   -1.1365323003   -0.0717672029
C       -0.7817572684   -1.0226849559   -0.5567463318
C       -1.0364456101    0.2318927763    0.2758857795
C       -0.5234080652    1.3795469949   -0.5853792387
N        0.7514632657    1.3834558523   -0.7333630553
H        2.3204029881    0.2898491721    0.2877425108
H        1.2444640031   -2.0001585268   -0.0925103267
H       -1.2749070434   -1.3920435049   -1.4528788650
H       -2.0029696579    0.3575108675    0.7689018057
H       -1.1664986114    2.0582774185   -1.1433860484
C        0.2569303057   -0.1634945353    1.0757034099
H        0.3701650978   -0.2908435828    2.1481243613
