13   
From optimize.out: Frame 1 / 3, Energy=    -286.8383090703
C       -0.0190170000    0.0969610000    0.0000000000
C       -0.1632570000   -0.0958780000   -0.0000000000
C       -0.0666450000    0.8882960000   -0.0000000000
C       -0.2580220000   -0.0656600000    0.0000000000
C        0.0886180000    0.0470930000   -0.0000000000
N       -0.3422580000    0.0393160000   -0.0000000000
H        0.1513760000    0.0028290000    0.0000000000
H        0.1472060000    0.0052300000   -0.0000000000
H        0.1362210000   -0.0192540000   -0.0000000000
H        0.1428000000    0.0226860000    0.0000000000
H        0.1431000000    0.0013790000   -0.0000000000
C       -0.1082360000    0.0777940000    0.0000000000
H        0.1481130000   -0.0007910000    0.0000000000
13   
From optimize.out: Frame 2 / 3, Energy=    -286.8383125648
C       -0.0190520000    0.0970610000    0.0000000000
C       -0.1630350000   -0.0959910000   -0.0000000000
C       -0.0666140000    0.8885050000   -0.0000000000
C       -0.2579500000   -0.0657160000    0.0000000000
C        0.0885740000    0.0470290000   -0.0000000000
N       -0.3422320000    0.0392950000   -0.0000000000
H        0.1514510000    0.0028240000    0.0000000000
H        0.1471730000    0.0052910000   -0.0000000000
H        0.1363020000   -0.0193640000   -0.0000000000
H        0.1428330000    0.0227100000    0.0000000000
H        0.1430000000    0.0013800000   -0.0000000000
C       -0.1085060000    0.0777670000    0.0000000000
H        0.1480550000   -0.0007910000    0.0000000000
