
Running Job 1 of 1 optimize.in
qchem optimize.in_15721.0 ./optimize.d/ 1
/home/leeping/opt/qchem/5.0.2-openmp/exe/qcprog.exe_s optimize.in_15721.0 ./optimize.d/
Check license passed

                  Welcome to Q-Chem
     A Quantum Leap Into The Future Of Chemistry


 Q-Chem 5.0, Q-Chem, Inc., Pleasanton, CA (2017)

 Yihan Shao,  Zhengting Gan,  E. Epifanovsky,  A. T. B. Gilbert,  M. Wormit,  
 J. Kussmann,  A. W. Lange,  A. Behn,  Jia Deng,  Xintian Feng,  D. Ghosh,  
 M. Goldey,  P. R. Horn,  L. D. Jacobson,  I. Kaliman,  T. Kus,  A. Landau,  
 Jie Liu,  E. I. Proynov,  R. M. Richard,  R. P. Steele,  E. J. Sundstrom,  
 H. L. Woodcock III,  P. M. Zimmerman,  D. Zuev,  B. Albrecht,  E. Alguire,  
 S. A. Baeppler,  D. Barton,  Z. Benda,  Y. A. Bernard,  E. J. Berquist,  
 K. B. Bravaya,  H. Burton,  D. Casanova,  Chun-Min Chang,  Yunqing Chen,  
 A. Chien,  K. D. Closser,  M. P. Coons,  S. Dasgupta,  A. L. Dempwolff,  
 M. Diedenhofen,  Hainam Do,  R. G. Edgar,  Po-Tung Fang,  S. Fatehi,  
 Qingguo Feng,  J. Fosso-Tande,  Qinghui Ge,  A. Ghysels,  G. Gidofalvi,  
 J. Gomes,  J. Gonthier,  A. Gunina,  M. W. D. Hanson-Heine,  
 P. H. P. Harbach,  A. W. Hauser,  J. E. Herr,  E. G. Hohenstein,  
 Z. C. Holden,  Kerwin Hui,  T.-C. Jagau,  Hyunjun Ji,  B. Kaduk,  
 K. Khistyaev,  Jaehoon Kim,  P. Klunzinger,  K. Koh,  D. Kosenkov,  
 L. Koulias,  T. Kowalczyk,  C. M. Krauter,  A. Kunitsa,  Ka Un Lao,  
 A. Laurent,  K. V. Lawler,  Joonho Lee,  D. Lefrancois,  S. Lehtola,  
 D. S. Levine,  Yi-Pei Li,  You-Sheng Lin,  Fenglai Liu,  E. Livshits,  
 A. Luenser,  P. Manohar,  E. Mansoor,  S. F. Manzer,  Shan-Ping Mao,  
 Yuezhi Mao,  N. Mardirossian,  A. V. Marenich,  T. Markovich,  
 L. A. Martinez-Martinez,  S. A. Maurer,  N. J. Mayhall,  S. C. McKenzie,  
 J.-M. Mewes,  A. F. Morrison,  J. W. Mullinax,  K. Nanda,  
 T. S. Nguyen-Beck,  R. Olivares-Amaya,  J. A. Parkhill,  T. M. Perrine,  
 F. Plasser,  S. Prager,  A. Prociuk,  E. Ramos,  D. R. Rehn,  F. Rob,  
 M. Schneider,  N. Sergueev,  S. M. Sharada,  S. Sharma,  D. W. Small,  
 T. Stauch,  T. Stein,  Yu-Chuan Su,  A. J. W. Thom,  A. Tkatchenko,  
 T. Tsuchimochi,  L. Vogt,  O. Vydrov,  M. A. Watson,  J. Wenzel,  
 M. de Wergifosse,  T. A. Wesolowski,  A. White,  J. Witte,  A. Yamada,  
 Jun Yang,  K. Yao,  S. Yeganeh,  S. R. Yost,  Zhi-Qiang You,  A. Zech,  
 Igor Ying Zhang,  Xing Zhang,  Yan Zhao,  Ying Zhu,  B. R. Brooks,  
 G. K. L. Chan,  C. J. Cramer,  M. S. Gordon,  W. J. Hehre,  A. Klamt,  
 M. W. Schmidt,  C. D. Sherrill,  D. G. Truhlar,  A. Aspuru-Guzik,  R. Baer,  
 A. T. Bell,  N. A. Besley,  Jeng-Da Chai,  R. A. DiStasio Jr.,  A. Dreuw,  
 B. D. Dunietz,  T. R. Furlani,  Chao-Ping Hsu,  Yousung Jung,  Jing Kong,  
 D. S. Lambrecht,  WanZhen Liang,  C. Ochsenfeld,  V. A. Rassolov,  
 L. V. Slipchenko,  J. E. Subotnik,  T. Van Voorhis,  J. M. Herbert,  
 A. I. Krylov,  P. M. W. Gill,  M. Head-Gordon

 Contributors to earlier versions of Q-Chem not listed above: 
 R. D. Adamson,  B. Austin,  J. Baker,  G. J. O. Beran,  K. Brandhorst,  
 S. T. Brown,  E. F. C. Byrd,  A. K. Chakraborty,  C.-L. Cheng,  
 Siu Hung Chien,  D. M. Chipman,  D. L. Crittenden,  H. Dachsel,  
 R. J. Doerksen,  A. D. Dutoi,  L. Fusti-Molnar,  W. A. Goddard III,  
 A. Golubeva-Zadorozhnaya,  S. R. Gwaltney,  G. Hawkins,  A. Heyden,  
 S. Hirata,  G. Kedziora,  F. J. Keil,  C. Kelley,  Jihan Kim,  R. A. King,  
 R. Z. Khaliullin,  P. P. Korambath,  W. Kurlancheek,  A. M. Lee,  M. S. Lee,  
 S. V. Levchenko,  Ching Yeh Lin,  D. Liotard,  R. C. Lochan,  I. Lotan,  
 P. E. Maslen,  N. Nair,  D. P. O'Neill,  D. Neuhauser,  E. Neuscamman,  
 C. M. Oana,  R. Olson,  B. Peters,  R. Peverati,  P. A. Pieniazek,  
 Y. M. Rhee,  J. Ritchie,  M. A. Rohrdanz,  E. Rosta,  N. J. Russ,  
 H. F. Schaefer III,  N. E. Schultz,  N. Shenvi,  A. C. Simmonett,  A. Sodt,  
 D. Stuck,  K. S. Thanthiriwatte,  V. Vanovschi,  Tao Wang,  A. Warshel,  
 C. F. Williams,  Q. Wu,  X. Xu,  W. Zhang

 Please cite Q-Chem as follows:
 Y. Shao et al., Mol. Phys. 113, 184-215 (2015)
 DOI: 10.1080/00268976.2014.952696

 Q-Chem 5.0.2 for Intel X86 EM64T Linux

 Parts of Q-Chem use Armadillo 5.200.1 (Boston Tea Smuggler).
 http://arma.sourceforge.net/

 Q-Chem begins on Wed Mar  2 11:31:57 2022  

Host: 
0

     Scratch files written to ./optimize.d//
 Dec517 15110_ 26548  26544 5633   
Processing $rem in /home/leeping/opt/qchem/5.0.2-openmp/config/preferences.
 MEM_STATIC 2000
 MEM_TOTAL  8000
 SYMMETRY   OFF
 SYM_IGNORE TRUE 

Checking the input file for inconsistencies... 	...done.

--------------------------------------------------------------
User input:
--------------------------------------------------------------
$molecule
0 2
C        1.5477255952    0.2440207351   -0.2492566558
C        0.5831869504   -0.9256665191   -0.0963448637
C       -0.7104209497   -0.3606046263   -0.7864160072
C       -1.1188234174    0.1997346509    0.5899274195
C       -0.4427073897    1.0830013274   -0.5527709326
N        0.9655620747    1.3692773527   -0.4535485947
H        2.6184038939    0.1766845043   -0.0637774257
H        0.9616089111   -1.9272756957   -0.3097850380
H       -1.3210858250   -0.8234516527   -1.5561275743
H       -2.0903897486    0.5088980840    0.9634525993
H       -1.0837427485    1.8556698754   -0.9643347462
C       -0.1326904567   -0.6631843765    1.2268954768
H        0.2233731105   -0.7371036596    2.2520863422
$end

$rem
method                b3lyp
basis                 6-31g(d)
unrestricted          true
symmetry              off
sym_ignore            true
incdft                false
incfock               0
scf_convergence       8
thresh                14
jobtype               opt
scf_guess             read
scf_algorithm         diis
max_scf_cycles        100
geom_opt_tol_gradient 600
geom_opt_tol_displacement 2400
geom_opt_tol_energy   200
geom_opt_max_cycles   100
$end

--------------------------------------------------------------
 ----------------------------------------------------------------
             Standard Nuclear Orientation (Angstroms)
    I     Atom           X                Y                Z
 ----------------------------------------------------------------
    1      C       1.5477255952     0.2440207351    -0.2492566558
    2      C       0.5831869504    -0.9256665191    -0.0963448637
    3      C      -0.7104209497    -0.3606046263    -0.7864160072
    4      C      -1.1188234174     0.1997346509     0.5899274195
    5      C      -0.4427073897     1.0830013274    -0.5527709326
    6      N       0.9655620747     1.3692773527    -0.4535485947
    7      H       2.6184038939     0.1766845043    -0.0637774257
    8      H       0.9616089111    -1.9272756957    -0.3097850380
    9      H      -1.3210858250    -0.8234516527    -1.5561275743
   10      H      -2.0903897486     0.5088980840     0.9634525993
   11      H      -1.0837427485     1.8556698754    -0.9643347462
   12      C      -0.1326904567    -0.6631843765     1.2268954768
   13      H       0.2233731105    -0.7371036596     2.2520863422
 ----------------------------------------------------------------
 Nuclear Repulsion Energy =   282.2432125062 hartrees
 There are       25 alpha and       24 beta electrons
 Requested basis set is 6-31G(d)
 There are 40 shells and 117 basis functions

 Total QAlloc Memory Limit   8000 MB
 Mega-Array Size      1956 MB
 MEM_STATIC part      2000 MB
 A cutoff of  1.0D-14 yielded    812 shell pairs
 There are      7084 function pairs
 
 -------------------------------------------------------
 OpenMP Integral Computing Module                       
 Release: version 1.0, May 2013, Q-Chem Inc. Pittsburgh 
 -------------------------------------------------------
 Integral Job Info:
 Integral job number is                      11
 Integral operator is                         1
 short-range coefficients                     0
 long-range coefficients              100000000
 Omega coefficients                           0
 if combine SR and LR in K                    0
 Integral screening is                        0
 Integral computing path is                   2
 max size of driver memory is            800000
 size of driver memory is                593474
 size of scratch memory is              2361544
 max col of scratch BK array               1296
 max len of scratch array in speh3          155
 max len of scratch index in speh4           18
 max int batch size is                      520
 min int batch size is                       52
 fixed nKL is                                52
 max L of basis functions is                  2
 order of int derivative is                   0
 number of shells is                         40
 number of basis is                         117
 number of cartesian basis is               117
 number of contracted shell pairs           812
 number of primitive shell pairs           3614
 maxK2 (contraction) of shell pair           36
 max number of K2 of shell pair               1
 max number of CS2 of shell pair             84
 max number of PS2 of shell pair            426
 mem total for path MDJ                  535308
 -------------------------------------------------------
 Smallest overlap matrix eigenvalue = 1.65E-03

 Scale SEOQF with 1.000000e-01/1.000000e-01/1.000000e-01

 Standard Electronic Orientation quadrupole field applied
 Nucleus-field energy     =     0.0000000015 hartrees
 Guess MOs from SCF MO coefficient file
 Reading MOs from coefficient file
 Reading MOs from coefficient file
 An unrestricted hybrid HF-DFT SCF calculation will be
 performed using Pulay DIIS extrapolation
 Exchange:     0.2000 Hartree-Fock + 0.0800 Slater + 0.7200 B88
 Correlation:  0.1900 VWN1RPA + 0.8100 LYP
 Using SG-1 standard quadrature grid
 SCF converges when DIIS error is below 1.0E-08
Using Q-Chem read-in guess as SCF_GUESS READ specified.

 using 4 threads for integral computing
 -------------------------------------------------------
 OpenMP Integral computing Module                
 Release: version 1.0, May 2013, Q-Chem Inc. Pittsburgh 
 -------------------------------------------------------
 -------------------------------------------------------
 OpenMP BLAS3 based DFT computing Module                
 Release: version 1.0, May 2013, Q-Chem Inc. Pittsburgh 
 -------------------------------------------------------
 ---------------------------------------
  Cycle       Energy         DIIS Error
 ---------------------------------------
    1    -286.8383083155      1.28E-09
    2    -286.8383083155      2.11E-09 Convergence criterion met
 ---------------------------------------
 <S^2> = 0.7566
 SCF time:  CPU 5.40 s  wall 6.22 s
 SCF   energy in the final basis set = -286.83830832
 Total energy in the final basis set = -286.83830832
 
 --------------------------------------------------------------
 
                    Orbital Energies (a.u.)
 --------------------------------------------------------------
 
 Alpha MOs
 -- Occupied --
-14.320 -10.223 -10.220 -10.210 -10.209 -10.208 -10.206  -0.968
 -0.856  -0.749  -0.664  -0.606  -0.571  -0.535  -0.517  -0.466
 -0.439  -0.405  -0.400  -0.356  -0.337  -0.298  -0.273  -0.256
 -0.182
 -- Virtual --
  0.004   0.100   0.114   0.128   0.150   0.150   0.153   0.163
  0.177   0.200   0.221   0.262   0.280   0.296   0.348   0.391
  0.494   0.513   0.524   0.543   0.558   0.573   0.601   0.604
  0.605   0.659   0.675   0.678   0.720   0.741   0.770   0.776
  0.805   0.807   0.822   0.842   0.855   0.876   0.889   0.937
  0.954   0.973   1.043   1.097   1.207   1.237   1.329   1.388
  1.446   1.474   1.505   1.517   1.588   1.633   1.672   1.713
  1.742   1.829   1.874   1.881   1.932   1.954   1.988   2.027
  2.060   2.168   2.207   2.218   2.232   2.254   2.363   2.381
  2.456   2.491   2.503   2.541   2.590   2.627   2.664   2.676
  2.717   2.808   2.841   2.915   2.963   3.959   4.195   4.240
  4.362   4.433   4.508   4.640
 
 Beta MOs
 -- Occupied --
-14.319 -10.222 -10.219 -10.211 -10.209 -10.207 -10.193  -0.964
 -0.850  -0.742  -0.652  -0.601  -0.567  -0.528  -0.511  -0.460
 -0.434  -0.403  -0.394  -0.348  -0.332  -0.291  -0.262  -0.250
 -- Virtual --
 -0.062   0.020   0.102   0.118   0.134   0.151   0.157   0.157
  0.165   0.181   0.204   0.227   0.267   0.284   0.298   0.360
  0.394   0.497   0.519   0.532   0.553   0.561   0.578   0.607
  0.610   0.622   0.669   0.679   0.683   0.729   0.745   0.775
  0.786   0.808   0.809   0.824   0.844   0.858   0.882   0.892
  0.940   0.958   0.977   1.047   1.109   1.209   1.243   1.335
  1.390   1.450   1.479   1.514   1.525   1.594   1.641   1.676
  1.716   1.751   1.835   1.879   1.894   1.940   1.970   1.995
  2.035   2.068   2.173   2.222   2.226   2.242   2.270   2.368
  2.391   2.463   2.498   2.511   2.546   2.594   2.633   2.666
  2.684   2.725   2.813   2.845   2.918   2.965   3.961   4.209
  4.245   4.368   4.439   4.511   4.644
 --------------------------------------------------------------
 
          Ground-State Mulliken Net Atomic Charges

     Atom                 Charge (a.u.)    Spin (a.u.)
  --------------------------------------------------------
      1 C                     0.088531       0.046130
      2 C                    -0.258614      -0.065602
      3 C                    -0.108100       0.078402
      4 C                    -0.163602      -0.095582
      5 C                    -0.018872       0.095747
      6 N                    -0.342067       0.040397
      7 H                     0.143020       0.001435
      8 H                     0.142894       0.022620
      9 H                     0.148138      -0.000854
     10 H                     0.147276       0.005265
     11 H                     0.151349       0.002878
     12 C                    -0.066176       0.888426
     13 H                     0.136222      -0.019260
  --------------------------------------------------------
  Sum of atomic charges =    -0.000000
  Sum of spin   charges =     1.000000

 -----------------------------------------------------------------
                    Cartesian Multipole Moments
 -----------------------------------------------------------------
    Charge (ESU x 10^10)
                -0.0000
    Dipole Moment (Debye)
         X      -0.9576      Y      -1.8066      Z       0.1138
       Tot       2.0479
    Quadrupole Moments (Debye-Ang)
        XX     -37.7233     XY      -4.6471     YY     -43.8130
        XZ       1.7718     YZ       1.0487     ZZ     -39.7833
    Octopole Moments (Debye-Ang^2)
       XXX      -7.5404    XXY      -6.0849    XYY      -9.3248
       YYY     -21.0788    XXZ       1.8433    XYZ       0.7517
       YYZ      -0.0619    XZZ      -5.6541    YZZ      -6.1760
       ZZZ       7.0905
    Hexadecapole Moments (Debye-Ang^3)
      XXXX    -253.6837   XXXY     -13.1918   XXYY     -88.8673
      XYYY     -24.3850   YYYY    -234.3214   XXXZ      11.9235
      XXYZ      12.7913   XYYZ       9.7981   YYYZ      31.4508
      XXZZ     -74.7039   XYZZ      -4.3027   YYZZ     -67.4550
      XZZZ      16.5799   YZZZ      27.8784   ZZZZ    -167.5895
 -----------------------------------------------------------------
 Calculating analytic gradient of the SCF energy
 Gradient of SCF Energy
            1           2           3           4           5           6
    1   0.0002207   0.0002832  -0.0000028   0.0000201   0.0002457  -0.0007038
    2   0.0000234   0.0001140  -0.0003928   0.0002278   0.0002312  -0.0001803
    3  -0.0000076  -0.0000414  -0.0000040  -0.0001953   0.0001543  -0.0000974
            7           8           9          10          11          12
    1  -0.0001866   0.0000162  -0.0001141  -0.0001095   0.0000688   0.0001247
    2  -0.0001908   0.0002981  -0.0000253   0.0001293  -0.0000725  -0.0001062
    3   0.0002793   0.0000036  -0.0001527   0.0001531   0.0001014  -0.0002837
           13
    1   0.0001374
    2  -0.0000558
    3   0.0000906
 Max gradient component =       7.038E-04
 RMS gradient           =       1.993E-04
 Gradient time:  CPU 8.00 s  wall 4.30 s
 Geometry Optimization Parameters
   NAtoms,    NIC,     NZ,  NCons,   NDum,   NFix, NCnnct, MaxDiis
       13     128       0       0       0       0       0       0


** GEOMETRY OPTIMIZATION IN DELOCALIZED INTERNAL COORDINATES **
   Searching for a Minimum

   Optimization Cycle:   1

                       Coordinates (Angstroms)
     ATOM                X               Y               Z
      1  C         1.5477255952    0.2440207351   -0.2492566558
      2  C         0.5831869504   -0.9256665191   -0.0963448637
      3  C        -0.7104209497   -0.3606046263   -0.7864160072
      4  C        -1.1188234174    0.1997346509    0.5899274195
      5  C        -0.4427073897    1.0830013274   -0.5527709326
      6  N         0.9655620747    1.3692773527   -0.4535485947
      7  H         2.6184038939    0.1766845043   -0.0637774257
      8  H         0.9616089111   -1.9272756957   -0.3097850380
      9  H        -1.3210858250   -0.8234516527   -1.5561275743
     10  H        -2.0903897486    0.5088980840    0.9634525993
     11  H        -1.0837427485    1.8556698754   -0.9643347462
     12  C        -0.1326904567   -0.6631843765    1.2268954768
     13  H         0.2233731105   -0.7371036596    2.2520863422
   Point Group: c1    Number of degrees of freedom:    33


   Energy is   -286.838308315


 Attempting to Generate Delocalized Internal Coordinates

 33 Hessian modes will be used to form the next step
  Hessian Eigenvalues:
     0.011404    0.012046    0.012464    0.015967    0.018817    0.021186
     0.022784    0.037548    0.046052    0.053028    0.058715    0.072104
     0.088559    0.104940    0.119264    0.127338    0.140982    0.158375
     0.172000    0.183540    0.223641    0.262476    0.276436    0.290871
     0.329249    0.346079    0.349622    0.350707    0.352682    0.352981
     0.353913    0.371040    0.638950

 Minimum Search - Taking Simple RFO Step
 Searching for Lamda that Minimizes Along All modes
 Value Taken    Lamda =  -0.00001159
 Step Taken.  Stepsize is  0.022940

                             Maximum     Tolerance    Cnvgd?
         Gradient           0.000669      0.000600      NO
         Displacement       0.012553      0.002400      NO
         Energy change     *********      0.000002      NO


 New Cartesian Coordinates Obtained by Inverse Iteration

 Displacement from previous Coordinates is:  0.024504
 ----------------------------------------------------------------
             Standard Nuclear Orientation (Angstroms)
    I     Atom           X                Y                Z
 ----------------------------------------------------------------
    1      C       1.5482631015     0.2439600781    -0.2499162964
    2      C       0.5831613954    -0.9257548257    -0.0945058348
    3      C      -0.7090733236    -0.3596409117    -0.7859874656
    4      C      -1.1198146451     0.1988849191     0.5900884062
    5      C      -0.4422720388     1.0837288812    -0.5510927869
    6      N       0.9666768840     1.3699051016    -0.4517862960
    7      H       2.6206041138     0.1766951608    -0.0731473905
    8      H       0.9604500354    -1.9282857562    -0.3077102016
    9      H      -1.3183502057    -0.8222857861    -1.5565333331
   10      H      -2.0927552132     0.5054232907     0.9613640526
   11      H      -1.0832845491     1.8562957945    -0.9634132650
   12      C      -0.1337518241    -0.6625006690     1.2284612501
   13      H       0.2201462699    -0.7364252773     2.2541791605
 ----------------------------------------------------------------
 Nuclear Repulsion Energy =   282.2064602604 hartrees
 There are       25 alpha and       24 beta electrons
 Applying Cartesian multipole field
    Component          Value
    ---------          -----
     (2,0,0)        1.00000E-11
     (0,2,0)        2.00000E-11
     (0,0,2)       -3.00000E-11
 Nucleus-field energy     =     0.0000000015 hartrees
 Requested basis set is 6-31G(d)
 There are 40 shells and 117 basis functions
 A cutoff of  1.0D-14 yielded    812 shell pairs
 There are      7084 function pairs
 Smallest overlap matrix eigenvalue = 1.65E-03
 Guess MOs from SCF MO coefficient file
 Reading MOs from coefficient file
 Reading MOs from coefficient file
 An unrestricted hybrid HF-DFT SCF calculation will be
 performed using Pulay DIIS extrapolation
 Exchange:     0.2000 Hartree-Fock + 0.0800 Slater + 0.7200 B88
 Correlation:  0.1900 VWN1RPA + 0.8100 LYP
 Using SG-1 standard quadrature grid
 SCF converges when DIIS error is below 1.0E-08
 Geometry optimization detected.  Setting ReadMinima to 0
 Setting SaveMinima to 0
Using Q-Chem read-in guess as SCF_GUESS READ specified.

 using 4 threads for integral computing
 -------------------------------------------------------
 OpenMP Integral computing Module                
 Release: version 1.0, May 2013, Q-Chem Inc. Pittsburgh 
 -------------------------------------------------------
 -------------------------------------------------------
 OpenMP BLAS3 based DFT computing Module                
 Release: version 1.0, May 2013, Q-Chem Inc. Pittsburgh 
 -------------------------------------------------------
 ---------------------------------------
  Cycle       Energy         DIIS Error
 ---------------------------------------
    1    -286.8379014430      9.20E-05
    2    -286.8383129028      1.49E-05
    3    -286.8383126236      2.14E-05
    4    -286.8383134697      3.55E-06
    5    -286.8383134849      2.42E-06
    6    -286.8383134951      5.09E-07
    7    -286.8383134963      1.15E-07
    8    -286.8383134966      6.51E-08
    9    -286.8383134968      2.45E-08
   10    -286.8383134969      1.16E-08
   11    -286.8383134969      7.29E-09 Convergence criterion met
 ---------------------------------------
 <S^2> = 0.7566
 SCF time:  CPU 28.51 s  wall 25.50 s
 SCF   energy in the final basis set = -286.83831350
 Total energy in the final basis set = -286.83831350
 
 --------------------------------------------------------------
 
                    Orbital Energies (a.u.)
 --------------------------------------------------------------
 
 Alpha MOs
 -- Occupied --
-14.320 -10.223 -10.220 -10.210 -10.209 -10.208 -10.206  -0.968
 -0.856  -0.749  -0.664  -0.606  -0.571  -0.535  -0.517  -0.466
 -0.439  -0.405  -0.400  -0.356  -0.336  -0.298  -0.273  -0.256
 -0.182
 -- Virtual --
  0.004   0.100   0.114   0.128   0.150   0.150   0.153   0.163
  0.177   0.200   0.221   0.262   0.280   0.296   0.348   0.391
  0.494   0.513   0.524   0.543   0.558   0.573   0.601   0.605
  0.605   0.659   0.675   0.678   0.720   0.741   0.770   0.777
  0.805   0.806   0.822   0.842   0.854   0.877   0.889   0.936
  0.954   0.973   1.043   1.096   1.206   1.237   1.327   1.390
  1.446   1.476   1.504   1.517   1.587   1.632   1.672   1.713
  1.742   1.828   1.873   1.881   1.932   1.954   1.988   2.027
  2.060   2.168   2.207   2.217   2.232   2.254   2.363   2.381
  2.456   2.490   2.502   2.542   2.590   2.627   2.664   2.676
  2.718   2.808   2.841   2.915   2.963   3.959   4.194   4.239
  4.362   4.433   4.508   4.641
 
 Beta MOs
 -- Occupied --
-14.319 -10.222 -10.219 -10.211 -10.209 -10.207 -10.193  -0.964
 -0.850  -0.741  -0.652  -0.601  -0.567  -0.528  -0.511  -0.460
 -0.434  -0.403  -0.394  -0.349  -0.332  -0.291  -0.262  -0.251
 -- Virtual --
 -0.062   0.020   0.102   0.118   0.134   0.151   0.156   0.157
  0.165   0.181   0.204   0.227   0.267   0.284   0.298   0.360
  0.394   0.497   0.518   0.532   0.553   0.561   0.578   0.607
  0.610   0.622   0.669   0.679   0.683   0.729   0.745   0.776
  0.786   0.808   0.809   0.824   0.844   0.858   0.882   0.892
  0.940   0.958   0.977   1.047   1.108   1.208   1.243   1.334
  1.392   1.449   1.481   1.514   1.525   1.594   1.641   1.677
  1.716   1.750   1.835   1.879   1.894   1.940   1.970   1.994
  2.035   2.068   2.172   2.222   2.225   2.242   2.270   2.368
  2.390   2.463   2.497   2.510   2.546   2.594   2.633   2.666
  2.684   2.725   2.813   2.846   2.917   2.965   3.961   4.208
  4.245   4.368   4.438   4.511   4.644
 --------------------------------------------------------------
 
          Ground-State Mulliken Net Atomic Charges

     Atom                 Charge (a.u.)    Spin (a.u.)
  --------------------------------------------------------
      1 C                     0.088655       0.046570
      2 C                    -0.258607      -0.065726
      3 C                    -0.108157       0.078044
      4 C                    -0.163246      -0.095797
      5 C                    -0.019157       0.096377
      6 N                    -0.342067       0.039602
      7 H                     0.142956       0.001401
      8 H                     0.142888       0.022620
      9 H                     0.148108      -0.000820
     10 H                     0.147196       0.005319
     11 H                     0.151397       0.002852
     12 C                    -0.066273       0.888980
     13 H                     0.136307      -0.019422
  --------------------------------------------------------
  Sum of atomic charges =    -0.000000
  Sum of spin   charges =     1.000000

 -----------------------------------------------------------------
                    Cartesian Multipole Moments
 -----------------------------------------------------------------
    Charge (ESU x 10^10)
                 0.0000
    Dipole Moment (Debye)
         X      -0.9585      Y      -1.8090      Z       0.1079
       Tot       2.0501
    Quadrupole Moments (Debye-Ang)
        XX     -37.7243     XY      -4.6443     YY     -43.8141
        XZ       1.7519     YZ       1.0399     ZZ     -39.7794
    Octopole Moments (Debye-Ang^2)
       XXX      -7.5615    XXY      -6.1022    XYY      -9.3321
       YYY     -21.1200    XXZ       1.7680    XYZ       0.7578
       YYZ      -0.0963    XZZ      -5.6566    YZZ      -6.1903
       ZZZ       7.0121
    Hexadecapole Moments (Debye-Ang^3)
      XXXX    -253.7468   XXXY     -13.2346   XXYY     -88.9480
      XYYY     -24.4521   YYYY    -234.3587   XXXZ      11.8995
      XXYZ      12.7636   XYYZ       9.8405   YYYZ      31.4525
      XXZZ     -74.7510   XYZZ      -4.3083   YYZZ     -67.4724
      XZZZ      16.6940   YZZZ      27.8778   ZZZZ    -167.5313
 -----------------------------------------------------------------
 Calculating analytic gradient of the SCF energy
 Gradient of SCF Energy
            1           2           3           4           5           6
    1  -0.0001362  -0.0000316   0.0001226  -0.0000305   0.0002032  -0.0002619
    2   0.0000902  -0.0001282  -0.0002205   0.0000877   0.0001489   0.0000540
    3  -0.0000526   0.0001108  -0.0002228  -0.0000481   0.0001060   0.0001448
            7           8           9          10          11          12
    1  -0.0000125   0.0000459   0.0000237   0.0000225  -0.0000472   0.0000675
    2  -0.0000720   0.0000120   0.0000243  -0.0000624  -0.0000078   0.0001144
    3  -0.0000388  -0.0000455  -0.0000088   0.0000184   0.0000156   0.0000020
           13
    1   0.0000345
    2  -0.0000407
    3   0.0000190
 Max gradient component =       2.619E-04
 RMS gradient           =       1.001E-04
 Gradient time:  CPU 7.92 s  wall 3.61 s
 Geometry Optimization Parameters
   NAtoms,    NIC,     NZ,  NCons,   NDum,   NFix, NCnnct, MaxDiis
       13     128       0       0       0       0       0       0

 Cartesian Hessian Update
 Hessian Updated using BFGS Update


** GEOMETRY OPTIMIZATION IN DELOCALIZED INTERNAL COORDINATES **
   Searching for a Minimum

   Optimization Cycle:   2

                       Coordinates (Angstroms)
     ATOM                X               Y               Z
      1  C         1.5482631015    0.2439600781   -0.2499162964
      2  C         0.5831613954   -0.9257548257   -0.0945058348
      3  C        -0.7090733236   -0.3596409117   -0.7859874656
      4  C        -1.1198146451    0.1988849191    0.5900884062
      5  C        -0.4422720388    1.0837288812   -0.5510927869
      6  N         0.9666768840    1.3699051016   -0.4517862960
      7  H         2.6206041138    0.1766951608   -0.0731473905
      8  H         0.9604500354   -1.9282857562   -0.3077102016
      9  H        -1.3183502057   -0.8222857861   -1.5565333331
     10  H        -2.0927552132    0.5054232907    0.9613640526
     11  H        -1.0832845491    1.8562957945   -0.9634132650
     12  C        -0.1337518241   -0.6625006690    1.2284612501
     13  H         0.2201462699   -0.7364252773    2.2541791605
   Point Group: c1    Number of degrees of freedom:    33


   Energy is   -286.838313497

 Hessian Updated using BFGS Update

 33 Hessian modes will be used to form the next step
  Hessian Eigenvalues:
     0.011336    0.012220    0.014108    0.016195    0.020352    0.021400
     0.022975    0.039076    0.043873    0.052741    0.058724    0.072328
     0.088716    0.106151    0.118635    0.127098    0.139539    0.147894
     0.171910    0.180470    0.227135    0.257112    0.276630    0.291571
     0.326141    0.344588    0.348595    0.350082    0.352626    0.353142
     0.353791    0.363830    0.637879

 Minimum Search - Taking Simple RFO Step
 Searching for Lamda that Minimizes Along All modes
 Value Taken    Lamda =  -0.00000180
 Step Taken.  Stepsize is  0.007237

                             Maximum     Tolerance    Cnvgd?
         Gradient           0.000190      0.000600     YES
         Displacement       0.003669      0.002400      NO
         Energy change     -0.000005      0.000002      NO


 New Cartesian Coordinates Obtained by Inverse Iteration

 Displacement from previous Coordinates is:  0.006436
 ----------------------------------------------------------------
             Standard Nuclear Orientation (Angstroms)
    I     Atom           X                Y                Z
 ----------------------------------------------------------------
    1      C       1.5487326410     0.2441990170    -0.2495517794
    2      C       0.5832731777    -0.9255271612    -0.0946068704
    3      C      -0.7093967658    -0.3594731951    -0.7855143671
    4      C      -1.1195795612     0.1991293942     0.5904492475
    5      C      -0.4421901697     1.0836754497    -0.5514872309
    6      N       0.9672368122     1.3697727074    -0.4533701411
    7      H       2.6211220805     0.1779188638    -0.0724497080
    8      H       0.9603985030    -1.9281227882    -0.3079884953
    9      H      -1.3190177937    -0.8224218537    -1.5555835376
   10      H      -2.0925391739     0.5057328683     0.9616132852
   11      H      -1.0832206594     1.8561523102    -0.9639813259
   12      C      -0.1341539065    -0.6632634823     1.2283696944
   13      H       0.2193348160    -0.7377721302     2.2541012281
 ----------------------------------------------------------------
 Nuclear Repulsion Energy =   282.1865377197 hartrees
 There are       25 alpha and       24 beta electrons
 Applying Cartesian multipole field
    Component          Value
    ---------          -----
     (2,0,0)        1.00000E-11
     (0,2,0)        2.00000E-11
     (0,0,2)       -3.00000E-11
 Nucleus-field energy     =     0.0000000015 hartrees
 Requested basis set is 6-31G(d)
 There are 40 shells and 117 basis functions
 A cutoff of  1.0D-14 yielded    812 shell pairs
 There are      7084 function pairs
 Smallest overlap matrix eigenvalue = 1.65E-03
 Guess MOs from SCF MO coefficient file
 Reading MOs from coefficient file
 Reading MOs from coefficient file
 An unrestricted hybrid HF-DFT SCF calculation will be
 performed using Pulay DIIS extrapolation
 Exchange:     0.2000 Hartree-Fock + 0.0800 Slater + 0.7200 B88
 Correlation:  0.1900 VWN1RPA + 0.8100 LYP
 Using SG-1 standard quadrature grid
 SCF converges when DIIS error is below 1.0E-08
 Geometry optimization detected.  Setting ReadMinima to 0
 Setting SaveMinima to 0
Using Q-Chem read-in guess as SCF_GUESS READ specified.

 using 4 threads for integral computing
 -------------------------------------------------------
 OpenMP Integral computing Module                
 Release: version 1.0, May 2013, Q-Chem Inc. Pittsburgh 
 -------------------------------------------------------
 -------------------------------------------------------
 OpenMP BLAS3 based DFT computing Module                
 Release: version 1.0, May 2013, Q-Chem Inc. Pittsburgh 
 -------------------------------------------------------
 ---------------------------------------
  Cycle       Energy         DIIS Error
 ---------------------------------------
    1    -286.8381721550      5.45E-05
    2    -286.8383140112      7.17E-06
    3    -286.8383140081      8.68E-06
    4    -286.8383141324      2.12E-06
    5    -286.8383141389      8.90E-07
    6    -286.8383141402      3.53E-07
    7    -286.8383141405      1.12E-07
    8    -286.8383141406      2.60E-08
    9    -286.8383141406      9.57E-09 Convergence criterion met
 ---------------------------------------
 <S^2> = 0.7566
 SCF time:  CPU 23.39 s  wall 21.86 s
 SCF   energy in the final basis set = -286.83831414
 Total energy in the final basis set = -286.83831414
 
 --------------------------------------------------------------
 
                    Orbital Energies (a.u.)
 --------------------------------------------------------------
 
 Alpha MOs
 -- Occupied --
-14.320 -10.224 -10.220 -10.210 -10.209 -10.208 -10.206  -0.968
 -0.856  -0.749  -0.664  -0.606  -0.571  -0.535  -0.517  -0.466
 -0.439  -0.405  -0.400  -0.356  -0.336  -0.298  -0.274  -0.256
 -0.182
 -- Virtual --
  0.004   0.100   0.114   0.128   0.150   0.150   0.153   0.162
  0.177   0.200   0.221   0.262   0.280   0.296   0.348   0.391
  0.494   0.513   0.524   0.543   0.558   0.573   0.601   0.604
  0.606   0.659   0.675   0.677   0.720   0.741   0.770   0.777
  0.805   0.807   0.822   0.842   0.854   0.877   0.888   0.936
  0.954   0.973   1.043   1.096   1.206   1.237   1.328   1.390
  1.446   1.475   1.504   1.517   1.587   1.632   1.673   1.713
  1.742   1.828   1.873   1.881   1.932   1.954   1.988   2.027
  2.060   2.168   2.207   2.217   2.232   2.253   2.363   2.380
  2.456   2.490   2.502   2.542   2.590   2.626   2.664   2.676
  2.718   2.808   2.841   2.914   2.963   3.959   4.194   4.239
  4.362   4.433   4.508   4.640
 
 Beta MOs
 -- Occupied --
-14.319 -10.222 -10.219 -10.211 -10.209 -10.207 -10.193  -0.964
 -0.850  -0.741  -0.652  -0.601  -0.567  -0.528  -0.511  -0.461
 -0.434  -0.402  -0.394  -0.348  -0.332  -0.291  -0.262  -0.251
 -- Virtual --
 -0.062   0.020   0.102   0.118   0.134   0.151   0.156   0.157
  0.165   0.181   0.204   0.227   0.267   0.284   0.298   0.359
  0.394   0.497   0.519   0.532   0.553   0.561   0.578   0.607
  0.610   0.622   0.669   0.679   0.683   0.729   0.745   0.775
  0.786   0.808   0.809   0.824   0.844   0.858   0.882   0.892
  0.940   0.958   0.977   1.047   1.108   1.208   1.243   1.334
  1.392   1.449   1.481   1.514   1.525   1.594   1.640   1.677
  1.716   1.751   1.835   1.878   1.894   1.940   1.970   1.994
  2.035   2.068   2.172   2.222   2.225   2.242   2.270   2.368
  2.390   2.463   2.497   2.510   2.546   2.594   2.633   2.666
  2.684   2.725   2.813   2.845   2.917   2.965   3.961   4.208
  4.245   4.368   4.438   4.511   4.644
 --------------------------------------------------------------
 
          Ground-State Mulliken Net Atomic Charges

     Atom                 Charge (a.u.)    Spin (a.u.)
  --------------------------------------------------------
      1 C                     0.088693       0.046591
      2 C                    -0.258587      -0.065685
      3 C                    -0.108025       0.078077
      4 C                    -0.163274      -0.095735
      5 C                    -0.019182       0.096410
      6 N                    -0.342090       0.039520
      7 H                     0.143025       0.001396
      8 H                     0.142886       0.022630
      9 H                     0.148125      -0.000811
     10 H                     0.147222       0.005306
     11 H                     0.151392       0.002880
     12 C                    -0.066441       0.888752
     13 H                     0.136253      -0.019331
  --------------------------------------------------------
  Sum of atomic charges =     0.000000
  Sum of spin   charges =     1.000000

 -----------------------------------------------------------------
                    Cartesian Multipole Moments
 -----------------------------------------------------------------
    Charge (ESU x 10^10)
                 0.0000
    Dipole Moment (Debye)
         X      -0.9588      Y      -1.8083      Z       0.1089
       Tot       2.0497
    Quadrupole Moments (Debye-Ang)
        XX     -37.7198     XY      -4.6407     YY     -43.8151
        XZ       1.7558     YZ       1.0427     ZZ     -39.7846
    Octopole Moments (Debye-Ang^2)
       XXX      -7.5634    XXY      -6.0965    XYY      -9.3366
       YYY     -21.1181    XXZ       1.7786    XYZ       0.7643
       YYZ      -0.0849    XZZ      -5.6659    YZZ      -6.1931
       ZZZ       7.0252
    Hexadecapole Moments (Debye-Ang^3)
      XXXX    -253.7902   XXXY     -13.2423   XXYY     -88.9686
      XYYY     -24.4809   YYYY    -234.3870   XXXZ      11.9502
      XXYZ      12.7955   XYYZ       9.8680   YYYZ      31.5301
      XXZZ     -74.7775   XYZZ      -4.3263   YYZZ     -67.4847
      XZZZ      16.7222   YZZZ      27.9331   ZZZZ    -167.5819
 -----------------------------------------------------------------
 Calculating analytic gradient of the SCF energy
 Gradient of SCF Energy
            1           2           3           4           5           6
    1   0.0000144  -0.0000391  -0.0000269  -0.0000233   0.0000141   0.0000198
    2   0.0001520  -0.0000084  -0.0001493   0.0000883   0.0000406  -0.0000222
    3   0.0001547  -0.0000602  -0.0000401  -0.0000267   0.0001263  -0.0000790
            7           8           9          10          11          12
    1   0.0000335   0.0000353   0.0000188   0.0000155  -0.0000460  -0.0000162
    2   0.0000370  -0.0000121   0.0000337  -0.0000764  -0.0000066  -0.0000531
    3  -0.0000255  -0.0000339   0.0000116   0.0000164  -0.0000111   0.0000124
           13
    1   0.0000001
    2  -0.0000237
    3  -0.0000450
 Max gradient component =       1.547E-04
 RMS gradient           =       5.836E-05
 Gradient time:  CPU 7.95 s  wall 2.45 s
 Geometry Optimization Parameters
   NAtoms,    NIC,     NZ,  NCons,   NDum,   NFix, NCnnct, MaxDiis
       13     128       0       0       0       0       0       0

 Cartesian Hessian Update
 Hessian Updated using BFGS Update


** GEOMETRY OPTIMIZATION IN DELOCALIZED INTERNAL COORDINATES **
   Searching for a Minimum

   Optimization Cycle:   3

                       Coordinates (Angstroms)
     ATOM                X               Y               Z
      1  C         1.5487326410    0.2441990170   -0.2495517794
      2  C         0.5832731777   -0.9255271612   -0.0946068704
      3  C        -0.7093967658   -0.3594731951   -0.7855143671
      4  C        -1.1195795612    0.1991293942    0.5904492475
      5  C        -0.4421901697    1.0836754497   -0.5514872309
      6  N         0.9672368122    1.3697727074   -0.4533701411
      7  H         2.6211220805    0.1779188638   -0.0724497080
      8  H         0.9603985030   -1.9281227882   -0.3079884953
      9  H        -1.3190177937   -0.8224218537   -1.5555835376
     10  H        -2.0925391739    0.5057328683    0.9616132852
     11  H        -1.0832206594    1.8561523102   -0.9639813259
     12  C        -0.1341539065   -0.6632634823    1.2283696944
     13  H         0.2193348160   -0.7377721302    2.2541012281
   Point Group: c1    Number of degrees of freedom:    33


   Energy is   -286.838314141

 Hessian Updated using BFGS Update

 33 Hessian modes will be used to form the next step
  Hessian Eigenvalues:
     0.011953    0.012178    0.014255    0.016851    0.020206    0.022773
     0.026419    0.040071    0.041625    0.053526    0.058771    0.071299
     0.088720    0.106383    0.117580    0.126582    0.135996    0.148257
     0.170919    0.180239    0.225937    0.256876    0.278423    0.294427
     0.326701    0.346095    0.349798    0.351674    0.352868    0.353191
     0.354054    0.362097    0.640041

 Minimum Search - Taking Simple RFO Step
 Searching for Lamda that Minimizes Along All modes
 Value Taken    Lamda =   0.00000000
 Step Taken.  Stepsize is  0.004554

                             Maximum     Tolerance    Cnvgd?
         Gradient           0.000069      0.000600     YES
         Displacement       0.002364      0.002400     YES
         Energy change     -0.000001      0.000002     YES


                       Distance Matrix (Angstroms)
             C (  1)   C (  2)   C (  3)   C (  4)   C (  5)   N (  6)
   C (  2)  1.524591
   C (  3)  2.398088  1.571231
   C (  4)  2.797771  2.152641  1.540637
   C (  5)  2.181664  2.301567  1.486219  1.595399
   N (  6)  1.283197  2.354685  2.431401  2.610511  1.441514
   H (  7)  1.088934  2.317523  3.448131  3.799044  3.230132  2.073874
   H (  8)  2.251340  1.092224  2.340280  3.107845  3.331287  3.301105
   H (  9)  3.326769  2.400790  1.085802  2.385120  2.325993  3.353737
   H ( 10)  3.846320  3.213110  2.390422  1.085550  2.312389  3.480082
   H ( 11)  3.167962  3.357194  2.254017  2.272290  1.085261  2.168332
   C ( 12)  2.416578  1.527662  2.116346  1.456615  2.512881  2.859116
   H ( 13)  2.999974  2.384142  3.200768  2.331998  3.409782  3.511624
             H (  7)   H (  8)   H (  9)   H ( 10)   H ( 11)   C ( 12)
   H (  8)  2.692377
   H (  9)  4.327247  2.823970
   H ( 10)  4.836874  4.105602  2.949341
   H ( 11)  4.163346  4.350568  2.753244  2.559350
   C ( 12)  3.160896  2.271191  3.029790  2.296298  3.471972
   H ( 13)  3.466974  2.920687  4.109427  2.926020  4.333722  1.087488

 
 Final energy is   -286.838314140564     


 ******************************
 **  OPTIMIZATION CONVERGED  **
 ******************************

                       Coordinates (Angstroms)
     ATOM                X               Y               Z
      1  C         1.5487326410    0.2441990170   -0.2495517794
      2  C         0.5832731777   -0.9255271612   -0.0946068704
      3  C        -0.7093967658   -0.3594731951   -0.7855143671
      4  C        -1.1195795612    0.1991293942    0.5904492475
      5  C        -0.4421901697    1.0836754497   -0.5514872309
      6  N         0.9672368122    1.3697727074   -0.4533701411
      7  H         2.6211220805    0.1779188638   -0.0724497080
      8  H         0.9603985030   -1.9281227882   -0.3079884953
      9  H        -1.3190177937   -0.8224218537   -1.5555835376
     10  H        -2.0925391739    0.5057328683    0.9616132852
     11  H        -1.0832206594    1.8561523102   -0.9639813259
     12  C        -0.1341539065   -0.6632634823    1.2283696944
     13  H         0.2193348160   -0.7377721302    2.2541012281

Z-matrix Print:
$molecule
0 2
N 
C  1 1.283197
H  2 1.088934 1 121.701891
C  1 1.441514 2 106.247984 3 -176.019950 0
H  4 1.085261 1 117.524214 2 -165.185785 0
C  4 1.486219 1 112.285612 2 -16.591041 0
H  6 1.085802 4 128.801845 1 -128.025610 0
C  2 1.524591 1 113.713809 3 172.198281 0
H  8 1.092224 2 117.760171 1 156.555091 0
C  8 1.527662 2 104.695956 1 -68.270556 0
H  10 1.087488 8 130.724338 2 -72.295788 0
C  10 1.456615 8 92.297158 2 85.221546 0
H  12 1.085550 10 128.596413 8 161.482882 0
$end

 
 --------------------------------------------------------------
 
                    Orbital Energies (a.u.)
 --------------------------------------------------------------
 
 Alpha MOs
 -- Occupied --
-14.320 -10.224 -10.220 -10.210 -10.209 -10.208 -10.206  -0.968
 -0.856  -0.749  -0.664  -0.606  -0.571  -0.535  -0.517  -0.466
 -0.439  -0.405  -0.400  -0.356  -0.336  -0.298  -0.274  -0.256
 -0.182
 -- Virtual --
  0.004   0.100   0.114   0.128   0.150   0.150   0.153   0.162
  0.177   0.200   0.221   0.262   0.280   0.296   0.348   0.391
  0.494   0.513   0.524   0.543   0.558   0.573   0.601   0.604
  0.606   0.659   0.675   0.677   0.720   0.741   0.770   0.777
  0.805   0.807   0.822   0.842   0.854   0.877   0.888   0.936
  0.954   0.973   1.043   1.096   1.206   1.237   1.328   1.390
  1.446   1.475   1.504   1.517   1.587   1.632   1.673   1.713
  1.742   1.828   1.873   1.881   1.932   1.954   1.988   2.027
  2.060   2.168   2.207   2.217   2.232   2.253   2.363   2.380
  2.456   2.490   2.502   2.542   2.590   2.626   2.664   2.676
  2.718   2.808   2.841   2.914   2.963   3.959   4.194   4.239
  4.362   4.433   4.508   4.640
 
 Beta MOs
 -- Occupied --
-14.319 -10.222 -10.219 -10.211 -10.209 -10.207 -10.193  -0.964
 -0.850  -0.741  -0.652  -0.601  -0.567  -0.528  -0.511  -0.461
 -0.434  -0.402  -0.394  -0.348  -0.332  -0.291  -0.262  -0.251
 -- Virtual --
 -0.062   0.020   0.102   0.118   0.134   0.151   0.156   0.157
  0.165   0.181   0.204   0.227   0.267   0.284   0.298   0.359
  0.394   0.497   0.519   0.532   0.553   0.561   0.578   0.607
  0.610   0.622   0.669   0.679   0.683   0.729   0.745   0.775
  0.786   0.808   0.809   0.824   0.844   0.858   0.882   0.892
  0.940   0.958   0.977   1.047   1.108   1.208   1.243   1.334
  1.392   1.449   1.481   1.514   1.525   1.594   1.640   1.677
  1.716   1.751   1.835   1.878   1.894   1.940   1.970   1.994
  2.035   2.068   2.172   2.222   2.225   2.242   2.270   2.368
  2.390   2.463   2.497   2.510   2.546   2.594   2.633   2.666
  2.684   2.725   2.813   2.845   2.917   2.965   3.961   4.208
  4.245   4.368   4.438   4.511   4.644
 --------------------------------------------------------------
 
          Ground-State Mulliken Net Atomic Charges

     Atom                 Charge (a.u.)    Spin (a.u.)
  --------------------------------------------------------
      1 C                     0.088693       0.046591
      2 C                    -0.258587      -0.065685
      3 C                    -0.108025       0.078077
      4 C                    -0.163274      -0.095735
      5 C                    -0.019182       0.096410
      6 N                    -0.342090       0.039520
      7 H                     0.143025       0.001396
      8 H                     0.142886       0.022630
      9 H                     0.148125      -0.000811
     10 H                     0.147222       0.005306
     11 H                     0.151392       0.002880
     12 C                    -0.066441       0.888752
     13 H                     0.136253      -0.019331
  --------------------------------------------------------
  Sum of atomic charges =     0.000000
  Sum of spin   charges =     1.000000

 -----------------------------------------------------------------
                    Cartesian Multipole Moments
 -----------------------------------------------------------------
    Charge (ESU x 10^10)
                 0.0000
    Dipole Moment (Debye)
         X      -0.9588      Y      -1.8083      Z       0.1089
       Tot       2.0497
    Quadrupole Moments (Debye-Ang)
        XX     -37.7198     XY      -4.6407     YY     -43.8151
        XZ       1.7558     YZ       1.0427     ZZ     -39.7846
    Octopole Moments (Debye-Ang^2)
       XXX      -7.5634    XXY      -6.0965    XYY      -9.3366
       YYY     -21.1181    XXZ       1.7786    XYZ       0.7643
       YYZ      -0.0849    XZZ      -5.6659    YZZ      -6.1931
       ZZZ       7.0252
    Hexadecapole Moments (Debye-Ang^3)
      XXXX    -253.7902   XXXY     -13.2423   XXYY     -88.9686
      XYYY     -24.4809   YYYY    -234.3870   XXXZ      11.9502
      XXYZ      12.7955   XYYZ       9.8680   YYYZ      31.5301
      XXZZ     -74.7775   XYZZ      -4.3263   YYZZ     -67.4847
      XZZZ      16.7222   YZZZ      27.9331   ZZZZ    -167.5819
 -----------------------------------------------------------------
Archival summary:
1\1\c8-66\OPT\ProcedureUnspecified\6-31G*\166(2)\hpark21\WedMar211:33:272022WedMar211:33:272022\0\\#,OPT,ProcedureUnspecified,6-31G*,\\0,2\N\C,1,1.2832\H,2,1.08893,1,121.702\C,1,1.44151,2,106.248,3,-176.02,0\H,4,1.08526,1,117.524,2,-165.186,0\C,4,1.48622,1,112.286,2,-16.591,0\H,6,1.0858,4,128.802,1,-128.026,0\C,2,1.52459,1,113.714,3,172.198,0\H,8,1.09222,2,117.76,1,156.555,0\C,8,1.52766,2,104.696,1,-68.2706,0\H,10,1.08749,8,130.724,2,-72.2958,0\C,10,1.45662,8,92.2972,2,85.2215,0\H,12,1.08555,10,128.596,8,161.483,0\\\@

 Total job time:  90.29s(wall), 85.16s(cpu) 
 Wed Mar  2 11:33:27 2022

        *************************************************************
        *                                                           *
        *  Thank you very much for using Q-Chem.  Have a nice day.  *
        *                                                           *
        *************************************************************


