13   
From optimize.out: Frame 1 / 2, Energy=    -286.8383302656
C       -0.0191640000    0.0971380000    0.0000000000
C       -0.1633510000   -0.0959680000   -0.0000000000
C       -0.0662890000    0.8882720000   -0.0000000000
C       -0.2580260000   -0.0657210000    0.0000000000
C        0.0886330000    0.0470740000   -0.0000000000
N       -0.3422230000    0.0392960000   -0.0000000000
H        0.1514430000    0.0028510000    0.0000000000
H        0.1472350000    0.0052860000   -0.0000000000
H        0.1362530000   -0.0193630000   -0.0000000000
H        0.1428380000    0.0227020000    0.0000000000
H        0.1430220000    0.0013860000   -0.0000000000
C       -0.1084440000    0.0778200000    0.0000000000
H        0.1480740000   -0.0007730000    0.0000000000
