
Running Job 1 of 1 optimize.in
qchem optimize.in_66925.0 ./optimize.d/ 1
/home/leeping/opt/qchem/5.0.2-openmp/exe/qcprog.exe_s optimize.in_66925.0 ./optimize.d/
Check license passed

                  Welcome to Q-Chem
     A Quantum Leap Into The Future Of Chemistry


 Q-Chem 5.0, Q-Chem, Inc., Pleasanton, CA (2017)

 Yihan Shao,  Zhengting Gan,  E. Epifanovsky,  A. T. B. Gilbert,  M. Wormit,  
 J. Kussmann,  A. W. Lange,  A. Behn,  Jia Deng,  Xintian Feng,  D. Ghosh,  
 M. Goldey,  P. R. Horn,  L. D. Jacobson,  I. Kaliman,  T. Kus,  A. Landau,  
 Jie Liu,  E. I. Proynov,  R. M. Richard,  R. P. Steele,  E. J. Sundstrom,  
 H. L. Woodcock III,  P. M. Zimmerman,  D. Zuev,  B. Albrecht,  E. Alguire,  
 S. A. Baeppler,  D. Barton,  Z. Benda,  Y. A. Bernard,  E. J. Berquist,  
 K. B. Bravaya,  H. Burton,  D. Casanova,  Chun-Min Chang,  Yunqing Chen,  
 A. Chien,  K. D. Closser,  M. P. Coons,  S. Dasgupta,  A. L. Dempwolff,  
 M. Diedenhofen,  Hainam Do,  R. G. Edgar,  Po-Tung Fang,  S. Fatehi,  
 Qingguo Feng,  J. Fosso-Tande,  Qinghui Ge,  A. Ghysels,  G. Gidofalvi,  
 J. Gomes,  J. Gonthier,  A. Gunina,  M. W. D. Hanson-Heine,  
 P. H. P. Harbach,  A. W. Hauser,  J. E. Herr,  E. G. Hohenstein,  
 Z. C. Holden,  Kerwin Hui,  T.-C. Jagau,  Hyunjun Ji,  B. Kaduk,  
 K. Khistyaev,  Jaehoon Kim,  P. Klunzinger,  K. Koh,  D. Kosenkov,  
 L. Koulias,  T. Kowalczyk,  C. M. Krauter,  A. Kunitsa,  Ka Un Lao,  
 A. Laurent,  K. V. Lawler,  Joonho Lee,  D. Lefrancois,  S. Lehtola,  
 D. S. Levine,  Yi-Pei Li,  You-Sheng Lin,  Fenglai Liu,  E. Livshits,  
 A. Luenser,  P. Manohar,  E. Mansoor,  S. F. Manzer,  Shan-Ping Mao,  
 Yuezhi Mao,  N. Mardirossian,  A. V. Marenich,  T. Markovich,  
 L. A. Martinez-Martinez,  S. A. Maurer,  N. J. Mayhall,  S. C. McKenzie,  
 J.-M. Mewes,  A. F. Morrison,  J. W. Mullinax,  K. Nanda,  
 T. S. Nguyen-Beck,  R. Olivares-Amaya,  J. A. Parkhill,  T. M. Perrine,  
 F. Plasser,  S. Prager,  A. Prociuk,  E. Ramos,  D. R. Rehn,  F. Rob,  
 M. Schneider,  N. Sergueev,  S. M. Sharada,  S. Sharma,  D. W. Small,  
 T. Stauch,  T. Stein,  Yu-Chuan Su,  A. J. W. Thom,  A. Tkatchenko,  
 T. Tsuchimochi,  L. Vogt,  O. Vydrov,  M. A. Watson,  J. Wenzel,  
 M. de Wergifosse,  T. A. Wesolowski,  A. White,  J. Witte,  A. Yamada,  
 Jun Yang,  K. Yao,  S. Yeganeh,  S. R. Yost,  Zhi-Qiang You,  A. Zech,  
 Igor Ying Zhang,  Xing Zhang,  Yan Zhao,  Ying Zhu,  B. R. Brooks,  
 G. K. L. Chan,  C. J. Cramer,  M. S. Gordon,  W. J. Hehre,  A. Klamt,  
 M. W. Schmidt,  C. D. Sherrill,  D. G. Truhlar,  A. Aspuru-Guzik,  R. Baer,  
 A. T. Bell,  N. A. Besley,  Jeng-Da Chai,  R. A. DiStasio Jr.,  A. Dreuw,  
 B. D. Dunietz,  T. R. Furlani,  Chao-Ping Hsu,  Yousung Jung,  Jing Kong,  
 D. S. Lambrecht,  WanZhen Liang,  C. Ochsenfeld,  V. A. Rassolov,  
 L. V. Slipchenko,  J. E. Subotnik,  T. Van Voorhis,  J. M. Herbert,  
 A. I. Krylov,  P. M. W. Gill,  M. Head-Gordon

 Contributors to earlier versions of Q-Chem not listed above: 
 R. D. Adamson,  B. Austin,  J. Baker,  G. J. O. Beran,  K. Brandhorst,  
 S. T. Brown,  E. F. C. Byrd,  A. K. Chakraborty,  C.-L. Cheng,  
 Siu Hung Chien,  D. M. Chipman,  D. L. Crittenden,  H. Dachsel,  
 R. J. Doerksen,  A. D. Dutoi,  L. Fusti-Molnar,  W. A. Goddard III,  
 A. Golubeva-Zadorozhnaya,  S. R. Gwaltney,  G. Hawkins,  A. Heyden,  
 S. Hirata,  G. Kedziora,  F. J. Keil,  C. Kelley,  Jihan Kim,  R. A. King,  
 R. Z. Khaliullin,  P. P. Korambath,  W. Kurlancheek,  A. M. Lee,  M. S. Lee,  
 S. V. Levchenko,  Ching Yeh Lin,  D. Liotard,  R. C. Lochan,  I. Lotan,  
 P. E. Maslen,  N. Nair,  D. P. O'Neill,  D. Neuhauser,  E. Neuscamman,  
 C. M. Oana,  R. Olson,  B. Peters,  R. Peverati,  P. A. Pieniazek,  
 Y. M. Rhee,  J. Ritchie,  M. A. Rohrdanz,  E. Rosta,  N. J. Russ,  
 H. F. Schaefer III,  N. E. Schultz,  N. Shenvi,  A. C. Simmonett,  A. Sodt,  
 D. Stuck,  K. S. Thanthiriwatte,  V. Vanovschi,  Tao Wang,  A. Warshel,  
 C. F. Williams,  Q. Wu,  X. Xu,  W. Zhang

 Please cite Q-Chem as follows:
 Y. Shao et al., Mol. Phys. 113, 184-215 (2015)
 DOI: 10.1080/00268976.2014.952696

 Q-Chem 5.0.2 for Intel X86 EM64T Linux

 Parts of Q-Chem use Armadillo 5.200.1 (Boston Tea Smuggler).
 http://arma.sourceforge.net/

 Q-Chem begins on Tue Mar  1 22:24:22 2022  

Host: 
0

     Scratch files written to ./optimize.d//
 Dec517 15110_ 26548  26544 5633   
Processing $rem in /home/leeping/opt/qchem/5.0.2-openmp/config/preferences.
 MEM_STATIC 2000
 MEM_TOTAL  8000
 SYMMETRY   OFF
 SYM_IGNORE TRUE 

Checking the input file for inconsistencies... 	...done.

--------------------------------------------------------------
User input:
--------------------------------------------------------------
$molecule
0 2
C        1.6972674499    0.2878043459   -0.2177946769
C        1.0901877441   -0.9150443011   -0.1130997488
C       -0.3619637773   -1.0474732349    0.0889831806
C       -1.1404209314    0.3810042155   -0.0222865165
C       -0.2577572752    1.5000476524   -0.4006826261
N        1.0305620919    1.4987760097   -0.4081843795
H        2.7791612696    0.3569904953   -0.2962301170
H        1.6743188469   -1.8289541903   -0.1884936329
H       -0.8372409141   -1.9446421130   -0.3118803428
H       -2.1404458750    0.4184069429   -0.4587273145
H       -0.7545360329    2.4046352209   -0.7599226703
C       -0.9922145815   -0.3754667208    1.2230969943
H       -1.7869180147   -0.7360843224    1.8652218504
$end

$rem
method                b3lyp
basis                 6-31g(d)
unrestricted          true
symmetry              off
sym_ignore            true
incdft                false
incfock               0
scf_convergence       8
thresh                14
jobtype               opt
scf_guess             read
scf_algorithm         diis
max_scf_cycles        100
geom_opt_tol_gradient 600
geom_opt_tol_displacement 2400
geom_opt_tol_energy   200
geom_opt_max_cycles   100
$end

--------------------------------------------------------------
 ----------------------------------------------------------------
             Standard Nuclear Orientation (Angstroms)
    I     Atom           X                Y                Z
 ----------------------------------------------------------------
    1      C       1.6972674499     0.2878043459    -0.2177946769
    2      C       1.0901877441    -0.9150443011    -0.1130997488
    3      C      -0.3619637773    -1.0474732349     0.0889831806
    4      C      -1.1404209314     0.3810042155    -0.0222865165
    5      C      -0.2577572752     1.5000476524    -0.4006826261
    6      N       1.0305620919     1.4987760097    -0.4081843795
    7      H       2.7791612696     0.3569904953    -0.2962301170
    8      H       1.6743188469    -1.8289541903    -0.1884936329
    9      H      -0.8372409141    -1.9446421130    -0.3118803428
   10      H      -2.1404458750     0.4184069429    -0.4587273145
   11      H      -0.7545360329     2.4046352209    -0.7599226703
   12      C      -0.9922145815    -0.3754667208     1.2230969943
   13      H      -1.7869180147    -0.7360843224     1.8652218504
 ----------------------------------------------------------------
 Nuclear Repulsion Energy =   269.1114502798 hartrees
 There are       25 alpha and       24 beta electrons
 Requested basis set is 6-31G(d)
 There are 40 shells and 117 basis functions

 Total QAlloc Memory Limit   8000 MB
 Mega-Array Size      1956 MB
 MEM_STATIC part      2000 MB
 A cutoff of  1.0D-14 yielded    804 shell pairs
 There are      7076 function pairs
 
 -------------------------------------------------------
 OpenMP Integral Computing Module                       
 Release: version 1.0, May 2013, Q-Chem Inc. Pittsburgh 
 -------------------------------------------------------
 Integral Job Info:
 Integral job number is                      11
 Integral operator is                         1
 short-range coefficients                     0
 long-range coefficients              100000000
 Omega coefficients                           0
 if combine SR and LR in K                    0
 Integral screening is                        0
 Integral computing path is                   2
 max size of driver memory is            800000
 size of driver memory is                593474
 size of scratch memory is              2361544
 max col of scratch BK array               1296
 max len of scratch array in speh3          155
 max len of scratch index in speh4           18
 max int batch size is                      520
 min int batch size is                       52
 fixed nKL is                                52
 max L of basis functions is                  2
 order of int derivative is                   0
 number of shells is                         40
 number of basis is                         117
 number of cartesian basis is               117
 number of contracted shell pairs           804
 number of primitive shell pairs           3486
 maxK2 (contraction) of shell pair           36
 max number of K2 of shell pair               1
 max number of CS2 of shell pair             86
 max number of PS2 of shell pair            390
 mem total for path MDJ                  535308
 -------------------------------------------------------
 Smallest overlap matrix eigenvalue = 1.47E-03

 Scale SEOQF with 1.000000e-01/1.000000e-01/1.000000e-01

 Standard Electronic Orientation quadrupole field applied
 Nucleus-field energy     =     0.0000000047 hartrees
 Guess MOs from SCF MO coefficient file
 Reading MOs from coefficient file
 Reading MOs from coefficient file
 An unrestricted hybrid HF-DFT SCF calculation will be
 performed using Pulay DIIS extrapolation
 Exchange:     0.2000 Hartree-Fock + 0.0800 Slater + 0.7200 B88
 Correlation:  0.1900 VWN1RPA + 0.8100 LYP
 Using SG-1 standard quadrature grid
 SCF converges when DIIS error is below 1.0E-08
Using Q-Chem read-in guess as SCF_GUESS READ specified.

 using 4 threads for integral computing
 -------------------------------------------------------
 OpenMP Integral computing Module                
 Release: version 1.0, May 2013, Q-Chem Inc. Pittsburgh 
 -------------------------------------------------------
 -------------------------------------------------------
 OpenMP BLAS3 based DFT computing Module                
 Release: version 1.0, May 2013, Q-Chem Inc. Pittsburgh 
 -------------------------------------------------------
 ---------------------------------------
  Cycle       Energy         DIIS Error
 ---------------------------------------
    1    -286.8549868008      1.68E-09
    2    -286.8549868008      2.49E-09 Convergence criterion met
 ---------------------------------------
 <S^2> = 0.7532
 SCF time:  CPU 5.23 s  wall 3.61 s
 SCF   energy in the final basis set = -286.85498680
 Total energy in the final basis set = -286.85498680
 
 --------------------------------------------------------------
 
                    Orbital Energies (a.u.)
 --------------------------------------------------------------
 
 Alpha MOs
 -- Occupied --
-14.323 -10.230 -10.224 -10.221 -10.219 -10.206 -10.195  -0.934
 -0.868  -0.765  -0.667  -0.641  -0.570  -0.532  -0.491  -0.482
 -0.451  -0.425  -0.377  -0.373  -0.359  -0.300  -0.255  -0.229
 -0.219
 -- Virtual --
 -0.031   0.048   0.085   0.130   0.135   0.151   0.156   0.173
  0.184   0.228   0.244   0.286   0.296   0.328   0.400   0.437
  0.504   0.506   0.529   0.551   0.552   0.581   0.592   0.605
  0.617   0.630   0.647   0.669   0.672   0.713   0.753   0.803
  0.832   0.845   0.860   0.867   0.879   0.896   0.902   0.924
  0.937   1.000   1.077   1.099   1.114   1.170   1.213   1.328
  1.349   1.433   1.488   1.523   1.548   1.567   1.602   1.700
  1.724   1.766   1.816   1.828   1.897   1.914   1.949   2.021
  2.031   2.055   2.147   2.203   2.220   2.242   2.295   2.344
  2.437   2.469   2.503   2.529   2.545   2.578   2.633   2.673
  2.733   2.807   2.838   3.019   3.234   4.027   4.105   4.140
  4.276   4.317   4.397   4.609
 
 Beta MOs
 -- Occupied --
-14.323 -10.229 -10.224 -10.221 -10.207 -10.205 -10.194  -0.932
 -0.858  -0.763  -0.659  -0.639  -0.556  -0.527  -0.488  -0.473
 -0.447  -0.422  -0.375  -0.371  -0.351  -0.290  -0.250  -0.225
 -- Virtual --
 -0.072  -0.028   0.051   0.091   0.131   0.137   0.154   0.162
  0.179   0.186   0.233   0.246   0.291   0.311   0.331   0.403
  0.439   0.508   0.531   0.541   0.557   0.558   0.587   0.595
  0.611   0.622   0.640   0.650   0.673   0.674   0.719   0.766
  0.806   0.833   0.847   0.862   0.869   0.884   0.902   0.905
  0.925   0.940   1.013   1.079   1.104   1.120   1.175   1.215
  1.331   1.351   1.439   1.496   1.526   1.551   1.570   1.608
  1.705   1.730   1.787   1.821   1.830   1.920   1.924   1.963
  2.025   2.038   2.064   2.159   2.212   2.230   2.252   2.300
  2.354   2.440   2.474   2.513   2.535   2.547   2.589   2.637
  2.674   2.737   2.816   2.848   3.019   3.236   4.028   4.111
  4.141   4.300   4.321   4.401   4.610
 --------------------------------------------------------------
 
          Ground-State Mulliken Net Atomic Charges

     Atom                 Charge (a.u.)    Spin (a.u.)
  --------------------------------------------------------
      1 C                    -0.009202      -0.014562
      2 C                    -0.084025       0.040910
      3 C                    -0.175916      -0.016468
      4 C                    -0.194469      -0.016787
      5 C                     0.088702       0.019413
      6 N                    -0.391617       0.002403
      7 H                     0.136792       0.000767
      8 H                     0.139629       0.003642
      9 H                     0.155181       0.017095
     10 H                     0.155381       0.022559
     11 H                     0.142837       0.005878
     12 C                    -0.121037       0.958282
     13 H                     0.157744      -0.023130
  --------------------------------------------------------
  Sum of atomic charges =     0.000000
  Sum of spin   charges =     1.000000

 -----------------------------------------------------------------
                    Cartesian Multipole Moments
 -----------------------------------------------------------------
    Charge (ESU x 10^10)
                 0.0000
    Dipole Moment (Debye)
         X      -2.0272      Y      -1.9805      Z      -0.0323
       Tot       2.8343
    Quadrupole Moments (Debye-Ang)
        XX     -37.2632     XY      -3.1735     YY     -41.2214
        XZ       0.1409     YZ       0.1200     ZZ     -42.4173
    Octopole Moments (Debye-Ang^2)
       XXX     -14.7091    XXY     -11.3162    XYY     -12.8328
       YYY     -27.6347    XXZ       0.5087    XYZ       3.9626
       YYZ      -1.2498    XZZ      -9.3533    YZZ      -7.2781
       ZZZ      -0.5440
    Hexadecapole Moments (Debye-Ang^3)
      XXXX    -329.5812   XXXY     -15.1604   XXYY    -115.4766
      XYYY     -33.3025   YYYY    -312.2521   XXXZ      33.4495
      XXYZ       9.7246   XYYZ      17.6566   YYYZ      35.3648
      XXZZ     -78.3881   XYZZ      -2.6071   YYZZ     -74.1066
      XZZZ      34.0408   YZZZ      31.1470   ZZZZ    -121.5655
 -----------------------------------------------------------------
 Calculating analytic gradient of the SCF energy
 Gradient of SCF Energy
            1           2           3           4           5           6
    1   0.0000104   0.0000225  -0.0001226   0.0000679   0.0000019   0.0000173
    2   0.0000238  -0.0000106   0.0000265  -0.0000756   0.0000680   0.0000121
    3  -0.0000398  -0.0000076   0.0000042   0.0001393  -0.0000898   0.0000382
            7           8           9          10          11          12
    1   0.0000024  -0.0000145   0.0000040   0.0000054  -0.0000171   0.0000334
    2   0.0000264  -0.0000005  -0.0000091  -0.0000078  -0.0000032  -0.0000296
    3   0.0000127   0.0000115  -0.0000004  -0.0000170   0.0000188  -0.0000558
           13
    1  -0.0000110
    2  -0.0000204
    3  -0.0000143
 Max gradient component =       1.393E-04
 RMS gradient           =       4.273E-05
 Gradient time:  CPU 7.79 s  wall 2.37 s
 Geometry Optimization Parameters
   NAtoms,    NIC,     NZ,  NCons,   NDum,   NFix, NCnnct, MaxDiis
       13     103       0       0       0       0       0       0


** GEOMETRY OPTIMIZATION IN DELOCALIZED INTERNAL COORDINATES **
   Searching for a Minimum

   Optimization Cycle:   1

                       Coordinates (Angstroms)
     ATOM                X               Y               Z
      1  C         1.6972674499    0.2878043459   -0.2177946769
      2  C         1.0901877441   -0.9150443011   -0.1130997488
      3  C        -0.3619637773   -1.0474732349    0.0889831806
      4  C        -1.1404209314    0.3810042155   -0.0222865165
      5  C        -0.2577572752    1.5000476524   -0.4006826261
      6  N         1.0305620919    1.4987760097   -0.4081843795
      7  H         2.7791612696    0.3569904953   -0.2962301170
      8  H         1.6743188469   -1.8289541903   -0.1884936329
      9  H        -0.8372409141   -1.9446421130   -0.3118803428
     10  H        -2.1404458750    0.4184069429   -0.4587273145
     11  H        -0.7545360329    2.4046352209   -0.7599226703
     12  C        -0.9922145815   -0.3754667208    1.2230969943
     13  H        -1.7869180147   -0.7360843224    1.8652218504
   Point Group: c1    Number of degrees of freedom:    33


   Energy is   -286.854986801


 Attempting to Generate Delocalized Internal Coordinates

 33 Hessian modes will be used to form the next step
  Hessian Eigenvalues:
     0.015596    0.017181    0.017598    0.019279    0.021838    0.023316
     0.024616    0.026480    0.037747    0.038669    0.070993    0.092244
     0.103614    0.120657    0.157434    0.159330    0.159968    0.160017
     0.216621    0.227653    0.264216    0.334006    0.336338    0.344958
     0.346106    0.346336    0.348884    0.351317    0.351690    0.355774
     0.440254    0.525148    0.676730

 Minimum Search - Taking Simple RFO Step
 Searching for Lamda that Minimizes Along All modes
 Value Taken    Lamda =   0.00000000
 Step Taken.  Stepsize is  0.002208

                             Maximum     Tolerance    Cnvgd?
         Gradient           0.000062      0.000600     YES
         Displacement       0.001205      0.002400     YES
         Energy change     *********      0.000002      NO


                       Distance Matrix (Angstroms)
             C (  1)   C (  2)   C (  3)   C (  4)   C (  5)   N (  6)
   C (  2)  1.351426
   C (  3)  2.473360  1.472114
   C (  4)  2.845942  2.581396  1.630621
   C (  5)  2.307619  2.780707  2.596246  1.474631
   N (  6)  1.395420  2.432521  2.944434  2.472144  1.288342
   H (  7)  1.086937  2.122320  3.462308  3.929217  3.246593  2.091365
   H (  8)  2.117086  1.087256  2.198671  3.582499  3.854892  3.396539
   H (  9)  3.378817  2.194212  1.091555  2.363136  3.494220  3.918557
   H ( 10)  3.847486  3.512057  2.368922  1.091755  2.172057  3.350380
   H ( 11)  3.284238  3.852487  3.576564  2.188172  1.092759  2.032456
   C ( 12)  3.122405  2.532383  1.461172  1.464648  2.587207  3.203980
   H ( 13)  4.186509  3.496215  2.298365  2.286599  3.531705  4.254547
             H (  7)   H (  8)   H (  9)   H ( 10)   H ( 11)   C ( 12)
   H (  8)  2.451660
   H (  9)  4.286738  2.517249
   H ( 10)  4.922673  4.435774  2.702574
   H ( 11)  4.110338  4.914178  4.373076  2.440608
   C ( 12)  4.131359  3.348972  2.200564  2.185681  3.423131
   H ( 13)  5.168730  4.170404  2.665009  2.618888  4.221530  1.083477

 
 Final energy is   -286.854986800800     


 ******************************
 **  OPTIMIZATION CONVERGED  **
 ******************************

                       Coordinates (Angstroms)
     ATOM                X               Y               Z
      1  C         1.6972674499    0.2878043459   -0.2177946769
      2  C         1.0901877441   -0.9150443011   -0.1130997488
      3  C        -0.3619637773   -1.0474732349    0.0889831806
      4  C        -1.1404209314    0.3810042155   -0.0222865165
      5  C        -0.2577572752    1.5000476524   -0.4006826261
      6  N         1.0305620919    1.4987760097   -0.4081843795
      7  H         2.7791612696    0.3569904953   -0.2962301170
      8  H         1.6743188469   -1.8289541903   -0.1884936329
      9  H        -0.8372409141   -1.9446421130   -0.3118803428
     10  H        -2.1404458750    0.4184069429   -0.4587273145
     11  H        -0.7545360329    2.4046352209   -0.7599226703
     12  C        -0.9922145815   -0.3754667208    1.2230969943
     13  H        -1.7869180147   -0.7360843224    1.8652218504

Z-matrix Print:
$molecule
0 2
N 
C  1 1.288342
H  2 1.092759 1 116.968768
C  1 1.395420 2 118.544095 3 -167.290801 0
H  4 1.086937 1 114.234975 2 176.524281 0
C  4 1.351426 1 124.635508 2 4.686317 0
H  6 1.087256 4 120.095285 1 166.326620 0
C  6 1.472114 4 122.264303 1 -13.001121 0
H  8 1.091555 6 116.938539 4 150.615588 0
C  8 1.461172 6 119.383863 4 -55.495473 0
H  10 1.083477 8 128.557180 6 -140.928518 0
C  10 1.464648 8 67.741341 6 98.736437 0
H  12 1.091755 10 116.762690 8 109.154212 0
$end

 
 --------------------------------------------------------------
 
                    Orbital Energies (a.u.)
 --------------------------------------------------------------
 
 Alpha MOs
 -- Occupied --
-14.323 -10.230 -10.224 -10.221 -10.219 -10.206 -10.195  -0.934
 -0.868  -0.765  -0.667  -0.641  -0.570  -0.532  -0.491  -0.482
 -0.451  -0.425  -0.377  -0.373  -0.359  -0.300  -0.255  -0.229
 -0.219
 -- Virtual --
 -0.031   0.048   0.085   0.130   0.135   0.151   0.156   0.173
  0.184   0.228   0.244   0.286   0.296   0.328   0.400   0.437
  0.504   0.506   0.529   0.551   0.552   0.581   0.592   0.605
  0.617   0.630   0.647   0.669   0.672   0.713   0.753   0.803
  0.832   0.845   0.860   0.867   0.879   0.896   0.902   0.924
  0.937   1.000   1.077   1.099   1.114   1.170   1.213   1.328
  1.349   1.433   1.488   1.523   1.548   1.567   1.602   1.700
  1.724   1.766   1.816   1.828   1.897   1.914   1.949   2.021
  2.031   2.055   2.147   2.203   2.220   2.242   2.295   2.344
  2.437   2.469   2.503   2.529   2.545   2.578   2.633   2.673
  2.733   2.807   2.838   3.019   3.234   4.027   4.105   4.140
  4.276   4.317   4.397   4.609
 
 Beta MOs
 -- Occupied --
-14.323 -10.229 -10.224 -10.221 -10.207 -10.205 -10.194  -0.932
 -0.858  -0.763  -0.659  -0.639  -0.556  -0.527  -0.488  -0.473
 -0.447  -0.422  -0.375  -0.371  -0.351  -0.290  -0.250  -0.225
 -- Virtual --
 -0.072  -0.028   0.051   0.091   0.131   0.137   0.154   0.162
  0.179   0.186   0.233   0.246   0.291   0.311   0.331   0.403
  0.439   0.508   0.531   0.541   0.557   0.558   0.587   0.595
  0.611   0.622   0.640   0.650   0.673   0.674   0.719   0.766
  0.806   0.833   0.847   0.862   0.869   0.884   0.902   0.905
  0.925   0.940   1.013   1.079   1.104   1.120   1.175   1.215
  1.331   1.351   1.439   1.496   1.526   1.551   1.570   1.608
  1.705   1.730   1.787   1.821   1.830   1.920   1.924   1.963
  2.025   2.038   2.064   2.159   2.212   2.230   2.252   2.300
  2.354   2.440   2.474   2.513   2.535   2.547   2.589   2.637
  2.674   2.737   2.816   2.848   3.019   3.236   4.028   4.111
  4.141   4.300   4.321   4.401   4.610
 --------------------------------------------------------------
 
          Ground-State Mulliken Net Atomic Charges

     Atom                 Charge (a.u.)    Spin (a.u.)
  --------------------------------------------------------
      1 C                    -0.009202      -0.014562
      2 C                    -0.084025       0.040910
      3 C                    -0.175916      -0.016468
      4 C                    -0.194469      -0.016787
      5 C                     0.088702       0.019413
      6 N                    -0.391617       0.002403
      7 H                     0.136792       0.000767
      8 H                     0.139629       0.003642
      9 H                     0.155181       0.017095
     10 H                     0.155381       0.022559
     11 H                     0.142837       0.005878
     12 C                    -0.121037       0.958282
     13 H                     0.157744      -0.023130
  --------------------------------------------------------
  Sum of atomic charges =     0.000000
  Sum of spin   charges =     1.000000

 -----------------------------------------------------------------
                    Cartesian Multipole Moments
 -----------------------------------------------------------------
    Charge (ESU x 10^10)
                 0.0000
    Dipole Moment (Debye)
         X      -2.0272      Y      -1.9805      Z      -0.0323
       Tot       2.8343
    Quadrupole Moments (Debye-Ang)
        XX     -37.2632     XY      -3.1735     YY     -41.2214
        XZ       0.1409     YZ       0.1200     ZZ     -42.4173
    Octopole Moments (Debye-Ang^2)
       XXX     -14.7091    XXY     -11.3162    XYY     -12.8328
       YYY     -27.6347    XXZ       0.5087    XYZ       3.9626
       YYZ      -1.2498    XZZ      -9.3533    YZZ      -7.2781
       ZZZ      -0.5440
    Hexadecapole Moments (Debye-Ang^3)
      XXXX    -329.5812   XXXY     -15.1604   XXYY    -115.4766
      XYYY     -33.3025   YYYY    -312.2521   XXXZ      33.4495
      XXYZ       9.7246   XYYZ      17.6566   YYYZ      35.3648
      XXZZ     -78.3881   XYZZ      -2.6071   YYZZ     -74.1066
      XZZZ      34.0408   YZZZ      31.1470   ZZZZ    -121.5655
 -----------------------------------------------------------------
Archival summary:
1\1\c8-89\OPT\ProcedureUnspecified\6-31G*\166(2)\hpark21\TueMar122:24:372022TueMar122:24:372022\0\\#,OPT,ProcedureUnspecified,6-31G*,\\0,2\N\C,1,1.28834\H,2,1.09276,1,116.969\C,1,1.39542,2,118.544,3,-167.291,0\H,4,1.08694,1,114.235,2,176.524,0\C,4,1.35143,1,124.636,2,4.68632,0\H,6,1.08726,4,120.095,1,166.327,0\C,6,1.47211,4,122.264,1,-13.0011,0\H,8,1.09155,6,116.939,4,150.616,0\C,8,1.46117,6,119.384,4,-55.4955,0\H,10,1.08348,8,128.557,6,-140.929,0\C,10,1.46465,8,67.7413,6,98.7364,0\H,12,1.09176,10,116.763,8,109.154,0\\\@

 Total job time:  15.24s(wall), 14.94s(cpu) 
 Tue Mar  1 22:24:37 2022

        *************************************************************
        *                                                           *
        *  Thank you very much for using Q-Chem.  Have a nice day.  *
        *                                                           *
        *************************************************************


