13   
From optimize.out: Frame 1 / 1, Energy=    -286.8549868008
C       -0.0092020000   -0.0145620000   -0.0000000000
C       -0.0840250000    0.0409100000   -0.0000000000
C       -0.1759160000   -0.0164680000    0.0000000000
C       -0.1944690000   -0.0167870000   -0.0000000000
C        0.0887020000    0.0194130000   -0.0000000000
N       -0.3916170000    0.0024030000   -0.0000000000
H        0.1367920000    0.0007670000   -0.0000000000
H        0.1396290000    0.0036420000   -0.0000000000
H        0.1551810000    0.0170950000   -0.0000000000
H        0.1553810000    0.0225590000   -0.0000000000
H        0.1428370000    0.0058780000   -0.0000000000
C       -0.1210370000    0.9582820000    0.0000000000
H        0.1577440000   -0.0231300000    0.0000000000
