13   
Frame   0 IRC: Energy =  -286.8792740000 ; +0.0000 kcal/mol
C       -0.1013310000    0.6052790000   -0.0000000000
C       -0.1722860000   -0.0505040000    0.0000000000
C       -0.0140850000    0.0813450000   -0.0000000000
C       -0.1727950000   -0.0505600000    0.0000000000
C       -0.1011030000    0.6054080000   -0.0000000000
N       -0.2163530000   -0.2013450000   -0.0000000000
H        0.1242840000   -0.0322640000   -0.0000000000
H        0.1303650000    0.0007990000    0.0000000000
H        0.1414150000   -0.0039990000   -0.0000000000
H        0.1304310000    0.0007990000    0.0000000000
H        0.1242470000   -0.0322760000   -0.0000000000
C       -0.0142710000    0.0813130000    0.0000000000
H        0.1414820000   -0.0039970000    0.0000000000
13   
Frame   1 IRC: Energy =  -286.8792710000 ; +0.0019 kcal/mol
C       -0.1016220000    0.6063800000   -0.0000000000
C       -0.1722810000   -0.0505990000    0.0000000000
C       -0.0139170000    0.0813960000   -0.0000000000
C       -0.1727390000   -0.0505230000    0.0000000000
C       -0.1007660000    0.6041140000   -0.0000000000
N       -0.2163540000   -0.2012730000   -0.0000000000
H        0.1243190000   -0.0323210000   -0.0000000000
H        0.1303600000    0.0008010000    0.0000000000
H        0.1413900000   -0.0040010000   -0.0000000000
H        0.1304420000    0.0007980000    0.0000000000
H        0.1241950000   -0.0322100000   -0.0000000000
C       -0.0144940000    0.0814410000    0.0000000000
H        0.1414690000   -0.0040030000    0.0000000000
13   
Frame   2 IRC: Energy =  -286.8792480000 ; +0.0163 kcal/mol
C       -0.1012410000    0.6048050000   -0.0000000000
C       -0.1724250000   -0.0505220000    0.0000000000
C       -0.0143240000    0.0814140000   -0.0000000000
C       -0.1729710000   -0.0506100000    0.0000000000
C       -0.1011310000    0.6054920000   -0.0000000000
N       -0.2162350000   -0.2010190000   -0.0000000000
H        0.1243070000   -0.0322440000   -0.0000000000
H        0.1303890000    0.0007980000    0.0000000000
H        0.1414130000   -0.0040020000   -0.0000000000
H        0.1304530000    0.0007980000    0.0000000000
H        0.1242930000   -0.0322840000   -0.0000000000
C       -0.0140150000    0.0813720000    0.0000000000
H        0.1414870000   -0.0039980000    0.0000000000
13   
Frame   3 IRC: Energy =  -286.8792430000 ; +0.0195 kcal/mol
C       -0.1014970000    0.6058230000   -0.0000000000
C       -0.1725820000   -0.0505560000    0.0000000000
C       -0.0146520000    0.0814730000   -0.0000000000
C       -0.1731250000   -0.0505680000    0.0000000000
C       -0.1007820000    0.6044350000   -0.0000000000
N       -0.2162620000   -0.2009870000   -0.0000000000
H        0.1243560000   -0.0322980000   -0.0000000000
H        0.1303860000    0.0007980000    0.0000000000
H        0.1414650000   -0.0040050000   -0.0000000000
H        0.1304690000    0.0007960000    0.0000000000
H        0.1242710000   -0.0322250000   -0.0000000000
C       -0.0135560000    0.0813070000    0.0000000000
H        0.1415090000   -0.0039930000    0.0000000000
13   
Frame   4 IRC: Energy =  -286.8792200000 ; +0.0339 kcal/mol
C       -0.1011990000    0.6044560000   -0.0000000000
C       -0.1726670000   -0.0505080000    0.0000000000
C       -0.0138650000    0.0814450000   -0.0000000000
C       -0.1731740000   -0.0506120000    0.0000000000
C       -0.1012120000    0.6053210000   -0.0000000000
N       -0.2161260000   -0.2005930000   -0.0000000000
H        0.1242780000   -0.0322270000   -0.0000000000
H        0.1304160000    0.0007950000    0.0000000000
H        0.1414180000   -0.0040030000   -0.0000000000
H        0.1304800000    0.0007960000    0.0000000000
H        0.1242650000   -0.0322790000   -0.0000000000
C       -0.0140990000    0.0814100000    0.0000000000
H        0.1414860000   -0.0040020000    0.0000000000
13   
Frame   5 IRC: Energy =  -286.8792160000 ; +0.0364 kcal/mol
C       -0.1007960000    0.6029700000   -0.0000000000
C       -0.1728570000   -0.0502870000    0.0000000000
C       -0.0135480000    0.0813270000   -0.0000000000
C       -0.1732050000   -0.0507130000    0.0000000000
C       -0.1018060000    0.6069860000   -0.0000000000
N       -0.2161450000   -0.2006290000   -0.0000000000
H        0.1242230000   -0.0321470000   -0.0000000000
H        0.1304160000    0.0007890000    0.0000000000
H        0.1414540000   -0.0039970000   -0.0000000000
H        0.1304890000    0.0008000000    0.0000000000
H        0.1243120000   -0.0323610000   -0.0000000000
C       -0.0140680000    0.0812570000    0.0000000000
H        0.1415300000   -0.0039950000    0.0000000000
13   
Frame   6 IRC: Energy =  -286.8790220000 ; +0.1581 kcal/mol
C       -0.1012250000    0.6034720000   -0.0000000000
C       -0.1740850000   -0.0507100000    0.0000000000
C       -0.0135150000    0.0818170000   -0.0000000000
C       -0.1746390000   -0.0507060000    0.0000000000
C       -0.1007750000    0.6028690000   -0.0000000000
N       -0.2154500000   -0.1978400000   -0.0000000000
H        0.1243470000   -0.0322030000   -0.0000000000
H        0.1305860000    0.0007850000    0.0000000000
H        0.1414530000   -0.0040230000   -0.0000000000
H        0.1306550000    0.0007840000    0.0000000000
H        0.1242880000   -0.0321740000   -0.0000000000
C       -0.0131550000    0.0819550000    0.0000000000
H        0.1415130000   -0.0040260000    0.0000000000
13   
Frame   7 IRC: Energy =  -286.8790120000 ; +0.1644 kcal/mol
C       -0.1005020000    0.6010470000   -0.0000000000
C       -0.1743210000   -0.0504360000    0.0000000000
C       -0.0134530000    0.0818810000   -0.0000000000
C       -0.1746450000   -0.0509440000    0.0000000000
C       -0.1015470000    0.6052290000   -0.0000000000
N       -0.2154270000   -0.1977470000   -0.0000000000
H        0.1242740000   -0.0320800000   -0.0000000000
H        0.1305870000    0.0007770000    0.0000000000
H        0.1414760000   -0.0040240000   -0.0000000000
H        0.1306760000    0.0007900000    0.0000000000
H        0.1243700000   -0.0322940000   -0.0000000000
C       -0.0130320000    0.0818220000    0.0000000000
H        0.1415430000   -0.0040210000    0.0000000000
13   
Frame   8 IRC: Energy =  -286.8788980000 ; +0.2359 kcal/mol
C       -0.1012040000    0.6026530000   -0.0000000000
C       -0.1749600000   -0.0508050000    0.0000000000
C       -0.0130940000    0.0820110000   -0.0000000000
C       -0.1755230000   -0.0507640000    0.0000000000
C       -0.1005970000    0.6015790000   -0.0000000000
N       -0.2150380000   -0.1961390000   -0.0000000000
H        0.1243620000   -0.0321770000   -0.0000000000
H        0.1306950000    0.0007780000    0.0000000000
H        0.1414720000   -0.0040330000   -0.0000000000
H        0.1307610000    0.0007760000    0.0000000000
H        0.1242900000   -0.0321210000   -0.0000000000
C       -0.0126850000    0.0822840000    0.0000000000
H        0.1415210000   -0.0040420000    0.0000000000
13   
Frame   9 IRC: Energy =  -286.8788830000 ; +0.2454 kcal/mol
C       -0.1003190000    0.5998050000   -0.0000000000
C       -0.1752850000   -0.0505020000    0.0000000000
C       -0.0129270000    0.0821400000   -0.0000000000
C       -0.1755520000   -0.0510500000    0.0000000000
C       -0.1014600000    0.6041900000   -0.0000000000
N       -0.2150260000   -0.1959520000   -0.0000000000
H        0.1242720000   -0.0320310000   -0.0000000000
H        0.1306990000    0.0007680000    0.0000000000
H        0.1414900000   -0.0040370000   -0.0000000000
H        0.1307900000    0.0007840000    0.0000000000
H        0.1243750000   -0.0322550000   -0.0000000000
C       -0.0126130000    0.0821780000    0.0000000000
H        0.1415560000   -0.0040390000    0.0000000000
13   
Frame  10 IRC: Energy =  -286.8788120000 ; +0.2899 kcal/mol
C       -0.1012700000    0.6022980000   -0.0000000000
C       -0.1755420000   -0.0508860000    0.0000000000
C       -0.0128790000    0.0821140000   -0.0000000000
C       -0.1761280000   -0.0507880000    0.0000000000
C       -0.1004230000    0.6005640000   -0.0000000000
N       -0.2147390000   -0.1950090000   -0.0000000000
H        0.1243900000   -0.0321710000   -0.0000000000
H        0.1307700000    0.0007740000    0.0000000000
H        0.1414880000   -0.0040390000   -0.0000000000
H        0.1308340000    0.0007710000    0.0000000000
H        0.1242990000   -0.0320780000   -0.0000000000
C       -0.0123300000    0.0825020000    0.0000000000
H        0.1415310000   -0.0040520000    0.0000000000
13   
Frame  11 IRC: Energy =  -286.8787950000 ; +0.3006 kcal/mol
C       -0.1026180000    0.6061380000   -0.0000000000
C       -0.1755180000   -0.0512720000    0.0000000000
C       -0.0126380000    0.0816490000   -0.0000000000
C       -0.1766920000   -0.0502080000    0.0000000000
C       -0.0992420000    0.5969170000   -0.0000000000
N       -0.2147490000   -0.1949680000   -0.0000000000
H        0.1245060000   -0.0323620000   -0.0000000000
H        0.1308150000    0.0007860000    0.0000000000
H        0.1415790000   -0.0040200000   -0.0000000000
H        0.1308110000    0.0007530000    0.0000000000
H        0.1241810000   -0.0318880000   -0.0000000000
C       -0.0120300000    0.0825240000    0.0000000000
H        0.1415950000   -0.0040490000    0.0000000000
13   
Frame  12 IRC: Energy =  -286.8784590000 ; +0.5114 kcal/mol
C       -0.1008000000    0.5983570000   -0.0000000000
C       -0.1779480000   -0.0509470000    0.0000000000
C       -0.0120310000    0.0825380000   -0.0000000000
C       -0.1783240000   -0.0511860000    0.0000000000
C       -0.1003610000    0.5988920000   -0.0000000000
N       -0.2136310000   -0.1904770000   -0.0000000000
H        0.1243900000   -0.0320210000   -0.0000000000
H        0.1310650000    0.0007450000    0.0000000000
H        0.1415490000   -0.0040600000   -0.0000000000
H        0.1311240000    0.0007600000    0.0000000000
H        0.1243970000   -0.0320220000   -0.0000000000
C       -0.0109670000    0.0835240000    0.0000000000
H        0.1415370000   -0.0041010000    0.0000000000
13   
Frame  13 IRC: Energy =  -286.8784280000 ; +0.5309 kcal/mol
C       -0.1020620000    0.6020200000   -0.0000000000
C       -0.1778550000   -0.0514350000    0.0000000000
C       -0.0119750000    0.0822090000   -0.0000000000
C       -0.1788130000   -0.0507050000    0.0000000000
C       -0.0990060000    0.5948800000   -0.0000000000
N       -0.2135560000   -0.1901330000   -0.0000000000
H        0.1245160000   -0.0322090000   -0.0000000000
H        0.1311150000    0.0007580000    0.0000000000
H        0.1415690000   -0.0040490000   -0.0000000000
H        0.1311000000    0.0007430000    0.0000000000
H        0.1242880000   -0.0318180000   -0.0000000000
C       -0.0108380000    0.0838520000    0.0000000000
H        0.1415170000   -0.0041120000    0.0000000000
13   
Frame  14 IRC: Energy =  -286.8779790000 ; +0.8126 kcal/mol
C       -0.1012860000    0.5958600000   -0.0000000000
C       -0.1807880000   -0.0512780000    0.0000000000
C       -0.0112020000    0.0825990000   -0.0000000000
C       -0.1811760000   -0.0514410000    0.0000000000
C       -0.0992810000    0.5944480000   -0.0000000000
N       -0.2122110000   -0.1848120000   -0.0000000000
H        0.1244540000   -0.0319750000   -0.0000000000
H        0.1314700000    0.0007100000    0.0000000000
H        0.1416450000   -0.0040660000   -0.0000000000
H        0.1314600000    0.0007420000    0.0000000000
H        0.1244770000   -0.0318250000   -0.0000000000
C       -0.0090660000    0.0852170000    0.0000000000
H        0.1415030000   -0.0041790000    0.0000000000
13   
Frame  15 IRC: Energy =  -286.8779320000 ; +0.8421 kcal/mol
C       -0.1026860000    0.5988010000   -0.0000000000
C       -0.1806190000   -0.0517690000    0.0000000000
C       -0.0113180000    0.0821840000   -0.0000000000
C       -0.1819050000   -0.0509790000    0.0000000000
C       -0.0976460000    0.5908800000   -0.0000000000
N       -0.2120570000   -0.1842320000   -0.0000000000
H        0.1245700000   -0.0321530000   -0.0000000000
H        0.1315910000    0.0007210000    0.0000000000
H        0.1416620000   -0.0040540000   -0.0000000000
H        0.1313870000    0.0007240000    0.0000000000
H        0.1243600000   -0.0316260000   -0.0000000000
C       -0.0088150000    0.0857000000    0.0000000000
H        0.1414740000   -0.0041960000    0.0000000000
13   
Frame  16 IRC: Energy =  -286.8773740000 ; +1.1923 kcal/mol
C       -0.1025150000    0.5941420000   -0.0000000000
C       -0.1840040000   -0.0517060000   -0.0000000000
C       -0.0103580000    0.0822300000   -0.0000000000
C       -0.1844710000   -0.0516620000    0.0000000000
C       -0.0974200000    0.5885380000   -0.0000000000
N       -0.2105920000   -0.1784880000   -0.0000000000
H        0.1245420000   -0.0319950000   -0.0000000000
H        0.1319650000    0.0006620000    0.0000000000
H        0.1417860000   -0.0040520000   -0.0000000000
H        0.1318160000    0.0007240000    0.0000000000
H        0.1245750000   -0.0315450000   -0.0000000000
C       -0.0067640000    0.0874300000    0.0000000000
H        0.1414400000   -0.0042800000    0.0000000000
13   
Frame  17 IRC: Energy =  -286.8773050000 ; +1.2356 kcal/mol
C       -0.1037550000    0.5950900000   -0.0000000000
C       -0.1838490000   -0.0520350000   -0.0000000000
C       -0.0106570000    0.0818620000   -0.0000000000
C       -0.1853150000   -0.0513910000    0.0000000000
C       -0.0959850000    0.5867230000   -0.0000000000
N       -0.2103280000   -0.1777180000   -0.0000000000
H        0.1246100000   -0.0321100000   -0.0000000000
H        0.1321460000    0.0006660000    0.0000000000
H        0.1418010000   -0.0040430000   -0.0000000000
H        0.1317290000    0.0007120000    0.0000000000
H        0.1244950000   -0.0314140000   -0.0000000000
C       -0.0063170000    0.0879590000    0.0000000000
H        0.1414250000   -0.0043000000    0.0000000000
13   
Frame  18 IRC: Energy =  -286.8766270000 ; +1.6610 kcal/mol
C       -0.1045600000    0.5933850000   -0.0000000000
C       -0.1874970000   -0.0522080000   -0.0000000000
C       -0.0094350000    0.0814410000   -0.0000000000
C       -0.1881220000   -0.0518490000    0.0000000000
C       -0.0947110000    0.5813610000   -0.0000000000
N       -0.2088200000   -0.1717960000   -0.0000000000
H        0.1246550000   -0.0320890000   -0.0000000000
H        0.1325400000    0.0006020000    0.0000000000
H        0.1419710000   -0.0040160000   -0.0000000000
H        0.1321720000    0.0007080000    0.0000000000
H        0.1246880000   -0.0311880000   -0.0000000000
C       -0.0042350000    0.0900480000    0.0000000000
H        0.1413540000   -0.0043990000    0.0000000000
13   
Frame  19 IRC: Energy =  -286.8765240000 ; +1.7257 kcal/mol
C       -0.1056270000    0.5924030000   -0.0000000000
C       -0.1873930000   -0.0523620000   -0.0000000000
C       -0.0099060000    0.0811150000   -0.0000000000
C       -0.1890390000   -0.0517730000    0.0000000000
C       -0.0935470000    0.5813020000   -0.0000000000
N       -0.2084170000   -0.1708420000   -0.0000000000
H        0.1246670000   -0.0321440000   -0.0000000000
H        0.1327630000    0.0005970000    0.0000000000
H        0.1419810000   -0.0040090000   -0.0000000000
H        0.1320900000    0.0007020000    0.0000000000
H        0.1246540000   -0.0311290000   -0.0000000000
C       -0.0035740000    0.0905600000    0.0000000000
H        0.1413500000   -0.0044200000    0.0000000000
13   
Frame  20 IRC: Energy =  -286.8757270000 ; +2.2258 kcal/mol
C       -0.1073060000    0.5938190000   -0.0000000000
C       -0.1911830000   -0.0527600000   -0.0000000000
C       -0.0083350000    0.0803170000   -0.0000000000
C       -0.1919770000   -0.0519950000    0.0000000000
C       -0.0912530000    0.5730390000   -0.0000000000
N       -0.2069640000   -0.1650140000   -0.0000000000
H        0.1248000000   -0.0322540000   -0.0000000000
H        0.1331690000    0.0005310000    0.0000000000
H        0.1422040000   -0.0039620000   -0.0000000000
H        0.1325290000    0.0006930000    0.0000000000
H        0.1248090000   -0.0307630000   -0.0000000000
C       -0.0017520000    0.0928770000    0.0000000000
H        0.1412600000   -0.0045290000    0.0000000000
13   
Frame  21 IRC: Energy =  -286.8755660000 ; +2.3268 kcal/mol
C       -0.1081390000    0.5907090000   -0.0000000000
C       -0.1912070000   -0.0527330000   -0.0000000000
C       -0.0089350000    0.0800280000   -0.0000000000
C       -0.1930410000   -0.0521170000    0.0000000000
C       -0.0903600000    0.5749090000   -0.0000000000
N       -0.2064190000   -0.1638290000   -0.0000000000
H        0.1247510000   -0.0322400000   -0.0000000000
H        0.1334270000    0.0005150000   -0.0000000000
H        0.1422070000   -0.0039550000   -0.0000000000
H        0.1324580000    0.0006930000    0.0000000000
H        0.1248370000   -0.0307840000   -0.0000000000
C       -0.0008420000    0.0933550000    0.0000000000
H        0.1412630000   -0.0045500000    0.0000000000
13   
Frame  22 IRC: Energy =  -286.8746400000 ; +2.9079 kcal/mol
C       -0.1106760000    0.5954620000   -0.0000000000
C       -0.1950240000   -0.0533410000   -0.0000000000
C       -0.0070250000    0.0789330000   -0.0000000000
C       -0.1959680000   -0.0520980000    0.0000000000
C       -0.0871110000    0.5636160000   -0.0000000000
N       -0.2050380000   -0.1581880000   -0.0000000000
H        0.1249910000   -0.0324770000   -0.0000000000
H        0.1338460000    0.0004490000   -0.0000000000
H        0.1424990000   -0.0038930000   -0.0000000000
H        0.1328960000    0.0006780000    0.0000000000
H        0.1249300000   -0.0302750000   -0.0000000000
C        0.0005100000    0.0957980000    0.0000000000
H        0.1411680000   -0.0046650000    0.0000000000
13   
Frame  23 IRC: Energy =  -286.8743880000 ; +3.0660 kcal/mol
C       -0.1111940000    0.5900780000   -0.0000000000
C       -0.1953000000   -0.0531220000   -0.0000000000
C       -0.0076710000    0.0786690000   -0.0000000000
C       -0.1972830000   -0.0524160000    0.0000000000
C       -0.0864120000    0.5674700000   -0.0000000000
N       -0.2043670000   -0.1566880000   -0.0000000000
H        0.1248840000   -0.0323880000   -0.0000000000
H        0.1341300000    0.0004200000   -0.0000000000
H        0.1424990000   -0.0038810000   -0.0000000000
H        0.1328430000    0.0006830000    0.0000000000
H        0.1250320000   -0.0303750000   -0.0000000000
C        0.0016590000    0.0962390000    0.0000000000
H        0.1411780000   -0.0046880000    0.0000000000
13   
Frame  24 IRC: Energy =  -286.8733110000 ; +3.7418 kcal/mol
C       -0.1145780000    0.5979990000   -0.0000000000
C       -0.1990240000   -0.0539020000   -0.0000000000
C       -0.0055380000    0.0773560000   -0.0000000000
C       -0.2001070000   -0.0521860000    0.0000000000
C       -0.0823390000    0.5533320000   -0.0000000000
N       -0.2030230000   -0.1512380000   -0.0000000000
H        0.1252490000   -0.0327330000   -0.0000000000
H        0.1345740000    0.0003550000   -0.0000000000
H        0.1428740000   -0.0038110000   -0.0000000000
H        0.1332930000    0.0006590000    0.0000000000
H        0.1250620000   -0.0297350000   -0.0000000000
C        0.0024690000    0.0987090000    0.0000000000
H        0.1410890000   -0.0048050000    0.0000000000
13   
Frame  25 IRC: Energy =  -286.8729260000 ; +3.9834 kcal/mol
C       -0.1147630000    0.5904020000   -0.0000000000
C       -0.1996330000   -0.0534660000   -0.0000000000
C       -0.0061470000    0.0771040000   -0.0000000000
C       -0.2017270000   -0.0526830000    0.0000000000
C       -0.0817460000    0.5590650000   -0.0000000000
N       -0.2022440000   -0.1493790000   -0.0000000000
H        0.1251010000   -0.0325710000   -0.0000000000
H        0.1348760000    0.0003090000   -0.0000000000
H        0.1428850000   -0.0037910000   -0.0000000000
H        0.1332670000    0.0006680000    0.0000000000
H        0.1252400000   -0.0299060000   -0.0000000000
C        0.0037870000    0.0990780000    0.0000000000
H        0.1411040000   -0.0048280000    0.0000000000
13   
Frame  26 IRC: Energy =  -286.8716620000 ; +4.7766 kcal/mol
C       -0.1188650000    0.6009120000   -0.0000000000
C       -0.2031790000   -0.0543400000   -0.0000000000
C       -0.0039860000    0.0756760000   -0.0000000000
C       -0.2044520000   -0.0522980000    0.0000000000
C       -0.0769730000    0.5425670000   -0.0000000000
N       -0.2009110000   -0.1440490000   -0.0000000000
H        0.1255950000   -0.0329830000    0.0000000000
H        0.1353540000    0.0002410000   -0.0000000000
H        0.1433630000   -0.0037170000   -0.0000000000
H        0.1337490000    0.0006340000    0.0000000000
H        0.1252180000   -0.0291610000   -0.0000000000
C        0.0040570000    0.1014640000    0.0000000000
H        0.1410310000   -0.0049450000    0.0000000000
13   
Frame  27 IRC: Energy =  -286.8711070000 ; +5.1249 kcal/mol
C       -0.1187530000    0.5911990000   -0.0000000000
C       -0.2040970000   -0.0536480000   -0.0000000000
C       -0.0044920000    0.0754550000   -0.0000000000
C       -0.2063800000   -0.0529560000    0.0000000000
C       -0.0765030000    0.5501870000   -0.0000000000
N       -0.2000980000   -0.1419400000   -0.0000000000
H        0.1254410000   -0.0327490000    0.0000000000
H        0.1356680000    0.0001780000   -0.0000000000
H        0.1434090000   -0.0036870000   -0.0000000000
H        0.1337570000    0.0006460000    0.0000000000
H        0.1254760000   -0.0293990000   -0.0000000000
C        0.0055140000    0.1016780000    0.0000000000
H        0.1410580000   -0.0049660000    0.0000000000
13   
Frame  28 IRC: Energy =  -286.8695670000 ; +6.0912 kcal/mol
C       -0.1232790000    0.6031260000   -0.0000000000
C       -0.2075300000   -0.0544160000   -0.0000000000
C       -0.0026330000    0.0739830000   -0.0000000000
C       -0.2092620000   -0.0524760000    0.0000000000
C       -0.0709940000    0.5321250000   -0.0000000000
N       -0.1987030000   -0.1364070000   -0.0000000000
H        0.1260540000   -0.0331700000    0.0000000000
H        0.1362070000    0.0000960000   -0.0000000000
H        0.1440320000   -0.0036120000   -0.0000000000
H        0.1343000000    0.0006000000    0.0000000000
H        0.1254330000   -0.0285840000   -0.0000000000
C        0.0053540000    0.1038140000    0.0000000000
H        0.1410230000   -0.0050800000    0.0000000000
13   
Frame  29 IRC: Energy =  -286.8688930000 ; +6.5142 kcal/mol
C       -0.1227290000    0.5912910000   -0.0000000000
C       -0.2081920000   -0.0535220000   -0.0000000000
C       -0.0032320000    0.0740500000   -0.0000000000
C       -0.2110750000   -0.0533500000    0.0000000000
C       -0.0708770000    0.5420830000   -0.0000000000
N       -0.1980870000   -0.1346450000   -0.0000000000
H        0.1259390000   -0.0328500000    0.0000000000
H        0.1364930000    0.0000230000   -0.0000000000
H        0.1440410000   -0.0035770000   -0.0000000000
H        0.1343160000    0.0006170000    0.0000000000
H        0.1257900000   -0.0289120000   -0.0000000000
C        0.0066320000    0.1038860000    0.0000000000
H        0.1409820000   -0.0050950000    0.0000000000
13   
Frame  30 IRC: Energy =  -286.8671350000 ; +7.6173 kcal/mol
C       -0.1272900000    0.6045660000   -0.0000000000
C       -0.2117420000   -0.0538590000   -0.0000000000
C       -0.0019590000    0.0724810000   -0.0000000000
C       -0.2144050000   -0.0525990000    0.0000000000
C       -0.0650390000    0.5226730000   -0.0000000000
N       -0.1967310000   -0.1289870000   -0.0000000000
H        0.1266280000   -0.0332500000    0.0000000000
H        0.1370940000   -0.0000770000   -0.0000000000
H        0.1449490000   -0.0035070000   -0.0000000000
H        0.1349470000    0.0005560000    0.0000000000
H        0.1256870000   -0.0280470000   -0.0000000000
C        0.0066900000    0.1052380000    0.0000000000
H        0.1411710000   -0.0051870000    0.0000000000
13   
Frame  31 IRC: Energy =  -286.8662600000 ; +8.1664 kcal/mol
C       -0.1265780000    0.5927700000   -0.0000000000
C       -0.2116060000   -0.0530570000   -0.0000000000
C       -0.0029560000    0.0730690000   -0.0000000000
C       -0.2157070000   -0.0537020000    0.0000000000
C       -0.0644330000    0.5320270000   -0.0000000000
N       -0.1963000000   -0.1272870000   -0.0000000000
H        0.1266680000   -0.0329040000    0.0000000000
H        0.1373670000   -0.0001570000   -0.0000000000
H        0.1448430000   -0.0034710000   -0.0000000000
H        0.1349840000    0.0005730000    0.0000000000
H        0.1261220000   -0.0283470000   -0.0000000000
C        0.0067560000    0.1057010000    0.0000000000
H        0.1408410000   -0.0052160000    0.0000000000
13   
Frame  32 IRC: Energy =  -286.8642680000 ; +9.4164 kcal/mol
C       -0.1303650000    0.6026530000   -0.0000000000
C       -0.2153920000   -0.0522550000   -0.0000000000
C       -0.0028680000    0.0715470000   -0.0000000000
C       -0.2201150000   -0.0528360000    0.0000000000
C       -0.0593360000    0.5161050000   -0.0000000000
N       -0.1951810000   -0.1217340000   -0.0000000000
H        0.1273520000   -0.0331290000    0.0000000000
H        0.1381050000   -0.0002940000   -0.0000000000
H        0.1461150000   -0.0034060000   -0.0000000000
H        0.1356950000    0.0005060000    0.0000000000
H        0.1260810000   -0.0276200000   -0.0000000000
C        0.0084670000    0.1057300000    0.0000000000
H        0.1414430000   -0.0052670000    0.0000000000
13   
Frame  33 IRC: Energy =  -286.8630310000 ; +10.1926 kcal/mol
C       -0.1296850000    0.5921470000   -0.0000000000
C       -0.2144590000   -0.0513400000   -0.0000000000
C       -0.0044410000    0.0725440000   -0.0000000000
C       -0.2212240000   -0.0539710000    0.0000000000
C       -0.0578780000    0.5230090000   -0.0000000000
N       -0.1948980000   -0.1196860000   -0.0000000000
H        0.1276230000   -0.0327770000    0.0000000000
H        0.1384740000   -0.0003910000   -0.0000000000
H        0.1460620000   -0.0033620000   -0.0000000000
H        0.1358210000    0.0005180000    0.0000000000
H        0.1265680000   -0.0278260000   -0.0000000000
C        0.0071540000    0.1064420000    0.0000000000
H        0.1408830000   -0.0053070000    0.0000000000
13   
Frame  34 IRC: Energy =  -286.8606710000 ; +11.6736 kcal/mol
C       -0.1324120000    0.5949380000   -0.0000000000
C       -0.2171990000   -0.0487880000   -0.0000000000
C       -0.0073260000    0.0717100000   -0.0000000000
C       -0.2269660000   -0.0533040000    0.0000000000
C       -0.0537180000    0.5128290000   -0.0000000000
N       -0.1942750000   -0.1140070000   -0.0000000000
H        0.1283230000   -0.0327110000    0.0000000000
H        0.1394780000   -0.0005770000   -0.0000000000
H        0.1476250000   -0.0033130000   -0.0000000000
H        0.1366200000    0.0004550000    0.0000000000
H        0.1267400000   -0.0273020000   -0.0000000000
C        0.0113310000    0.1054030000    0.0000000000
H        0.1417780000   -0.0053330000    0.0000000000
13   
Frame  35 IRC: Energy =  -286.8575820000 ; +13.6119 kcal/mol
C       -0.1329990000    0.5762340000   -0.0000000000
C       -0.2133980000   -0.0445070000   -0.0000000000
C       -0.0121440000    0.0742610000   -0.0000000000
C       -0.2324210000   -0.0542420000    0.0000000000
C       -0.0512990000    0.5190020000   -0.0000000000
N       -0.1950990000   -0.1076900000   -0.0000000000
H        0.1291970000   -0.0319280000    0.0000000000
H        0.1409740000   -0.0008250000   -0.0000000000
H        0.1488310000   -0.0032600000   -0.0000000000
H        0.1372260000    0.0004570000    0.0000000000
H        0.1273000000   -0.0274490000   -0.0000000000
C        0.0121690000    0.1053450000    0.0000000000
H        0.1416640000   -0.0053990000    0.0000000000
13   
Frame  36 IRC: Energy =  -286.8537110000 ; +16.0410 kcal/mol
C       -0.1359020000    0.5568250000   -0.0000000000
C       -0.2077180000   -0.0379120000   -0.0000000000
C       -0.0194590000    0.0776060000   -0.0000000000
C       -0.2394080000   -0.0542580000    0.0000000000
C       -0.0500330000    0.5213430000   -0.0000000000
N       -0.1962720000   -0.0993040000   -0.0000000000
H        0.1302400000   -0.0309590000    0.0000000000
H        0.1428960000   -0.0011360000   -0.0000000000
H        0.1509180000   -0.0032210000   -0.0000000000
H        0.1380740000    0.0004330000    0.0000000000
H        0.1276430000   -0.0274460000   -0.0000000000
C        0.0165400000    0.1034510000    0.0000000000
H        0.1424800000   -0.0054220000    0.0000000000
13   
Frame  37 IRC: Energy =  -286.8489070000 ; +19.0556 kcal/mol
C       -0.1409820000    0.5235070000   -0.0000000000
C       -0.1960120000   -0.0281510000   -0.0000000000
C       -0.0238300000    0.0880690000   -0.0000000000
C       -0.2491980000   -0.0532130000    0.0000000000
C       -0.0525510000    0.5261180000   -0.0000000000
N       -0.1994960000   -0.0876910000   -0.0000000000
H        0.1315120000   -0.0290680000    0.0000000000
H        0.1452980000   -0.0015340000   -0.0000000000
H        0.1541450000   -0.0031660000   -0.0000000000
H        0.1387840000    0.0004240000    0.0000000000
H        0.1273150000   -0.0276920000   -0.0000000000
C        0.0207840000    0.0976260000    0.0000000000
H        0.1442330000   -0.0052280000    0.0000000000
13   
Frame  38 IRC: Energy =  -286.8424920000 ; +23.0811 kcal/mol
C       -0.1490170000    0.4821850000   -0.0000000000
C       -0.1794760000   -0.0148520000   -0.0000000000
C       -0.0277510000    0.1094970000   -0.0000000000
C       -0.2596870000   -0.0508340000    0.0000000000
C       -0.0569110000    0.5252710000   -0.0000000000
N       -0.2033750000   -0.0726240000   -0.0000000000
H        0.1329380000   -0.0262010000    0.0000000000
H        0.1477510000   -0.0020980000   -0.0000000000
H        0.1577920000   -0.0029280000   -0.0000000000
H        0.1396270000    0.0003300000    0.0000000000
H        0.1265670000   -0.0277840000   -0.0000000000
C        0.0248110000    0.0844800000    0.0000000000
H        0.1467310000   -0.0044420000    0.0000000000
13   