13   
Frame   0 IRC: Energy =  -286.8792740000 ; +0.0000 kcal/mol
C        1.5412921303    0.4405422263   -0.3489462594
C        0.8430675380   -0.8003856837    0.0637601250
C       -0.5873749817   -1.0214460335   -0.3966521166
C       -1.1163760657    0.3124700636    0.1115571339
C       -0.4329709969    1.5399148747   -0.3621540183
N        0.8834476993    1.5789169815   -0.5670830006
H        2.6230327411    0.4505011624   -0.4599555363
H        1.4538394952   -1.6924799523    0.1881294443
H       -1.0744974989   -1.8578082869   -0.8768057403
H       -2.1888754130    0.3793423391    0.2833070765
H       -1.0065226366    2.4381921126   -0.5786348635
C       -0.3493482713   -0.6528633211    0.9983202368
H       -0.5887137401   -1.1148964824    1.9451575180
13   
Frame   1 IRC: Energy =  -286.8792710000 ; +0.0019 kcal/mol
C        1.5411100630    0.4403873063   -0.3485934645
C        0.8429963304   -0.8006254092    0.0635012245
C       -0.5873684909   -1.0215641992   -0.3966971234
C       -1.1162345021    0.3127862805    0.1115344927
C       -0.4328427167    1.5401035378   -0.3621848887
N        0.8830521618    1.5790566633   -0.5672145238
H        2.6232348338    0.4506866837   -0.4593340865
H        1.4536551279   -1.6923938556    0.1877190645
H       -1.0746792775   -1.8576195846   -0.8767709813
H       -2.1889419117    0.3794330952    0.2837376563
H       -1.0064203691    2.4376852530   -0.5792198054
C       -0.3490770567   -0.6529553829    0.9984480841
H       -0.5884841921   -1.1149803883    1.9450743514
13   
Frame   2 IRC: Energy =  -286.8792480000 ; +0.0163 kcal/mol
C        1.5416158683    0.4408562601   -0.3482441590
C        0.8428380670   -0.8008481633    0.0616749462
C       -0.5884041816   -1.0207829082   -0.3966813335
C       -1.1160611305    0.3130634519    0.1138185772
C       -0.4332498384    1.5395960087   -0.3635629683
N        0.8835585792    1.5789557417   -0.5667694097
H        2.6240513612    0.4522522162   -0.4527841894
H        1.4531831537   -1.6936657695    0.1839057292
H       -1.0767848921   -1.8564277745   -0.8767887431
H       -2.1881652545    0.3805129331    0.2875539306
H       -1.0077800173    2.4361869138   -0.5856732682
C       -0.3483709247   -0.6534336734    0.9983686570
H       -0.5864307902   -1.1162652366    1.9451822312
13   
Frame   3 IRC: Energy =  -286.8792430000 ; +0.0195 kcal/mol
C        1.5415892266    0.4407033935   -0.3483572597
C        0.8427477484   -0.8010594565    0.0616534746
C       -0.5883848919   -1.0206152299   -0.3967162419
C       -1.1158481978    0.3134824239    0.1142662184
C       -0.4333336000    1.5397545356   -0.3640877721
N        0.8831943931    1.5791913449   -0.5665034338
H        2.6245288508    0.4524769478   -0.4517358296
H        1.4530514565   -1.6937684595    0.1832529103
H       -1.0772106111   -1.8563962705   -0.8768701437
H       -2.1882222735    0.3806639709    0.2881797975
H       -1.0078551260    2.4357134274   -0.5866382661
C       -0.3481291195   -0.6536153961    0.9982287783
H       -0.5861278556   -1.1165312314    1.9453277678
13   
Frame   4 IRC: Energy =  -286.8792200000 ; +0.0339 kcal/mol
C        1.5416525106    0.4412071800   -0.3466770005
C        0.8424124630   -0.8013475300    0.0595627478
C       -0.5892762869   -1.0200771240   -0.3967342048
C       -1.1156562602    0.3135520244    0.1157080743
C       -0.4333081962    1.5392316979   -0.3642959577
N        0.8835137914    1.5787416729   -0.5671103574
H        2.6243703933    0.4541364541   -0.4459889347
H        1.4524128845   -1.6946120642    0.1797721345
H       -1.0789583207   -1.8550203050   -0.8766703553
H       -2.1873178985    0.3816031496    0.2916284653
H       -1.0084696337    2.4337521588   -0.5923667350
C       -0.3472690471   -0.6537832243    0.9982465226
H       -0.5841063993   -1.1173840902    1.9449256008
13   
Frame   5 IRC: Energy =  -286.8792160000 ; +0.0364 kcal/mol
C        1.5418503250    0.4415068028   -0.3465488104
C        0.8421643506   -0.8013539688    0.0593532532
C       -0.5892564824   -1.0198219913   -0.3964984053
C       -1.1157366471    0.3134178047    0.1158480476
C       -0.4335598951    1.5390056724   -0.3641669071
N        0.8839745043    1.5785139669   -0.5672308960
H        2.6241160242    0.4542963296   -0.4454464688
H        1.4524304915   -1.6947786464    0.1794668934
H       -1.0791596446   -1.8549623779   -0.8766918915
H       -2.1871105600    0.3817037433    0.2919232042
H       -1.0085886413    2.4336868804   -0.5929221401
C       -0.3471804583   -0.6537096292    0.9979388176
H       -0.5839433667   -1.1175045867    1.9449753033
13   
Frame   6 IRC: Energy =  -286.8790220000 ; +0.1581 kcal/mol
C        1.5424932526    0.4426977022   -0.3411697686
C        0.8406611121   -0.8039918642    0.0479985990
C       -0.5943933869   -1.0163968864   -0.3970418004
C       -1.1134292184    0.3168903524    0.1267644092
C       -0.4341309410    1.5376804948   -0.3706972805
N        0.8831450905    1.5786289617   -0.5668219684
H        2.6279325639    0.4634681705   -0.4071026374
H        1.4484806044   -1.7000807899    0.1567782860
H       -1.0912068306   -1.8477300226   -0.8760630702
H       -2.1831460461    0.3878447101    0.3139747975
H       -1.0137887101    2.4209095910   -0.6289377376
C       -0.3413173878   -0.6560841608    0.9979673000
H       -0.5713001024   -1.1238362588    1.9443508713
13   
Frame   7 IRC: Energy =  -286.8790120000 ; +0.1644 kcal/mol
C        1.5427569009    0.4432239586   -0.3411128627
C        0.8404443291   -0.8039664839    0.0475740258
C       -0.5945931140   -1.0161483426   -0.3969698761
C       -1.1135336692    0.3170050530    0.1272283083
C       -0.4345095767    1.5372475934   -0.3707635902
N        0.8837971406    1.5782765638   -0.5668083696
H        2.6277685030    0.4638014161   -0.4056275117
H        1.4484594265   -1.7004714638    0.1559422538
H       -1.0916893571   -1.8475111765   -0.8760677432
H       -2.1827741540    0.3880733996    0.3147603908
H       -1.0141478838    2.4206844120   -0.6303649773
C       -0.3411371111   -0.6560961875    0.9977964047
H       -0.5708414342   -1.1241187420    1.9444135474
13   
Frame   8 IRC: Energy =  -286.8788980000 ; +0.2359 kcal/mol
C        1.5427919567    0.4434444159   -0.3383092826
C        0.8397579676   -0.8052061580    0.0423492837
C       -0.5968132482   -1.0145195421   -0.3972591407
C       -1.1122986376    0.3184388206    0.1319131319
C       -0.4344721477    1.5368535200   -0.3736569417
N        0.8829716176    1.5784507814   -0.5668446671
H        2.6290271218    0.4679278210   -0.3881349874
H        1.4464913539   -1.7026020510    0.1455760775
H       -1.0970878247   -1.8441588278   -0.8755935452
H       -2.1809459624    0.3908392900    0.3246854304
H       -1.0161149389    2.4143064959   -0.6463550781
C       -0.3383380715   -0.6570313137    0.9977245042
H       -0.5649691868   -1.1267432523    1.9439052151
13   
Frame   9 IRC: Energy =  -286.8788830000 ; +0.2454 kcal/mol
C        1.5430763957    0.4440765571   -0.3381273169
C        0.8395244681   -0.8051369157    0.0417343782
C       -0.5970560416   -1.0142404844   -0.3971637883
C       -1.1123872329    0.3186525949    0.1324063917
C       -0.4348628583    1.5363462097   -0.3737030265
N        0.8836919163    1.5779602526   -0.5668712238
H        2.6287190401    0.4683587438   -0.3862170141
H        1.4464159005   -1.7030561169    0.1444856667
H       -1.0976990885   -1.8438454273   -0.8755652315
H       -2.1804937160    0.3911262873    0.3257092157
H       -1.0165085227    2.4138924595   -0.6481592359
C       -0.3380581470   -0.6570525200    0.9975137501
H       -0.5643621136   -1.1270816404    1.9439574346
13   
Frame  10 IRC: Energy =  -286.8788120000 ; +0.2899 kcal/mol
C        1.5430139711    0.4438574569   -0.3366843883
C        0.8391944060   -0.8059729557    0.0388716853
C       -0.5983068166   -1.0133685033   -0.3973719776
C       -1.1115890465    0.3193780208    0.1350755851
C       -0.4346966227    1.5363950632   -0.3755689306
N        0.8828234145    1.5784093752   -0.5667801531
H        2.6297097306    0.4706778878   -0.3763867927
H        1.4452594149   -1.7041545395    0.1386670743
H       -1.1007244954   -1.8420072969   -0.8752913012
H       -2.1796161186    0.3926754172    0.3312498712
H       -1.0175129945    2.4102256530   -0.6570087904
C       -0.3364904365   -0.6576050627    0.9975634583
H       -0.5610644064   -1.1285105160    1.9436646595
13   
Frame  11 IRC: Energy =  -286.8787950000 ; +0.3006 kcal/mol
C        1.5428966712    0.4430784066   -0.3363649389
C        0.8393233957   -0.8061591427    0.0385758869
C       -0.5982756772   -1.0128356685   -0.3970062329
C       -1.1112079020    0.3188997866    0.1354864358
C       -0.4342456962    1.5370297720   -0.3760873307
N        0.8818667436    1.5789852753   -0.5667536888
H        2.6301029370    0.4709416661   -0.3753532269
H        1.4450374228   -1.7040959320    0.1380173645
H       -1.1011678761   -1.8420084426   -0.8753766800
H       -2.1797735669    0.3928885440    0.3318831222
H       -1.0174295925    2.4095349661   -0.6578715461
C       -0.3363857989   -0.6575261795    0.9970841421
H       -0.5607410603   -1.1287330514    1.9437666929
13   
Frame  12 IRC: Energy =  -286.8784590000 ; +0.5114 kcal/mol
C        1.5436715129    0.4456855093   -0.3313089720
C        0.8370606435   -0.8084924645    0.0261386068
C       -0.6036213592   -1.0097929307   -0.3980573832
C       -1.1093331629    0.3225758121    0.1447483118
C       -0.4357078212    1.5343143792   -0.3822208098
N        0.8828963966    1.5777201111   -0.5666834628
H        2.6306031433    0.4798931700   -0.3341795577
H        1.4409543387   -1.7095913137    0.1140698389
H       -1.1134751994   -1.8356239086   -0.8729422874
H       -2.1746880653    0.3987632231    0.3526613330
H       -1.0220536544    2.3966010328   -0.6915831688
C       -0.3298202228   -0.6590688924    0.9964617636
H       -0.5464865497   -1.1329837279    1.9428957876
13   
Frame  13 IRC: Energy =  -286.8784280000 ; +0.5309 kcal/mol
C        1.5435261259    0.4449942305   -0.3307738147
C        0.8372396048   -0.8087487596    0.0252246897
C       -0.6040059690   -1.0094365183   -0.3980610002
C       -1.1089371152    0.3224196736    0.1455081311
C       -0.4352258887    1.5348612069   -0.3830678089
N        0.8818746857    1.5782364272   -0.5666421856
H        2.6310455946    0.4805506515   -0.3312428844
H        1.4405192984   -1.7097595968    0.1123315430
H       -1.1143944282   -1.8352357806   -0.8728034745
H       -2.1745918345    0.3992148627    0.3541921629
H       -1.0221603526    2.3953268183   -0.6938685447
C       -0.3294405277   -0.6591702482    0.9964277029
H       -0.5454491937   -1.1332529673    1.9427754833
13   
Frame  14 IRC: Energy =  -286.8779790000 ; +0.8126 kcal/mol
C        1.5439639933    0.4470222992   -0.3263565904
C        0.8347424321   -0.8114168518    0.0115173823
C       -0.6095010290   -1.0066121724   -0.3990912152
C       -1.1068011149    0.3255354024    0.1533052334
C       -0.4365636569    1.5322684620   -0.3901706100
N        0.8824650379    1.5772676186   -0.5666107497
H        2.6298345703    0.4893832501   -0.2863078512
H        1.4361069625   -1.7152381117    0.0867438134
H       -1.1273248329   -1.8306403933   -0.8685066520
H       -2.1693774568    0.4049052177    0.3737526100
H       -1.0260909874    2.3828878656   -0.7249929925
C       -0.3222303243   -0.6599256758    0.9945531230
H       -0.5292235938   -1.1354369106    1.9421644990
13   
Frame  15 IRC: Energy =  -286.8779320000 ; +0.8421 kcal/mol
C        1.5432604453    0.4462593462   -0.3258524078
C        0.8348809223   -0.8113558423    0.0103048851
C       -0.6099615296   -1.0063068615   -0.3991599156
C       -1.1064859894    0.3252498767    0.1541424110
C       -0.4360952594    1.5331406270   -0.3913602887
N        0.8814906307    1.5776346050   -0.5665122423
H        2.6304390689    0.4901661737   -0.2825335439
H        1.4356808864   -1.7156490447    0.0845995144
H       -1.1284450086   -1.8303074834   -0.8681646333
H       -2.1691299392    0.4054151309    0.3754068774
H       -1.0260902650    2.3813241295   -0.7273663502
C       -0.3216949146   -0.6600146932    0.9944719261
H       -0.5278490478   -1.1355559640    1.9420237677
13   
Frame  16 IRC: Energy =  -286.8773740000 ; +1.1923 kcal/mol
C        1.5439223441    0.4479869764   -0.3222838841
C        0.8322346674   -0.8145710559   -0.0043019052
C       -0.6155781903   -1.0042671068   -0.4004151273
C       -1.1042913783    0.3280360500    0.1597066787
C       -0.4373570523    1.5302839577   -0.3989221437
N        0.8818745352    1.5769209492   -0.5666170202
H        2.6265627643    0.4982678543   -0.2352549572
H        1.4311668286   -1.7208583491    0.0582740705
H       -1.1413045160   -1.8280634840   -0.8616581219
H       -2.1639140706    0.4106313119    0.3926294125
H       -1.0293265432    2.3709588715   -0.7543442358
C       -0.3140864556   -0.6599946964    0.9916727739
H       -0.5099029332   -1.1353312787    1.9415144597
13   
Frame  17 IRC: Energy =  -286.8773050000 ; +1.2356 kcal/mol
C        1.5425920073    0.4473312452   -0.3219096181
C        0.8322862766   -0.8143610206   -0.0058219281
C       -0.6161214093   -1.0040636813   -0.4005483177
C       -1.1039640589    0.3277359444    0.1604800198
C       -0.4371887183    1.5313007413   -0.4003602589
N        0.8812698605    1.5770517052   -0.5665048707
H        2.6272333982    0.4991538553   -0.2304776736
H        1.4307227348   -1.7214639792    0.0556647442
H       -1.1426128875   -1.8278688206   -0.8610018313
H       -2.1635497216    0.4111911862    0.3943435263
H       -1.0292186819    2.3692641780   -0.7566975512
C       -0.3133378739   -0.6600214147    0.9914281578
H       -0.5081109261   -1.1352499394    1.9414056015
13   
Frame  18 IRC: Energy =  -286.8766270000 ; +1.6610 kcal/mol
C        1.5434511625    0.4485796613   -0.3190676030
C        0.8295976628   -0.8178736424   -0.0210472457
C       -0.6217081597   -1.0028614801   -0.4019960917
C       -1.1018619704    0.3300490569    0.1638333749
C       -0.4380523352    1.5285255369   -0.4082748995
N        0.8811974461    1.5767986259   -0.5665945523
H        2.6203860764    0.5060758268   -0.1820052826
H        1.4263454177   -1.7263112055    0.0291697994
H       -1.1549771416   -1.8280970918   -0.8522765511
H       -2.1583826698    0.4158564980    0.4088766210
H       -1.0316938559    2.3614413864   -0.7792881680
C       -0.3054973399   -0.6592937937    0.9878834220
H       -0.4888042930   -1.1328893786    1.9407871766
13   
Frame  19 IRC: Energy =  -286.8765240000 ; +1.7257 kcal/mol
C        1.5415778644    0.4480780232   -0.3188833009
C        0.8295374274   -0.8177155784   -0.0229756627
C       -0.6224061776   -1.0027773912   -0.4022194329
C       -1.1014084412    0.3296952863    0.1644963538
C       -0.4382070686    1.5295841814   -0.4099843606
N        0.8809878767    1.5767592223   -0.5664710247
H        2.6209057800    0.5070526472   -0.1757881237
H        1.4258314481   -1.7270633055    0.0258728486
H       -1.1565119939   -1.8281025793   -0.8511321382
H       -2.1579148344    0.4164955127    0.4106859649
H       -1.0315000146    2.3597298550   -0.7816977192
C       -0.3045076882   -0.6592020643    0.9874314617
H       -0.4863841782   -1.1325338095    1.9406651340
13   
Frame  20 IRC: Energy =  -286.8757270000 ; +2.2258 kcal/mol
C        1.5426392037    0.4488768647   -0.3164847391
C        0.8269124473   -0.8212384390   -0.0382980779
C       -0.6277078862   -1.0023139159   -0.4037730666
C       -1.0995520179    0.3316455586    0.1658340389
C       -0.4385826081    1.5270926843   -0.4178567250
N        0.8804679244    1.5770260727   -0.5663486416
H        2.6111891416    0.5124120228   -0.1280227078
H        1.4218300893   -1.7314237910    0.0000520268
H       -1.1679419743   -1.8305690396   -0.8405355294
H       -2.1528991401    0.4205055337    0.4224083478
H       -1.0332191818    2.3545246891   -0.8000859327
C       -0.2966225125   -0.6579192668    0.9833232071
H       -0.4665134853   -1.1286189736    1.9397877995
13   
Frame  21 IRC: Energy =  -286.8755660000 ; +2.3268 kcal/mol
C        1.5403204621    0.4486075410   -0.3165246000
C        0.8267951321   -0.8212173100   -0.0408837952
C       -0.6287315872   -1.0023342908   -0.4041153843
C       -1.0988794154    0.3311696905    0.1663297683
C       -0.4391264916    1.5281756668   -0.4199280053
N        0.8807183012    1.5768021531   -0.5661711634
H        2.6111689253    0.5134519555   -0.1196062559
H        1.4212016744   -1.7323546952   -0.0043287043
H       -1.1698183026   -1.8309111865   -0.8386194290
H       -2.1522615785    0.4212637106    0.4243854490
H       -1.0329449741    2.3528658770   -0.8027203119
C       -0.2953300505   -0.6576291973    0.9825840545
H       -0.4631120952   -1.1278899148    1.9395983775
13   
Frame  22 IRC: Energy =  -286.8746400000 ; +2.9079 kcal/mol
C        1.5414796390    0.4489342521   -0.3142544848
C        0.8241667906   -0.8246146910   -0.0561201397
C       -0.6335505836   -1.0024836172   -0.4057663797
C       -1.0973531119    0.3329139844    0.1660234397
C       -0.4389093387    1.5260735888   -0.4275364333
N        0.8797125126    1.5777287342   -0.5656158213
H        2.5989179532    0.5171442110   -0.0733867014
H        1.4176459608   -1.7361709903   -0.0292125427
H       -1.1801961807   -1.8352257495   -0.8263686945
H       -2.1474669218    0.4245832036    0.4336331789
H       -1.0339447534    2.3499208522   -0.8176824142
C       -0.2873935559   -0.6559134931    0.9780038564
H       -0.4431084104   -1.1228902853    1.9382831366
13   
Frame  23 IRC: Energy =  -286.8743880000 ; +3.0660 kcal/mol
C        1.5388181375    0.4489928081   -0.3145151150
C        0.8240944202   -0.8248108415   -0.0596655317
C       -0.6350383406   -1.0026088452   -0.4062601707
C       -1.0963836792    0.3322975510    0.1662084255
C       -0.4398796671    1.5272599380   -0.4300743323
N        0.8804532624    1.5772926457   -0.5652727388
H        2.5978009094    0.5181242512   -0.0620213883
H        1.4168479442   -1.7372672542   -0.0350782366
H       -1.1825158681   -1.8361403863   -0.8232948064
H       -2.1466247496    0.4254588656    0.4357888829
H       -1.0335339510    2.3483905558   -0.8206227225
C       -0.2856918488   -0.6553338971    0.9768596206
H       -0.4383465691   -1.1216553911    1.9379481133
13   
Frame  24 IRC: Energy =  -286.8733110000 ; +3.7418 kcal/mol
C        1.5399328695    0.4488611884   -0.3121262929
C        0.8213092380   -0.8279871300   -0.0749015155
C       -0.6393257263   -1.0032511825   -0.4080973294
C       -1.0952333603    0.3339106367    0.1645837625
C       -0.4390670447    1.5255605848   -0.4373350819
N        0.8790016799    1.5790384317   -0.5639964415
H        2.5833215861    0.5200805575   -0.0173325901
H        1.4137281886   -1.7406054367   -0.0591794871
H       -1.1918967272   -1.8419843899   -0.8093129241
H       -2.1420183161    0.4280267073    0.4430302507
H       -1.0339009365    2.3473480557   -0.8330631987
C       -0.2776021617   -0.6531917477    0.9717605912
H       -0.4182492893   -1.1158062753    1.9359702569
13   
Frame  25 IRC: Energy =  -286.8729260000 ; +3.9834 kcal/mol
C        1.5370010972    0.4493105995   -0.3125458947
C        0.8213541304   -0.8284843602   -0.0796393870
C       -0.6413014373   -1.0034974698   -0.4087963435
C       -1.0939368607    0.3331500326    0.1642738739
C       -0.4404645156    1.5269969043   -0.4403899630
N        0.8802230077    1.5784533998   -0.5632850286
H        2.5805653739    0.5207335269   -0.0026416299
H        1.4127197050   -1.7417848273   -0.0667575957
H       -1.1946613117   -1.8437268212   -0.8046473383
H       -2.1409892512    0.4289296083    0.4452859820
H       -1.0332579785    2.3460670740   -0.8362692227
C       -0.2753896828   -0.6522216908    0.9700749013
H       -0.4118622763   -1.1139259761    1.9353376461
13   
Frame  26 IRC: Energy =  -286.8716620000 ; +4.7766 kcal/mol
C        1.5379570956    0.4488481242   -0.3098340307
C        0.8183251998   -0.8313560065   -0.0951343773
C       -0.6450995094   -1.0044750534   -0.4110014405
C       -1.0931702230    0.3346869755    0.1615139323
C       -0.4390933677    1.5256999313   -0.4472453434
N        0.8784068615    1.5810965678   -0.5609179876
H        2.5639760981    0.5207529240    0.0408273060
H        1.4099363542   -1.7447895407   -0.0902815537
H       -1.2031061504   -1.8508745631   -0.7886141072
H       -2.1364772193    0.4305355248    0.4509546852
H       -1.0331328046    2.3466623462   -0.8469448003
C       -0.2669810093   -0.6495191869    0.9642821040
H       -0.3915413255   -1.1072680433    1.9323956133
13   
Frame  27 IRC: Energy =  -286.8711070000 ; +5.1249 kcal/mol
C        1.5348198179    0.4496547616   -0.3102581915
C        0.8185071366   -0.8321492971   -0.1011538131
C       -0.6474543812   -1.0048085778   -0.4119784218
C       -1.0915235532    0.3337557655    0.1605584309
C       -0.4409936069    1.5275754677   -0.4507445497
N        0.8801203281    1.5805343683   -0.5595717817
H        2.5592315745    0.5206818666    0.0585313133
H        1.4086906727   -1.7459536392   -0.0994220136
H       -1.2061556721   -1.8535804742   -0.7820008961
H       -2.1353300479    0.4312319925    0.4531767071
H       -1.0321617179    2.3457225029   -0.8502548528
C       -0.2642073904   -0.6480226987    0.9618952547
H       -0.3835431602   -1.1046420380    1.9312228142
13   
Frame  28 IRC: Energy =  -286.8695670000 ; +6.0912 kcal/mol
C        1.5354350996    0.4491933201   -0.3071603332
C        0.8152685847   -0.8347842487   -0.1176713216
C       -0.6508479360   -1.0058651293   -0.4149041315
C       -1.0910686687    0.3352646370    0.1566157874
C       -0.4391216984    1.5268980188   -0.4572901952
N        0.8780306467    1.5841068536   -0.5554660543
H        2.5401937195    0.5182097247    0.1021551242
H        1.4058783798   -1.7489706891   -0.1229063819
H       -1.2138152436   -1.8620089138   -0.7629326772
H       -2.1307049186    0.4313853628    0.4577908620
H       -1.0318516586    2.3477741776   -0.8599239424
C       -0.2550292842   -0.6443163640    0.9549035350
H       -0.3623670224   -1.0968867498    1.9267897286
13   
Frame  29 IRC: Energy =  -286.8688930000 ; +6.5142 kcal/mol
C        1.5322918822    0.4501448546   -0.3075405263
C        0.8158614171   -0.8355524903   -0.1241134473
C       -0.6534664235   -1.0064131221   -0.4163636410
C       -1.0891422838    0.3342657863    0.1551016460
C       -0.4417373054    1.5293258792   -0.4606728781
N        0.8802804982    1.5837414073   -0.5534399663
H        2.5344119444    0.5171072202    0.1197835652
H        1.4044706399   -1.7500280283   -0.1318834086
H       -1.2163875613   -1.8649742998   -0.7551356534
H       -2.1297020949    0.4314717840    0.4596722283
H       -1.0306800570    2.3471270923   -0.8627311234
C       -0.2520840354   -0.6424397004    0.9525146758
H       -0.3541166206   -1.0937763831    1.9248085291
13   
Frame  30 IRC: Energy =  -286.8671350000 ; +7.6173 kcal/mol
C        1.5327997746    0.4499053889   -0.3038300540
C        0.8123674801   -0.8380767779   -0.1408042222
C       -0.6554740036   -1.0064848011   -0.4198351150
C       -1.0890369538    0.3356877735    0.1503522278
C       -0.4391911080    1.5291741564   -0.4663675284
N        0.8776739482    1.5880344237   -0.5474938368
H        2.5142136331    0.5119016492    0.1606168568
H        1.4013615856   -1.7533754183   -0.1535233241
H       -1.2228507555   -1.8738342065   -0.7339955799
H       -2.1250075228    0.4296025611    0.4634072599
H       -1.0309041294    2.3502888230   -0.8712614684
C       -0.2424449292   -0.6374113358    0.9436185285
H       -0.3335070192   -1.0854122362    1.9191162555
13   
Frame  31 IRC: Energy =  -286.8662600000 ; +8.1664 kcal/mol
C        1.5299419129    0.4507888330   -0.3037553848
C        0.8134443963   -0.8387394243   -0.1485019645
C       -0.6587239740   -1.0078251581   -0.4227012725
C       -1.0871474357    0.3352884060    0.1480067344
C       -0.4420529119    1.5319796465   -0.4697513000
N        0.8798678373    1.5882824390   -0.5443557733
H        2.5066746062    0.5092998277    0.1794231617
H        1.3994845745   -1.7547938733   -0.1628718447
H       -1.2248320169   -1.8767369283   -0.7239388699
H       -2.1237246066    0.4286135748    0.4652197617
H       -1.0299726699    2.3500997638   -0.8740680841
C       -0.2386805204   -0.6350821467    0.9418833224
H       -0.3242791919   -1.0811749600    1.9154115136
13   
Frame  32 IRC: Energy =  -286.8642680000 ; +9.4164 kcal/mol
C        1.5296649306    0.4509050427   -0.2992085163
C        0.8101376862   -0.8415841596   -0.1650337456
C       -0.6587997648   -1.0057695342   -0.4267954417
C       -1.0867045672    0.3362335521    0.1426093434
C       -0.4401230576    1.5330147266   -0.4747711806
N        0.8772964520    1.5925974403   -0.5364875839
H        2.4865590717    0.5012740866    0.2165933410
H        1.3956991488   -1.7592887595   -0.1818996783
H       -1.2298590365   -1.8850477496   -0.7009848729
H       -2.1190041946    0.4244371075    0.4685824277
H       -1.0314790897    2.3536958430   -0.8814252234
C       -0.2286764716   -0.6281723379    0.9302462966
H       -0.3047111073   -1.0722952580    1.9085748340
13   
Frame  33 IRC: Energy =  -286.8630310000 ; +10.1926 kcal/mol
C        1.5269481286    0.4515585585   -0.2977795003
C        0.8114522171   -0.8426170472   -0.1748547624
C       -0.6621429491   -1.0072971678   -0.4317840095
C       -1.0850351339    0.3365609843    0.1390198360
C       -0.4428623252    1.5362051743   -0.4782607393
N        0.8788522426    1.5937150356   -0.5315220453
H        2.4765435125    0.4962518068    0.2376424669
H        1.3929692211   -1.7620511864   -0.1919741526
H       -1.2310966119   -1.8875847699   -0.6871996496
H       -2.1169832788    0.4216360618    0.4706710447
H       -1.0318106591    2.3543766435   -0.8846835080
C       -0.2231118019   -0.6245398736    0.9283275694
H       -0.2937225621   -1.0662142198    1.9023974498
13   
Frame  34 IRC: Energy =  -286.8606710000 ; +11.6736 kcal/mol
C        1.5252368017    0.4513845439   -0.2914124369
C        0.8093645542   -0.8466545328   -0.1910524395
C       -0.6600247294   -1.0023097176   -0.4376526322
C       -1.0837718191    0.3379754999    0.1330487044
C       -0.4429987772    1.5389003587   -0.4832472284
N        0.8757869443    1.5968559742   -0.5212930082
H        2.4571402826    0.4850828310    0.2709993246
H        1.3886969385   -1.7694118470   -0.2082538087
H       -1.2337606502   -1.8933772664   -0.6616465937
H       -2.1117084970    0.4149265635    0.4741550351
H       -1.0361452952    2.3583301722   -0.8910822997
C       -0.2130150079   -0.6156116610    0.9138522935
H       -0.2748007453   -1.0560909187    1.8935850898
13   
Frame  35 IRC: Energy =  -286.8575820000 ; +13.6119 kcal/mol
C        1.5161554207    0.4497452845   -0.2783138625
C        0.8106520689   -0.8533818785   -0.2103934309
C       -0.6599549785   -0.9974197712   -0.4522396830
C       -1.0806721064    0.3401210425    0.1254040301
C       -0.4485073993    1.5444213252   -0.4886780824
N        0.8736721663    1.5967495585   -0.5102521932
H        2.4371895654    0.4710812710    0.3038581523
H        1.3844396090   -1.7807842057   -0.2234285665
H       -1.2317787875   -1.8929327333   -0.6310209869
H       -2.1054404018    0.4063791404    0.4781227181
H       -1.0424577668    2.3611399844   -0.8966112685
C       -0.1992857606   -0.6035694736    0.9043308762
H       -0.2540116293   -1.0415495443    1.8792222971
13   
Frame  36 IRC: Energy =  -286.8537110000 ; +16.0410 kcal/mol
C        1.5054796976    0.4467275628   -0.2610016119
C        0.8109724552   -0.8623758175   -0.2293343114
C       -0.6565207451   -0.9883596581   -0.4678878302
C       -1.0775637102    0.3428868962    0.1181777590
C       -0.4540952134    1.5493520647   -0.4936230067
N        0.8689829249    1.5951221804   -0.4989739918
H        2.4173407997    0.4559248471    0.3337843298
H        1.3811042860   -1.7945909867   -0.2372404398
H       -1.2284442384   -1.8907442297   -0.5994246270
H       -2.0981517396    0.3971095000    0.4820016366
H       -1.0509576962    2.3645144622   -0.9019839600
C       -0.1847937373   -0.5891550014    0.8903462221
H       -0.2333530831   -1.0264118201    1.8651598312
13   
Frame  37 IRC: Energy =  -286.8489070000 ; +19.0556 kcal/mol
C        1.4857346960    0.4414455711   -0.2320671934
C        0.8087695228   -0.8753641437   -0.2453067703
C       -0.6535134823   -0.9778214888   -0.4952524443
C       -1.0738895698    0.3435038456    0.1130169693
C       -0.4610212543    1.5525938236   -0.4949921766
N        0.8635308593    1.5896829376   -0.4943691508
H        2.4022835518    0.4441465778    0.3521111766
H        1.3807290093   -1.8080740531   -0.2456678250
H       -1.2237076871   -1.8862622771   -0.5751944427
H       -2.0918717860    0.3904358766    0.4841111802
H       -1.0575586953    2.3652872671   -0.9046939514
C       -0.1626270776   -0.5674469127    0.8838062212
H       -0.2168580869   -1.0121270240    1.8544984072
13   
Frame  38 IRC: Energy =  -286.8424920000 ; +23.0811 kcal/mol
C        1.4629604074    0.4357949905   -0.1985704337
C        0.8037212793   -0.8898785224   -0.2579899247
C       -0.6519205140   -0.9684333469   -0.5293723993
C       -1.0704015940    0.3424492238    0.1095848220
C       -0.4672139567    1.5543610071   -0.4941211565
N        0.8584833443    1.5838176250   -0.4943253481
H        2.3909211630    0.4356715365    0.3640466281
H        1.3816418400   -1.8191165894   -0.2511529706
H       -1.2205239499   -1.8836057508   -0.5578937974
H       -2.0876310451    0.3859904984    0.4851519237
H       -1.0616838711    2.3645599179   -0.9059233365
C       -0.1348901146   -0.5417557192    0.8825532411
H       -0.2034629886   -0.9998548706    1.8480127520
13   