
Running Job 1 of 1 irc_product.in
qchem irc_product.in_4917.0 ./irc_product.d/ 1
/home/leeping/opt/qchem/5.0.2-openmp/exe/qcprog.exe_s irc_product.in_4917.0 ./irc_product.d/
Check license passed

                  Welcome to Q-Chem
     A Quantum Leap Into The Future Of Chemistry


 Q-Chem 5.0, Q-Chem, Inc., Pleasanton, CA (2017)

 Yihan Shao,  Zhengting Gan,  E. Epifanovsky,  A. T. B. Gilbert,  M. Wormit,  
 J. Kussmann,  A. W. Lange,  A. Behn,  Jia Deng,  Xintian Feng,  D. Ghosh,  
 M. Goldey,  P. R. Horn,  L. D. Jacobson,  I. Kaliman,  T. Kus,  A. Landau,  
 Jie Liu,  E. I. Proynov,  R. M. Richard,  R. P. Steele,  E. J. Sundstrom,  
 H. L. Woodcock III,  P. M. Zimmerman,  D. Zuev,  B. Albrecht,  E. Alguire,  
 S. A. Baeppler,  D. Barton,  Z. Benda,  Y. A. Bernard,  E. J. Berquist,  
 K. B. Bravaya,  H. Burton,  D. Casanova,  Chun-Min Chang,  Yunqing Chen,  
 A. Chien,  K. D. Closser,  M. P. Coons,  S. Dasgupta,  A. L. Dempwolff,  
 M. Diedenhofen,  Hainam Do,  R. G. Edgar,  Po-Tung Fang,  S. Fatehi,  
 Qingguo Feng,  J. Fosso-Tande,  Qinghui Ge,  A. Ghysels,  G. Gidofalvi,  
 J. Gomes,  J. Gonthier,  A. Gunina,  M. W. D. Hanson-Heine,  
 P. H. P. Harbach,  A. W. Hauser,  J. E. Herr,  E. G. Hohenstein,  
 Z. C. Holden,  Kerwin Hui,  T.-C. Jagau,  Hyunjun Ji,  B. Kaduk,  
 K. Khistyaev,  Jaehoon Kim,  P. Klunzinger,  K. Koh,  D. Kosenkov,  
 L. Koulias,  T. Kowalczyk,  C. M. Krauter,  A. Kunitsa,  Ka Un Lao,  
 A. Laurent,  K. V. Lawler,  Joonho Lee,  D. Lefrancois,  S. Lehtola,  
 D. S. Levine,  Yi-Pei Li,  You-Sheng Lin,  Fenglai Liu,  E. Livshits,  
 A. Luenser,  P. Manohar,  E. Mansoor,  S. F. Manzer,  Shan-Ping Mao,  
 Yuezhi Mao,  N. Mardirossian,  A. V. Marenich,  T. Markovich,  
 L. A. Martinez-Martinez,  S. A. Maurer,  N. J. Mayhall,  S. C. McKenzie,  
 J.-M. Mewes,  A. F. Morrison,  J. W. Mullinax,  K. Nanda,  
 T. S. Nguyen-Beck,  R. Olivares-Amaya,  J. A. Parkhill,  T. M. Perrine,  
 F. Plasser,  S. Prager,  A. Prociuk,  E. Ramos,  D. R. Rehn,  F. Rob,  
 M. Schneider,  N. Sergueev,  S. M. Sharada,  S. Sharma,  D. W. Small,  
 T. Stauch,  T. Stein,  Yu-Chuan Su,  A. J. W. Thom,  A. Tkatchenko,  
 T. Tsuchimochi,  L. Vogt,  O. Vydrov,  M. A. Watson,  J. Wenzel,  
 M. de Wergifosse,  T. A. Wesolowski,  A. White,  J. Witte,  A. Yamada,  
 Jun Yang,  K. Yao,  S. Yeganeh,  S. R. Yost,  Zhi-Qiang You,  A. Zech,  
 Igor Ying Zhang,  Xing Zhang,  Yan Zhao,  Ying Zhu,  B. R. Brooks,  
 G. K. L. Chan,  C. J. Cramer,  M. S. Gordon,  W. J. Hehre,  A. Klamt,  
 M. W. Schmidt,  C. D. Sherrill,  D. G. Truhlar,  A. Aspuru-Guzik,  R. Baer,  
 A. T. Bell,  N. A. Besley,  Jeng-Da Chai,  R. A. DiStasio Jr.,  A. Dreuw,  
 B. D. Dunietz,  T. R. Furlani,  Chao-Ping Hsu,  Yousung Jung,  Jing Kong,  
 D. S. Lambrecht,  WanZhen Liang,  C. Ochsenfeld,  V. A. Rassolov,  
 L. V. Slipchenko,  J. E. Subotnik,  T. Van Voorhis,  J. M. Herbert,  
 A. I. Krylov,  P. M. W. Gill,  M. Head-Gordon

 Contributors to earlier versions of Q-Chem not listed above: 
 R. D. Adamson,  B. Austin,  J. Baker,  G. J. O. Beran,  K. Brandhorst,  
 S. T. Brown,  E. F. C. Byrd,  A. K. Chakraborty,  C.-L. Cheng,  
 Siu Hung Chien,  D. M. Chipman,  D. L. Crittenden,  H. Dachsel,  
 R. J. Doerksen,  A. D. Dutoi,  L. Fusti-Molnar,  W. A. Goddard III,  
 A. Golubeva-Zadorozhnaya,  S. R. Gwaltney,  G. Hawkins,  A. Heyden,  
 S. Hirata,  G. Kedziora,  F. J. Keil,  C. Kelley,  Jihan Kim,  R. A. King,  
 R. Z. Khaliullin,  P. P. Korambath,  W. Kurlancheek,  A. M. Lee,  M. S. Lee,  
 S. V. Levchenko,  Ching Yeh Lin,  D. Liotard,  R. C. Lochan,  I. Lotan,  
 P. E. Maslen,  N. Nair,  D. P. O'Neill,  D. Neuhauser,  E. Neuscamman,  
 C. M. Oana,  R. Olson,  B. Peters,  R. Peverati,  P. A. Pieniazek,  
 Y. M. Rhee,  J. Ritchie,  M. A. Rohrdanz,  E. Rosta,  N. J. Russ,  
 H. F. Schaefer III,  N. E. Schultz,  N. Shenvi,  A. C. Simmonett,  A. Sodt,  
 D. Stuck,  K. S. Thanthiriwatte,  V. Vanovschi,  Tao Wang,  A. Warshel,  
 C. F. Williams,  Q. Wu,  X. Xu,  W. Zhang

 Please cite Q-Chem as follows:
 Y. Shao et al., Mol. Phys. 113, 184-215 (2015)
 DOI: 10.1080/00268976.2014.952696

 Q-Chem 5.0.2 for Intel X86 EM64T Linux

 Parts of Q-Chem use Armadillo 5.200.1 (Boston Tea Smuggler).
 http://arma.sourceforge.net/

 Q-Chem begins on Thu Mar  3 01:34:20 2022  

Host: 
0

     Scratch files written to ./irc_product.d//
 Dec517 15110_ 26548  26544 5633   
Processing $rem in /home/leeping/opt/qchem/5.0.2-openmp/config/preferences.
 MEM_STATIC 2000
 MEM_TOTAL  8000
 SYMMETRY   OFF
 SYM_IGNORE TRUE 

Checking the input file for inconsistencies... 	...done.

--------------------------------------------------------------
User input:
--------------------------------------------------------------
$molecule
0 2
C        1.2483716090    0.3417904151    0.1798459084
C        0.6741668978   -1.0428831529   -0.2404276722
C       -0.6673300102   -0.9026537412   -0.8239893823
C       -1.0495599049    0.2183465473    0.1545745935
C       -0.4960311444    1.4838652168   -0.4861582462
N        0.7849735175    1.5268870835   -0.5117809031
H        2.2821494015    0.3351545634    0.5080963326
H        1.3384978317   -1.8977749160   -0.3040037827
H       -1.3142607339   -1.7226840535   -1.1111572136
H       -2.0623535969    0.2483765045    0.5565025893
H       -1.1035669276    2.2279371494   -0.9963151658
C        0.1708727986   -0.2632089231    1.0143515785
H        0.1940702618   -0.5531526933    2.0604613636
$end

$rem
method                b3lyp
basis                 6-31+g(d,p)
unrestricted          true
symmetry              off
sym_ignore            true
incdft                false
incfock               0
scf_convergence       8
thresh                14
jobtype               sp
scf_guess             read
scf_algorithm         diis
max_scf_cycles        100
scf_final_print       1
$end

--------------------------------------------------------------
 ----------------------------------------------------------------
             Standard Nuclear Orientation (Angstroms)
    I     Atom           X                Y                Z
 ----------------------------------------------------------------
    1      C       1.2483716090     0.3417904151     0.1798459084
    2      C       0.6741668978    -1.0428831529    -0.2404276722
    3      C      -0.6673300102    -0.9026537412    -0.8239893823
    4      C      -1.0495599049     0.2183465473     0.1545745935
    5      C      -0.4960311444     1.4838652168    -0.4861582462
    6      N       0.7849735175     1.5268870835    -0.5117809031
    7      H       2.2821494015     0.3351545634     0.5080963326
    8      H       1.3384978317    -1.8977749160    -0.3040037827
    9      H      -1.3142607339    -1.7226840535    -1.1111572136
   10      H      -2.0623535969     0.2483765045     0.5565025893
   11      H      -1.1035669276     2.2279371494    -0.9963151658
   12      C       0.1708727986    -0.2632089231     1.0143515785
   13      H       0.1940702618    -0.5531526933     2.0604613636
 ----------------------------------------------------------------
 Nuclear Repulsion Energy =   282.0685354773 hartrees
 There are       25 alpha and       24 beta electrons
 Requested basis set is 6-31+G(d,p)
 There are 53 shells and 163 basis functions

 Total QAlloc Memory Limit   8000 MB
 Mega-Array Size      1956 MB
 MEM_STATIC part      2000 MB

                       Distance Matrix (Angstroms)
             C (  1)   C (  2)   C (  3)   C (  4)   C (  5)   N (  6)
   C (  2)  1.556811
   C (  3)  2.495243  1.469633
   C (  4)  2.301384  2.172087  1.536336
   C (  5)  2.188798  2.795390  2.416391  1.522652
   N (  6)  1.448288  2.586432  2.847688  2.349855  1.281983
   H (  7)  1.084661  2.246082  3.464975  3.352448  3.166444  2.168389
   H (  8)  2.293008  1.084536  2.298695  3.223520  3.851515  3.475323
   H (  9)  3.534944  2.274674  1.083252  2.332326  3.367801  3.914811
   H ( 10)  3.333391  3.129056  2.275241  1.090045  2.250986  3.298953
   H ( 11)  3.236127  3.798680  3.165533  2.316445  1.087659  2.071914
   C ( 12)  1.491116  1.560663  2.119191  1.568620  2.397615  2.431182
   H ( 13)  2.334350  2.400920  3.030547  2.402963  3.333310  3.360381
             H (  7)   H (  8)   H (  9)   H ( 10)   H ( 11)   C ( 12)
   H (  8)  2.556552
   H (  9)  4.448691  2.778359
   H ( 10)  4.345639  4.112448  2.688087
   H ( 11)  4.160403  4.844014  3.957902  2.692429
   C ( 12)  2.252071  2.402752  2.975479  2.336374  3.445691
   H ( 13)  2.749364  2.951003  3.701625  2.827683  4.331536  1.085795

 
 A cutoff of  1.0D-14 yielded   1402 shell pairs
 There are     13508 function pairs
 
 -------------------------------------------------------
 OpenMP Integral Computing Module                       
 Release: version 1.0, May 2013, Q-Chem Inc. Pittsburgh 
 -------------------------------------------------------
 Integral Job Info:
 Integral job number is                      11
 Integral operator is                         1
 short-range coefficients                     0
 long-range coefficients              100000000
 Omega coefficients                           0
 if combine SR and LR in K                    0
 Integral screening is                        0
 Integral computing path is                   2
 max size of driver memory is            800000
 size of driver memory is                593474
 size of scratch memory is              2361544
 max col of scratch BK array               1296
 max len of scratch array in speh3          155
 max len of scratch index in speh4           18
 max int batch size is                      520
 min int batch size is                       52
 fixed nKL is                                52
 max L of basis functions is                  2
 order of int derivative is                   0
 number of shells is                         53
 number of basis is                         163
 number of cartesian basis is               163
 number of contracted shell pairs          1402
 number of primitive shell pairs           4833
 maxK2 (contraction) of shell pair           36
 max number of K2 of shell pair               1
 max number of CS2 of shell pair            126
 max number of PS2 of shell pair            714
 mem total for path MDJ                  535308
 -------------------------------------------------------
 Smallest overlap matrix eigenvalue = 2.55E-05

 Scale SEOQF with 1.000000e-01/1.000000e-01/1.000000e-01

 Standard Electronic Orientation quadrupole field applied
 Nucleus-field energy     =     0.0000000031 hartrees
 Guess MOs from SCF MO coefficient file
 Reading MOs from coefficient file
 Reading MOs from coefficient file
 An unrestricted hybrid HF-DFT SCF calculation will be
 performed using Pulay DIIS extrapolation
 Exchange:     0.2000 Hartree-Fock + 0.0800 Slater + 0.7200 B88
 Correlation:  0.1900 VWN1RPA + 0.8100 LYP
 Using SG-1 standard quadrature grid
 SCF converges when DIIS error is below 1.0E-08
Using Q-Chem read-in guess as SCF_GUESS READ specified.

 using 4 threads for integral computing
 -------------------------------------------------------
 OpenMP Integral computing Module                
 Release: version 1.0, May 2013, Q-Chem Inc. Pittsburgh 
 -------------------------------------------------------
 -------------------------------------------------------
 OpenMP BLAS3 based DFT computing Module                
 Release: version 1.0, May 2013, Q-Chem Inc. Pittsburgh 
 -------------------------------------------------------
 ---------------------------------------
  Cycle       Energy         DIIS Error
 ---------------------------------------
    1    -286.8568809931      4.60E-10
    2    -286.8568809931      8.82E-10 Convergence criterion met
 ---------------------------------------
 One-Electron    Energy =  -944.4814812049
 Total Coulomb   Energy =   417.1941692338
 Alpha Exchange  Energy =    -4.0229450586
 Beta  Exchange  Energy =    -3.9277203731
 DFT   Exchange  Energy =   -31.5753108932
 DFT Correlation Energy =    -2.1121281774
 Nuclear Repu.   Energy =   282.0685354804
 Nuclear Attr.   Energy = -1228.6303684885
 Kinetic         Energy =   284.1488872836
 <S^2> = 0.7556
 SCF time:  CPU 10.30 s  wall 2.74 s
 Final Alpha MO Eigenvalues
            1           2           3           4           5           6
    1 -14.3342285 -10.2334196 -10.2309592 -10.2232722 -10.2209546 -10.2198144
            7           8           9          10          11          12
    1 -10.2110690  -0.9795848  -0.8673638  -0.7594892  -0.6734919  -0.6148257
           13          14          15          16          17          18
    1  -0.5827062  -0.5488577  -0.5179573  -0.4645497  -0.4497076  -0.4199022
           19          20          21          22          23          24
    1  -0.4100596  -0.3685826  -0.3441769  -0.3172371  -0.2820087  -0.2705942
           25          26          27          28          29          30
    1  -0.1802015  -0.0208761  -0.0009871   0.0153161   0.0206658   0.0291612
 Final Beta MO Eigenvalues
            1           2           3           4           5           6
    1 -14.3336318 -10.2328446 -10.2306978 -10.2213259 -10.2204593 -10.2199516
            7           8           9          10          11          12
    1 -10.1986702  -0.9762422  -0.8614455  -0.7528527  -0.6610935  -0.6108343
           13          14          15          16          17          18
    1  -0.5786862  -0.5438937  -0.5114550  -0.4577858  -0.4459364  -0.4152972
           19          20          21          22          23          24
    1  -0.4058900  -0.3605272  -0.3401191  -0.3044135  -0.2752436  -0.2663521
           25          26          27          28          29
    1  -0.0600042  -0.0116888  -0.0005111   0.0153309   0.0218168
 SCF   energy in the final basis set = -286.85688099
 Total energy in the final basis set = -286.85688099
 
 --------------------------------------------------------------
 
                    Orbital Energies (a.u.)
 --------------------------------------------------------------
 
 Alpha MOs
 -- Occupied --
-14.334 -10.233 -10.231 -10.223 -10.221 -10.220 -10.211  -0.980
 -0.867  -0.759  -0.673  -0.615  -0.583  -0.549  -0.518  -0.465
 -0.450  -0.420  -0.410  -0.369  -0.344  -0.317  -0.282  -0.271
 -0.180
 -- Virtual --
 -0.021  -0.001   0.015   0.021   0.029   0.045   0.049   0.061
  0.071   0.073   0.080   0.092   0.103   0.107   0.110   0.119
  0.121   0.137   0.143   0.161   0.163   0.175   0.178   0.185
  0.187   0.197   0.212   0.218   0.224   0.241   0.246   0.254
  0.261   0.271   0.284   0.298   0.306   0.320   0.329   0.343
  0.354   0.382   0.420   0.460   0.620   0.656   0.666   0.673
  0.691   0.711   0.724   0.745   0.752   0.757   0.784   0.794
  0.802   0.809   0.859   0.894   0.915   0.938   0.958   0.981
  0.999   1.013   1.044   1.059   1.084   1.086   1.125   1.169
  1.211   1.242   1.263   1.391   1.411   1.433   1.482   1.512
  1.576   1.602   1.644   1.674   1.734   1.773   1.809   1.839
  1.889   1.924   1.936   2.012   2.028   2.078   2.111   2.152
  2.156   2.220   2.248   2.298   2.321   2.361   2.366   2.369
  2.392   2.442   2.453   2.463   2.489   2.510   2.545   2.558
  2.580   2.615   2.633   2.635   2.691   2.700   2.743   2.820
  2.828   2.903   2.993   3.029   3.094   3.268   3.314   3.355
  3.512   3.533   3.691   4.177   4.417   4.461   4.584   4.601
  4.659   4.852
 
 Beta MOs
 -- Occupied --
-14.334 -10.233 -10.231 -10.221 -10.220 -10.220 -10.199  -0.976
 -0.861  -0.753  -0.661  -0.611  -0.579  -0.544  -0.511  -0.458
 -0.446  -0.415  -0.406  -0.361  -0.340  -0.304  -0.275  -0.266
 -- Virtual --
 -0.060  -0.012  -0.001   0.015   0.022   0.032   0.045   0.050
  0.061   0.071   0.077   0.083   0.094   0.104   0.108   0.111
  0.121   0.124   0.139   0.146   0.161   0.164   0.177   0.179
  0.186   0.189   0.197   0.212   0.223   0.227   0.243   0.249
  0.256   0.261   0.274   0.289   0.299   0.310   0.322   0.331
  0.348   0.359   0.385   0.425   0.465   0.624   0.664   0.668
  0.693   0.703   0.714   0.727   0.751   0.755   0.768   0.787
  0.797   0.805   0.813   0.863   0.897   0.917   0.943   0.961
  0.984   1.001   1.016   1.046   1.062   1.087   1.093   1.135
  1.175   1.217   1.247   1.268   1.395   1.413   1.439   1.485
  1.515   1.579   1.617   1.648   1.678   1.741   1.782   1.814
  1.849   1.894   1.931   1.941   2.019   2.032   2.086   2.123
  2.156   2.162   2.233   2.254   2.303   2.323   2.364   2.367
  2.373   2.396   2.451   2.457   2.470   2.492   2.517   2.549
  2.562   2.590   2.621   2.638   2.641   2.695   2.704   2.745
  2.822   2.833   2.909   2.995   3.033   3.096   3.269   3.315
  3.358   3.513   3.535   3.696   4.178   4.436   4.464   4.588
  4.604   4.663   4.857
 --------------------------------------------------------------
 
          Ground-State Mulliken Net Atomic Charges

     Atom                 Charge (a.u.)    Spin (a.u.)
  --------------------------------------------------------
      1 C                    -0.252823       0.014526
      2 C                    -0.105850      -0.102074
      3 C                    -0.112598       1.000886
      4 C                    -0.108467      -0.087405
      5 C                    -0.011886      -0.001439
      6 N                    -0.177880       0.027133
      7 H                     0.144883       0.003285
      8 H                     0.140047       0.000399
      9 H                     0.136877      -0.040005
     10 H                     0.131446       0.008429
     11 H                     0.131855       0.001607
     12 C                    -0.050835       0.166968
     13 H                     0.135231       0.007690
  --------------------------------------------------------
  Sum of atomic charges =     0.000000
  Sum of spin   charges =     1.000000

 -----------------------------------------------------------------
                    Cartesian Multipole Moments
 -----------------------------------------------------------------
    Charge (ESU x 10^10)
                 0.0000
    Dipole Moment (Debye)
         X      -1.3049      Y      -1.9599      Z       1.7163
       Tot       2.9137
    Quadrupole Moments (Debye-Ang)
        XX     -38.6892     XY      -4.5087     YY     -43.5323
        XZ       2.0763     YZ       0.8478     ZZ     -43.0211
    Octopole Moments (Debye-Ang^2)
       XXX      -9.2571    XXY     -10.0610    XYY     -11.8785
       YYY     -29.3729    XXZ       6.6972    XYZ       3.1558
       YYZ       2.6475    XZZ      -4.5360    YZZ      -8.4735
       ZZZ      19.6902
    Hexadecapole Moments (Debye-Ang^3)
      XXXX    -230.4581   XXXY      -9.7813   XXYY     -94.2980
      XYYY     -27.4032   YYYY    -325.9898   XXXZ      -8.0716
      XXYZ       8.1426   XYYZ       5.6729   YYYZ      18.0077
      XXZZ     -69.4195   XYZZ      -5.4258   YYZZ     -79.8785
      XZZZ     -12.6650   YZZZ       9.2818   ZZZZ    -160.5657
 -----------------------------------------------------------------
 Mayer SCF Bond Order, atomic valence on the diagonal:

            1           2           3           4           5           6
    1   3.9423260   0.9078439   0.0006208  -0.0039247   0.0253075   1.0359290
    2   0.9078439   3.8099393   1.1301189  -0.0474605   0.0498575  -0.0297263
    3   0.0006208   1.1301189   3.2892887   1.0382452   0.0708234   0.0534251
    4  -0.0039247  -0.0474605   1.0382452   3.7989655   0.8855969  -0.0251799
    5   0.0253075   0.0498575   0.0708234   0.8855969   3.7520022   1.7180691
    6   1.0359290  -0.0297263   0.0534251  -0.0251799   1.7180691   2.7214200
    7   0.9334721  -0.0031114   0.0124466   0.0024454   0.0068464  -0.0208093
    8   0.0394710   0.8439212   0.0285267   0.0133136  -0.0012775  -0.0000941
    9   0.0011051   0.0401140   0.8815661   0.0102012   0.0153495   0.0050658
   10  -0.0069944   0.0089647   0.0286014   0.8789945  -0.0035638   0.0145655
   11   0.0192589  -0.0113886   0.0331969  -0.0511205   0.9528555  -0.0204741
   12   0.9549321   0.8534008   0.0329357   1.0344035   0.0342079  -0.0153467
   13   0.0353046   0.0674051  -0.0212180   0.0634508  -0.0020701   0.0059959
            7           8           9          10          11          12
    1   0.9334721   0.0394710   0.0011051  -0.0069944   0.0192589   0.9549321
    2  -0.0031114   0.8439212   0.0401140   0.0089647  -0.0113886   0.8534008
    3   0.0124466   0.0285267   0.8815661   0.0286014   0.0331969   0.0329357
    4   0.0024454   0.0133136   0.0102012   0.8789945  -0.0511205   1.0344035
    5   0.0068464  -0.0012775   0.0153495  -0.0035638   0.9528555   0.0342079
    6  -0.0208093  -0.0000941   0.0050658   0.0145655  -0.0204741  -0.0153467
    7   0.9479082  -0.0000460   0.0006610   0.0011600   0.0022054   0.0122414
    8  -0.0000460   0.9542142   0.0004736   0.0021606   0.0005241   0.0265704
    9   0.0006610   0.0004736   0.9541324   0.0007274   0.0001244  -0.0016468
   10   0.0011600   0.0021606   0.0007274   0.9569516   0.0001414   0.0317821
   11   0.0022054   0.0005241   0.0001244   0.0001414   0.9471556   0.0212646
   12   0.0122414   0.0265704  -0.0016468   0.0317821   0.0212646   3.7955721
   13   0.0003967   0.0006705   0.0003911   0.0004124   0.0005676   0.8108271
           13
    1   0.0353046
    2   0.0674051
    3  -0.0212180
    4   0.0634508
    5  -0.0020701
    6   0.0059959
    7   0.0003967
    8   0.0006705
    9   0.0003911
   10   0.0004124
   11   0.0005676
   12   0.8108271
   13   0.9621337


Archival summary:
1\1\c8-90\SP\ProcedureUnspecified\6-31+G**\166(2)\hpark21\ThuMar301:34:242022ThuMar301:34:242022\0\\#,ProcedureUnspecified,6-31+G**,\\0,2\N\C,1,1.28198\H,2,1.08766,1,121.723\C,1,1.44829,2,106.422,3,-175.93,0\H,4,1.08466,1,117.031,2,-163.123,0\C,4,1.49112,1,111.596,2,-17.4309,0\H,6,1.0858,4,129.205,1,-128.935,0\C,2,1.52265,1,113.55,3,172.445,0\H,8,1.09005,2,118.036,1,157.412,0\C,8,1.53634,2,104.357,1,-67.7741,0\H,10,1.08325,8,124.934,2,-138.272,0\C,10,1.46963,8,92.5106,2,84.2896,0\H,12,1.08454,10,127.667,8,158.968,0\\\@

 Total job time:  3.95s(wall), 11.85s(cpu) 
 Thu Mar  3 01:34:24 2022

        *************************************************************
        *                                                           *
        *  Thank you very much for using Q-Chem.  Have a nice day.  *
        *                                                           *
        *************************************************************


