
Running Job 1 of 1 irc_product.in
qchem irc_product.in_3557.0 ./irc_product.d/ 1
/home/leeping/opt/qchem/5.0.2-openmp/exe/qcprog.exe_s irc_product.in_3557.0 ./irc_product.d/
Check license passed

                  Welcome to Q-Chem
     A Quantum Leap Into The Future Of Chemistry


 Q-Chem 5.0, Q-Chem, Inc., Pleasanton, CA (2017)

 Yihan Shao,  Zhengting Gan,  E. Epifanovsky,  A. T. B. Gilbert,  M. Wormit,  
 J. Kussmann,  A. W. Lange,  A. Behn,  Jia Deng,  Xintian Feng,  D. Ghosh,  
 M. Goldey,  P. R. Horn,  L. D. Jacobson,  I. Kaliman,  T. Kus,  A. Landau,  
 Jie Liu,  E. I. Proynov,  R. M. Richard,  R. P. Steele,  E. J. Sundstrom,  
 H. L. Woodcock III,  P. M. Zimmerman,  D. Zuev,  B. Albrecht,  E. Alguire,  
 S. A. Baeppler,  D. Barton,  Z. Benda,  Y. A. Bernard,  E. J. Berquist,  
 K. B. Bravaya,  H. Burton,  D. Casanova,  Chun-Min Chang,  Yunqing Chen,  
 A. Chien,  K. D. Closser,  M. P. Coons,  S. Dasgupta,  A. L. Dempwolff,  
 M. Diedenhofen,  Hainam Do,  R. G. Edgar,  Po-Tung Fang,  S. Fatehi,  
 Qingguo Feng,  J. Fosso-Tande,  Qinghui Ge,  A. Ghysels,  G. Gidofalvi,  
 J. Gomes,  J. Gonthier,  A. Gunina,  M. W. D. Hanson-Heine,  
 P. H. P. Harbach,  A. W. Hauser,  J. E. Herr,  E. G. Hohenstein,  
 Z. C. Holden,  Kerwin Hui,  T.-C. Jagau,  Hyunjun Ji,  B. Kaduk,  
 K. Khistyaev,  Jaehoon Kim,  P. Klunzinger,  K. Koh,  D. Kosenkov,  
 L. Koulias,  T. Kowalczyk,  C. M. Krauter,  A. Kunitsa,  Ka Un Lao,  
 A. Laurent,  K. V. Lawler,  Joonho Lee,  D. Lefrancois,  S. Lehtola,  
 D. S. Levine,  Yi-Pei Li,  You-Sheng Lin,  Fenglai Liu,  E. Livshits,  
 A. Luenser,  P. Manohar,  E. Mansoor,  S. F. Manzer,  Shan-Ping Mao,  
 Yuezhi Mao,  N. Mardirossian,  A. V. Marenich,  T. Markovich,  
 L. A. Martinez-Martinez,  S. A. Maurer,  N. J. Mayhall,  S. C. McKenzie,  
 J.-M. Mewes,  A. F. Morrison,  J. W. Mullinax,  K. Nanda,  
 T. S. Nguyen-Beck,  R. Olivares-Amaya,  J. A. Parkhill,  T. M. Perrine,  
 F. Plasser,  S. Prager,  A. Prociuk,  E. Ramos,  D. R. Rehn,  F. Rob,  
 M. Schneider,  N. Sergueev,  S. M. Sharada,  S. Sharma,  D. W. Small,  
 T. Stauch,  T. Stein,  Yu-Chuan Su,  A. J. W. Thom,  A. Tkatchenko,  
 T. Tsuchimochi,  L. Vogt,  O. Vydrov,  M. A. Watson,  J. Wenzel,  
 M. de Wergifosse,  T. A. Wesolowski,  A. White,  J. Witte,  A. Yamada,  
 Jun Yang,  K. Yao,  S. Yeganeh,  S. R. Yost,  Zhi-Qiang You,  A. Zech,  
 Igor Ying Zhang,  Xing Zhang,  Yan Zhao,  Ying Zhu,  B. R. Brooks,  
 G. K. L. Chan,  C. J. Cramer,  M. S. Gordon,  W. J. Hehre,  A. Klamt,  
 M. W. Schmidt,  C. D. Sherrill,  D. G. Truhlar,  A. Aspuru-Guzik,  R. Baer,  
 A. T. Bell,  N. A. Besley,  Jeng-Da Chai,  R. A. DiStasio Jr.,  A. Dreuw,  
 B. D. Dunietz,  T. R. Furlani,  Chao-Ping Hsu,  Yousung Jung,  Jing Kong,  
 D. S. Lambrecht,  WanZhen Liang,  C. Ochsenfeld,  V. A. Rassolov,  
 L. V. Slipchenko,  J. E. Subotnik,  T. Van Voorhis,  J. M. Herbert,  
 A. I. Krylov,  P. M. W. Gill,  M. Head-Gordon

 Contributors to earlier versions of Q-Chem not listed above: 
 R. D. Adamson,  B. Austin,  J. Baker,  G. J. O. Beran,  K. Brandhorst,  
 S. T. Brown,  E. F. C. Byrd,  A. K. Chakraborty,  C.-L. Cheng,  
 Siu Hung Chien,  D. M. Chipman,  D. L. Crittenden,  H. Dachsel,  
 R. J. Doerksen,  A. D. Dutoi,  L. Fusti-Molnar,  W. A. Goddard III,  
 A. Golubeva-Zadorozhnaya,  S. R. Gwaltney,  G. Hawkins,  A. Heyden,  
 S. Hirata,  G. Kedziora,  F. J. Keil,  C. Kelley,  Jihan Kim,  R. A. King,  
 R. Z. Khaliullin,  P. P. Korambath,  W. Kurlancheek,  A. M. Lee,  M. S. Lee,  
 S. V. Levchenko,  Ching Yeh Lin,  D. Liotard,  R. C. Lochan,  I. Lotan,  
 P. E. Maslen,  N. Nair,  D. P. O'Neill,  D. Neuhauser,  E. Neuscamman,  
 C. M. Oana,  R. Olson,  B. Peters,  R. Peverati,  P. A. Pieniazek,  
 Y. M. Rhee,  J. Ritchie,  M. A. Rohrdanz,  E. Rosta,  N. J. Russ,  
 H. F. Schaefer III,  N. E. Schultz,  N. Shenvi,  A. C. Simmonett,  A. Sodt,  
 D. Stuck,  K. S. Thanthiriwatte,  V. Vanovschi,  Tao Wang,  A. Warshel,  
 C. F. Williams,  Q. Wu,  X. Xu,  W. Zhang

 Please cite Q-Chem as follows:
 Y. Shao et al., Mol. Phys. 113, 184-215 (2015)
 DOI: 10.1080/00268976.2014.952696

 Q-Chem 5.0.2 for Intel X86 EM64T Linux

 Parts of Q-Chem use Armadillo 5.200.1 (Boston Tea Smuggler).
 http://arma.sourceforge.net/

 Q-Chem begins on Thu Mar  3 01:30:22 2022  

Host: 
0

     Scratch files written to ./irc_product.d//
 Dec517 15110_ 26548  26544 5633   
Processing $rem in /home/leeping/opt/qchem/5.0.2-openmp/config/preferences.
 MEM_STATIC 2000
 MEM_TOTAL  8000
 SYMMETRY   OFF
 SYM_IGNORE TRUE 

Checking the input file for inconsistencies... 	...done.

--------------------------------------------------------------
User input:
--------------------------------------------------------------
$molecule
0 2
C        1.2483716090    0.3417904151    0.1798459084
C        0.6741668978   -1.0428831529   -0.2404276722
C       -0.6673300102   -0.9026537412   -0.8239893823
C       -1.0495599049    0.2183465473    0.1545745935
C       -0.4960311444    1.4838652168   -0.4861582462
N        0.7849735175    1.5268870835   -0.5117809031
H        2.2821494015    0.3351545634    0.5080963326
H        1.3384978317   -1.8977749160   -0.3040037827
H       -1.3142607339   -1.7226840535   -1.1111572136
H       -2.0623535969    0.2483765045    0.5565025893
H       -1.1035669276    2.2279371494   -0.9963151658
C        0.1708727986   -0.2632089231    1.0143515785
H        0.1940702618   -0.5531526933    2.0604613636
$end

$rem
method                b3lyp
basis                 6-31+g(d,p)
unrestricted          true
symmetry              off
sym_ignore            true
incdft                false
incfock               0
scf_convergence       6
thresh                14
jobtype               sp
scf_guess             read
scf_algorithm         diis
max_scf_cycles        100
stability_analysis    true
max_cis_cycles        100
cis_n_roots           4
$end

--------------------------------------------------------------
 ----------------------------------------------------------------
             Standard Nuclear Orientation (Angstroms)
    I     Atom           X                Y                Z
 ----------------------------------------------------------------
    1      C       1.2483716090     0.3417904151     0.1798459084
    2      C       0.6741668978    -1.0428831529    -0.2404276722
    3      C      -0.6673300102    -0.9026537412    -0.8239893823
    4      C      -1.0495599049     0.2183465473     0.1545745935
    5      C      -0.4960311444     1.4838652168    -0.4861582462
    6      N       0.7849735175     1.5268870835    -0.5117809031
    7      H       2.2821494015     0.3351545634     0.5080963326
    8      H       1.3384978317    -1.8977749160    -0.3040037827
    9      H      -1.3142607339    -1.7226840535    -1.1111572136
   10      H      -2.0623535969     0.2483765045     0.5565025893
   11      H      -1.1035669276     2.2279371494    -0.9963151658
   12      C       0.1708727986    -0.2632089231     1.0143515785
   13      H       0.1940702618    -0.5531526933     2.0604613636
 ----------------------------------------------------------------
 Nuclear Repulsion Energy =   282.0685354773 hartrees
 There are       25 alpha and       24 beta electrons
 Requested basis set is 6-31+G(d,p)
 There are 53 shells and 163 basis functions

 Total QAlloc Memory Limit   8000 MB
 Mega-Array Size      1956 MB
 MEM_STATIC part      2000 MB

                       Distance Matrix (Angstroms)
             C (  1)   C (  2)   C (  3)   C (  4)   C (  5)   N (  6)
   C (  2)  1.556811
   C (  3)  2.495243  1.469633
   C (  4)  2.301384  2.172087  1.536336
   C (  5)  2.188798  2.795390  2.416391  1.522652
   N (  6)  1.448288  2.586432  2.847688  2.349855  1.281983
   H (  7)  1.084661  2.246082  3.464975  3.352448  3.166444  2.168389
   H (  8)  2.293008  1.084536  2.298695  3.223520  3.851515  3.475323
   H (  9)  3.534944  2.274674  1.083252  2.332326  3.367801  3.914811
   H ( 10)  3.333391  3.129056  2.275241  1.090045  2.250986  3.298953
   H ( 11)  3.236127  3.798680  3.165533  2.316445  1.087659  2.071914
   C ( 12)  1.491116  1.560663  2.119191  1.568620  2.397615  2.431182
   H ( 13)  2.334350  2.400920  3.030547  2.402963  3.333310  3.360381
             H (  7)   H (  8)   H (  9)   H ( 10)   H ( 11)   C ( 12)
   H (  8)  2.556552
   H (  9)  4.448691  2.778359
   H ( 10)  4.345639  4.112448  2.688087
   H ( 11)  4.160403  4.844014  3.957902  2.692429
   C ( 12)  2.252071  2.402752  2.975479  2.336374  3.445691
   H ( 13)  2.749364  2.951003  3.701625  2.827683  4.331536  1.085795

 
 A cutoff of  1.0D-14 yielded   1402 shell pairs
 There are     13508 function pairs
 Smallest overlap matrix eigenvalue = 2.55E-05

 Scale SEOQF with 1.000000e-01/1.000000e-01/1.000000e-01

 Standard Electronic Orientation quadrupole field applied
 Nucleus-field energy     =     0.0000000031 hartrees
 Guess MOs from SCF MO coefficient file
 Reading MOs from coefficient file
 Reading MOs from coefficient file
 An unrestricted hybrid HF-DFT SCF calculation will be
 performed using Pulay DIIS extrapolation
 Exchange:     0.2000 Hartree-Fock + 0.0800 Slater + 0.7200 B88
 Correlation:  0.1900 VWN1RPA + 0.8100 LYP
 Using SG-1 standard quadrature grid
 SCF converges when DIIS error is below 1.0E-06
Using Q-Chem read-in guess as SCF_GUESS READ specified.

 -------------------------------------------------------
 OpenMP BLAS3 based DFT computing Module                
 -------------------------------------------------------
 ---------------------------------------
  Cycle       Energy         DIIS Error
 ---------------------------------------
    1    -286.8568809930      8.79E-10
    2    -286.8568809930      1.11E-09 Convergence criterion met
 ---------------------------------------
 <S^2> = 0.7556
 SCF time:  CPU 6.43 s  wall 8.58 s
 SCF   energy in the final basis set = -286.85688099
 Total energy in the final basis set = -286.85688099
 
 Direct TDDFT/TDA calculation will be performed
 Exchange:     0.2000 Hartree-Fock + 0.0800 Slater + 0.7200 B88
 Correlation:  0.1900 VWN1RPA + 0.8100 LYP
 Using SG-1 standard quadrature grid
 CIS energy converged when residual is below 10e- 6
 ---------------------------------------------------
 Iter    Rts Conv    Rts Left    Ttl Dev     Max Dev
 ---------------------------------------------------
   1         0           4      0.001579    0.000795
   2         0           4      0.000727    0.000256
   3         0           4      0.000297    0.000124
   4         0           4      0.000177    0.000068
   5         0           4      0.001013    0.000927
   6         0           4      0.000354    0.000322
   7         0           4      0.000188    0.000163
   8         1           3      0.000099    0.000081
   9         1           3      0.000024    0.000018
  10         3           1      0.000005    0.000004
  11         4           0      0.000002    0.000001    Roots Converged
 ---------------------------------------------------
 
 ---------------------------------------------------
         TDDFT/TDA Excitation Energies              
 ---------------------------------------------------

 Excited state   1: excitation energy (eV) =    3.1520
 Total energy for state  1:                  -286.74104779 au
    <S**2>     :  0.8592
    Trans. Mom.:  0.0147 X   0.3085 Y  -0.0023 Z
    Strength   :     0.0073671408
    S(  1) --> V(  1) amplitude =  0.9800 alpha

 Excited state   2: excitation energy (eV) =    3.9848
 Total energy for state  2:                  -286.71044264 au
    <S**2>     :  0.8107
    Trans. Mom.:  0.0038 X  -0.0382 Y   0.1892 Z
    Strength   :     0.0036394899
    S(  1) --> V(  2) amplitude =  0.9808 alpha

 Excited state   3: excitation energy (eV) =    4.0816
 Total energy for state  3:                  -286.70688510 au
    <S**2>     :  1.8009
    Trans. Mom.:  0.0611 X   0.0556 Y   0.0100 Z
    Strength   :     0.0006931205
    D( 24) --> V(  1) amplitude =  0.4286 alpha
    D( 23) --> S(  1) amplitude = -0.2437 beta
    D( 24) --> S(  1) amplitude = -0.7583 beta
    D( 24) --> V(  1) amplitude = -0.2907 beta

 Excited state   4: excitation energy (eV) =    4.4434
 Total energy for state  4:                  -286.69359030 au
    <S**2>     :  0.8252
    Trans. Mom.: -0.1590 X   0.0580 Y  -0.0887 Z
    Strength   :     0.0039744386
    S(  1) --> V(  3) amplitude =  0.9266 alpha
    S(  1) --> V(  4) amplitude = -0.3104 alpha
 
 ---------------------------------------------------

 Stability analysis will be performed
 ---------------------------------------------------
 Iter    Rts Conv    Rts Left    Ttl Dev     Max Dev
 ---------------------------------------------------
   1         0           8      0.003018    0.000665
   2         0           8      0.002157    0.000790
   3         0           8      0.001484    0.000645
   4         1           7      0.000752    0.000378
   5         2           6      0.000417    0.000234
   6         2           6      0.000167    0.000108
   7         4           4      0.000057    0.000040
   8         4           4      0.000021    0.000015
   9         7           1      0.000007    0.000004
  10         7           1      0.000003    0.000001
  11         8           0      0.000002    0.000000    Roots Converged
 UKS-> UKS   stable,    smallest eigenvalue:      0.1032632
 UKS->CUKS   stable,    smallest eigenvalue:      0.1151855
 ---------------------------------------------------
  SETman timing summary (seconds)
  CPU time               206.05s
  System time              0.00s
  Wall time              213.06s
 
 --------------------------------------------------------------
 
                    Orbital Energies (a.u.)
 --------------------------------------------------------------
 
 Alpha MOs
 -- Occupied --
-14.334 -10.233 -10.231 -10.223 -10.221 -10.220 -10.211  -0.980
 -0.867  -0.759  -0.673  -0.615  -0.583  -0.549  -0.518  -0.465
 -0.450  -0.420  -0.410  -0.369  -0.344  -0.317  -0.282  -0.271
 -0.180
 -- Virtual --
 -0.021  -0.001   0.015   0.021   0.029   0.045   0.049   0.061
  0.071   0.073   0.080   0.092   0.103   0.107   0.110   0.119
  0.121   0.137   0.143   0.161   0.163   0.175   0.178   0.185
  0.187   0.197   0.212   0.218   0.224   0.241   0.246   0.254
  0.261   0.271   0.284   0.298   0.306   0.320   0.329   0.343
  0.354   0.382   0.420   0.460   0.620   0.656   0.666   0.673
  0.691   0.711   0.724   0.745   0.752   0.757   0.784   0.794
  0.802   0.809   0.859   0.894   0.915   0.938   0.958   0.981
  0.999   1.013   1.044   1.059   1.084   1.086   1.125   1.169
  1.211   1.242   1.263   1.391   1.411   1.433   1.482   1.512
  1.576   1.602   1.644   1.674   1.734   1.773   1.809   1.839
  1.889   1.924   1.936   2.012   2.028   2.078   2.111   2.152
  2.156   2.220   2.248   2.298   2.321   2.361   2.366   2.369
  2.392   2.442   2.453   2.463   2.489   2.510   2.545   2.558
  2.580   2.615   2.633   2.635   2.691   2.700   2.743   2.820
  2.828   2.903   2.993   3.029   3.094   3.268   3.314   3.355
  3.512   3.533   3.691   4.177   4.417   4.461   4.584   4.601
  4.659   4.852
 
 Beta MOs
 -- Occupied --
-14.334 -10.233 -10.231 -10.221 -10.220 -10.220 -10.199  -0.976
 -0.861  -0.753  -0.661  -0.611  -0.579  -0.544  -0.511  -0.458
 -0.446  -0.415  -0.406  -0.361  -0.340  -0.304  -0.275  -0.266
 -- Virtual --
 -0.060  -0.012  -0.001   0.015   0.022   0.032   0.045   0.050
  0.061   0.071   0.077   0.083   0.094   0.104   0.108   0.111
  0.121   0.124   0.139   0.146   0.161   0.164   0.177   0.179
  0.186   0.189   0.197   0.212   0.223   0.227   0.243   0.249
  0.256   0.261   0.274   0.289   0.299   0.310   0.322   0.331
  0.348   0.359   0.385   0.425   0.465   0.624   0.664   0.668
  0.693   0.703   0.714   0.727   0.751   0.755   0.768   0.787
  0.797   0.805   0.813   0.863   0.897   0.917   0.943   0.961
  0.984   1.001   1.016   1.046   1.062   1.087   1.093   1.135
  1.175   1.217   1.247   1.268   1.395   1.413   1.439   1.485
  1.515   1.579   1.617   1.648   1.678   1.741   1.782   1.814
  1.849   1.894   1.931   1.941   2.019   2.032   2.086   2.123
  2.156   2.162   2.233   2.254   2.303   2.323   2.364   2.367
  2.373   2.396   2.451   2.457   2.470   2.492   2.517   2.549
  2.562   2.590   2.621   2.638   2.641   2.695   2.704   2.745
  2.822   2.833   2.909   2.995   3.033   3.096   3.269   3.315
  3.358   3.513   3.535   3.696   4.178   4.436   4.464   4.588
  4.604   4.663   4.857
 --------------------------------------------------------------
 
          Ground-State Mulliken Net Atomic Charges

     Atom                 Charge (a.u.)    Spin (a.u.)
  --------------------------------------------------------
      1 C                    -0.252823       0.014526
      2 C                    -0.105850      -0.102074
      3 C                    -0.112598       1.000886
      4 C                    -0.108467      -0.087405
      5 C                    -0.011886      -0.001439
      6 N                    -0.177880       0.027133
      7 H                     0.144883       0.003285
      8 H                     0.140047       0.000399
      9 H                     0.136877      -0.040005
     10 H                     0.131446       0.008429
     11 H                     0.131855       0.001607
     12 C                    -0.050835       0.166968
     13 H                     0.135231       0.007690
  --------------------------------------------------------
  Sum of atomic charges =    -0.000000
  Sum of spin   charges =     1.000000

 -----------------------------------------------------------------
                    Cartesian Multipole Moments
 -----------------------------------------------------------------
    Charge (ESU x 10^10)
                -0.0000
    Dipole Moment (Debye)
         X      -1.3049      Y      -1.9599      Z       1.7163
       Tot       2.9137
    Quadrupole Moments (Debye-Ang)
        XX     -38.6892     XY      -4.5087     YY     -43.5323
        XZ       2.0763     YZ       0.8478     ZZ     -43.0211
    Octopole Moments (Debye-Ang^2)
       XXX      -9.2571    XXY     -10.0610    XYY     -11.8785
       YYY     -29.3729    XXZ       6.6972    XYZ       3.1558
       YYZ       2.6475    XZZ      -4.5360    YZZ      -8.4735
       ZZZ      19.6902
    Hexadecapole Moments (Debye-Ang^3)
      XXXX    -230.4581   XXXY      -9.7813   XXYY     -94.2980
      XYYY     -27.4032   YYYY    -325.9898   XXXZ      -8.0716
      XXYZ       8.1426   XYYZ       5.6729   YYYZ      18.0077
      XXZZ     -69.4195   XYZZ      -5.4258   YYZZ     -79.8785
      XZZZ     -12.6650   YZZZ       9.2818   ZZZZ    -160.5657
 -----------------------------------------------------------------
Archival summary:
1\1\c8-90\SP\ProcedureUnspecified\6-31+G**\166(2)\hpark21\ThuMar301:34:062022ThuMar301:34:062022\0\\#,ProcedureUnspecified,6-31+G**,\\0,2\N\C,1,1.28198\H,2,1.08766,1,121.723\C,1,1.44829,2,106.422,3,-175.93,0\H,4,1.08466,1,117.031,2,-163.123,0\C,4,1.49112,1,111.596,2,-17.4309,0\H,6,1.0858,4,129.205,1,-128.935,0\C,2,1.52265,1,113.55,3,172.445,0\H,8,1.09005,2,118.036,1,157.412,0\C,8,1.53634,2,104.357,1,-67.7741,0\H,10,1.08325,8,124.934,2,-138.272,0\C,10,1.46963,8,92.5106,2,84.2896,0\H,12,1.08454,10,127.667,8,158.968,0\\\@

 Total job time:  223.93s(wall), 212.69s(cpu) 
 Thu Mar  3 01:34:06 2022

        *************************************************************
        *                                                           *
        *  Thank you very much for using Q-Chem.  Have a nice day.  *
        *                                                           *
        *************************************************************


