
Running Job 1 of 1 qcfsm.in
qchem qcfsm.in_123511.0 ./qcfsm.d/ 1
/home/leeping/opt/qchem/5.0.2-openmp/exe/qcprog.exe_s qcfsm.in_123511.0 ./qcfsm.d/
Check license passed

                  Welcome to Q-Chem
     A Quantum Leap Into The Future Of Chemistry


 Q-Chem 5.0, Q-Chem, Inc., Pleasanton, CA (2017)

 Yihan Shao,  Zhengting Gan,  E. Epifanovsky,  A. T. B. Gilbert,  M. Wormit,  
 J. Kussmann,  A. W. Lange,  A. Behn,  Jia Deng,  Xintian Feng,  D. Ghosh,  
 M. Goldey,  P. R. Horn,  L. D. Jacobson,  I. Kaliman,  T. Kus,  A. Landau,  
 Jie Liu,  E. I. Proynov,  R. M. Richard,  R. P. Steele,  E. J. Sundstrom,  
 H. L. Woodcock III,  P. M. Zimmerman,  D. Zuev,  B. Albrecht,  E. Alguire,  
 S. A. Baeppler,  D. Barton,  Z. Benda,  Y. A. Bernard,  E. J. Berquist,  
 K. B. Bravaya,  H. Burton,  D. Casanova,  Chun-Min Chang,  Yunqing Chen,  
 A. Chien,  K. D. Closser,  M. P. Coons,  S. Dasgupta,  A. L. Dempwolff,  
 M. Diedenhofen,  Hainam Do,  R. G. Edgar,  Po-Tung Fang,  S. Fatehi,  
 Qingguo Feng,  J. Fosso-Tande,  Qinghui Ge,  A. Ghysels,  G. Gidofalvi,  
 J. Gomes,  J. Gonthier,  A. Gunina,  M. W. D. Hanson-Heine,  
 P. H. P. Harbach,  A. W. Hauser,  J. E. Herr,  E. G. Hohenstein,  
 Z. C. Holden,  Kerwin Hui,  T.-C. Jagau,  Hyunjun Ji,  B. Kaduk,  
 K. Khistyaev,  Jaehoon Kim,  P. Klunzinger,  K. Koh,  D. Kosenkov,  
 L. Koulias,  T. Kowalczyk,  C. M. Krauter,  A. Kunitsa,  Ka Un Lao,  
 A. Laurent,  K. V. Lawler,  Joonho Lee,  D. Lefrancois,  S. Lehtola,  
 D. S. Levine,  Yi-Pei Li,  You-Sheng Lin,  Fenglai Liu,  E. Livshits,  
 A. Luenser,  P. Manohar,  E. Mansoor,  S. F. Manzer,  Shan-Ping Mao,  
 Yuezhi Mao,  N. Mardirossian,  A. V. Marenich,  T. Markovich,  
 L. A. Martinez-Martinez,  S. A. Maurer,  N. J. Mayhall,  S. C. McKenzie,  
 J.-M. Mewes,  A. F. Morrison,  J. W. Mullinax,  K. Nanda,  
 T. S. Nguyen-Beck,  R. Olivares-Amaya,  J. A. Parkhill,  T. M. Perrine,  
 F. Plasser,  S. Prager,  A. Prociuk,  E. Ramos,  D. R. Rehn,  F. Rob,  
 M. Schneider,  N. Sergueev,  S. M. Sharada,  S. Sharma,  D. W. Small,  
 T. Stauch,  T. Stein,  Yu-Chuan Su,  A. J. W. Thom,  A. Tkatchenko,  
 T. Tsuchimochi,  L. Vogt,  O. Vydrov,  M. A. Watson,  J. Wenzel,  
 M. de Wergifosse,  T. A. Wesolowski,  A. White,  J. Witte,  A. Yamada,  
 Jun Yang,  K. Yao,  S. Yeganeh,  S. R. Yost,  Zhi-Qiang You,  A. Zech,  
 Igor Ying Zhang,  Xing Zhang,  Yan Zhao,  Ying Zhu,  B. R. Brooks,  
 G. K. L. Chan,  C. J. Cramer,  M. S. Gordon,  W. J. Hehre,  A. Klamt,  
 M. W. Schmidt,  C. D. Sherrill,  D. G. Truhlar,  A. Aspuru-Guzik,  R. Baer,  
 A. T. Bell,  N. A. Besley,  Jeng-Da Chai,  R. A. DiStasio Jr.,  A. Dreuw,  
 B. D. Dunietz,  T. R. Furlani,  Chao-Ping Hsu,  Yousung Jung,  Jing Kong,  
 D. S. Lambrecht,  WanZhen Liang,  C. Ochsenfeld,  V. A. Rassolov,  
 L. V. Slipchenko,  J. E. Subotnik,  T. Van Voorhis,  J. M. Herbert,  
 A. I. Krylov,  P. M. W. Gill,  M. Head-Gordon

 Contributors to earlier versions of Q-Chem not listed above: 
 R. D. Adamson,  B. Austin,  J. Baker,  G. J. O. Beran,  K. Brandhorst,  
 S. T. Brown,  E. F. C. Byrd,  A. K. Chakraborty,  C.-L. Cheng,  
 Siu Hung Chien,  D. M. Chipman,  D. L. Crittenden,  H. Dachsel,  
 R. J. Doerksen,  A. D. Dutoi,  L. Fusti-Molnar,  W. A. Goddard III,  
 A. Golubeva-Zadorozhnaya,  S. R. Gwaltney,  G. Hawkins,  A. Heyden,  
 S. Hirata,  G. Kedziora,  F. J. Keil,  C. Kelley,  Jihan Kim,  R. A. King,  
 R. Z. Khaliullin,  P. P. Korambath,  W. Kurlancheek,  A. M. Lee,  M. S. Lee,  
 S. V. Levchenko,  Ching Yeh Lin,  D. Liotard,  R. C. Lochan,  I. Lotan,  
 P. E. Maslen,  N. Nair,  D. P. O'Neill,  D. Neuhauser,  E. Neuscamman,  
 C. M. Oana,  R. Olson,  B. Peters,  R. Peverati,  P. A. Pieniazek,  
 Y. M. Rhee,  J. Ritchie,  M. A. Rohrdanz,  E. Rosta,  N. J. Russ,  
 H. F. Schaefer III,  N. E. Schultz,  N. Shenvi,  A. C. Simmonett,  A. Sodt,  
 D. Stuck,  K. S. Thanthiriwatte,  V. Vanovschi,  Tao Wang,  A. Warshel,  
 C. F. Williams,  Q. Wu,  X. Xu,  W. Zhang

 Please cite Q-Chem as follows:
 Y. Shao et al., Mol. Phys. 113, 184-215 (2015)
 DOI: 10.1080/00268976.2014.952696

 Q-Chem 5.0.2 for Intel X86 EM64T Linux

 Parts of Q-Chem use Armadillo 5.200.1 (Boston Tea Smuggler).
 http://arma.sourceforge.net/

 Q-Chem begins on Wed Mar  2 21:20:30 2022  

Host: 
0

     Scratch files written to ./qcfsm.d//
 Dec517 15110_ 26548  26544 5633   
Processing $rem in /home/leeping/opt/qchem/5.0.2-openmp/config/preferences.
 MEM_STATIC 2000
 MEM_TOTAL  8000
 SYMMETRY   OFF
 SYM_IGNORE TRUE 
 Now reading second FSM geometry

Checking the input file for inconsistencies... 	...done.

--------------------------------------------------------------
User input:
--------------------------------------------------------------
$molecule
0 2
C        1.5360253282    0.4300916143   -0.3801114367
C        0.8437544071   -0.7974397119    0.0798822764
C       -0.5862466520   -1.0274836295   -0.3820258608
C       -1.1170077234    0.3117676513    0.1015896275
C       -0.4276996931    1.5419333912   -0.3564318933
N        0.8835071537    1.5722516612   -0.5869184177
H        2.6090857182    0.4195212083   -0.5610841245
H        1.4550905977   -1.6868571385    0.2237080226
H       -1.0696760219   -1.8716988620   -0.8536588081
H       -2.1913568186    0.3771031146    0.2651805570
H       -0.9909250331    2.4596109741   -0.5150379808
C       -0.3510240979   -0.6406732085    1.0055382051
H       -0.5935271654   -1.0881270641    1.9593698327
****
C        1.2422399493    0.3283039978    0.1566710642
C        0.6188020220   -1.1154327636   -0.1210607696
C       -0.7310645796   -1.0010553686   -0.6565060105
C       -1.0528460772    0.1895122595    0.2441151890
C       -0.5327345617    1.4032272737   -0.5170596057
N        0.7468272647    1.4474523375   -0.6048320560
H        2.2969805758    0.3233545377    0.4119880653
H        1.2988002095   -1.9601987702   -0.1699889899
H       -1.1754432709   -1.3203542939   -1.5962849372
H       -2.0427702117    0.2605054066    0.7001106451
H       -1.1680351359    2.1027516675   -1.0581353313
C        0.2141857041   -0.2302907152    1.0727854620
H        0.2850581112   -0.4277755689    2.1381972745
$end

$rem
method                b3lyp
basis                 6-31g(d)
unrestricted          true
symmetry              off
sym_ignore            true
incdft                false
incfock               0
scf_convergence       8
thresh                14
jobtype               fsm
scf_guess             core
scf_guess_mix         5
scf_algorithm         diis
max_scf_cycles        100
fsm_nnode             21
fsm_ngrad             6
fsm_mode              2
fsm_opt_mode          2
$end

--------------------------------------------------------------
 ----------------------------------------------------------------
             Standard Nuclear Orientation (Angstroms)
    I     Atom           X                Y                Z
 ----------------------------------------------------------------
    1      C       1.5360253282     0.4300916143    -0.3801114367
    2      C       0.8437544071    -0.7974397119     0.0798822764
    3      C      -0.5862466520    -1.0274836295    -0.3820258608
    4      C      -1.1170077234     0.3117676513     0.1015896275
    5      C      -0.4276996931     1.5419333912    -0.3564318933
    6      N       0.8835071537     1.5722516612    -0.5869184177
    7      H       2.6090857182     0.4195212083    -0.5610841245
    8      H       1.4550905977    -1.6868571385     0.2237080226
    9      H      -1.0696760219    -1.8716988620    -0.8536588081
   10      H      -2.1913568186     0.3771031146     0.2651805570
   11      H      -0.9909250331     2.4596109741    -0.5150379808
   12      C      -0.3510240979    -0.6406732085     1.0055382051
   13      H      -0.5935271654    -1.0881270641     1.9593698327
 ----------------------------------------------------------------
 Nuclear Repulsion Energy =   277.2198011883 hartrees
 There are       25 alpha and       24 beta electrons
 Requested basis set is 6-31G(d)
 There are 40 shells and 117 basis functions

 Total QAlloc Memory Limit   8000 MB
 Mega-Array Size      1956 MB
 MEM_STATIC part      2000 MB
 beginning FSman 

*******************************************
*******************************************
******** Starting FSM Calculation *********
*******************************************
*******************************************
-FSM parameters:
 Maximum displacement of each coordinate during optimization (Angstrom)      0.05
 Maximum optimization steps for each new node                                6
 The scaling factor for optimization (hartrees/Angstrom^2)                   1.75
 The number of LST interpolations used for reparameterization                100
-Aligning product structure to maximum coincidence with the reactant structure
 Total R --> P Distance 2.321451
 New node interpolation distace (Angstroms): 0.11
-Performing force calculation on reactant structure in state:0
 ----------------------------------------------------------------
             Standard Nuclear Orientation (Angstroms)
    I     Atom           X                Y                Z
 ----------------------------------------------------------------
    1      C       1.5360253282     0.4300916143    -0.3801114367
    2      C       0.8437544071    -0.7974397119     0.0798822764
    3      C      -0.5862466520    -1.0274836295    -0.3820258608
    4      C      -1.1170077234     0.3117676513     0.1015896275
    5      C      -0.4276996931     1.5419333912    -0.3564318933
    6      N       0.8835071537     1.5722516612    -0.5869184177
    7      H       2.6090857182     0.4195212083    -0.5610841245
    8      H       1.4550905977    -1.6868571385     0.2237080226
    9      H      -1.0696760219    -1.8716988620    -0.8536588081
   10      H      -2.1913568186     0.3771031146     0.2651805570
   11      H      -0.9909250331     2.4596109741    -0.5150379808
   12      C      -0.3510240979    -0.6406732085     1.0055382051
   13      H      -0.5935271654    -1.0881270641     1.9593698327
 ----------------------------------------------------------------
 Nuclear Repulsion Energy =   277.2198011883 hartrees
 There are       25 alpha and       24 beta electrons

                       Distance Matrix (Angstroms)
             C (  1)   C (  2)   C (  3)   C (  4)   C (  5)   N (  6)
   C (  2)  1.482453
   C (  3)  2.574600  1.520257
   C (  4)  2.699004  2.252865  1.519600
   C (  5)  2.256761  2.698079  2.574431  1.482645
   N (  6)  1.331570  2.462040  2.993456  2.462706  1.331656
   H (  7)  1.088265  2.237907  3.512269  3.786096  3.244034  2.075350
   H (  8)  2.202866  1.088798  2.229068  3.259617  3.782400  3.406701
   H (  9)  3.508870  2.384690  1.081129  2.383750  3.508882  3.968233
   H ( 10)  3.783198  3.259722  2.228928  1.088695  2.203116  3.407234
   H ( 11)  3.243861  3.785282  3.513017  2.238159  1.088352  2.075107
   C ( 12)  2.574397  1.519510  1.459550  1.520197  2.573832  2.992828
   H ( 13)  3.509010  2.383852  2.342192  2.384342  3.508227  3.967723
             H (  7)   H (  8)   H (  9)   H ( 10)   H ( 11)   C ( 12)
   H (  8)  2.526744
   H (  9)  4.343798  2.751242
   H ( 10)  4.871218  4.190254  2.750833
   H ( 11)  4.138135  4.870517  4.345240  2.527176
   C ( 12)  3.512914  2.228858  2.342754  2.229534  3.511892
   H ( 13)  4.345391  2.750970  2.958688  2.751406  4.343623  1.081119

 
 Requested basis set is 6-31G(d)
 There are 40 shells and 117 basis functions
 A cutoff of  1.0D-14 yielded    808 shell pairs
 There are      7080 function pairs
 
 -------------------------------------------------------
 OpenMP Integral Computing Module                       
 Release: version 1.0, May 2013, Q-Chem Inc. Pittsburgh 
 -------------------------------------------------------
 Integral Job Info:
 Integral job number is                      11
 Integral operator is                         1
 short-range coefficients                     0
 long-range coefficients              100000000
 Omega coefficients                           0
 if combine SR and LR in K                    0
 Integral screening is                        0
 Integral computing path is                   2
 max size of driver memory is            800000
 size of driver memory is                593474
 size of scratch memory is              2361544
 max col of scratch BK array               1296
 max len of scratch array in speh3          155
 max len of scratch index in speh4           18
 max int batch size is                      520
 min int batch size is                       52
 fixed nKL is                                52
 max L of basis functions is                  2
 order of int derivative is                   0
 number of shells is                         40
 number of basis is                         117
 number of cartesian basis is               117
 number of contracted shell pairs           808
 number of primitive shell pairs           3556
 maxK2 (contraction) of shell pair           36
 max number of K2 of shell pair               1
 max number of CS2 of shell pair             84
 max number of PS2 of shell pair            366
 mem total for path MDJ                  535308
 -------------------------------------------------------
 Smallest overlap matrix eigenvalue = 1.59E-03

 Scale SEOQF with 1.000000e-01/1.000000e-01/1.000000e-01

 Standard Electronic Orientation quadrupole field applied
 Nucleus-field energy     =     0.0000000044 hartrees
 Guess MOs from core Hamiltonian diagonalization
 Mixing HOMO and LUMO in initial guess
 Adding  50% of the LUMO to the HOMO
 An unrestricted hybrid HF-DFT SCF calculation will be
 performed using Pulay DIIS extrapolation
 Exchange:     0.2000 Hartree-Fock + 0.0800 Slater + 0.7200 B88
 Correlation:  0.1900 VWN1RPA + 0.8100 LYP
 Using SG-1 standard quadrature grid
 SCF converges when DIIS error is below 1.0E-08
 using 4 threads for integral computing
 -------------------------------------------------------
 OpenMP Integral computing Module                
 Release: version 1.0, May 2013, Q-Chem Inc. Pittsburgh 
 -------------------------------------------------------
 -------------------------------------------------------
 OpenMP BLAS3 based DFT computing Module                
 Release: version 1.0, May 2013, Q-Chem Inc. Pittsburgh 
 -------------------------------------------------------
 ---------------------------------------
  Cycle       Energy         DIIS Error
 ---------------------------------------
    1    -240.3656033209      1.30E-01
    2    -241.5729482357      1.02E-01
    3    -280.7427804117      4.95E-02
    4    -283.2465185797      4.27E-02
    5    -286.3283300797      1.60E-02
    6    -286.7190238762      9.49E-03
    7    -286.8412848825      3.03E-03
    8    -286.8568870301      8.09E-04
    9    -286.8581435973      2.63E-04
   10    -286.8583709661      7.88E-05
   11    -286.8584268590      3.80E-05
   12    -286.8584524503      9.01E-06
   13    -286.8584596844      5.54E-06
   14    -286.8584619970      2.40E-06
   15    -286.8584622199      7.62E-07
   16    -286.8584622285      1.28E-07
   17    -286.8584622286      1.34E-08
   18    -286.8584622287      5.89E-09 Convergence criterion met
 ---------------------------------------
 <S^2> = 0.7737
 SCF time:  CPU 44.55 s  wall 12.48 s
 SCF   energy in the final basis set = -286.85846223
 Total energy in the final basis set = -286.85846223
 
 --------------------------------------------------------------
 
                    Orbital Energies (a.u.)
 --------------------------------------------------------------
 
 Alpha MOs
 -- Occupied --
-14.317 -10.216 -10.216 -10.215 -10.215 -10.215 -10.215  -0.960
 -0.896  -0.750  -0.643  -0.635  -0.589  -0.545  -0.482  -0.471
 -0.465  -0.408  -0.395  -0.365  -0.338  -0.299  -0.299  -0.227
 -0.173
 -- Virtual --
  0.016   0.089   0.114   0.142   0.143   0.153   0.159   0.166
  0.198   0.211   0.231   0.274   0.291   0.305   0.321   0.388
  0.526   0.528   0.540   0.541   0.564   0.589   0.592   0.595
  0.615   0.617   0.632   0.656   0.672   0.735   0.791   0.802
  0.814   0.838   0.854   0.854   0.882   0.888   0.925   0.938
  0.957   0.983   1.144   1.156   1.165   1.197   1.256   1.370
  1.414   1.456   1.489   1.500   1.582   1.616   1.647   1.677
  1.741   1.742   1.860   1.868   1.877   1.916   1.993   2.025
  2.037   2.134   2.160   2.202   2.247   2.287   2.358   2.468
  2.473   2.484   2.526   2.578   2.595   2.609   2.623   2.690
  2.733   2.771   2.804   2.989   3.153   4.017   4.114   4.179
  4.381   4.454   4.461   4.550
 
 Beta MOs
 -- Occupied --
-14.320 -10.216 -10.216 -10.213 -10.213 -10.207 -10.207  -0.955
 -0.894  -0.738  -0.631  -0.630  -0.584  -0.542  -0.476  -0.466
 -0.463  -0.405  -0.377  -0.362  -0.323  -0.298  -0.294  -0.227
 -- Virtual --
 -0.064   0.036   0.091   0.120   0.144   0.144   0.161   0.165
  0.170   0.210   0.213   0.235   0.277   0.300   0.308   0.329
  0.393   0.528   0.534   0.547   0.563   0.566   0.592   0.599
  0.605   0.621   0.639   0.652   0.659   0.678   0.740   0.794
  0.804   0.817   0.842   0.847   0.857   0.883   0.897   0.931
  0.942   0.961   0.992   1.147   1.157   1.168   1.199   1.256
  1.387   1.420   1.456   1.497   1.515   1.583   1.632   1.660
  1.684   1.748   1.751   1.863   1.881   1.886   1.919   1.999
  2.030   2.050   2.143   2.164   2.224   2.256   2.297   2.374
  2.475   2.478   2.497   2.541   2.583   2.597   2.618   2.625
  2.694   2.736   2.776   2.810   2.991   3.157   4.013   4.130
  4.191   4.384   4.459   4.472   4.552
 --------------------------------------------------------------
 
          Ground-State Mulliken Net Atomic Charges

     Atom                 Charge (a.u.)    Spin (a.u.)
  --------------------------------------------------------
      1 C                     0.076983       0.597206
      2 C                    -0.221408      -0.053352
      3 C                    -0.089602       0.094634
      4 C                    -0.221485      -0.053333
      5 C                     0.076989       0.597317
      6 N                    -0.395548      -0.205385
      7 H                     0.135616      -0.032055
      8 H                     0.142114       0.000520
      9 H                     0.154196      -0.004286
     10 H                     0.142182       0.000517
     11 H                     0.135569      -0.032061
     12 C                    -0.089854       0.094563
     13 H                     0.154249      -0.004283
  --------------------------------------------------------
  Sum of atomic charges =     0.000000
  Sum of spin   charges =     1.000000

 -----------------------------------------------------------------
                    Cartesian Multipole Moments
 -----------------------------------------------------------------
    Charge (ESU x 10^10)
                 0.0000
    Dipole Moment (Debye)
         X      -1.3902      Y      -2.4741      Z       0.9227
       Tot       2.9842
    Quadrupole Moments (Debye-Ang)
        XX     -37.5988     XY      -3.4898     YY     -41.8099
        XZ       0.3444     YZ       0.7394     ZZ     -41.5448
    Octopole Moments (Debye-Ang^2)
       XXX      -9.6663    XXY      -9.7655    XYY     -12.8185
       YYY     -30.1344    XXZ       2.3447    XYZ       1.8039
       YYZ       4.7259    XZZ      -6.1202    YZZ     -11.0089
       ZZZ      11.9113
    Hexadecapole Moments (Debye-Ang^3)
      XXXX    -263.3926   XXXY     -20.0468   XXYY    -104.4572
      XYYY     -35.4153   YYYY    -331.8065   XXXZ      17.0770
      XXYZ      13.8527   XYYZ      15.3694   YYYZ      42.3224
      XXZZ     -69.7100   XYZZ      -4.5254   YYZZ     -75.6439
      XZZZ      19.8863   YZZZ      33.3235   ZZZZ    -115.2633
 -----------------------------------------------------------------
 Calculating analytic gradient of the SCF energy
 Gradient of SCF Energy
            1           2           3           4           5           6
    1   0.0000135  -0.0000879   0.0000350  -0.0000577  -0.0000013   0.0000249
    2   0.0000436  -0.0000413  -0.0000086  -0.0000599  -0.0000031  -0.0000245
    3   0.0000173   0.0000418  -0.0000511  -0.0000673   0.0000058  -0.0000085
            7           8           9          10          11          12
    1  -0.0000014   0.0000081  -0.0000137   0.0000005   0.0000155   0.0001009
    2  -0.0000126   0.0000045   0.0000045   0.0000138   0.0000066   0.0001367
    3  -0.0000078   0.0000300   0.0000114  -0.0000266   0.0000031   0.0000906
           13
    1  -0.0000365
    2  -0.0000599
    3  -0.0000387
 Max gradient component =       1.367E-04
 RMS gradient           =       4.428E-05
 Gradient time:  CPU 7.36 s  wall 1.95 s
-Performing force calculation on product structure in state0
 ----------------------------------------------------------------
             Standard Nuclear Orientation (Angstroms)
    I     Atom           X                Y                Z
 ----------------------------------------------------------------
    1      C       1.2422681641     0.3282232864     0.1566164475
    2      C       0.6187255424    -1.1154705530    -0.1211034724
    3      C      -0.7311590541    -1.0010010287    -0.6564836559
    4      C      -1.0528225362     0.1895760968     0.2441671459
    5      C      -0.5326699221     1.4032673358    -0.5170174748
    6      N       0.7468905661     1.4474122835    -0.6048497440
    7      H       2.2970205160     0.3232038157     0.4118836379
    8      H       1.2986678246    -1.9602791062    -0.1700740026
    9      H      -1.1756023287    -1.3202603709    -1.5962454896
   10      H      -2.0427206553     0.2606265215     0.7002101547
   11      H      -1.1679516349     2.1028385913    -1.0580547580
   12      C       0.2142216935    -0.2303173049     1.0727725676
   13      H       0.2851318241    -0.4278195668     2.1381786431
 ----------------------------------------------------------------
 Nuclear Repulsion Energy =   282.1839705227 hartrees
 There are       25 alpha and       24 beta electrons

                       Distance Matrix (Angstroms)
             C (  1)   C (  2)   C (  3)   C (  4)   C (  5)   N (  6)
   C (  2)  1.596930
   C (  3)  2.514435  1.456682
   C (  4)  2.300941  2.151893  1.527126
   C (  5)  2.181721  2.797588  2.416476  1.524141
   N (  6)  1.441462  2.611284  2.860424  2.354134  1.283331
   H (  7)  1.085214  2.273881  3.473442  3.356700  3.168050  2.168062
   H (  8)  2.312391  1.085551  2.297173  3.212939  3.845466  3.479346
   H (  9)  3.411176  2.331865  1.087478  2.383653  2.999283  3.512671
   H ( 10)  3.330348  3.106686  2.269915  1.092210  2.251116  3.300541
   H ( 11)  3.230146  3.798369  3.160042  2.317242  1.088900  2.074030
   C ( 12)  1.485998  1.540279  2.116135  1.571082  2.398724  2.431652
   H ( 13)  2.326865  2.385059  3.028452  2.399704  3.327423  3.354686
             H (  7)   H (  8)   H (  9)   H ( 10)   H ( 11)   C ( 12)
   H (  8)  2.559234
   H (  9)  4.335051  2.926705
   H ( 10)  4.349759  4.105447  2.919727
   H ( 11)  4.163394  4.835457  3.465157  2.692668
   C ( 12)  2.254154  2.390284  3.200507  2.339576  3.448832
   H ( 13)  2.755327  2.950206  4.108055  2.821455  4.328001  1.085875

 
 Applying Cartesian multipole field
    Component          Value
    ---------          -----
     (2,0,0)        1.00000E-11
     (0,2,0)        2.00000E-11
     (0,0,2)       -3.00000E-11
 Nucleus-field energy     =     0.0000000027 hartrees
 Requested basis set is 6-31G(d)
 There are 40 shells and 117 basis functions
 A cutoff of  1.0D-14 yielded    812 shell pairs
 There are      7084 function pairs
 Smallest overlap matrix eigenvalue = 1.65E-03
 Guess MOs from core Hamiltonian diagonalization
 Mixing HOMO and LUMO in initial guess
 Adding  50% of the LUMO to the HOMO
 An unrestricted hybrid HF-DFT SCF calculation will be
 performed using Pulay DIIS extrapolation
 Exchange:     0.2000 Hartree-Fock + 0.0800 Slater + 0.7200 B88
 Correlation:  0.1900 VWN1RPA + 0.8100 LYP
 Using SG-1 standard quadrature grid
 SCF converges when DIIS error is below 1.0E-08
 using 4 threads for integral computing
 -------------------------------------------------------
 OpenMP Integral computing Module                
 Release: version 1.0, May 2013, Q-Chem Inc. Pittsburgh 
 -------------------------------------------------------
 -------------------------------------------------------
 OpenMP BLAS3 based DFT computing Module                
 Release: version 1.0, May 2013, Q-Chem Inc. Pittsburgh 
 -------------------------------------------------------
 ---------------------------------------
  Cycle       Energy         DIIS Error
 ---------------------------------------
    1    -236.3014575918      1.34E-01
    2    -225.6302800516      1.11E-01
    3    -256.4098887510      1.01E-01
    4    -276.2401540228      7.31E-02
    5    -282.7484044234      4.33E-02
    6    -286.3518208141      1.58E-02
    7    -286.4823653305      1.32E-02
    8    -286.8094220401      3.95E-03
    9    -286.8270519914      2.52E-03
   10    -286.8380225315      2.96E-04
   11    -286.8382395976      1.45E-04
   12    -286.8382953953      5.18E-05
   13    -286.8383140283      2.59E-05
   14    -286.8383166661      8.11E-06
   15    -286.8383168929      1.50E-06
   16    -286.8383169133      3.95E-07
   17    -286.8383169177      2.54E-07
   18    -286.8383169186      8.12E-08
   19    -286.8383169188      1.66E-08
   20    -286.8383169189      7.98E-09 Convergence criterion met
 ---------------------------------------
 <S^2> = 0.7566
 SCF time:  CPU 49.36 s  wall 13.51 s
 SCF   energy in the final basis set = -286.83831692
 Total energy in the final basis set = -286.83831692
 
 --------------------------------------------------------------
 
                    Orbital Energies (a.u.)
 --------------------------------------------------------------
 
 Alpha MOs
 -- Occupied --
-14.320 -10.224 -10.220 -10.210 -10.209 -10.208 -10.206  -0.968
 -0.856  -0.749  -0.664  -0.606  -0.571  -0.535  -0.517  -0.467
 -0.439  -0.405  -0.400  -0.356  -0.336  -0.298  -0.274  -0.256
 -0.182
 -- Virtual --
  0.004   0.101   0.114   0.128   0.150   0.150   0.153   0.162
  0.177   0.200   0.221   0.262   0.280   0.296   0.348   0.391
  0.494   0.513   0.524   0.543   0.558   0.573   0.601   0.605
  0.605   0.659   0.675   0.677   0.720   0.742   0.770   0.777
  0.805   0.807   0.822   0.842   0.854   0.877   0.889   0.936
  0.954   0.973   1.043   1.096   1.206   1.236   1.328   1.390
  1.446   1.475   1.504   1.517   1.587   1.632   1.673   1.713
  1.743   1.828   1.873   1.881   1.933   1.954   1.988   2.026
  2.060   2.167   2.207   2.218   2.232   2.254   2.363   2.380
  2.456   2.490   2.503   2.541   2.590   2.626   2.664   2.676
  2.718   2.808   2.841   2.914   2.963   3.958   4.194   4.239
  4.363   4.433   4.508   4.640
 
 Beta MOs
 -- Occupied --
-14.319 -10.222 -10.219 -10.211 -10.209 -10.207 -10.193  -0.964
 -0.850  -0.741  -0.652  -0.601  -0.567  -0.528  -0.511  -0.461
 -0.434  -0.402  -0.394  -0.348  -0.332  -0.292  -0.262  -0.251
 -- Virtual --
 -0.062   0.020   0.103   0.118   0.134   0.151   0.156   0.157
  0.165   0.181   0.204   0.227   0.267   0.284   0.298   0.359
  0.394   0.497   0.518   0.532   0.553   0.561   0.578   0.607
  0.610   0.622   0.669   0.679   0.683   0.729   0.745   0.775
  0.787   0.808   0.809   0.825   0.844   0.858   0.882   0.892
  0.940   0.958   0.977   1.047   1.108   1.208   1.243   1.334
  1.392   1.450   1.480   1.514   1.524   1.594   1.640   1.677
  1.716   1.751   1.835   1.878   1.894   1.940   1.970   1.994
  2.035   2.068   2.172   2.223   2.226   2.242   2.270   2.368
  2.390   2.463   2.497   2.511   2.546   2.594   2.632   2.666
  2.684   2.725   2.813   2.846   2.917   2.965   3.961   4.208
  4.245   4.369   4.438   4.511   4.644
 --------------------------------------------------------------
 
          Ground-State Mulliken Net Atomic Charges

     Atom                 Charge (a.u.)    Spin (a.u.)
  --------------------------------------------------------
      1 C                    -0.019080       0.097128
      2 C                    -0.163371      -0.095910
      3 C                    -0.066660       0.887876
      4 C                    -0.258097      -0.065641
      5 C                     0.088585       0.047231
      6 N                    -0.342220       0.039220
      7 H                     0.151396       0.002845
      8 H                     0.147240       0.005268
      9 H                     0.136197      -0.019158
     10 H                     0.142858       0.022721
     11 H                     0.143076       0.001358
     12 C                    -0.108011       0.077848
     13 H                     0.148085      -0.000785
  --------------------------------------------------------
  Sum of atomic charges =    -0.000000
  Sum of spin   charges =     1.000000

 -----------------------------------------------------------------
                    Cartesian Multipole Moments
 -----------------------------------------------------------------
    Charge (ESU x 10^10)
                 0.0000
    Dipole Moment (Debye)
         X      -1.0504      Y      -1.3968      Z       1.0697
       Tot       2.0491
    Quadrupole Moments (Debye-Ang)
        XX     -38.1259     XY      -4.4424     YY     -43.2661
        XZ       2.6363     YZ       1.3510     ZZ     -39.9325
    Octopole Moments (Debye-Ang^2)
       XXX      -5.5730    XXY      -5.9986    XYY      -7.0095
       YYY     -19.4855    XXZ       4.2643    XYZ       2.5936
       YYZ       1.8491    XZZ      -5.6874    YZZ      -7.7382
       ZZZ      10.0977
    Hexadecapole Moments (Debye-Ang^3)
      XXXX    -221.5326   XXXY      -7.9295   XXYY     -89.0567
      XYYY     -22.8842   YYYY    -299.4842   XXXZ      -8.7356
      XXYZ       7.8516   XYYZ       3.8760   YYYZ      20.1608
      XXZZ     -64.3664   XYZZ      -3.1698   YYZZ     -73.9980
      XZZZ      -6.9891   YZZZ      17.7890   ZZZZ    -142.4919
 -----------------------------------------------------------------
 Calculating analytic gradient of the SCF energy
 Gradient of SCF Energy
            1           2           3           4           5           6
    1  -0.0000402  -0.0000048  -0.0000665   0.0000922  -0.0000250  -0.0000078
    2  -0.0000460   0.0000772  -0.0000964   0.0001936  -0.0001125   0.0001634
    3   0.0000252   0.0000187   0.0000644   0.0000383  -0.0003163   0.0001269
            7           8           9          10          11          12
    1  -0.0000138   0.0000261   0.0000165   0.0000123   0.0000151   0.0000814
    2   0.0000465   0.0000037   0.0000089  -0.0000255   0.0000308  -0.0002606
    3   0.0000249  -0.0000162   0.0000520   0.0000065  -0.0000263  -0.0000114
           13
    1  -0.0000855
    2   0.0000171
    3   0.0000132
 Max gradient component =       3.163E-04
 RMS gradient           =       9.119E-05
 Gradient time:  CPU 7.95 s  wall 2.04 s

STARTING FREEZING STRING ITERATION # 1
 The distance between the innermost nodes (Angstroms): 2.321
-Adding two new nodes
 The distance between the previous and current R_nodes (Angstroms): 0.1146
 The distance between the previous and current P_nodes (Angstroms): 0.1096
-Optimizing new reactant side node
 Using BFGS, step: 2 E_tol 0.0201
 max_steps 6, node_spacing 0.1105, sigma 0.7000
 ----------------------------------------------------------------
             Standard Nuclear Orientation (Angstroms)
    I     Atom           X                Y                Z
 ----------------------------------------------------------------
    1      C       1.5256843715     0.4281267333    -0.3535675518
    2      C       0.8360591366    -0.8190227556     0.0626527944
    3      C      -0.5926724597    -1.0257770027    -0.3974188913
    4      C      -1.1166228766     0.3075611461     0.1065158172
    5      C      -0.4340734831     1.5365369438    -0.3659621732
    6      N       0.8749188196     1.5705187695    -0.5890241439
    7      H       2.6020672823     0.4189037553    -0.5134417003
    8      H       1.4496882382    -1.7069807049     0.2025515200
    9      H      -1.0796975415    -1.8532369017    -0.8941490056
   10      H      -2.1883609394     0.3727523709     0.2880523888
   11      H      -1.0021008907     2.4476723472    -0.5441661590
   12      C      -0.3272368833    -0.6214361379     1.0153145311
   13      H      -0.5528213963    -1.0575785673     1.9785927277
 ----------------------------------------------------------------
 Nuclear Repulsion Energy =   277.1932369442 hartrees
 There are       25 alpha and       24 beta electrons

                       Distance Matrix (Angstroms)
             C (  1)   C (  2)   C (  3)   C (  4)   C (  5)   N (  6)
   C (  2)  1.484656
   C (  3)  2.569668  1.515153
   C (  4)  2.684772  2.254791  1.518639
   C (  5)  2.251528  2.710278  2.567410  1.483068
   N (  6)  1.335663  2.477116  2.988526  2.458674  1.328297
   H (  7)  1.088230  2.232293  3.508123  3.771658  3.238673  2.077251
   H (  8)  2.207652  1.088385  2.235003  3.263978  3.793702  3.420373
   H (  9)  3.504977  2.378065  1.081029  2.381542  3.490899  3.954204
   H ( 10)  3.769466  3.258566  2.229793  1.088957  2.204462  3.404055
   H ( 11)  3.241079  3.797151  3.500574  2.239772  1.088384  2.072345
   C ( 12)  2.531548  1.516530  1.493239  1.520553  2.564408  2.970479
   H ( 13)  3.459260  2.378387  2.376559  2.384565  3.498639  3.941826
             H (  7)   H (  8)   H (  9)   H ( 10)   H ( 11)   C ( 12)
   H (  8)  2.521906
   H (  9)  4.343150  2.760785
   H ( 10)  4.857234  4.191420  2.753500
   H ( 11)  4.136046  4.881598  4.315823  2.530829
   C ( 12)  3.464134  2.235275  2.393654  2.231839  3.508112
   H ( 13)  4.282938  2.754286  3.027097  2.752955  4.341998  1.081209

 
 Applying Cartesian multipole field
    Component          Value
    ---------          -----
     (2,0,0)        1.00000E-11
     (0,2,0)        2.00000E-11
     (0,0,2)       -3.00000E-11
 Nucleus-field energy     =     0.0000000043 hartrees
 Requested basis set is 6-31G(d)
 There are 40 shells and 117 basis functions
 A cutoff of  1.0D-14 yielded    809 shell pairs
 There are      7081 function pairs
 Smallest overlap matrix eigenvalue = 1.64E-03
 Guess MOs from core Hamiltonian diagonalization
 Mixing HOMO and LUMO in initial guess
 Adding  50% of the LUMO to the HOMO
 An unrestricted hybrid HF-DFT SCF calculation will be
 performed using Pulay DIIS extrapolation
 Exchange:     0.2000 Hartree-Fock + 0.0800 Slater + 0.7200 B88
 Correlation:  0.1900 VWN1RPA + 0.8100 LYP
 Using SG-1 standard quadrature grid
 SCF converges when DIIS error is below 1.0E-08
 using 4 threads for integral computing
 -------------------------------------------------------
 OpenMP Integral computing Module                
 Release: version 1.0, May 2013, Q-Chem Inc. Pittsburgh 
 -------------------------------------------------------
 -------------------------------------------------------
 OpenMP BLAS3 based DFT computing Module                
 Release: version 1.0, May 2013, Q-Chem Inc. Pittsburgh 
 -------------------------------------------------------
 ---------------------------------------
  Cycle       Energy         DIIS Error
 ---------------------------------------
    1    -240.4623343737      1.29E-01
    2    -241.6451835940      1.02E-01
    3    -280.8777389314      4.94E-02
    4    -283.5038234337      4.12E-02
    5    -286.3076029971      1.62E-02
    6    -286.7204523802      9.28E-03
    7    -286.8383521158      3.15E-03
    8    -286.8554180793      8.31E-04
    9    -286.8567734992      2.53E-04
   10    -286.8570071307      8.72E-05
   11    -286.8570691184      3.47E-05
   12    -286.8570993685      9.82E-06
   13    -286.8571073532      6.02E-06
   14    -286.8571101334      2.49E-06
   15    -286.8571103279      7.98E-07
   16    -286.8571103347      2.54E-07
   17    -286.8571103350      8.34E-08
   18    -286.8571103350      1.59E-08
   19    -286.8571103351      6.18E-09 Convergence criterion met
 ---------------------------------------
 <S^2> = 0.7739
 SCF time:  CPU 47.21 s  wall 14.21 s
 SCF   energy in the final basis set = -286.85711034
 Total energy in the final basis set = -286.85711034
 
 --------------------------------------------------------------
 
                    Orbital Energies (a.u.)
 --------------------------------------------------------------
 
 Alpha MOs
 -- Occupied --
-14.317 -10.216 -10.216 -10.216 -10.215 -10.215 -10.214  -0.958
 -0.894  -0.750  -0.642  -0.633  -0.593  -0.544  -0.481  -0.469
 -0.466  -0.408  -0.396  -0.364  -0.343  -0.299  -0.294  -0.224
 -0.174
 -- Virtual --
  0.017   0.090   0.103   0.143   0.143   0.156   0.157   0.166
  0.200   0.213   0.232   0.268   0.287   0.307   0.320   0.390
  0.524   0.525   0.534   0.536   0.566   0.590   0.595   0.596
  0.617   0.621   0.631   0.656   0.666   0.735   0.789   0.805
  0.814   0.836   0.851   0.855   0.881   0.884   0.927   0.939
  0.958   0.985   1.138   1.153   1.160   1.208   1.255   1.370
  1.423   1.445   1.483   1.497   1.586   1.628   1.653   1.666
  1.739   1.750   1.858   1.864   1.874   1.919   2.001   2.016
  2.021   2.137   2.163   2.201   2.236   2.291   2.360   2.462
  2.472   2.487   2.531   2.578   2.595   2.602   2.619   2.688
  2.724   2.758   2.802   2.988   3.147   4.016   4.116   4.186
  4.389   4.449   4.464   4.537
 
 Beta MOs
 -- Occupied --
-14.320 -10.216 -10.216 -10.215 -10.214 -10.206 -10.206  -0.953
 -0.891  -0.738  -0.630  -0.627  -0.588  -0.541  -0.475  -0.464
 -0.463  -0.405  -0.378  -0.361  -0.328  -0.295  -0.294  -0.224
 -- Virtual --
 -0.064   0.037   0.092   0.108   0.144   0.145   0.163   0.164
  0.171   0.211   0.216   0.235   0.271   0.296   0.311   0.328
  0.395   0.526   0.531   0.543   0.551   0.568   0.598   0.602
  0.605   0.626   0.638   0.652   0.660   0.673   0.741   0.793
  0.807   0.817   0.840   0.845   0.857   0.882   0.892   0.932
  0.944   0.962   0.995   1.140   1.155   1.162   1.209   1.254
  1.387   1.430   1.446   1.492   1.512   1.587   1.643   1.666
  1.676   1.745   1.757   1.867   1.870   1.886   1.922   2.007
  2.027   2.029   2.144   2.167   2.224   2.246   2.301   2.376
  2.465   2.482   2.499   2.547   2.583   2.596   2.603   2.627
  2.691   2.727   2.763   2.808   2.990   3.152   4.012   4.132
  4.198   4.392   4.459   4.469   4.540
 --------------------------------------------------------------
 
          Ground-State Mulliken Net Atomic Charges

     Atom                 Charge (a.u.)    Spin (a.u.)
  --------------------------------------------------------
      1 C                     0.075099       0.609206
      2 C                    -0.214128      -0.052586
      3 C                    -0.090405       0.088815
      4 C                    -0.219085      -0.052864
      5 C                     0.079273       0.592844
      6 N                    -0.394561      -0.206064
      7 H                     0.133458      -0.032479
      8 H                     0.143482       0.000535
      9 H                     0.154663      -0.003982
     10 H                     0.142314       0.000601
     11 H                     0.134404      -0.031844
     12 C                    -0.099554       0.091965
     13 H                     0.155040      -0.004146
  --------------------------------------------------------
  Sum of atomic charges =    -0.000000
  Sum of spin   charges =     1.000000

 -----------------------------------------------------------------
                    Cartesian Multipole Moments
 -----------------------------------------------------------------
    Charge (ESU x 10^10)
                 0.0000
    Dipole Moment (Debye)
         X      -1.3852      Y      -2.4729      Z       0.9092
       Tot       2.9766
    Quadrupole Moments (Debye-Ang)
        XX     -37.7117     XY      -3.6058     YY     -41.9295
        XZ       0.5069     YZ       0.8527     ZZ     -41.4133
    Octopole Moments (Debye-Ang^2)
       XXX      -9.6833    XXY      -9.7060    XYY     -12.4081
       YYY     -29.8306    XXZ       2.4515    XYZ       1.6669
       YYZ       4.4127    XZZ      -6.1609    YZZ     -10.9990
       ZZZ      12.0499
    Hexadecapole Moments (Debye-Ang^3)
      XXXX    -262.2709   XXXY     -19.3816   XXYY    -103.8944
      XYYY     -34.6752   YYYY    -331.5551   XXXZ      16.2992
      XXYZ      13.9209   XYYZ      15.1865   YYYZ      41.7847
      XXZZ     -69.6659   XYZZ      -4.3366   YYZZ     -75.4822
      XZZZ      18.7011   YZZZ      32.6622   ZZZZ    -115.7668
 -----------------------------------------------------------------
 Calculating analytic gradient of the SCF energy
 Gradient of SCF Energy
            1           2           3           4           5           6
    1  -0.0047101  -0.0001927  -0.0023036  -0.0031462   0.0032359  -0.0028224
    2   0.0007919  -0.0096599  -0.0038584  -0.0008866  -0.0016334   0.0037961
    3   0.0071493  -0.0011937  -0.0134113  -0.0010663   0.0010343  -0.0033551
            7           8           9          10          11          12
    1  -0.0004810   0.0000617   0.0005574   0.0000065   0.0002105   0.0085000
    2  -0.0011168   0.0001761   0.0011529  -0.0000648  -0.0001177   0.0104160
    3  -0.0001857   0.0001286  -0.0027702   0.0000554   0.0003733   0.0123466
           13
    1   0.0010841
    2   0.0010047
    3   0.0008948
 Max gradient component =       1.341E-02
 RMS gradient           =       4.460E-03
 Gradient time:  CPU 7.38 s  wall 1.95 s
 ----------------------------------------------------------------
             Standard Nuclear Orientation (Angstroms)
    I     Atom           X                Y                Z
 ----------------------------------------------------------------
    1      C       1.5335694427     0.4260307566    -0.3623438619
    2      C       0.8348103892    -0.8034960646     0.0611986070
    3      C      -0.5892459501    -1.0173049799    -0.3724188913
    4      C      -1.1098348100     0.3085273961     0.1098905331
    5      C      -0.4422258912     1.5388739331    -0.3702811401
    6      N       0.8790594503     1.5619763091    -0.5823760617
    7      H       2.6017209116     0.4212614852    -0.5022987589
    8      H       1.4482297814    -1.7119321364     0.1975620541
    9      H      -1.0830041418    -1.8514968668    -0.8971094654
   10      H      -2.1875975112     0.3720453364     0.2930156882
   11      H      -1.0048719085     2.4453648838    -0.5514653092
   12      C      -0.3396332381    -0.6390149537     0.9916025870
   13      H      -0.5461450828    -1.0527950193     1.9809740512
 ----------------------------------------------------------------
 Nuclear Repulsion Energy =   278.2543656370 hartrees
 There are       25 alpha and       24 beta electrons

                       Distance Matrix (Angstroms)
             C (  1)   C (  2)   C (  3)   C (  4)   C (  5)   N (  6)
   C (  2)  1.476275
   C (  3)  2.567034  1.503887
   C (  4)  2.687824  2.240672  1.503817
   C (  5)  2.267653  2.702535  2.560404  1.479871
   N (  6)  1.329349  2.451858  2.975348  2.450728  1.338399
   H (  7)  1.077292  2.222506  3.502658  3.763393  3.245319  2.067657
   H (  8)  2.211710  1.104597  2.226812  3.260926  3.803158  3.413317
   H (  9)  3.509924  2.386351  1.102258  2.383374  3.490381  3.949753
   H ( 10)  3.778822  3.251244  2.219871  1.095053  2.201766  3.403914
   H ( 11)  3.249179  3.783502  3.492118  2.239304  1.082185  2.080992
   C ( 12)  2.544874  1.507323  1.437346  1.506142  2.570691  2.967656
   H ( 13)  3.464575  2.377967  2.354055  2.381575  3.500850  3.929249
             H (  7)   H (  8)   H (  9)   H ( 10)   H ( 11)   C ( 12)
   H (  8)  2.524057
   H (  9)  4.347241  2.761327
   H ( 10)  4.855154  4.191815  2.753301
   H ( 11)  4.136052  4.884861  4.311449  2.531925
   C ( 12)  3.465183  2.231167  2.364307  2.219288  3.512407
   H ( 13)  4.271832  2.755458  3.034717  2.752043  4.342902  1.092116

 
 Applying Cartesian multipole field
    Component          Value
    ---------          -----
     (2,0,0)        1.00000E-11
     (0,2,0)        2.00000E-11
     (0,0,2)       -3.00000E-11
 Nucleus-field energy     =     0.0000000043 hartrees
 Requested basis set is 6-31G(d)
 There are 40 shells and 117 basis functions
 A cutoff of  1.0D-14 yielded    809 shell pairs
 There are      7081 function pairs
 Smallest overlap matrix eigenvalue = 1.55E-03
 Guess MOs from core Hamiltonian diagonalization
 Mixing HOMO and LUMO in initial guess
 Adding  50% of the LUMO to the HOMO
 An unrestricted hybrid HF-DFT SCF calculation will be
 performed using Pulay DIIS extrapolation
 Exchange:     0.2000 Hartree-Fock + 0.0800 Slater + 0.7200 B88
 Correlation:  0.1900 VWN1RPA + 0.8100 LYP
 Using SG-1 standard quadrature grid
 SCF converges when DIIS error is below 1.0E-08
 using 4 threads for integral computing
 -------------------------------------------------------
 OpenMP Integral computing Module                
 Release: version 1.0, May 2013, Q-Chem Inc. Pittsburgh 
 -------------------------------------------------------
 -------------------------------------------------------
 OpenMP BLAS3 based DFT computing Module                
 Release: version 1.0, May 2013, Q-Chem Inc. Pittsburgh 
 -------------------------------------------------------
 ---------------------------------------
  Cycle       Energy         DIIS Error
 ---------------------------------------
    1    -239.5802818789      1.31E-01
    2    -241.4863081535      1.02E-01
    3    -280.4481137159      5.07E-02
    4    -283.1401053699      4.32E-02
    5    -286.2798767446      1.68E-02
    6    -286.7072855076      9.88E-03
    7    -286.8382452317      3.11E-03
    8    -286.8553968630      7.14E-04
    9    -286.8564103071      2.88E-04
   10    -286.8566504353      7.52E-05
   11    -286.8567082594      4.11E-05
   12    -286.8567307745      7.54E-06
   13    -286.8567395650      4.30E-06
   14    -286.8567410080      2.48E-06
   15    -286.8567411286      8.34E-07
   16    -286.8567411349      3.24E-07
   17    -286.8567411353      7.92E-08
   18    -286.8567411354      1.45E-08
   19    -286.8567411354      5.80E-09 Convergence criterion met
 ---------------------------------------
 <S^2> = 0.7738
 SCF time:  CPU 47.67 s  wall 14.16 s
 SCF   energy in the final basis set = -286.85674114
 Total energy in the final basis set = -286.85674114
 
 --------------------------------------------------------------
 
                    Orbital Energies (a.u.)
 --------------------------------------------------------------
 
 Alpha MOs
 -- Occupied --
-14.315 -10.216 -10.215 -10.214 -10.214 -10.213 -10.213  -0.966
 -0.898  -0.752  -0.645  -0.634  -0.588  -0.544  -0.484  -0.473
 -0.463  -0.409  -0.393  -0.366  -0.340  -0.303  -0.295  -0.226
 -0.173
 -- Virtual --
  0.018   0.087   0.116   0.141   0.142   0.155   0.157   0.167
  0.204   0.210   0.234   0.281   0.294   0.304   0.324   0.385
  0.524   0.530   0.540   0.543   0.572   0.590   0.594   0.602
  0.612   0.618   0.637   0.657   0.674   0.738   0.786   0.790
  0.811   0.838   0.852   0.856   0.883   0.890   0.927   0.938
  0.960   0.983   1.148   1.150   1.161   1.207   1.260   1.373
  1.411   1.465   1.488   1.498   1.580   1.629   1.656   1.675
  1.733   1.741   1.871   1.872   1.881   1.930   1.993   2.032
  2.051   2.145   2.156   2.206   2.263   2.295   2.354   2.470
  2.478   2.484   2.530   2.579   2.613   2.616   2.634   2.699
  2.743   2.795   2.813   2.988   3.160   4.020   4.118   4.188
  4.378   4.458   4.464   4.551
 
 Beta MOs
 -- Occupied --
-14.319 -10.215 -10.214 -10.214 -10.213 -10.206 -10.205  -0.962
 -0.895  -0.740  -0.632  -0.629  -0.583  -0.542  -0.478  -0.467
 -0.462  -0.406  -0.375  -0.363  -0.325  -0.301  -0.291  -0.226
 -- Virtual --
 -0.064   0.038   0.089   0.121   0.142   0.144   0.162   0.164
  0.171   0.211   0.217   0.237   0.284   0.303   0.308   0.332
  0.390   0.530   0.531   0.548   0.566   0.574   0.594   0.601
  0.611   0.618   0.644   0.652   0.660   0.680   0.743   0.788
  0.794   0.812   0.844   0.848   0.855   0.884   0.898   0.930
  0.944   0.965   0.992   1.150   1.152   1.163   1.208   1.260
  1.390   1.418   1.466   1.497   1.514   1.581   1.645   1.668
  1.681   1.741   1.749   1.874   1.885   1.890   1.934   1.998
  2.036   2.064   2.154   2.160   2.228   2.272   2.305   2.371
  2.473   2.488   2.496   2.545   2.584   2.617   2.622   2.635
  2.703   2.746   2.800   2.819   2.990   3.164   4.017   4.134
  4.200   4.382   4.463   4.474   4.553
 --------------------------------------------------------------
 
          Ground-State Mulliken Net Atomic Charges

     Atom                 Charge (a.u.)    Spin (a.u.)
  --------------------------------------------------------
      1 C                     0.079417       0.585776
      2 C                    -0.219743      -0.050751
      3 C                    -0.084714       0.090653
      4 C                    -0.220685      -0.053043
      5 C                     0.074715       0.610398
      6 N                    -0.400218      -0.205824
      7 H                     0.135746      -0.031229
      8 H                     0.140260       0.000407
      9 H                     0.152743      -0.004029
     10 H                     0.140264       0.000486
     11 H                     0.137074      -0.032440
     12 C                    -0.088006       0.093830
     13 H                     0.153146      -0.004234
  --------------------------------------------------------
  Sum of atomic charges =     0.000000
  Sum of spin   charges =     1.000000

 -----------------------------------------------------------------
                    Cartesian Multipole Moments
 -----------------------------------------------------------------
    Charge (ESU x 10^10)
                -0.0000
    Dipole Moment (Debye)
         X      -1.3718      Y      -2.4396      Z       0.9156
       Tot       2.9448
    Quadrupole Moments (Debye-Ang)
        XX     -37.6850     XY      -3.5839     YY     -41.9493
        XZ       0.5181     YZ       0.8321     ZZ     -41.3237
    Octopole Moments (Debye-Ang^2)
       XXX      -9.2334    XXY      -9.5120    XYY     -12.6257
       YYY     -29.3791    XXZ       2.4429    XYZ       1.7546
       YYZ       4.3675    XZZ      -6.1108    YZZ     -10.8755
       ZZZ      12.1271
    Hexadecapole Moments (Debye-Ang^3)
      XXXX    -262.3650   XXXY     -19.1102   XXYY    -103.8999
      XYYY     -35.0551   YYYY    -330.2425   XXXZ      16.6349
      XXYZ      13.9845   XYYZ      15.3224   YYYZ      41.6869
      XXZZ     -69.5427   XYZZ      -4.3883   YYZZ     -75.0634
      XZZZ      19.1985   YZZZ      33.1061   ZZZZ    -113.6205
 -----------------------------------------------------------------
 Calculating analytic gradient of the SCF energy
 Gradient of SCF Energy
            1           2           3           4           5           6
    1   0.0070030  -0.0151149   0.0123275   0.0112740  -0.0103802   0.0030088
    2  -0.0014236   0.0078766   0.0214964  -0.0115656   0.0058586  -0.0048130
    3   0.0021839  -0.0012048   0.0230452   0.0002509  -0.0012252   0.0004071
            7           8           9          10          11          12
    1  -0.0076782   0.0055429  -0.0059382  -0.0035642   0.0016573   0.0019462
    2  -0.0007887  -0.0081247  -0.0092394   0.0008349  -0.0031849   0.0045140
    3   0.0012450   0.0010647  -0.0081046   0.0006904   0.0009672  -0.0265630
           13
    1  -0.0000840
    2  -0.0014406
    3   0.0072432
 Max gradient component =       2.656E-02
 RMS gradient           =       8.897E-03
 Gradient time:  CPU 7.84 s  wall 2.30 s
WARNING!!!!! energy has increased from optimization step!
 ----------------------------------------------------------------
             Standard Nuclear Orientation (Angstroms)
    I     Atom           X                Y                Z
 ----------------------------------------------------------------
    1      C       1.5239188828     0.4279657888    -0.3651728975
    2      C       0.8554945645    -0.8144205102     0.0627605031
    3      C      -0.6061881566    -1.0467756794    -0.4041034893
    4      C      -1.1252914670     0.3243700903     0.1095658281
    5      C      -0.4280165806     1.5308118691    -0.3686638361
    6      N       0.8748975089     1.5685575742    -0.5829443990
    7      H       2.6122217692     0.4223327780    -0.5037197267
    8      H       1.4405877634    -1.7009087445     0.1960005803
    9      H      -1.0749137555    -1.8387213918    -0.8862155142
   10      H      -2.1826909610     0.3708875650     0.2921793743
   11      H      -1.0071911584     2.4496697549    -0.5529718385
   12      C      -0.3421741955    -0.6450921876     1.0280875379
   13      H      -0.5458227488    -1.0506368241     1.9711478779
 ----------------------------------------------------------------
 Nuclear Repulsion Energy =   276.1517370847 hartrees
 There are       25 alpha and       24 beta electrons

                       Distance Matrix (Angstroms)
             C (  1)   C (  2)   C (  3)   C (  4)   C (  5)   N (  6)
   C (  2)  1.474260
   C (  3)  2.591087  1.551924
   C (  4)  2.693404  2.285289  1.553501
   C (  5)  2.241949  2.708070  2.583981  1.473227
   N (  6)  1.330264  2.468987  3.010908  2.455266  1.320956
   H (  7)  1.097101  2.221835  3.539261  3.788762  3.238829  2.082883
   H (  8)  2.203172  1.070490  2.230988  3.270009  3.775519  3.408250
   H (  9)  3.487590  2.382483  1.038900  2.381823  3.469883  3.937421
   H ( 10)  3.764881  3.269275  2.231578  1.074060  2.204772  3.398397
   H ( 11)  3.244853  3.808282  3.522513  2.229305  1.101686  2.078344
   C ( 12)  2.564163  1.547559  1.510703  1.548164  2.587053  2.996153
   H ( 13)  3.453765  2.379376  2.376021  2.385774  3.486040  3.924540
             H (  7)   H (  8)   H (  9)   H ( 10)   H ( 11)   C ( 12)
   H (  8)  2.523983
   H (  9)  4.342078  2.741885
   H ( 10)  4.860791  4.174894  2.738276
   H ( 11)  4.148816  4.876462  4.301853  2.533262
   C ( 12)  3.494894  2.232791  2.371964  2.227393  3.538297
   H ( 13)  4.274091  2.742231  3.010904  2.742080  4.340068  1.046567

 
 Applying Cartesian multipole field
    Component          Value
    ---------          -----
     (2,0,0)        1.00000E-11
     (0,2,0)        2.00000E-11
     (0,0,2)       -3.00000E-11
 Nucleus-field energy     =     0.0000000043 hartrees
 Requested basis set is 6-31G(d)
 There are 40 shells and 117 basis functions
 A cutoff of  1.0D-14 yielded    810 shell pairs
 There are      7082 function pairs
 Smallest overlap matrix eigenvalue = 1.71E-03
 Guess MOs from core Hamiltonian diagonalization
 Mixing HOMO and LUMO in initial guess
 Adding  50% of the LUMO to the HOMO
 An unrestricted hybrid HF-DFT SCF calculation will be
 performed using Pulay DIIS extrapolation
 Exchange:     0.2000 Hartree-Fock + 0.0800 Slater + 0.7200 B88
 Correlation:  0.1900 VWN1RPA + 0.8100 LYP
 Using SG-1 standard quadrature grid
 SCF converges when DIIS error is below 1.0E-08
 using 4 threads for integral computing
 -------------------------------------------------------
 OpenMP Integral computing Module                
 Release: version 1.0, May 2013, Q-Chem Inc. Pittsburgh 
 -------------------------------------------------------
 -------------------------------------------------------
 OpenMP BLAS3 based DFT computing Module                
 Release: version 1.0, May 2013, Q-Chem Inc. Pittsburgh 
 -------------------------------------------------------
 ---------------------------------------
  Cycle       Energy         DIIS Error
 ---------------------------------------
    1    -241.3296274700      1.28E-01
    2    -238.7830572327      1.02E-01
    3    -266.3013913930      9.52E-02
    4    -264.4453587710      1.06E-01
    5    -283.8341995867      3.75E-02
    6    -286.6876465339      9.16E-03
    7    -286.7392384513      8.31E-03
    8    -286.8462641447      1.68E-03
    9    -286.8490947572      1.24E-03
   10    -286.8521658373      1.41E-04
   11    -286.8522466401      9.21E-05
   12    -286.8522781063      2.70E-05
   13    -286.8522940347      9.05E-06
   14    -286.8522991200      3.82E-06
   15    -286.8522993614      1.78E-06
   16    -286.8522994714      4.48E-07
   17    -286.8522994930      2.29E-07
   18    -286.8522994952      5.26E-08
   19    -286.8522994956      1.48E-08
   20    -286.8522994957      2.49E-09 Convergence criterion met
 ---------------------------------------
 <S^2> = 0.7727
 SCF time:  CPU 50.00 s  wall 15.42 s
 SCF   energy in the final basis set = -286.85229950
 Total energy in the final basis set = -286.85229950
 
 --------------------------------------------------------------
 
                    Orbital Energies (a.u.)
 --------------------------------------------------------------
 
 Alpha MOs
 -- Occupied --
-14.317 -10.216 -10.216 -10.216 -10.216 -10.216 -10.215  -0.951
 -0.888  -0.750  -0.639  -0.636  -0.599  -0.545  -0.481  -0.472
 -0.469  -0.409  -0.398  -0.360  -0.336  -0.299  -0.294  -0.227
 -0.172
 -- Virtual --
  0.016   0.099   0.101   0.143   0.146   0.151   0.160   0.167
  0.185   0.207   0.225   0.268   0.291   0.307   0.323   0.395
  0.514   0.526   0.532   0.537   0.552   0.579   0.590   0.595
  0.617   0.623   0.631   0.658   0.666   0.730   0.806   0.815
  0.827   0.845   0.854   0.860   0.882   0.888   0.925   0.945
  0.979   0.985   1.136   1.142   1.156   1.195   1.250   1.364
  1.420   1.470   1.481   1.498   1.600   1.618   1.633   1.674
  1.735   1.759   1.828   1.846   1.869   1.908   1.996   2.010
  2.021   2.117   2.162   2.200   2.221   2.267   2.364   2.454
  2.463   2.487   2.530   2.570   2.577   2.607   2.625   2.685
  2.723   2.732   2.787   2.998   3.159   4.025   4.114   4.175
  4.388   4.446   4.451   4.541
 
 Beta MOs
 -- Occupied --
-14.320 -10.217 -10.217 -10.214 -10.214 -10.208 -10.207  -0.946
 -0.885  -0.738  -0.631  -0.628  -0.594  -0.543  -0.476  -0.468
 -0.464  -0.406  -0.380  -0.356  -0.321  -0.295  -0.293  -0.228
 -- Virtual --
 -0.065   0.034   0.101   0.108   0.144   0.149   0.158   0.167
  0.170   0.198   0.209   0.229   0.271   0.300   0.311   0.331
  0.400   0.515   0.538   0.539   0.544   0.555   0.596   0.598
  0.599   0.628   0.638   0.651   0.662   0.673   0.736   0.810
  0.820   0.829   0.847   0.848   0.863   0.882   0.896   0.933
  0.946   0.984   0.993   1.139   1.145   1.157   1.197   1.250
  1.381   1.427   1.470   1.490   1.512   1.602   1.634   1.646
  1.683   1.740   1.766   1.831   1.858   1.883   1.910   2.001
  2.023   2.026   2.124   2.166   2.223   2.231   2.278   2.380
  2.464   2.466   2.500   2.545   2.572   2.582   2.616   2.626
  2.689   2.727   2.737   2.794   3.000   3.163   4.021   4.129
  4.186   4.392   4.454   4.458   4.544
 --------------------------------------------------------------
 
          Ground-State Mulliken Net Atomic Charges

     Atom                 Charge (a.u.)    Spin (a.u.)
  --------------------------------------------------------
      1 C                     0.077338       0.598739
      2 C                    -0.208887      -0.057359
      3 C                    -0.103009       0.104984
      4 C                    -0.212040      -0.056476
      5 C                     0.081719       0.577610
      6 N                    -0.392124      -0.199125
      7 H                     0.132556      -0.032383
      8 H                     0.145079       0.000643
      9 H                     0.153225      -0.004898
     10 H                     0.144433       0.000649
     11 H                     0.132254      -0.031444
     12 C                    -0.104221       0.103912
     13 H                     0.153676      -0.004853
  --------------------------------------------------------
  Sum of atomic charges =     0.000000
  Sum of spin   charges =     1.000000

 -----------------------------------------------------------------
                    Cartesian Multipole Moments
 -----------------------------------------------------------------
    Charge (ESU x 10^10)
                 0.0000
    Dipole Moment (Debye)
         X      -1.3780      Y      -2.4688      Z       0.9313
       Tot       2.9768
    Quadrupole Moments (Debye-Ang)
        XX     -37.7093     XY      -3.5156     YY     -41.9283
        XZ       0.5018     YZ       0.8201     ZZ     -41.3525
    Octopole Moments (Debye-Ang^2)
       XXX      -9.6592    XXY      -9.5945    XYY     -12.2016
       YYY     -29.7091    XXZ       2.5272    XYZ       1.6166
       YYZ       4.3512    XZZ      -6.1393    YZZ     -10.8872
       ZZZ      12.2573
    Hexadecapole Moments (Debye-Ang^3)
      XXXX    -263.9470   XXXY     -19.1500   XXYY    -104.3754
      XYYY     -34.5310   YYYY    -332.6174   XXXZ      16.7146
      XXYZ      13.9900   XYYZ      15.2487   YYYZ      41.8899
      XXZZ     -70.1446   XYZZ      -4.3175   YYZZ     -75.6174
      XZZZ      19.0831   YZZZ      32.7450   ZZZZ    -115.7783
 -----------------------------------------------------------------
 Calculating analytic gradient of the SCF energy
 Gradient of SCF Energy
            1           2           3           4           5           6
    1  -0.0153594   0.0337714  -0.0284606  -0.0196052   0.0152144  -0.0057712
    2   0.0031272  -0.0099458  -0.0470405   0.0260378  -0.0129239   0.0011359
    3   0.0030703  -0.0028946  -0.0476353  -0.0031442   0.0004831   0.0005306
            7           8           9          10          11          12
    1   0.0052010  -0.0093463   0.0154105   0.0098516  -0.0047824  -0.0029517
    2  -0.0015932   0.0087528   0.0265741  -0.0036117   0.0062155  -0.0086367
    3   0.0000120  -0.0011177   0.0133008  -0.0007730  -0.0009157   0.0621914
           13
    1   0.0068279
    2   0.0119085
    3  -0.0231076
 Max gradient component =       6.219E-02
 RMS gradient           =       1.926E-02
 Gradient time:  CPU 7.64 s  wall 1.97 s
WARNING!!!!! energy has increased from optimization step!
 ----------------------------------------------------------------
             Standard Nuclear Orientation (Angstroms)
    I     Atom           X                Y                Z
 ----------------------------------------------------------------
    1      C       1.5259172013     0.4274543381    -0.3633207699
    2      C       0.8396536057    -0.8239403109     0.0660562952
    3      C      -0.5948302979    -1.0296194295    -0.3984287766
    4      C      -1.1224913784     0.3111998528     0.1110238377
    5      C      -0.4273060126     1.5350695660    -0.3663577845
    6      N       0.8741666314     1.5772129093    -0.5876243406
    7      H       2.6154762557     0.4235186236    -0.5065020700
    8      H       1.4436209108    -1.6995409268     0.1965528597
    9      H      -1.0823585543    -1.8533256278    -0.8921468914
   10      H      -2.1883373480     0.3734952414     0.2916404727
   11      H      -1.0038984367     2.4473712827    -0.5520563568
   12      C      -0.3326055800    -0.6306078168     1.0111059595
   13      H      -0.5521755155    -1.0602476002     1.9860075351
 ----------------------------------------------------------------
 Nuclear Repulsion Energy =   276.7572143415 hartrees
 There are       25 alpha and       24 beta electrons

                       Distance Matrix (Angstroms)
             C (  1)   C (  2)   C (  3)   C (  4)   C (  5)   N (  6)
   C (  2)  1.490406
   C (  3)  2.573299  1.521773
   C (  4)  2.693063  2.267284  1.528321
   C (  5)  2.245418  2.712397  2.570355  1.486282
   N (  6)  1.340536  2.488780  2.998220  2.465267  1.320820
   H (  7)  1.098934  2.244443  3.525529  3.790298  3.242485  2.090395
   H (  8)  2.200986  1.071673  2.226675  3.261185  3.778881  3.417064
   H (  9)  3.504956  2.381579  1.077002  2.386029  3.490955  3.960975
   H ( 10)  3.771945  3.263965  2.232530  1.082835  2.209852  3.406020
   H ( 11)  3.242785  3.805552  3.504341  2.239859  1.095097  2.070162
   C ( 12)  2.542175  1.518120  1.488207  1.523506  2.568372  2.981059
   H ( 13)  3.471465  2.383116  2.385014  2.392006  3.504980  3.951485
             H (  7)   H (  8)   H (  9)   H ( 10)   H ( 11)   C ( 12)
   H (  8)  2.524859
   H (  9)  4.359670  2.754903
   H ( 10)  4.869924  4.183018  2.753774
   H ( 11)  4.147038  4.873156  4.314836  2.532920
   C ( 12)  3.479296  2.227352  2.383179  2.229259  3.516826
   H ( 13)  4.295135  2.755730  3.032135  2.757449  4.353069  1.087766

 
 Applying Cartesian multipole field
    Component          Value
    ---------          -----
     (2,0,0)        1.00000E-11
     (0,2,0)        2.00000E-11
     (0,0,2)       -3.00000E-11
 Nucleus-field energy     =     0.0000000043 hartrees
 Requested basis set is 6-31G(d)
 There are 40 shells and 117 basis functions
 A cutoff of  1.0D-14 yielded    808 shell pairs
 There are      7080 function pairs
 Smallest overlap matrix eigenvalue = 1.65E-03
 Guess MOs from core Hamiltonian diagonalization
 Mixing HOMO and LUMO in initial guess
 Adding  50% of the LUMO to the HOMO
 An unrestricted hybrid HF-DFT SCF calculation will be
 performed using Pulay DIIS extrapolation
 Exchange:     0.2000 Hartree-Fock + 0.0800 Slater + 0.7200 B88
 Correlation:  0.1900 VWN1RPA + 0.8100 LYP
 Using SG-1 standard quadrature grid
 SCF converges when DIIS error is below 1.0E-08
 using 4 threads for integral computing
 -------------------------------------------------------
 OpenMP Integral computing Module                
 Release: version 1.0, May 2013, Q-Chem Inc. Pittsburgh 
 -------------------------------------------------------
 -------------------------------------------------------
 OpenMP BLAS3 based DFT computing Module                
 Release: version 1.0, May 2013, Q-Chem Inc. Pittsburgh 
 -------------------------------------------------------
 ---------------------------------------
  Cycle       Energy         DIIS Error
 ---------------------------------------
    1    -240.6378206510      1.29E-01
    2    -241.6588301529      1.02E-01
    3    -280.7533399464      4.93E-02
    4    -283.0221167662      4.46E-02
    5    -286.4436426453      1.41E-02
    6    -286.7225084400      9.22E-03
    7    -286.8427959481      2.76E-03
    8    -286.8551476581      8.48E-04
    9    -286.8565006058      2.15E-04
   10    -286.8566940875      5.72E-05
   11    -286.8567498574      3.06E-05
   12    -286.8567684114      8.66E-06
   13    -286.8567743567      5.39E-06
   14    -286.8567766771      2.16E-06
   15    -286.8567769644      7.10E-07
   16    -286.8567769716      1.13E-07
   17    -286.8567769717      5.55E-08
   18    -286.8567769718      2.29E-08
   19    -286.8567769718      8.02E-09 Convergence criterion met
 ---------------------------------------
 <S^2> = 0.7736
 SCF time:  CPU 46.21 s  wall 12.48 s
 SCF   energy in the final basis set = -286.85677697
 Total energy in the final basis set = -286.85677697
 
 --------------------------------------------------------------
 
                    Orbital Energies (a.u.)
 --------------------------------------------------------------
 
 Alpha MOs
 -- Occupied --
-14.317 -10.217 -10.216 -10.216 -10.216 -10.215 -10.215  -0.956
 -0.894  -0.749  -0.642  -0.633  -0.592  -0.543  -0.481  -0.469
 -0.466  -0.408  -0.395  -0.365  -0.341  -0.299  -0.296  -0.225
 -0.173
 -- Virtual --
  0.017   0.092   0.103   0.142   0.144   0.153   0.156   0.166
  0.197   0.210   0.232   0.269   0.284   0.306   0.319   0.392
  0.522   0.526   0.534   0.536   0.562   0.589   0.594   0.595
  0.617   0.622   0.629   0.657   0.667   0.734   0.791   0.805
  0.814   0.840   0.852   0.855   0.880   0.884   0.926   0.941
  0.961   0.985   1.139   1.148   1.157   1.201   1.252   1.369
  1.419   1.452   1.482   1.497   1.585   1.628   1.652   1.670
  1.739   1.746   1.853   1.862   1.872   1.911   2.001   2.015
  2.022   2.129   2.163   2.199   2.234   2.282   2.363   2.462
  2.467   2.487   2.532   2.576   2.598   2.603   2.619   2.677
  2.716   2.758   2.797   2.990   3.145   4.018   4.113   4.182
  4.384   4.449   4.460   4.539
 
 Beta MOs
 -- Occupied --
-14.321 -10.217 -10.216 -10.215 -10.215 -10.207 -10.207  -0.952
 -0.892  -0.737  -0.630  -0.627  -0.587  -0.540  -0.476  -0.464
 -0.463  -0.405  -0.377  -0.361  -0.326  -0.295  -0.295  -0.225
 -- Virtual --
 -0.064   0.037   0.093   0.109   0.144   0.145   0.161   0.163
  0.170   0.209   0.213   0.235   0.272   0.293   0.309   0.327
  0.397   0.524   0.532   0.543   0.552   0.564   0.597   0.600
  0.605   0.627   0.637   0.652   0.661   0.674   0.739   0.794
  0.807   0.819   0.842   0.845   0.858   0.881   0.892   0.934
  0.944   0.965   0.995   1.142   1.150   1.158   1.203   1.252
  1.385   1.425   1.452   1.490   1.513   1.586   1.643   1.666
  1.678   1.746   1.752   1.863   1.867   1.883   1.915   2.006
  2.027   2.029   2.136   2.168   2.222   2.243   2.293   2.379
  2.464   2.476   2.500   2.548   2.581   2.599   2.604   2.627
  2.681   2.719   2.762   2.802   2.992   3.149   4.015   4.129
  4.193   4.388   4.459   4.466   4.541
 --------------------------------------------------------------
 
          Ground-State Mulliken Net Atomic Charges

     Atom                 Charge (a.u.)    Spin (a.u.)
  --------------------------------------------------------
      1 C                     0.070482       0.624423
      2 C                    -0.210778      -0.053942
      3 C                    -0.095554       0.090798
      4 C                    -0.217049      -0.051987
      5 C                     0.080835       0.576687
      6 N                    -0.392577      -0.204552
      7 H                     0.132551      -0.033572
      8 H                     0.145277       0.000561
      9 H                     0.154719      -0.004076
     10 H                     0.144222       0.000559
     11 H                     0.132423      -0.031269
     12 C                    -0.099112       0.090430
     13 H                     0.154562      -0.004059
  --------------------------------------------------------
  Sum of atomic charges =     0.000000
  Sum of spin   charges =     1.000000

 -----------------------------------------------------------------
                    Cartesian Multipole Moments
 -----------------------------------------------------------------
    Charge (ESU x 10^10)
                 0.0000
    Dipole Moment (Debye)
         X      -1.3884      Y      -2.4858      Z       0.9299
       Tot       2.9953
    Quadrupole Moments (Debye-Ang)
        XX     -37.6826     XY      -3.6035     YY     -41.9773
        XZ       0.5141     YZ       0.8438     ZZ     -41.4349
    Octopole Moments (Debye-Ang^2)
       XXX      -9.7706    XXY      -9.6971    XYY     -12.2631
       YYY     -30.0431    XXZ       2.5539    XYZ       1.6454
       YYZ       4.4367    XZZ      -6.1808    YZZ     -10.9458
       ZZZ      12.2326
    Hexadecapole Moments (Debye-Ang^3)
      XXXX    -262.6947   XXXY     -19.7200   XXYY    -104.2633
      XYYY     -34.9391   YYYY    -333.5148   XXXZ      16.7208
      XXYZ      14.0252   XYYZ      15.2797   YYYZ      42.1178
      XXZZ     -69.9884   XYZZ      -4.4729   YYZZ     -75.7438
      XZZZ      19.1343   YZZZ      32.8640   ZZZZ    -115.8882
 -----------------------------------------------------------------
 Calculating analytic gradient of the SCF energy
 Gradient of SCF Energy
            1           2           3           4           5           6
    1  -0.0106026   0.0093387  -0.0032218  -0.0133732   0.0137791  -0.0081664
    2   0.0010080  -0.0229585  -0.0074861   0.0037263  -0.0062296   0.0089793
    3   0.0042582   0.0040594  -0.0156967   0.0013575   0.0000519  -0.0022845
            7           8           9          10          11          12
    1   0.0067063  -0.0063725   0.0017542   0.0035918  -0.0020155   0.0080570
    2  -0.0010671   0.0094740   0.0032654  -0.0008917   0.0029907   0.0095976
    3  -0.0004707  -0.0017170  -0.0010841  -0.0004162  -0.0005183   0.0074623
           13
    1   0.0005249
    2  -0.0004083
    3   0.0049982
 Max gradient component =       2.296E-02
 RMS gradient           =       7.357E-03
 Gradient time:  CPU 7.97 s  wall 2.72 s
 FSM gradient convergence criteria satisfied
done with opt_step_by_gradient, Reactant, iter1
-Optimizing new product side node
 Using BFGS, step: 2 E_tol 0.0201453
 max_steps 6, node_spacing 0.1105453, sigma 0.7000000
 ----------------------------------------------------------------
             Standard Nuclear Orientation (Angstroms)
    I     Atom           X                Y                Z
 ----------------------------------------------------------------
    1      C       1.2588091006     0.3346432177     0.1322999293
    2      C       0.6320536685    -1.1046911966    -0.1200313101
    3      C      -0.7253706286    -1.0039873082    -0.6423643325
    4      C      -1.0585991429     0.1971871657     0.2364110975
    5      C      -0.5284715029     1.4110262541    -0.5114008440
    6      N       0.7525338016     1.4554314926    -0.6077037714
    7      H       2.3185188067     0.3312408791     0.3673039022
    8      H       1.3079811443    -1.9532983539    -0.1537410723
    9      H      -1.1749925979    -1.3514470571    -1.5688750523
   10      H      -2.0535044275     0.2674467742     0.6811985274
   11      H      -1.1623050415     2.1250902606    -1.0345540566
   12      C       0.1875033125    -0.2476359308     1.0754448030
   13      H       0.2422934048    -0.4610156686     2.1384988196
 ----------------------------------------------------------------
 Nuclear Repulsion Energy =   281.6020867551 hartrees
 There are       25 alpha and       24 beta electrons

                       Distance Matrix (Angstroms)
             C (  1)   C (  2)   C (  3)   C (  4)   C (  5)   N (  6)
   C (  2)  1.590024
   C (  3)  2.515751  1.457935
   C (  4)  2.323815  2.163387  1.525158
   C (  5)  2.183420  2.798003  2.426564  1.521073
   N (  6)  1.435300  2.608940  2.869520  2.361337  1.285387
   H (  7)  1.085460  2.267942  3.473835  3.382311  3.169134  2.160267
   H (  8)  2.306277  1.085425  2.296620  3.221414  3.849566  3.483395
   H (  9)  3.414716  2.329260  1.086881  2.381360  3.027788  3.538047
   H ( 10)  3.358158  3.120409  2.265459  1.092066  2.248509  3.308539
   H ( 11)  3.229403  3.806253  3.183685  2.311475  1.088725  2.072981
   C ( 12)  1.541515  1.536663  2.087169  1.566722  2.404550  2.460221
   H ( 13)  2.385626  2.380586  2.994059  2.396558  3.334755  3.387439
             H (  7)   H (  8)   H (  9)   H ( 10)   H ( 11)   C ( 12)
   H (  8)  2.551822
   H (  9)  4.334149  2.920614
   H ( 10)  4.383741  4.114416  2.907822
   H ( 11)  4.159235  4.848855  3.517381  2.681209
   C ( 12)  2.319006  2.382363  3.172889  2.332993  3.450204
   H ( 13)  2.841745  2.935466  4.067701  2.815150  4.327714  1.085641

 
 Applying Cartesian multipole field
    Component          Value
    ---------          -----
     (2,0,0)        1.00000E-11
     (0,2,0)        2.00000E-11
     (0,0,2)       -3.00000E-11
 Nucleus-field energy     =     0.0000000028 hartrees
 Requested basis set is 6-31G(d)
 There are 40 shells and 117 basis functions
 A cutoff of  1.0D-14 yielded    812 shell pairs
 There are      7084 function pairs
 Smallest overlap matrix eigenvalue = 1.72E-03
 Guess MOs from core Hamiltonian diagonalization
 Mixing HOMO and LUMO in initial guess
 Adding  50% of the LUMO to the HOMO
 An unrestricted hybrid HF-DFT SCF calculation will be
 performed using Pulay DIIS extrapolation
 Exchange:     0.2000 Hartree-Fock + 0.0800 Slater + 0.7200 B88
 Correlation:  0.1900 VWN1RPA + 0.8100 LYP
 Using SG-1 standard quadrature grid
 SCF converges when DIIS error is below 1.0E-08
 using 4 threads for integral computing
 -------------------------------------------------------
 OpenMP Integral computing Module                
 Release: version 1.0, May 2013, Q-Chem Inc. Pittsburgh 
 -------------------------------------------------------
 -------------------------------------------------------
 OpenMP BLAS3 based DFT computing Module                
 Release: version 1.0, May 2013, Q-Chem Inc. Pittsburgh 
 -------------------------------------------------------
 ---------------------------------------
  Cycle       Energy         DIIS Error
 ---------------------------------------
    1    -236.8434002704      1.33E-01
    2    -227.7815437739      1.10E-01
    3    -258.6040221069      1.01E-01
    4    -278.1421207025      6.65E-02
    5    -282.5989996999      4.48E-02
    6    -286.3529250815      1.55E-02
    7    -286.4382634631      1.38E-02
    8    -286.8131482452      3.42E-03
    9    -286.8204050094      3.05E-03
   10    -286.8361147718      2.79E-04
   11    -286.8363413805      1.67E-04
   12    -286.8364211369      6.03E-05
   13    -286.8364475360      2.15E-05
   14    -286.8364493611      8.82E-06
   15    -286.8364495637      1.34E-06
   16    -286.8364495879      6.67E-07
   17    -286.8364495944      3.62E-07
   18    -286.8364495962      1.05E-07
   19    -286.8364495966      2.34E-08
   20    -286.8364495966      6.12E-09 Convergence criterion met
 ---------------------------------------
 <S^2> = 0.7563
 SCF time:  CPU 50.02 s  wall 14.97 s
 SCF   energy in the final basis set = -286.83644960
 Total energy in the final basis set = -286.83644960
 
 --------------------------------------------------------------
 
                    Orbital Energies (a.u.)
 --------------------------------------------------------------
 
 Alpha MOs
 -- Occupied --
-14.321 -10.226 -10.220 -10.211 -10.209 -10.208 -10.206  -0.965
 -0.856  -0.747  -0.662  -0.608  -0.575  -0.534  -0.513  -0.467
 -0.438  -0.405  -0.400  -0.358  -0.338  -0.295  -0.275  -0.253
 -0.182
 -- Virtual --
  0.001   0.101   0.116   0.129   0.149   0.151   0.152   0.164
  0.176   0.199   0.216   0.259   0.279   0.297   0.347   0.392
  0.494   0.512   0.522   0.542   0.555   0.576   0.593   0.603
  0.604   0.657   0.673   0.675   0.720   0.739   0.771   0.778
  0.805   0.811   0.826   0.842   0.854   0.874   0.890   0.939
  0.955   0.972   1.048   1.095   1.196   1.229   1.332   1.388
  1.442   1.473   1.503   1.519   1.583   1.633   1.659   1.716
  1.740   1.829   1.866   1.872   1.926   1.952   1.969   2.027
  2.068   2.166   2.206   2.213   2.242   2.254   2.357   2.376
  2.452   2.482   2.500   2.534   2.588   2.624   2.660   2.661
  2.709   2.799   2.841   2.917   2.960   3.960   4.194   4.237
  4.351   4.433   4.506   4.625
 
 Beta MOs
 -- Occupied --
-14.320 -10.224 -10.220 -10.210 -10.209 -10.209 -10.193  -0.961
 -0.850  -0.740  -0.648  -0.603  -0.570  -0.527  -0.507  -0.460
 -0.434  -0.403  -0.394  -0.350  -0.333  -0.288  -0.264  -0.248
 -- Virtual --
 -0.060   0.016   0.103   0.120   0.134   0.150   0.154   0.158
  0.166   0.181   0.202   0.223   0.263   0.283   0.299   0.359
  0.395   0.497   0.517   0.530   0.551   0.559   0.582   0.596
  0.609   0.621   0.668   0.677   0.680   0.729   0.743   0.775
  0.788   0.807   0.814   0.827   0.844   0.858   0.881   0.894
  0.942   0.958   0.976   1.053   1.107   1.199   1.235   1.339
  1.390   1.445   1.478   1.513   1.525   1.590   1.641   1.663
  1.720   1.748   1.837   1.871   1.886   1.932   1.967   1.976
  2.035   2.077   2.172   2.218   2.220   2.258   2.265   2.361
  2.388   2.460   2.488   2.508   2.539   2.592   2.629   2.662
  2.670   2.717   2.804   2.846   2.919   2.962   3.962   4.207
  4.245   4.358   4.438   4.509   4.628
 --------------------------------------------------------------
 
          Ground-State Mulliken Net Atomic Charges

     Atom                 Charge (a.u.)    Spin (a.u.)
  --------------------------------------------------------
      1 C                    -0.019723       0.083678
      2 C                    -0.158848      -0.091657
      3 C                    -0.068432       0.895787
      4 C                    -0.256092      -0.064844
[...]
      1 C                     0.028020       0.445998
      2 C                    -0.155515      -0.018847
      3 C                    -0.106626       0.500270
      4 C                    -0.237160      -0.040058
      5 C                     0.083129       0.417933
      6 N                    -0.366895      -0.097665
      7 H                     0.131764      -0.007688
      8 H                     0.148737       0.000038
      9 H                     0.161232      -0.027514
     10 H                     0.141383       0.004085
     11 H                     0.131594      -0.020022
     12 C                    -0.121750      -0.169214
     13 H                     0.162087       0.012684
  --------------------------------------------------------
  Sum of atomic charges =    -0.000000
  Sum of spin   charges =     1.000000

 -----------------------------------------------------------------
                    Cartesian Multipole Moments
 -----------------------------------------------------------------
    Charge (ESU x 10^10)
                -0.0000
    Dipole Moment (Debye)
         X      -1.4088      Y      -2.7622      Z       1.0890
       Tot       3.2864
    Quadrupole Moments (Debye-Ang)
        XX     -38.1646     XY      -3.6801     YY     -42.3650
        XZ       1.2802     YZ       0.7830     ZZ     -41.0801
    Octopole Moments (Debye-Ang^2)
       XXX      -9.5538    XXY      -9.4831    XYY     -10.6970
       YYY     -28.8335    XXZ       3.6967    XYZ       1.1152
       YYZ       2.7214    XZZ      -6.1805    YZZ     -10.6474
       ZZZ      14.4010
    Hexadecapole Moments (Debye-Ang^3)
      XXXX    -245.6500   XXXY     -10.4115   XXYY     -96.1548
      XYYY     -24.6569   YYYY    -318.2479   XXXZ       4.6473
      XXYZ      11.5393   XYYZ      10.3807   YYYZ      29.4940
      XXZZ     -68.5330   XYZZ      -2.6225   YYZZ     -73.8092
      XZZZ       3.6995   YZZZ      22.3780   ZZZZ    -126.4033
 -----------------------------------------------------------------
 Calculating analytic gradient of the SCF energy
 Gradient of SCF Energy
            1           2           3           4           5           6
    1  -0.0311466  -0.0043704  -0.0035508   0.0012371  -0.0021098   0.0023847
    2  -0.0010419  -0.0160035   0.0071884  -0.0090236  -0.0059992  -0.0025412
    3   0.0282855  -0.0077299  -0.0161650  -0.0012270   0.0029306  -0.0060334
            7           8           9          10          11          12
    1   0.0075378   0.0038006  -0.0039750  -0.0028556  -0.0002219   0.0297663
    2  -0.0024124  -0.0031842  -0.0051661   0.0009811   0.0023594   0.0335571
    3  -0.0051625   0.0034566  -0.0167245  -0.0002912   0.0017948   0.0063493
           13
    1   0.0035038
    2   0.0012859
    3   0.0105167
 Max gradient component =       3.356E-02
 RMS gradient           =       1.161E-02
 Gradient time:  CPU 7.53 s  wall 2.05 s
 ----------------------------------------------------------------
             Standard Nuclear Orientation (Angstroms)
    I     Atom           X                Y                Z
 ----------------------------------------------------------------
    1      C       1.4177114722     0.3930584739    -0.1300295469
    2      C       0.7623945445    -0.9541513349    -0.1168715348
    3      C      -0.6406693353    -0.9703234816    -0.5926276527
    4      C      -1.0820827436     0.2850460806     0.1495247599
    5      C      -0.5005606997     1.5057796799    -0.4617237367
    6      N       0.8103904666     1.5160418800    -0.5591623377
    7      H       2.5085736517     0.4200454206     0.0106006495
    8      H       1.3902123827    -1.8469198062    -0.0127189888
    9      H      -1.2205151990    -1.7704846352    -1.0807231601
   10      H      -2.1271994094     0.3521903841     0.4735936960
   11      H      -1.0868749378     2.3552675363    -0.8076052325
   12      C      -0.0539422538    -0.4272976857     1.0502982226
   13      H      -0.1992258959    -0.8693175094     2.0459779731
 ----------------------------------------------------------------
 Nuclear Repulsion Energy =   278.7803683219 hartrees
 There are       25 alpha and       24 beta electrons

                       Distance Matrix (Angstroms)
             C (  1)   C (  2)   C (  3)   C (  4)   C (  5)   N (  6)
   C (  2)  1.498195
   C (  3)  2.511919  1.481619
   C (  4)  2.517695  2.238007  1.523676
   C (  5)  2.242306  2.786618  2.483516  1.483908
   N (  6)  1.346880  2.509936  2.879011  2.366230  1.314607
   H (  7)  1.100221  2.225715  3.494959  3.595878  3.233697  2.099920
   H (  8)  2.243217  1.096375  2.286743  3.268615  3.875206  3.456053
   H (  9)  3.541889  2.351030  1.102142  2.399558  3.411071  3.898443
   H ( 10)  3.596168  3.225668  2.257353  1.096265  2.202621  3.324240
   H ( 11)  3.253049  3.853461  3.362272  2.280776  1.088590  2.089411
   C ( 12)  2.057164  1.518639  1.827110  1.541395  2.494487  2.667209
   H ( 13)  2.990500  2.368508  2.677184  2.389252  3.467053  3.673693
             H (  7)   H (  8)   H (  9)   H ( 10)   H ( 11)   C ( 12)
   H (  8)  2.527925
   H (  9)  4.460439  2.821768
   H ( 10)  4.659330  4.176694  2.782755
   H ( 11)  4.164348  4.942285  4.136941  2.595393
   C ( 12)  2.892309  2.287119  2.776022  2.288796  3.501632
   H ( 13)  3.624555  2.778534  3.410483  2.771562  4.396454  1.099030

 
 Applying Cartesian multipole field
    Component          Value
    ---------          -----
     (2,0,0)        1.00000E-11
     (0,2,0)        2.00000E-11
     (0,0,2)       -3.00000E-11
 Nucleus-field energy     =     0.0000000037 hartrees
 Requested basis set is 6-31G(d)
 There are 40 shells and 117 basis functions
 A cutoff of  1.0D-14 yielded    811 shell pairs
 There are      7083 function pairs
 Smallest overlap matrix eigenvalue = 1.89E-03
 Guess MOs from core Hamiltonian diagonalization
 Mixing HOMO and LUMO in initial guess
 Adding  50% of the LUMO to the HOMO
 An unrestricted hybrid HF-DFT SCF calculation will be
 performed using Pulay DIIS extrapolation
 Exchange:     0.2000 Hartree-Fock + 0.0800 Slater + 0.7200 B88
 Correlation:  0.1900 VWN1RPA + 0.8100 LYP
 Using SG-1 standard quadrature grid
 SCF converges when DIIS error is below 1.0E-08
 using 4 threads for integral computing
 -------------------------------------------------------
 OpenMP Integral computing Module                
 Release: version 1.0, May 2013, Q-Chem Inc. Pittsburgh 
 -------------------------------------------------------
 -------------------------------------------------------
 OpenMP BLAS3 based DFT computing Module                
 Release: version 1.0, May 2013, Q-Chem Inc. Pittsburgh 
 -------------------------------------------------------
 ---------------------------------------
  Cycle       Energy         DIIS Error
 ---------------------------------------
    1    -238.7000888756      1.32E-01
    2    -233.3398348063      1.02E-01
    3    -262.1995045900      9.73E-02
    4    -277.3347015679      7.05E-02
    5    -280.4963511448      5.28E-02
    6    -285.4539299377      2.46E-02
    7    -285.7303902701      2.18E-02
    8    -286.6460137937      7.74E-03
    9    -286.7416121051      4.89E-03
   10    -286.7795165353      1.23E-03
   11    -286.7814006963      8.61E-04
   12    -286.7830023566      2.52E-04
   13    -286.7832826860      1.25E-04
   14    -286.7834757948      6.58E-05
   15    -286.7836161371      4.42E-05
   16    -286.7836960930      2.23E-05
   17    -286.7837374573      1.27E-05
   18    -286.7837532089      5.21E-06
   19    -286.7837539468      2.16E-06
   20    -286.7837541332      5.32E-07
   21    -286.7837541450      9.76E-08
   22    -286.7837541459      4.45E-08
   23    -286.7837541459      1.18E-08
   24    -286.7837541459      5.73E-09 Convergence criterion met
 ---------------------------------------
 <S^2> = 0.8083
 SCF time:  CPU 59.41 s  wall 17.83 s
 SCF   energy in the final basis set = -286.78375415
 Total energy in the final basis set = -286.78375415
 
 --------------------------------------------------------------
 
                    Orbital Energies (a.u.)
 --------------------------------------------------------------
 
 Alpha MOs
 -- Occupied --
-14.312 -10.235 -10.227 -10.219 -10.218 -10.214 -10.198  -0.954
 -0.867  -0.749  -0.634  -0.624  -0.604  -0.540  -0.485  -0.458
 -0.444  -0.413  -0.408  -0.376  -0.356  -0.300  -0.266  -0.218
 -0.133
 -- Virtual --
 -0.023   0.037   0.083   0.131   0.142   0.147   0.160   0.166
  0.183   0.195   0.218   0.246   0.296   0.307   0.346   0.402
  0.486   0.504   0.515   0.533   0.550   0.583   0.595   0.607
  0.612   0.641   0.656   0.676   0.685   0.741   0.784   0.803
  0.815   0.818   0.846   0.860   0.867   0.887   0.920   0.935
  0.963   1.021   1.076   1.114   1.129   1.244   1.278   1.313
  1.397   1.427   1.458   1.509   1.549   1.612   1.676   1.738
  1.753   1.797   1.803   1.856   1.895   1.961   2.013   2.040
  2.072   2.154   2.192   2.232   2.292   2.303   2.359   2.391
  2.411   2.446   2.480   2.558   2.569   2.583   2.634   2.663
  2.682   2.744   2.805   2.972   3.107   4.013   4.173   4.217
  4.356   4.414   4.502   4.515
 
 Beta MOs
 -- Occupied --
-14.313 -10.236 -10.221 -10.219 -10.218 -10.207 -10.191  -0.949
 -0.863  -0.739  -0.627  -0.613  -0.599  -0.537  -0.479  -0.453
 -0.438  -0.409  -0.396  -0.367  -0.353  -0.289  -0.258  -0.206
 -- Virtual --
 -0.038  -0.012   0.058   0.086   0.137   0.147   0.149   0.165
  0.172   0.186   0.198   0.223   0.250   0.302   0.313   0.352
  0.406   0.495   0.507   0.519   0.538   0.555   0.595   0.601
  0.618   0.628   0.656   0.664   0.682   0.694   0.744   0.786
  0.806   0.818   0.823   0.848   0.864   0.868   0.890   0.926
  0.937   0.971   1.024   1.084   1.118   1.132   1.248   1.283
  1.318   1.402   1.433   1.469   1.517   1.556   1.617   1.690
  1.744   1.759   1.804   1.813   1.865   1.901   1.968   2.023
  2.052   2.077   2.164   2.210   2.237   2.301   2.314   2.372
  2.399   2.414   2.458   2.491   2.568   2.576   2.588   2.640
  2.668   2.690   2.750   2.809   2.976   3.113   4.014   4.185
  4.227   4.359   4.423   4.507   4.516
 --------------------------------------------------------------
 
          Ground-State Mulliken Net Atomic Charges

     Atom                 Charge (a.u.)    Spin (a.u.)
  --------------------------------------------------------
      1 C                     0.031547       0.454096
      2 C                    -0.156681      -0.019206
      3 C                    -0.105783       0.456192
      4 C                    -0.234318      -0.040775
      5 C                     0.080524       0.434751
      6 N                    -0.368488      -0.099632
      7 H                     0.130913      -0.008617
      8 H                     0.148951       0.000050
      9 H                     0.162317      -0.025023
     10 H                     0.141420       0.003828
     11 H                     0.130926      -0.021016
     12 C                    -0.123918      -0.145704
     13 H                     0.162590       0.011055
  --------------------------------------------------------
  Sum of atomic charges =     0.000000
  Sum of spin   charges =     1.000000

 -----------------------------------------------------------------
                    Cartesian Multipole Moments
 -----------------------------------------------------------------
    Charge (ESU x 10^10)
                 0.0000
    Dipole Moment (Debye)
         X      -1.4218      Y      -2.8089      Z       1.0792
       Tot       3.3280
    Quadrupole Moments (Debye-Ang)
        XX     -38.1913     XY      -3.6713     YY     -42.3887
        XZ       1.3156     YZ       0.8329     ZZ     -41.0259
    Octopole Moments (Debye-Ang^2)
       XXX      -9.6419    XXY      -9.5388    XYY     -10.6842
       YYY     -28.9968    XXZ       3.7087    XYZ       1.0762
       YYZ       2.6901    XZZ      -6.1846    YZZ     -10.6834
       ZZZ      14.4068
    Hexadecapole Moments (Debye-Ang^3)
      XXXX    -246.2853   XXXY     -10.5110   XXYY     -96.3007
      XYYY     -24.7000   YYYY    -318.5465   XXXZ       5.0205
      XXYZ      11.6763   XYYZ      10.5033   YYYZ      29.7430
      XXZZ     -68.5283   XYZZ      -2.5858   YYZZ     -73.7265
      XZZZ       4.0834   YZZZ      22.6571   ZZZZ    -125.7084
 -----------------------------------------------------------------
 Calculating analytic gradient of the SCF energy
 Gradient of SCF Energy
            1           2           3           4           5           6
    1  -0.0318348  -0.0056873  -0.0036410   0.0011808  -0.0020475   0.0015854
    2  -0.0013681  -0.0173764   0.0072412  -0.0093678  -0.0061127  -0.0024699
    3   0.0307904  -0.0078112  -0.0191678  -0.0011189   0.0029505  -0.0065903
            7           8           9          10          11          12
    1   0.0068259   0.0038781  -0.0043599  -0.0026920  -0.0002937   0.0329782
    2  -0.0025989  -0.0034765  -0.0053454   0.0009523   0.0022325   0.0358681
    3  -0.0048647   0.0034379  -0.0174057  -0.0001304   0.0017696   0.0074780
           13
    1   0.0041079
    2   0.0018216
    3   0.0106627
 Max gradient component =       3.587E-02
 RMS gradient           =       1.244E-02
 Gradient time:  CPU 8.13 s  wall 2.10 s
 E1 = -286.7823243, E2 = -286.7837541, Emax = -286.7830214
 Iteration 5, Curvature = -0.9585709
 Curvature, final (in Hartree/Bohr^2) = -0.2684272
 ----------------------------------------------------------------
             Standard Nuclear Orientation (Angstroms)
    I     Atom           X                Y                Z
 ----------------------------------------------------------------
    1      C       1.4164492158     0.3927066826    -0.1278003935
    2      C       0.7613354443    -0.9553628177    -0.1167814709
    3      C      -0.6408594223    -0.9701594465    -0.5956611152
    4      C      -1.0818216202     0.2845394384     0.1497263516
    5      C      -0.5005048623     1.5056528033    -0.4617427939
    6      N       0.8097346301     1.5161016041    -0.5596302594
    7      H       2.5079890251     0.4199121227     0.0113641423
    8      H       1.3901525334    -1.8471492632    -0.0129140649
    9      H      -1.2210830258    -1.7707686403    -1.0812474292
   10      H      -2.1269422707     0.3522302414     0.4739020394
   11      H      -1.0869450526     2.3550738026    -0.8078114880
   12      C      -0.0509413235    -0.4250857305     1.0510676665
   13      H      -0.1983387165    -0.8687196859     2.0460531824
 ----------------------------------------------------------------
 Nuclear Repulsion Energy =   278.7645784310 hartrees
 There are       25 alpha and       24 beta electrons
 Requested basis set is 6-31G(d)
 There are 40 shells and 117 basis functions
 Geometry Optimization Parameters
   NAtoms,    NIC,     NZ,  NCons,   NDum,   NFix, NCnnct, MaxDiis
       13     127       0       0       0       0       0       0


** GEOMETRY OPTIMIZATION IN DELOCALIZED INTERNAL COORDINATES **
   Searching for a Minimum

   Optimization Cycle:   1

                       Coordinates (Angstroms)
     ATOM                X               Y               Z
      1  C         1.4164492158    0.3927066826   -0.1278003935
      2  C         0.7613354443   -0.9553628177   -0.1167814709
      3  C        -0.6408594223   -0.9701594465   -0.5956611152
      4  C        -1.0818216202    0.2845394384    0.1497263516
      5  C        -0.5005048623    1.5056528033   -0.4617427939
      6  N         0.8097346301    1.5161016041   -0.5596302594
      7  H         2.5079890251    0.4199121227    0.0113641423
      8  H         1.3901525334   -1.8471492632   -0.0129140649
      9  H        -1.2210830258   -1.7707686403   -1.0812474292
     10  H        -2.1269422707    0.3522302414    0.4739020394
     11  H        -1.0869450526    2.3550738026   -0.8078114880
     12  C        -0.0509413235   -0.4250857305    1.0510676665
     13  H        -0.1983387165   -0.8687196859    2.0460531824
   Point Group: c1    Number of degrees of freedom:    33


   Energy is   -286.783754146


 Attempting to Generate Delocalized Internal Coordinates

 33 Hessian modes will be used to form the next step
  Hessian Eigenvalues:
     0.012944    0.014554    0.019663    0.019823    0.021434    0.023039
     0.027127    0.028528    0.030920    0.043087    0.044126    0.052825
     0.055880    0.063696    0.113826    0.144753    0.156606    0.159994
     0.192743    0.228699    0.234077    0.243500    0.271604    0.302319
     0.331102    0.335105    0.336035    0.337560    0.340908    0.341147
     0.349674    0.507564    0.592170

 Minimum Search - Taking Simple RFO Step
 Searching for Lamda that Minimizes Along All modes
 Value Taken    Lamda =  -0.02460338
 Calculated Step too Large.  Step scaled by  0.546625
 Step Taken.  Stepsize is  0.300000

                             Maximum     Tolerance    Cnvgd?
         Gradient           0.023379      0.000300      NO
         Displacement       0.141903      0.001200      NO
         Energy change     *********      0.000001      NO


 New Cartesian Coordinates Obtained by Inverse Iteration

 Displacement from previous Coordinates is:  0.284862
 ----------------------------------------------------------------
             Standard Nuclear Orientation (Angstroms)
    I     Atom           X                Y                Z
 ----------------------------------------------------------------
    1      C       1.4457183755     0.4074814409    -0.1678735598
    2      C       0.7684004651    -0.9396038460    -0.1083388340
    3      C      -0.6406978107    -0.9760371976    -0.5666720868
    4      C      -1.0830414547     0.2911143881     0.1558790080
    5      C      -0.4874861001     1.5135109045    -0.4590688607
    6      N       0.8225658919     1.5314612313    -0.5715288215
    7      H       2.5298982767     0.4459381304    -0.0132147944
    8      H       1.3970986229    -1.8277943252    -0.0187015761
    9      H      -1.2168765575    -1.7814331386    -1.0231411244
   10      H      -2.1289372645     0.3638152003     0.4693697835
   11      H      -1.0756163741     2.3568194292    -0.8138497039
   12      C      -0.0879760195    -0.4616200851     1.0583670079
   13      H      -0.2648254963    -0.9346810211     2.0272979295
 ----------------------------------------------------------------
 Nuclear Repulsion Energy =   277.7568949222 hartrees
 There are       25 alpha and       24 beta electrons

































 Eigenvalues after right structure
 -0.2970592 -0.0000000 -0.0000000 -0.0000000 -0.0000000 0.0000000 0.0000092 0.0167576 0.0237889 0.0348827 0.0522397 0.0566608 0.0641828 0.0678355 0.0699250 0.0719745 0.0854534 0.1037632 0.1161967 0.1282131 0.1624876 0.2269690 0.2417222 0.2623323 0.2763751 0.2971833 0.3972032 0.4904407 0.5101581 0.6318420 0.7692307 0.9832668 1.0189297 1.0527214 1.1686437 1.2189660 1.2917385 1.3840492 1.6848023
Archival summary:
1\1\c8-90\JobtypUnspecified\ProcedureUnspecified\6-31G*\166(2)\hpark21\WedMar221:45:502022WedMar221:45:502022\0\\#,JobtypUnspecified,ProcedureUnspecified,6-31G*,\\0,2\N\C,1,1.31499\H,2,1.08763,1,120.015\C,1,1.34707,2,115.078,3,-176.532,0\H,4,1.09583,1,118.079,2,-165.756,0\C,2,1.49235,1,116.359,3,179.453,0\H,6,1.09429,2,116.427,1,165.888,0\C,4,1.50895,1,123.303,2,23.2625,0\H,8,1.09187,4,118.098,1,164.689,0\C,8,1.48221,4,115.879,1,1.84808,0\H,10,1.09042,8,130.537,4,150.712,0\C,8,1.52416,4,90.1399,1,-69.4374,0\H,12,1.09265,8,129.343,4,-129.565,0\\\@

 Total job time:  1520.38s(wall), 4700.94s(cpu) 
 Wed Mar  2 21:45:50 2022

        *************************************************************
        *                                                           *
        *  Thank you very much for using Q-Chem.  Have a nice day.  *
        *                                                           *
        *************************************************************


