
Running Job 1 of 1 qcts1.in
qchem qcts1.in_124088.0 ./qcts1.d/ 1
/home/leeping/opt/qchem/5.0.2-openmp/exe/qcprog.exe_s qcts1.in_124088.0 ./qcts1.d/
Check license passed

                  Welcome to Q-Chem
     A Quantum Leap Into The Future Of Chemistry


 Q-Chem 5.0, Q-Chem, Inc., Pleasanton, CA (2017)

 Yihan Shao,  Zhengting Gan,  E. Epifanovsky,  A. T. B. Gilbert,  M. Wormit,  
 J. Kussmann,  A. W. Lange,  A. Behn,  Jia Deng,  Xintian Feng,  D. Ghosh,  
 M. Goldey,  P. R. Horn,  L. D. Jacobson,  I. Kaliman,  T. Kus,  A. Landau,  
 Jie Liu,  E. I. Proynov,  R. M. Richard,  R. P. Steele,  E. J. Sundstrom,  
 H. L. Woodcock III,  P. M. Zimmerman,  D. Zuev,  B. Albrecht,  E. Alguire,  
 S. A. Baeppler,  D. Barton,  Z. Benda,  Y. A. Bernard,  E. J. Berquist,  
 K. B. Bravaya,  H. Burton,  D. Casanova,  Chun-Min Chang,  Yunqing Chen,  
 A. Chien,  K. D. Closser,  M. P. Coons,  S. Dasgupta,  A. L. Dempwolff,  
 M. Diedenhofen,  Hainam Do,  R. G. Edgar,  Po-Tung Fang,  S. Fatehi,  
 Qingguo Feng,  J. Fosso-Tande,  Qinghui Ge,  A. Ghysels,  G. Gidofalvi,  
 J. Gomes,  J. Gonthier,  A. Gunina,  M. W. D. Hanson-Heine,  
 P. H. P. Harbach,  A. W. Hauser,  J. E. Herr,  E. G. Hohenstein,  
 Z. C. Holden,  Kerwin Hui,  T.-C. Jagau,  Hyunjun Ji,  B. Kaduk,  
 K. Khistyaev,  Jaehoon Kim,  P. Klunzinger,  K. Koh,  D. Kosenkov,  
 L. Koulias,  T. Kowalczyk,  C. M. Krauter,  A. Kunitsa,  Ka Un Lao,  
 A. Laurent,  K. V. Lawler,  Joonho Lee,  D. Lefrancois,  S. Lehtola,  
 D. S. Levine,  Yi-Pei Li,  You-Sheng Lin,  Fenglai Liu,  E. Livshits,  
 A. Luenser,  P. Manohar,  E. Mansoor,  S. F. Manzer,  Shan-Ping Mao,  
 Yuezhi Mao,  N. Mardirossian,  A. V. Marenich,  T. Markovich,  
 L. A. Martinez-Martinez,  S. A. Maurer,  N. J. Mayhall,  S. C. McKenzie,  
 J.-M. Mewes,  A. F. Morrison,  J. W. Mullinax,  K. Nanda,  
 T. S. Nguyen-Beck,  R. Olivares-Amaya,  J. A. Parkhill,  T. M. Perrine,  
 F. Plasser,  S. Prager,  A. Prociuk,  E. Ramos,  D. R. Rehn,  F. Rob,  
 M. Schneider,  N. Sergueev,  S. M. Sharada,  S. Sharma,  D. W. Small,  
 T. Stauch,  T. Stein,  Yu-Chuan Su,  A. J. W. Thom,  A. Tkatchenko,  
 T. Tsuchimochi,  L. Vogt,  O. Vydrov,  M. A. Watson,  J. Wenzel,  
 M. de Wergifosse,  T. A. Wesolowski,  A. White,  J. Witte,  A. Yamada,  
 Jun Yang,  K. Yao,  S. Yeganeh,  S. R. Yost,  Zhi-Qiang You,  A. Zech,  
 Igor Ying Zhang,  Xing Zhang,  Yan Zhao,  Ying Zhu,  B. R. Brooks,  
 G. K. L. Chan,  C. J. Cramer,  M. S. Gordon,  W. J. Hehre,  A. Klamt,  
 M. W. Schmidt,  C. D. Sherrill,  D. G. Truhlar,  A. Aspuru-Guzik,  R. Baer,  
 A. T. Bell,  N. A. Besley,  Jeng-Da Chai,  R. A. DiStasio Jr.,  A. Dreuw,  
 B. D. Dunietz,  T. R. Furlani,  Chao-Ping Hsu,  Yousung Jung,  Jing Kong,  
 D. S. Lambrecht,  WanZhen Liang,  C. Ochsenfeld,  V. A. Rassolov,  
 L. V. Slipchenko,  J. E. Subotnik,  T. Van Voorhis,  J. M. Herbert,  
 A. I. Krylov,  P. M. W. Gill,  M. Head-Gordon

 Contributors to earlier versions of Q-Chem not listed above: 
 R. D. Adamson,  B. Austin,  J. Baker,  G. J. O. Beran,  K. Brandhorst,  
 S. T. Brown,  E. F. C. Byrd,  A. K. Chakraborty,  C.-L. Cheng,  
 Siu Hung Chien,  D. M. Chipman,  D. L. Crittenden,  H. Dachsel,  
 R. J. Doerksen,  A. D. Dutoi,  L. Fusti-Molnar,  W. A. Goddard III,  
 A. Golubeva-Zadorozhnaya,  S. R. Gwaltney,  G. Hawkins,  A. Heyden,  
 S. Hirata,  G. Kedziora,  F. J. Keil,  C. Kelley,  Jihan Kim,  R. A. King,  
 R. Z. Khaliullin,  P. P. Korambath,  W. Kurlancheek,  A. M. Lee,  M. S. Lee,  
 S. V. Levchenko,  Ching Yeh Lin,  D. Liotard,  R. C. Lochan,  I. Lotan,  
 P. E. Maslen,  N. Nair,  D. P. O'Neill,  D. Neuhauser,  E. Neuscamman,  
 C. M. Oana,  R. Olson,  B. Peters,  R. Peverati,  P. A. Pieniazek,  
 Y. M. Rhee,  J. Ritchie,  M. A. Rohrdanz,  E. Rosta,  N. J. Russ,  
 H. F. Schaefer III,  N. E. Schultz,  N. Shenvi,  A. C. Simmonett,  A. Sodt,  
 D. Stuck,  K. S. Thanthiriwatte,  V. Vanovschi,  Tao Wang,  A. Warshel,  
 C. F. Williams,  Q. Wu,  X. Xu,  W. Zhang

 Please cite Q-Chem as follows:
 Y. Shao et al., Mol. Phys. 113, 184-215 (2015)
 DOI: 10.1080/00268976.2014.952696

 Q-Chem 5.0.2 for Intel X86 EM64T Linux

 Parts of Q-Chem use Armadillo 5.200.1 (Boston Tea Smuggler).
 http://arma.sourceforge.net/

 Q-Chem begins on Wed Mar  2 21:45:53 2022  

Host: 
0

     Scratch files written to ./qcts1.d//
 Dec517 15110_ 26548  26544 5633   
Processing $rem in /home/leeping/opt/qchem/5.0.2-openmp/config/preferences.
 MEM_STATIC 2000
 MEM_TOTAL  8000
 SYMMETRY   OFF
 SYM_IGNORE TRUE 

Checking the input file for inconsistencies... 	...done.

--------------------------------------------------------------
User input:
--------------------------------------------------------------
$molecule
0 2
C        1.4457183755    0.4074814409   -0.1678735598
C        0.7684004651   -0.9396038460   -0.1083388340
C       -0.6406978107   -0.9760371976   -0.5666720868
C       -1.0830414547    0.2911143881    0.1558790080
C       -0.4874861001    1.5135109045   -0.4590688607
N        0.8225658919    1.5314612313   -0.5715288215
H        2.5298982767    0.4459381304   -0.0132147944
H        1.3970986229   -1.8277943252   -0.0187015761
H       -1.2168765575   -1.7814331386   -1.0231411244
H       -2.1289372645    0.3638152003    0.4693697835
H       -1.0756163741    2.3568194292   -0.8138497039
C       -0.0879760195   -0.4616200851    1.0583670079
H       -0.2648254963   -0.9346810211    2.0272979295
$end

$rem
method                b3lyp
basis                 6-31g(d)
unrestricted          true
symmetry              off
sym_ignore            true
incdft                false
incfock               0
scf_convergence       8
thresh                14
jobtype               sp
scf_guess             core
scf_guess_mix         5
scf_algorithm         diis
max_scf_cycles        100
$end

--------------------------------------------------------------
 ----------------------------------------------------------------
             Standard Nuclear Orientation (Angstroms)
    I     Atom           X                Y                Z
 ----------------------------------------------------------------
    1      C       1.4457183755     0.4074814409    -0.1678735598
    2      C       0.7684004651    -0.9396038460    -0.1083388340
    3      C      -0.6406978107    -0.9760371976    -0.5666720868
    4      C      -1.0830414547     0.2911143881     0.1558790080
    5      C      -0.4874861001     1.5135109045    -0.4590688607
    6      N       0.8225658919     1.5314612313    -0.5715288215
    7      H       2.5298982767     0.4459381304    -0.0132147944
    8      H       1.3970986229    -1.8277943252    -0.0187015761
    9      H      -1.2168765575    -1.7814331386    -1.0231411244
   10      H      -2.1289372645     0.3638152003     0.4693697835
   11      H      -1.0756163741     2.3568194292    -0.8138497039
   12      C      -0.0879760195    -0.4616200851     1.0583670079
   13      H      -0.2648254963    -0.9346810211     2.0272979295
 ----------------------------------------------------------------
 Nuclear Repulsion Energy =   277.7568949189 hartrees
 There are       25 alpha and       24 beta electrons
 Requested basis set is 6-31G(d)
 There are 40 shells and 117 basis functions

 Total QAlloc Memory Limit   8000 MB
 Mega-Array Size      1956 MB
 MEM_STATIC part      2000 MB

                       Distance Matrix (Angstroms)
             C (  1)   C (  2)   C (  3)   C (  4)   C (  5)   N (  6)
   C (  2)  1.508954
   C (  3)  2.535014  1.482213
   C (  4)  2.552055  2.238820  1.524277
   C (  5)  2.246191  2.778135  2.496578  1.492347
   N (  6)  1.347066  2.514685  2.903225  2.387241  1.314993
   H (  7)  1.095830  2.243134  3.518666  3.620207  3.231579  2.098823
   H (  8)  2.240775  1.091869  2.275605  3.266703  3.861334  3.452579
   H (  9)  3.551372  2.342406  1.090417  2.388190  3.421527  3.916446
   H ( 10)  3.631274  3.229120  2.254649  1.094285  2.208656  3.340395
   H ( 11)  3.251820  3.842467  3.370191  2.282009  1.087629  2.083994
   C ( 12)  2.147376  1.524156  1.791892  1.539886  2.522571  2.730938
   H ( 13)  3.089683  2.372451  2.621387  2.382071  3.496461  3.744086
             H (  7)   H (  8)   H (  9)   H ( 10)   H ( 11)   C ( 12)
   H (  8)  2.540300
   H (  9)  4.474311  2.800699
   H ( 10)  4.684483  4.180227  2.767948
   H ( 11)  4.158391  4.925198  4.145949  2.593878
   C ( 12)  2.970726  2.287347  2.710904  2.278987  3.524802
   H ( 13)  3.725625  2.783120  3.305839  2.754659  4.423062  1.092653

 
 A cutoff of  1.0D-14 yielded    811 shell pairs
 There are      7083 function pairs
 
 -------------------------------------------------------
 OpenMP Integral Computing Module                       
 Release: version 1.0, May 2013, Q-Chem Inc. Pittsburgh 
 -------------------------------------------------------
 Integral Job Info:
 Integral job number is                      11
 Integral operator is                         1
 short-range coefficients                     0
 long-range coefficients              100000000
 Omega coefficients                           0
 if combine SR and LR in K                    0
 Integral screening is                        0
 Integral computing path is                   2
 max size of driver memory is            800000
 size of driver memory is                593474
 size of scratch memory is              2361544
 max col of scratch BK array               1296
 max len of scratch array in speh3          155
 max len of scratch index in speh4           18
 max int batch size is                      520
 min int batch size is                       52
 fixed nKL is                                52
 max L of basis functions is                  2
 order of int derivative is                   0
 number of shells is                         40
 number of basis is                         117
 number of cartesian basis is               117
 number of contracted shell pairs           811
 number of primitive shell pairs           3569
 maxK2 (contraction) of shell pair           36
 max number of K2 of shell pair               1
 max number of CS2 of shell pair             84
 max number of PS2 of shell pair            420
 mem total for path MDJ                  535308
 -------------------------------------------------------
 Smallest overlap matrix eigenvalue = 1.93E-03

 Scale SEOQF with 1.000000e-01/1.000000e-01/1.000000e-01

 Standard Electronic Orientation quadrupole field applied
 Nucleus-field energy     =     0.0000000038 hartrees
 Guess MOs from core Hamiltonian diagonalization
 Mixing HOMO and LUMO in initial guess
 Adding  50% of the LUMO to the HOMO
 An unrestricted hybrid HF-DFT SCF calculation will be
 performed using Pulay DIIS extrapolation
 Exchange:     0.2000 Hartree-Fock + 0.0800 Slater + 0.7200 B88
 Correlation:  0.1900 VWN1RPA + 0.8100 LYP
 Using SG-1 standard quadrature grid
 SCF converges when DIIS error is below 1.0E-08
 using 4 threads for integral computing
 -------------------------------------------------------
 OpenMP Integral computing Module                
 Release: version 1.0, May 2013, Q-Chem Inc. Pittsburgh 
 -------------------------------------------------------
 -------------------------------------------------------
 OpenMP BLAS3 based DFT computing Module                
 Release: version 1.0, May 2013, Q-Chem Inc. Pittsburgh 
 -------------------------------------------------------
 ---------------------------------------
  Cycle       Energy         DIIS Error
 ---------------------------------------
    1    -239.4496215926      1.31E-01
    2    -235.6464688479      1.02E-01
    3    -265.6195525302      9.13E-02
    4    -270.3290010412      8.99E-02
    5    -282.4475854258      4.22E-02
    6    -285.7686770256      2.28E-02
    7    -286.0048747053      1.92E-02
    8    -286.6744898838      7.61E-03
    9    -286.7886213785      2.03E-03
   10    -286.7938063830      1.40E-03
   11    -286.7973122618      3.11E-04
   12    -286.7976526561      1.76E-04
   13    -286.7977796231      7.00E-05
   14    -286.7978837230      3.12E-05
   15    -286.7979063131      1.57E-05
   16    -286.7979151942      4.44E-06
   17    -286.7979186750      2.45E-06
   18    -286.7979203081      2.22E-06
   19    -286.7979212195      1.56E-06
   20    -286.7979215654      2.61E-07
   21    -286.7979215768      6.04E-08
   22    -286.7979215771      3.15E-08
   23    -286.7979215771      1.08E-08
   24    -286.7979215771      3.25E-09 Convergence criterion met
 ---------------------------------------
 <S^2> = 0.7763
 SCF time:  CPU 59.55 s  wall 18.01 s
 SCF   energy in the final basis set = -286.79792158
 Total energy in the final basis set = -286.79792158
 
 --------------------------------------------------------------
 
                    Orbital Energies (a.u.)
 --------------------------------------------------------------
 
 Alpha MOs
 -- Occupied --
-14.312 -10.231 -10.230 -10.222 -10.220 -10.211 -10.198  -0.950
 -0.870  -0.746  -0.633  -0.623  -0.606  -0.541  -0.484  -0.458
 -0.445  -0.410  -0.407  -0.372  -0.358  -0.301  -0.268  -0.218
 -0.139
 -- Virtual --
 -0.010   0.032   0.085   0.134   0.144   0.147   0.161   0.164
  0.185   0.200   0.217   0.244   0.291   0.303   0.342   0.400
  0.490   0.505   0.514   0.536   0.549   0.583   0.594   0.606
  0.609   0.644   0.655   0.674   0.679   0.740   0.781   0.805
  0.818   0.822   0.846   0.859   0.865   0.888   0.926   0.937
  0.963   1.016   1.080   1.118   1.135   1.244   1.276   1.306
  1.395   1.436   1.460   1.507   1.535   1.601   1.671   1.732
  1.755   1.788   1.818   1.848   1.886   1.952   1.999   2.038
  2.064   2.146   2.184   2.226   2.265   2.307   2.353   2.385
  2.415   2.446   2.493   2.561   2.567   2.581   2.623   2.666
  2.674   2.736   2.800   2.973   3.112   4.009   4.160   4.215
  4.367   4.405   4.499   4.510
 
 Beta MOs
 -- Occupied --
-14.314 -10.230 -10.227 -10.222 -10.221 -10.203 -10.191  -0.945
 -0.867  -0.735  -0.626  -0.613  -0.601  -0.538  -0.479  -0.453
 -0.439  -0.407  -0.395  -0.364  -0.355  -0.290  -0.262  -0.205
 -- Virtual --
 -0.042  -0.003   0.056   0.087   0.140   0.147   0.149   0.167
  0.171   0.189   0.204   0.221   0.247   0.298   0.309   0.347
  0.405   0.498   0.509   0.518   0.541   0.553   0.593   0.602
  0.617   0.626   0.656   0.664   0.680   0.690   0.742   0.785
  0.807   0.822   0.826   0.846   0.863   0.867   0.891   0.932
  0.940   0.971   1.021   1.087   1.121   1.138   1.248   1.279
  1.310   1.402   1.443   1.471   1.514   1.544   1.606   1.684
  1.737   1.762   1.796   1.826   1.856   1.892   1.961   2.009
  2.049   2.072   2.154   2.202   2.230   2.279   2.314   2.362
  2.395   2.420   2.458   2.502   2.571   2.575   2.586   2.629
  2.670   2.681   2.742   2.803   2.977   3.118   4.010   4.173
  4.224   4.370   4.415   4.505   4.512
 --------------------------------------------------------------
 
          Ground-State Mulliken Net Atomic Charges

     Atom                 Charge (a.u.)    Spin (a.u.)
  --------------------------------------------------------
      1 C                     0.044448       0.523076
      2 C                    -0.172093      -0.029666
      3 C                    -0.097709       0.238896
      4 C                    -0.227275      -0.044006
      5 C                     0.074645       0.486879
      6 N                    -0.371037      -0.116461
      7 H                     0.130060      -0.017595
      8 H                     0.149597      -0.000021
      9 H                     0.165212      -0.012686
     10 H                     0.141921       0.002103
     11 H                     0.129895      -0.025078
     12 C                    -0.129811      -0.008582
     13 H                     0.162147       0.003142
  --------------------------------------------------------
  Sum of atomic charges =     0.000000
  Sum of spin   charges =     1.000000

 -----------------------------------------------------------------
                    Cartesian Multipole Moments
 -----------------------------------------------------------------
    Charge (ESU x 10^10)
                 0.0000
    Dipole Moment (Debye)
         X      -1.4800      Y      -2.8971      Z       0.9941
       Tot       3.4017
    Quadrupole Moments (Debye-Ang)
        XX     -38.1392     XY      -3.5677     YY     -42.2450
        XZ       1.3353     YZ       0.9222     ZZ     -41.1564
    Octopole Moments (Debye-Ang^2)
       XXX     -10.0480    XXY      -9.7314    XYY     -10.9700
       YYY     -30.0116    XXZ       3.8716    XYZ       1.2116
       YYZ       2.8437    XZZ      -6.4726    YZZ     -10.8232
       ZZZ      14.1652
    Hexadecapole Moments (Debye-Ang^3)
      XXXX    -249.3203   XXXY     -12.0998   XXYY     -97.4762
      XYYY     -26.3577   YYYY    -322.4692   XXXZ       8.0544
      XXYZ      12.7395   XYYZ      11.5044   YYYZ      32.3039
      XXZZ     -69.1593   XYZZ      -3.1205   YYZZ     -74.1062
      XZZZ       6.7517   YZZZ      24.8379   ZZZZ    -125.4009
 -----------------------------------------------------------------
Archival summary:
1\1\c8-90\SP\ProcedureUnspecified\6-31G*\166(2)\hpark21\WedMar221:46:122022WedMar221:46:122022\0\\#,ProcedureUnspecified,6-31G*,\\0,2\N\C,1,1.31499\H,2,1.08763,1,120.015\C,1,1.34707,2,115.078,3,-176.532,0\H,4,1.09583,1,118.079,2,-165.756,0\C,2,1.49235,1,116.359,3,179.453,0\H,6,1.09429,2,116.427,1,165.888,0\C,4,1.50895,1,123.303,2,23.2625,0\H,8,1.09187,4,118.098,1,164.689,0\C,8,1.48221,4,115.879,1,1.84808,0\H,10,1.09042,8,130.537,4,150.712,0\C,8,1.52416,4,90.1399,1,-69.4374,0\H,12,1.09265,8,129.343,4,-129.565,0\\\@

 Total job time:  18.73s(wall), 61.11s(cpu) 
 Wed Mar  2 21:46:12 2022

        *************************************************************
        *                                                           *
        *  Thank you very much for using Q-Chem.  Have a nice day.  *
        *                                                           *
        *************************************************************


