
Running Job 1 of 1 qcts1.in
qchem qcts1.in_124558.0 ./qcts1.d/ 1
/home/leeping/opt/qchem/5.0.2-openmp/exe/qcprog.exe_s qcts1.in_124558.0 ./qcts1.d/
Check license passed

                  Welcome to Q-Chem
     A Quantum Leap Into The Future Of Chemistry


 Q-Chem 5.0, Q-Chem, Inc., Pleasanton, CA (2017)

 Yihan Shao,  Zhengting Gan,  E. Epifanovsky,  A. T. B. Gilbert,  M. Wormit,  
 J. Kussmann,  A. W. Lange,  A. Behn,  Jia Deng,  Xintian Feng,  D. Ghosh,  
 M. Goldey,  P. R. Horn,  L. D. Jacobson,  I. Kaliman,  T. Kus,  A. Landau,  
 Jie Liu,  E. I. Proynov,  R. M. Richard,  R. P. Steele,  E. J. Sundstrom,  
 H. L. Woodcock III,  P. M. Zimmerman,  D. Zuev,  B. Albrecht,  E. Alguire,  
 S. A. Baeppler,  D. Barton,  Z. Benda,  Y. A. Bernard,  E. J. Berquist,  
 K. B. Bravaya,  H. Burton,  D. Casanova,  Chun-Min Chang,  Yunqing Chen,  
 A. Chien,  K. D. Closser,  M. P. Coons,  S. Dasgupta,  A. L. Dempwolff,  
 M. Diedenhofen,  Hainam Do,  R. G. Edgar,  Po-Tung Fang,  S. Fatehi,  
 Qingguo Feng,  J. Fosso-Tande,  Qinghui Ge,  A. Ghysels,  G. Gidofalvi,  
 J. Gomes,  J. Gonthier,  A. Gunina,  M. W. D. Hanson-Heine,  
 P. H. P. Harbach,  A. W. Hauser,  J. E. Herr,  E. G. Hohenstein,  
 Z. C. Holden,  Kerwin Hui,  T.-C. Jagau,  Hyunjun Ji,  B. Kaduk,  
 K. Khistyaev,  Jaehoon Kim,  P. Klunzinger,  K. Koh,  D. Kosenkov,  
 L. Koulias,  T. Kowalczyk,  C. M. Krauter,  A. Kunitsa,  Ka Un Lao,  
 A. Laurent,  K. V. Lawler,  Joonho Lee,  D. Lefrancois,  S. Lehtola,  
 D. S. Levine,  Yi-Pei Li,  You-Sheng Lin,  Fenglai Liu,  E. Livshits,  
 A. Luenser,  P. Manohar,  E. Mansoor,  S. F. Manzer,  Shan-Ping Mao,  
 Yuezhi Mao,  N. Mardirossian,  A. V. Marenich,  T. Markovich,  
 L. A. Martinez-Martinez,  S. A. Maurer,  N. J. Mayhall,  S. C. McKenzie,  
 J.-M. Mewes,  A. F. Morrison,  J. W. Mullinax,  K. Nanda,  
 T. S. Nguyen-Beck,  R. Olivares-Amaya,  J. A. Parkhill,  T. M. Perrine,  
 F. Plasser,  S. Prager,  A. Prociuk,  E. Ramos,  D. R. Rehn,  F. Rob,  
 M. Schneider,  N. Sergueev,  S. M. Sharada,  S. Sharma,  D. W. Small,  
 T. Stauch,  T. Stein,  Yu-Chuan Su,  A. J. W. Thom,  A. Tkatchenko,  
 T. Tsuchimochi,  L. Vogt,  O. Vydrov,  M. A. Watson,  J. Wenzel,  
 M. de Wergifosse,  T. A. Wesolowski,  A. White,  J. Witte,  A. Yamada,  
 Jun Yang,  K. Yao,  S. Yeganeh,  S. R. Yost,  Zhi-Qiang You,  A. Zech,  
 Igor Ying Zhang,  Xing Zhang,  Yan Zhao,  Ying Zhu,  B. R. Brooks,  
 G. K. L. Chan,  C. J. Cramer,  M. S. Gordon,  W. J. Hehre,  A. Klamt,  
 M. W. Schmidt,  C. D. Sherrill,  D. G. Truhlar,  A. Aspuru-Guzik,  R. Baer,  
 A. T. Bell,  N. A. Besley,  Jeng-Da Chai,  R. A. DiStasio Jr.,  A. Dreuw,  
 B. D. Dunietz,  T. R. Furlani,  Chao-Ping Hsu,  Yousung Jung,  Jing Kong,  
 D. S. Lambrecht,  WanZhen Liang,  C. Ochsenfeld,  V. A. Rassolov,  
 L. V. Slipchenko,  J. E. Subotnik,  T. Van Voorhis,  J. M. Herbert,  
 A. I. Krylov,  P. M. W. Gill,  M. Head-Gordon

 Contributors to earlier versions of Q-Chem not listed above: 
 R. D. Adamson,  B. Austin,  J. Baker,  G. J. O. Beran,  K. Brandhorst,  
 S. T. Brown,  E. F. C. Byrd,  A. K. Chakraborty,  C.-L. Cheng,  
 Siu Hung Chien,  D. M. Chipman,  D. L. Crittenden,  H. Dachsel,  
 R. J. Doerksen,  A. D. Dutoi,  L. Fusti-Molnar,  W. A. Goddard III,  
 A. Golubeva-Zadorozhnaya,  S. R. Gwaltney,  G. Hawkins,  A. Heyden,  
 S. Hirata,  G. Kedziora,  F. J. Keil,  C. Kelley,  Jihan Kim,  R. A. King,  
 R. Z. Khaliullin,  P. P. Korambath,  W. Kurlancheek,  A. M. Lee,  M. S. Lee,  
 S. V. Levchenko,  Ching Yeh Lin,  D. Liotard,  R. C. Lochan,  I. Lotan,  
 P. E. Maslen,  N. Nair,  D. P. O'Neill,  D. Neuhauser,  E. Neuscamman,  
 C. M. Oana,  R. Olson,  B. Peters,  R. Peverati,  P. A. Pieniazek,  
 Y. M. Rhee,  J. Ritchie,  M. A. Rohrdanz,  E. Rosta,  N. J. Russ,  
 H. F. Schaefer III,  N. E. Schultz,  N. Shenvi,  A. C. Simmonett,  A. Sodt,  
 D. Stuck,  K. S. Thanthiriwatte,  V. Vanovschi,  Tao Wang,  A. Warshel,  
 C. F. Williams,  Q. Wu,  X. Xu,  W. Zhang

 Please cite Q-Chem as follows:
 Y. Shao et al., Mol. Phys. 113, 184-215 (2015)
 DOI: 10.1080/00268976.2014.952696

 Q-Chem 5.0.2 for Intel X86 EM64T Linux

 Parts of Q-Chem use Armadillo 5.200.1 (Boston Tea Smuggler).
 http://arma.sourceforge.net/

 Q-Chem begins on Wed Mar  2 22:00:19 2022  

Host: 
0

     Scratch files written to ./qcts1.d//
 Dec517 15110_ 26548  26544 5633   
Processing $rem in /home/leeping/opt/qchem/5.0.2-openmp/config/preferences.
 MEM_STATIC 2000
 MEM_TOTAL  8000
 SYMMETRY   OFF
 SYM_IGNORE TRUE 

Checking the input file for inconsistencies... 	...done.

--------------------------------------------------------------
User input:
--------------------------------------------------------------
$molecule
0 2
C        1.3772623140    0.4049408716   -0.0672527251
C        0.7611129004   -0.9488782542   -0.2778986225
C       -0.6719715728   -0.9530604616   -0.6998641752
C       -1.0633702502    0.3306264497    0.1101737772
C       -0.4706481616    1.5454422381   -0.4890304707
N        0.8344950765    1.5704780198   -0.5266055203
H        2.3726390996    0.4210152040    0.3668266948
H        1.3778590650   -1.8413108447   -0.2528312794
H       -1.2204218134   -1.8771879946   -0.5154279062
H       -2.0830306320    0.3836792246    0.4873865625
H       -1.0605770415    2.3517152493   -0.9159952618
C       -0.0030230499   -0.4352083788    0.9060941557
H       -0.1721013794   -0.9632802123    1.8429491382
$end

$rem
method                b3lyp
basis                 6-31g(d)
unrestricted          true
symmetry              off
sym_ignore            true
incdft                false
incfock               0
scf_convergence       8
thresh                14
jobtype               sp
scf_guess             read
scf_algorithm         diis
max_scf_cycles        100
$end

--------------------------------------------------------------
 ----------------------------------------------------------------
             Standard Nuclear Orientation (Angstroms)
    I     Atom           X                Y                Z
 ----------------------------------------------------------------
    1      C       1.3772623140     0.4049408716    -0.0672527251
    2      C       0.7611129004    -0.9488782542    -0.2778986225
    3      C      -0.6719715728    -0.9530604616    -0.6998641752
    4      C      -1.0633702502     0.3306264497     0.1101737772
    5      C      -0.4706481616     1.5454422381    -0.4890304707
    6      N       0.8344950765     1.5704780198    -0.5266055203
    7      H       2.3726390996     0.4210152040     0.3668266948
    8      H       1.3778590650    -1.8413108447    -0.2528312794
    9      H      -1.2204218134    -1.8771879946    -0.5154279062
   10      H      -2.0830306320     0.3836792246     0.4873865625
   11      H      -1.0605770415     2.3517152493    -0.9159952618
   12      C      -0.0030230499    -0.4352083788     0.9060941557
   13      H      -0.1721013794    -0.9632802123     1.8429491382
 ----------------------------------------------------------------
 Nuclear Repulsion Energy =   280.4780204191 hartrees
 There are       25 alpha and       24 beta electrons
 Requested basis set is 6-31G(d)
 There are 40 shells and 117 basis functions

 Total QAlloc Memory Limit   8000 MB
 Mega-Array Size      1956 MB
 MEM_STATIC part      2000 MB

                       Distance Matrix (Angstroms)
             C (  1)   C (  2)   C (  3)   C (  4)   C (  5)   N (  6)
   C (  2)  1.502278
   C (  3)  2.538449  1.493922
   C (  4)  2.448201  2.261962  1.567548
   C (  5)  2.212106  2.789883  2.515452  1.478561
   N (  6)  1.365312  2.532666  2.944097  2.354700  1.305924
   H (  7)  1.086029  2.211175  3.506504  3.446767  3.175076  2.117870
   H (  8)  2.253905  1.085099  2.278296  3.287656  3.865600  3.465617
   H (  9)  3.486680  2.201059  1.090333  2.300106  3.503891  4.013628
   H ( 10)  3.504526  3.232727  2.277614  1.088490  2.214240  3.308871
   H ( 11)  3.233165  3.823564  3.334557  2.266678  1.086458  2.086445
   C ( 12)  1.886383  1.499866  1.815149  1.531120  2.467392  2.603237
   H ( 13)  2.814503  2.317130  2.591500  2.339031  3.438160  3.612196
             H (  7)   H (  8)   H (  9)   H ( 10)   H ( 11)   C ( 12)
   H (  8)  2.547878
   H (  9)  4.355479  2.611763
   H ( 10)  4.457457  4.180462  2.619399
   H ( 11)  4.142488  4.895633  4.250838  2.624511
   C ( 12)  2.582189  2.286278  2.362645  2.274274  3.493619
   H ( 13)  3.251294  2.750566  2.737909  2.702499  4.403448  1.088643

 
 A cutoff of  1.0D-14 yielded    810 shell pairs
 There are      7082 function pairs
 
 -------------------------------------------------------
 OpenMP Integral Computing Module                       
 Release: version 1.0, May 2013, Q-Chem Inc. Pittsburgh 
 -------------------------------------------------------
 Integral Job Info:
 Integral job number is                      11
 Integral operator is                         1
 short-range coefficients                     0
 long-range coefficients              100000000
 Omega coefficients                           0
 if combine SR and LR in K                    0
 Integral screening is                        0
 Integral computing path is                   2
 max size of driver memory is            800000
 size of driver memory is                593474
 size of scratch memory is              2361544
 max col of scratch BK array               1296
 max len of scratch array in speh3          155
 max len of scratch index in speh4           18
 max int batch size is                      520
 min int batch size is                       52
 fixed nKL is                                52
 max L of basis functions is                  2
 order of int derivative is                   0
 number of shells is                         40
 number of basis is                         117
 number of cartesian basis is               117
 number of contracted shell pairs           810
 number of primitive shell pairs           3581
 maxK2 (contraction) of shell pair           36
 max number of K2 of shell pair               1
 max number of CS2 of shell pair             84
 max number of PS2 of shell pair            414
 mem total for path MDJ                  535308
 -------------------------------------------------------
 Smallest overlap matrix eigenvalue = 2.06E-03

 Scale SEOQF with 1.000000e-01/1.000000e-01/1.000000e-01

 Standard Electronic Orientation quadrupole field applied
 Nucleus-field energy     =     0.0000000040 hartrees
 Guess MOs from SCF MO coefficient file
 Reading MOs from coefficient file
 Reading MOs from coefficient file
 An unrestricted hybrid HF-DFT SCF calculation will be
 performed using Pulay DIIS extrapolation
 Exchange:     0.2000 Hartree-Fock + 0.0800 Slater + 0.7200 B88
 Correlation:  0.1900 VWN1RPA + 0.8100 LYP
 Using SG-1 standard quadrature grid
 SCF converges when DIIS error is below 1.0E-08
Using Q-Chem read-in guess as SCF_GUESS READ specified.

 using 4 threads for integral computing
 -------------------------------------------------------
 OpenMP Integral computing Module                
 Release: version 1.0, May 2013, Q-Chem Inc. Pittsburgh 
 -------------------------------------------------------
 -------------------------------------------------------
 OpenMP BLAS3 based DFT computing Module                
 Release: version 1.0, May 2013, Q-Chem Inc. Pittsburgh 
 -------------------------------------------------------
 ---------------------------------------
  Cycle       Energy         DIIS Error
 ---------------------------------------
    1    -286.7917785059      2.97E-09
    2    -286.7917785060      4.72E-09 Convergence criterion met
 ---------------------------------------
 <S^2> = 0.7795
 SCF time:  CPU 5.07 s  wall 2.14 s
 SCF   energy in the final basis set = -286.79177851
 Total energy in the final basis set = -286.79177851
 
 --------------------------------------------------------------
 
                    Orbital Energies (a.u.)
 --------------------------------------------------------------
 
 Alpha MOs
 -- Occupied --
-14.316 -10.239 -10.234 -10.219 -10.218 -10.216 -10.208  -0.966
 -0.875  -0.755  -0.644  -0.625  -0.603  -0.547  -0.497  -0.450
 -0.439  -0.423  -0.412  -0.369  -0.363  -0.310  -0.267  -0.244
 -0.126
 -- Virtual --
 -0.014   0.053   0.080   0.127   0.144   0.147   0.158   0.159
  0.180   0.186   0.207   0.248   0.287   0.307   0.334   0.407
  0.483   0.510   0.516   0.527   0.554   0.556   0.582   0.594
  0.605   0.645   0.655   0.667   0.700   0.737   0.764   0.803
  0.822   0.831   0.845   0.851   0.867   0.878   0.934   0.940
  0.954   1.042   1.091   1.109   1.138   1.216   1.311   1.345
  1.378   1.404   1.474   1.499   1.556   1.627   1.650   1.716
  1.745   1.788   1.838   1.881   1.893   1.965   1.993   2.025
  2.102   2.148   2.175   2.238   2.280   2.334   2.359   2.372
  2.409   2.456   2.475   2.505   2.561   2.577   2.629   2.651
  2.691   2.735   2.799   2.964   3.064   4.005   4.184   4.217
  4.356   4.405   4.501   4.517
 
 Beta MOs
 -- Occupied --
-14.316 -10.240 -10.231 -10.216 -10.216 -10.210 -10.204  -0.961
 -0.871  -0.748  -0.636  -0.616  -0.600  -0.543  -0.492  -0.446
 -0.432  -0.419  -0.401  -0.363  -0.355  -0.291  -0.261  -0.234
 -- Virtual --
 -0.033   0.007   0.066   0.083   0.131   0.148   0.152   0.161
  0.164   0.185   0.189   0.213   0.251   0.291   0.314   0.342
  0.411   0.493   0.513   0.523   0.531   0.559   0.571   0.593
  0.598   0.614   0.657   0.664   0.675   0.705   0.743   0.766
  0.805   0.825   0.834   0.847   0.853   0.871   0.884   0.936
  0.947   0.961   1.046   1.095   1.115   1.143   1.220   1.317
  1.351   1.384   1.409   1.481   1.506   1.563   1.630   1.659
  1.720   1.755   1.803   1.851   1.886   1.899   1.971   1.998
  2.031   2.111   2.159   2.188   2.252   2.289   2.342   2.365
  2.380   2.418   2.461   2.491   2.514   2.568   2.582   2.634
  2.657   2.696   2.741   2.807   2.967   3.068   4.007   4.193
  4.227   4.366   4.409   4.508   4.519
 --------------------------------------------------------------
 
          Ground-State Mulliken Net Atomic Charges

     Atom                 Charge (a.u.)    Spin (a.u.)
  --------------------------------------------------------
      1 C                     0.026447       0.246327
      2 C                    -0.172295       0.066046
      3 C                    -0.105643       0.576266
      4 C                    -0.249923       0.016033
      5 C                     0.096072       0.255489
      6 N                    -0.374133      -0.011759
      7 H                     0.152389      -0.010287
      8 H                     0.158730      -0.007401
      9 H                     0.146221      -0.004914
     10 H                     0.148681      -0.003166
     11 H                     0.138830      -0.013940
     12 C                    -0.125182      -0.126784
     13 H                     0.159806       0.018091
  --------------------------------------------------------
  Sum of atomic charges =    -0.000000
  Sum of spin   charges =     1.000000

 -----------------------------------------------------------------
                    Cartesian Multipole Moments
 -----------------------------------------------------------------
    Charge (ESU x 10^10)
                -0.0000
    Dipole Moment (Debye)
         X      -0.9803      Y      -2.4733      Z       1.7708
       Tot       3.1960
    Quadrupole Moments (Debye-Ang)
        XX     -37.9764     XY      -4.1023     YY     -41.9814
        XZ       0.6263     YZ      -0.6301     ZZ     -42.6049
    Octopole Moments (Debye-Ang^2)
       XXX      -8.9550    XXY      -9.6110    XYY     -11.2463
       YYY     -31.7096    XXZ       8.1253    XYZ       3.6137
       YYZ       5.7770    XZZ      -4.4729    YZZ      -8.5348
       ZZZ      20.3045
    Hexadecapole Moments (Debye-Ang^3)
      XXXX    -237.0439   XXXY     -12.6976   XXYY     -96.7145
      XYYY     -27.9685   YYYY    -327.4468   XXXZ       3.0676
      XXYZ       9.3289   XYYZ       7.1580   YYYZ      21.8886
      XXZZ     -66.3955   XYZZ      -6.0023   YYZZ     -75.9737
      XZZZ      -1.0909   YZZZ      16.0295   ZZZZ    -124.7104
 -----------------------------------------------------------------
Archival summary:
1\1\c8-90\SP\ProcedureUnspecified\6-31G*\166(2)\hpark21\WedMar222:00:222022WedMar222:00:222022\0\\#,ProcedureUnspecified,6-31G*,\\0,2\N\C,1,1.30592\H,2,1.08646,1,121.14\C,1,1.36531,2,111.793,3,-173.491,0\H,4,1.08603,1,119.091,2,-153.203,0\C,2,1.47856,1,115.344,3,177.312,0\H,6,1.08849,2,118.42,1,158.895,0\C,4,1.50228,1,123.993,2,34.9893,0\H,8,1.0851,4,120.319,1,155.953,0\C,8,1.49392,4,115.822,1,-15.9716,0\H,10,1.09033,8,115.92,4,-159.033,0\C,8,1.49987,4,77.8563,1,-82.0792,0\H,12,1.08864,8,126.323,4,-129.855,0\\\@

 Total job time:  2.92s(wall), 6.59s(cpu) 
 Wed Mar  2 22:00:22 2022

        *************************************************************
        *                                                           *
        *  Thank you very much for using Q-Chem.  Have a nice day.  *
        *                                                           *
        *************************************************************


