13
image # 1 Energy = -286.85846
C 1.53603   0.43009   -0.38011  
C 0.84375   -0.79744  0.07988   
C -0.58625  -1.02748  -0.38203  
C -1.11701  0.31177   0.10159   
C -0.42770  1.54193   -0.35643  
N 0.88351   1.57225   -0.58692  
H 2.60909   0.41952   -0.56108  
H 1.45509   -1.68686  0.22371   
H -1.06968  -1.87170  -0.85366  
H -2.19136  0.37710   0.26518   
H -0.99093  2.45961   -0.51504  
C -0.35102  -0.64067  1.00554   
H -0.59353  -1.08813  1.95937   
13
image # 2 Energy = -286.85678
C 1.52392   0.42797   -0.36517  
C 0.85549   -0.81442  0.06276   
C -0.60619  -1.04678  -0.40410  
C -1.12529  0.32437   0.10957   
C -0.42802  1.53081   -0.36866  
N 0.87490   1.56856   -0.58294  
H 2.61222   0.42233   -0.50372  
H 1.44059   -1.70091  0.19600   
H -1.07491  -1.83872  -0.88622  
H -2.18269  0.37089   0.29218   
H -1.00719  2.44967   -0.55297  
C -0.34217  -0.64509  1.02809   
H -0.54582  -1.05064  1.97115   
13
image # 3 Energy = -286.85627
C 1.53119   0.42297   -0.35079  
C 0.82883   -0.80967  0.04355   
C -0.60142  -1.02398  -0.38724  
C -1.10675  0.31047   0.11760   
C -0.45112  1.53549   -0.37973  
N 0.87701   1.55947   -0.58092  
H 2.60368   0.42643   -0.44687  
H 1.44038   -1.72948  0.17165   
H -1.09416  -1.83060  -0.93006  
H -2.18601  0.36905   0.31952   
H -1.01630  2.43098   -0.58853  
C -0.32981  -0.64053  1.00789   
H -0.50455  -1.02330  1.99651   
13
image # 4 Energy = -286.85503
C 1.52821   0.41282   -0.33859  
C 0.82563   -0.83318  0.02807   
C -0.61213  -1.02855  -0.39238  
C -1.10845  0.31124   0.12979   
C -0.45473  1.52849   -0.39187  
N 0.86639   1.56597   -0.57878  
H 2.60665   0.43253   -0.38137  
H 1.42433   -1.73819  0.13934   
H -1.10391  -1.80114  -0.96226  
H -2.18097  0.36624   0.34903   
H -1.02866  2.41381   -0.63119  
C -0.31807  -0.64197  1.00395   
H -0.45709  -0.99197  2.01410   
13
image # 5 Energy = -286.85336
C 1.51701   0.41360   -0.32716  
C 0.82259   -0.84244  0.00952   
C -0.61927  -1.02723  -0.39142  
C -1.10904  0.31150   0.13942   
C -0.45734  1.52230   -0.40310  
N 0.86230   1.55687   -0.57361  
H 2.60565   0.43611   -0.32124  
H 1.41399   -1.75366  0.11202   
H -1.11550  -1.77787  -0.99516  
H -2.17340  0.36332   0.37491   
H -1.04133  2.39904   -0.66905  
C -0.30858  -0.64304  1.00107   
H -0.41244  -0.96232  2.02786   
13
image # 6 Energy = -286.85043
C 1.51981   0.41539   -0.31117  
C 0.81656   -0.85542  -0.01134  
C -0.63106  -1.02892  -0.39590  
C -1.10879  0.31129   0.14719   
C -0.45961  1.51430   -0.41127  
N 0.85725   1.55210   -0.57199  
H 2.59194   0.43962   -0.25723  
H 1.40430   -1.76700  0.08366   
H -1.12799  -1.75645  -1.02315  
H -2.16578  0.36197   0.40087   
H -1.05257  2.38390   -0.70759  
C -0.29371  -0.63758  0.99787   
H -0.36751  -0.93638  2.04062   
13
image # 7 Energy = -286.84766
C 1.49741   0.41307   -0.30402  
C 0.81183   -0.85352  -0.04072  
C -0.64020  -1.02419  -0.39356  
C -1.10465  0.31002   0.15761   
C -0.46331  1.51130   -0.42210  
N 0.86100   1.54753   -0.56750  
H 2.59785   0.45131   -0.17106  
H 1.39268   -1.78005  0.04588   
H -1.15116  -1.74270  -1.04324  
H -2.15870  0.36556   0.43359   
H -1.05946  2.35867   -0.75746  
C -0.28448  -0.64474  0.99672   
H -0.31730  -0.91472  2.04353   
13
image # 8 Energy = -286.84442
C 1.50477   0.41496   -0.28519  
C 0.80289   -0.86855  -0.06653  
C -0.65021  -1.02419  -0.40086  
C -1.10339  0.31237   0.16736   
C -0.46580  1.51062   -0.43729  
N 0.85055   1.54382   -0.56225  
H 2.57598   0.45615   -0.08806  
H 1.38212   -1.78930  0.00845   
H -1.17186  -1.72792  -1.05682  
H -2.14694  0.36904   0.46342   
H -1.06606  2.33562   -0.80236  
C -0.26542  -0.63966  0.99076   
H -0.26552  -0.89498  2.04427   
13
image # 9 Energy = -286.83893
C 1.49384   0.41170   -0.26148  
C 0.79766   -0.87563  -0.09181  
C -0.66337  -1.02253  -0.41771  
C -1.09272  0.31317   0.16879   
C -0.47224  1.49389   -0.44264  
N 0.85188   1.54277   -0.55992  
H 2.55222   0.45786   -0.01165  
H 1.37703   -1.80338  -0.02332  
H -1.19107  -1.71865  -1.06379  
H -2.13960  0.37237   0.48978   
H -1.07626  2.32618   -0.84265  
C -0.23764  -0.61812  0.98304   
H -0.21882  -0.88159  2.04607   
13
image # 10 Energy = -286.83245
C 1.48092   0.41263   -0.23714  
C 0.79187   -0.88979  -0.11927  
C -0.66400  -1.01206  -0.43539  
C -1.09523  0.30712   0.16852   
C -0.47669  1.50328   -0.46012  
N 0.84624   1.53682   -0.55320  
H 2.52411   0.45461   0.05675   
H 1.37435   -1.81452  -0.04768  
H -1.21443  -1.72600  -1.06450  
H -2.12557  0.37536   0.50761   
H -1.07869  2.31445   -0.86596  
C -0.20343  -0.59329  0.98764   
H -0.17859  -0.87125  2.03392   
13
image # 11 Energy = -286.82317
C 1.46224   0.40510   -0.21001  
C 0.78504   -0.90356  -0.14292  
C -0.66330  -1.00570  -0.46425  
C -1.08356  0.31145   0.15985   
C -0.48099  1.50852   -0.47488  
N 0.82986   1.53645   -0.54462  
H 2.49706   0.44694   0.11832   
H 1.37398   -1.82392  -0.06560  
H -1.23498  -1.74477  -1.04674  
H -2.11662  0.37525   0.51856   
H -1.08004  2.31618   -0.87730  
C -0.16196  -0.55743  0.98043   
H -0.14612  -0.86884  2.01890   
13
image # 12 Energy = -286.82152
C 1.46194   0.40886   -0.20853  
C 0.78388   -0.90304  -0.18034  
C -0.66479  -0.98581  -0.49274  
C -1.08239  0.31842   0.15908   
C -0.48730  1.51488   -0.48760  
N 0.83832   1.54204   -0.53159  
H 2.46636   0.45663   0.22981   
H 1.37087   -1.82497  -0.10949  
H -1.27301  -1.78949  -0.95491  
H -2.09894  0.38681   0.53434   
H -1.07808  2.31721   -0.91480  
C -0.14285  -0.55322  0.94892   
H -0.11539  -0.89727  1.97625   
13
image # 13 Energy = -286.78302
C 1.42534   0.40230   -0.14447  
C 0.76542   -0.94326  -0.15140  
C -0.65582  -0.97634  -0.56574  
C -1.08039  0.29555   0.15217   
C -0.49475  1.50807   -0.47189  
N 0.82208   1.52723   -0.55116  
H 2.48685   0.43530   0.11136   
H 1.38398   -1.83912  -0.05687  
H -1.24669  -1.78149  -1.02998  
H -2.11626  0.36894   0.50206   
H -1.08129  2.33665   -0.85638  
C -0.07223  -0.46230  1.01269   
H -0.15803  -0.88258  2.01815   
13
image # 14 Energy = -286.79883
C 1.42755   0.40847   -0.14299  
C 0.77113   -0.93213  -0.19141  
C -0.67532  -0.96661  -0.57271  
C -1.06981  0.30934   0.15654   
C -0.48638  1.51168   -0.48309  
N 0.82751   1.53712   -0.54210  
H 2.45429   0.45699   0.25104   
H 1.37379   -1.83109  -0.12878  
H -1.28435  -1.80296  -0.93283  
H -2.10273  0.39219   0.53907   
H -1.07453  2.30930   -0.92883  
C -0.06902  -0.49023  0.97359   
H -0.11505  -0.91507  1.97105   
13
image # 15 Energy = -286.78373
C 1.40431   0.39712   -0.08458  
C 0.73791   -0.95816  -0.15976  
C -0.66386  -0.95582  -0.66451  
C -1.06353  0.29441   0.15944   
C -0.48724  1.50448   -0.47348  
N 0.80529   1.52270   -0.55510  
H 2.45564   0.44661   0.19145   
H 1.37582   -1.84012  -0.10307  
H -1.27356  -1.79809  -0.96307  
H -2.10905  0.37969   0.52089   
H -1.07772  2.31826   -0.89768  
C 0.01003   -0.42347  1.01790   
H -0.13683  -0.90073  1.98052   
13
image # 16 Energy = -286.78451
C 1.38444   0.38116   -0.05358  
C 0.72116   -0.97956  -0.16435  
C -0.66954  -0.97037  -0.65980  
C -1.07560  0.26911   0.16738   
C -0.48119  1.50410   -0.47532  
N 0.79889   1.53272   -0.56769  
H 2.46767   0.43957   0.15723   
H 1.38116   -1.84189  -0.07818  
H -1.26352  -1.78346  -1.03083  
H -2.11545  0.37431   0.51457   
H -1.07735  2.32105   -0.87872  
C 0.04042   -0.38176  1.03663   
H -0.13393  -0.87775  2.00179   
13
image # 17 Energy = -286.79762
C 1.35615   0.36307   -0.00363  
C 0.71044   -0.99226  -0.17560  
C -0.67009  -0.97707  -0.68000  
C -1.07071  0.25789   0.15321   
C -0.48138  1.50960   -0.47358  
N 0.79382   1.53988   -0.56485  
H 2.44650   0.42687   0.15036   
H 1.38370   -1.83875  -0.06075  
H -1.27379  -1.82110  -1.03645  
H -2.10888  0.36993   0.49794   
H -1.07255  2.34572   -0.84800  
C 0.09181   -0.32995  1.03179   
H -0.12530  -0.86159  1.97808   
13
image # 18 Energy = -286.79491
C 1.33737   0.35942   0.01159   
C 0.70766   -1.01057  -0.15986  
C -0.67602  -1.00333  -0.63712  
C -1.06641  0.24862   0.15076   
C -0.48624  1.50072   -0.47529  
N 0.78984   1.53301   -0.57231  
H 2.43838   0.40247   0.11472   
H 1.37939   -1.85067  -0.03769  
H -1.25008  -1.77114  -1.15152  
H -2.10690  0.35119   0.50426   
H -1.08717  2.34508   -0.83310  
C 0.10007   -0.30932  1.04428   
H -0.09931  -0.80180  2.01010   
13
image # 19 Energy = -286.80266
C 1.32348   0.35748   0.04334   
C 0.69075   -1.02813  -0.15035  
C -0.67765  -1.01336  -0.63147  
C -1.06577  0.23801   0.15434   
C -0.49158  1.49259   -0.48018  
N 0.78474   1.52379   -0.57858  
H 2.41632   0.38427   0.11090   
H 1.37637   -1.86562  -0.03236  
H -1.23766  -1.73224  -1.22521  
H -2.09718  0.33705   0.51373   
H -1.09901  2.33832   -0.83301  
C 0.12640   -0.28152  1.04995   
H -0.06755  -0.75547  2.02840   
13
image # 20 Energy = -286.80976
C 1.30702   0.35302   0.06640   
C 0.68718   -1.04583  -0.13504  
C -0.68967  -1.02182  -0.63075  
C -1.06373  0.23389   0.16685   
C -0.50153  1.48005   -0.48545  
N 0.77801   1.51628   -0.58783  
H 2.40477   0.37132   0.12189   
H 1.36813   -1.87947  -0.03971  
H -1.22231  -1.67501  -1.29557  
H -2.08782  0.32403   0.53050   
H -1.10917  2.31583   -0.84944  
C 0.14307   -0.26470  1.05858   
H -0.03117  -0.71150  2.05009   
13
image # 21 Energy = -286.81757
C 1.28756   0.35090   0.09177   
C 0.66937   -1.05620  -0.12846  
C -0.69190  -1.02060  -0.63503  
C -1.05361  0.22485   0.17744   
C -0.51034  1.47666   -0.49463  
N 0.76906   1.50399   -0.58991  
H 2.39006   0.36094   0.14803   
H 1.36370   -1.89510  -0.05055  
H -1.21972  -1.63827  -1.34987  
H -2.08008  0.31515   0.54737   
H -1.11508  2.29316   -0.86646  
C 0.16865   -0.24287  1.06020   
H 0.00638   -0.67535  2.06209   
13
image # 22 Energy = -286.82313
C 1.26949   0.35566   0.11279   
C 0.65604   -1.06812  -0.12795  
C -0.70214  -1.02564  -0.65218  
C -1.05070  0.21657   0.19218   
C -0.51727  1.47478   -0.50359  
N 0.76581   1.48417   -0.58661  
H 2.37191   0.35234   0.18560   
H 1.35687   -1.90914  -0.06550  
H -1.21523  -1.59711  -1.39091  
H -2.06983  0.30711   0.56578   
H -1.12222  2.26807   -0.88912  
C 0.19494   -0.22075  1.06051   
H 0.04778   -0.63949  2.07297   
13
image # 23 Energy = -286.82884
C 1.28216   0.33286   0.12182   
C 0.65601   -1.08199  -0.12249  
C -0.70504  -1.01362  -0.63177  
C -1.05582  0.21137   0.20103   
C -0.50772  1.45335   -0.50371  
N 0.74237   1.48799   -0.60811  
H 2.35939   0.35021   0.22524   
H 1.33880   -1.91755  -0.09109  
H -1.19687  -1.51050  -1.45606  
H -2.07555  0.29569   0.60376   
H -1.13416  2.22005   -0.93518  
C 0.18576   -0.24592  1.08117   
H 0.09853   -0.58292  2.09257   
13
image # 24 Energy = -286.83208
C 1.27018   0.33934   0.12985   
C 0.64591   -1.09265  -0.12862  
C -0.71051  -1.01041  -0.63334  
C -1.05652  0.20584   0.22102   
C -0.51096  1.42754   -0.49907  
N 0.74817   1.45997   -0.60372  
H 2.34358   0.34577   0.26419   
H 1.32985   -1.93285  -0.11057  
H -1.18739  -1.45197  -1.50411  
H -2.07098  0.28730   0.62663   
H -1.15100  2.19537   -0.97433  
C 0.20216   -0.22725  1.07786   
H 0.13819   -0.54648  2.11595   
13
image # 25 Energy = -286.83560
C 1.25859   0.32563   0.14248   
C 0.63962   -1.09907  -0.12636  
C -0.71845  -1.00738  -0.64007  
C -1.05608  0.19745   0.22837   
C -0.52987  1.42601   -0.50737  
N 0.75523   1.45787   -0.60875  
H 2.33078   0.34027   0.31270   
H 1.31792   -1.94148  -0.13110  
H -1.18053  -1.40177  -1.53714  
H -2.06701  0.27894   0.65365   
H -1.15463  2.15847   -1.00238  
C 0.21158   -0.23098  1.07819   
H 0.18666   -0.50404  2.12499   
13
image # 26 Energy = -286.83695
C 1.24140   0.32236   0.14758   
C 0.63098   -1.10021  -0.11937  
C -0.72601  -1.00644  -0.64962  
C -1.05683  0.19399   0.23843   
C -0.52477  1.41618   -0.51270  
N 0.74690   1.45425   -0.60793  
H 2.32221   0.33293   0.36108   
H 1.30937   -1.95267  -0.15057  
H -1.17594  -1.35919  -1.56333  
H -2.05606  0.26990   0.67635   
H -1.16111  2.13025   -1.02966  
C 0.21250   -0.23319  1.06350   
H 0.23379   -0.46816  2.13875   
13
image # 27 Energy = -286.83832
C 1.24227   0.32822   0.15662   
C 0.61873   -1.11547  -0.12110  
C -0.73116  -1.00100  -0.65648  
C -1.05282  0.18958   0.24417   
C -0.53267  1.40327   -0.51702  
N 0.74689   1.44741   -0.60485  
H 2.29702   0.32320   0.41188   
H 1.29867   -1.96028  -0.17007  
H -1.17560  -1.32026  -1.59625  
H -2.04272  0.26063   0.70021   
H -1.16795  2.10284   -1.05805  
C 0.21422   -0.23032  1.07277   
H 0.28513   -0.42782  2.13818   
