13   
From qcts1.out: Frame 32 / 32, Energy=    -286.7917785060
C        1.3772623140    0.4049408716   -0.0672527251
C        0.7611129004   -0.9488782542   -0.2778986225
C       -0.6719715728   -0.9530604616   -0.6998641752
C       -1.0633702502    0.3306264497    0.1101737772
C       -0.4706481616    1.5454422381   -0.4890304707
N        0.8344950765    1.5704780198   -0.5266055203
H        2.3726390996    0.4210152040    0.3668266948
H        1.3778590650   -1.8413108447   -0.2528312794
H       -1.2204218134   -1.8771879946   -0.5154279062
H       -2.0830306320    0.3836792246    0.4873865625
H       -1.0605770415    2.3517152493   -0.9159952618
C       -0.0030230499   -0.4352083788    0.9060941557
H       -0.1721013794   -0.9632802123    1.8429491382
