13   
From optimize.out: Frame 1 / 33, Energy=    -286.5986829163
C       -0.0061000000   -0.0580630000   -0.0000000000
C       -0.1669140000    0.0760970000   -0.0000000000
C       -0.1331910000    0.1006320000   -0.0000000000
C       -0.1107950000    0.0156180000   -0.0000000000
C       -0.0832530000   -0.0695480000   -0.0000000000
N       -0.2939510000    0.9115330000   -0.0000000000
H        0.1886790000    0.0024890000   -0.0000000000
H        0.1546510000    0.0059310000   -0.0000000000
H        0.1919320000   -0.0032080000   -0.0000000000
H        0.1635070000    0.0019740000   -0.0000000000
H        0.1526400000    0.0014260000   -0.0000000000
C       -0.1734510000    0.0093590000    0.0000000000
H        0.1162470000    0.0057600000    0.0000000000
13   
From optimize.out: Frame 2 / 33, Energy=    -286.6460069400
C       -0.0113200000   -0.0590960000   -0.0000000000
C       -0.1656910000    0.0740150000   -0.0000000000
C       -0.1308670000    0.1301480000   -0.0000000000
C       -0.1080570000    0.0226960000   -0.0000000000
C       -0.0915430000   -0.0786940000   -0.0000000000
N       -0.2931300000    0.8946670000   -0.0000000000
H        0.1832380000    0.0026010000   -0.0000000000
H        0.1538610000    0.0029680000   -0.0000000000
H        0.1916880000   -0.0056020000   -0.0000000000
H        0.1625090000    0.0014880000   -0.0000000000
H        0.1548130000    0.0020380000   -0.0000000000
C       -0.1705400000    0.0089370000    0.0000000000
H        0.1250390000    0.0038350000    0.0000000000
13   
From optimize.out: Frame 3 / 33, Energy=    -286.6854870044
C       -0.0163540000   -0.0574480000   -0.0000000000
C       -0.1648110000    0.0723200000   -0.0000000000
C       -0.1272310000    0.1697640000   -0.0000000000
C       -0.1082470000    0.0300830000   -0.0000000000
C       -0.0935550000   -0.0890020000   -0.0000000000
N       -0.2940160000    0.8639140000   -0.0000000000
H        0.1767570000    0.0024590000   -0.0000000000
H        0.1530480000    0.0004650000   -0.0000000000
H        0.1905810000   -0.0083360000   -0.0000000000
H        0.1606110000    0.0012090000   -0.0000000000
H        0.1557810000    0.0025940000   -0.0000000000
C       -0.1647540000    0.0093740000    0.0000000000
H        0.1321920000    0.0026030000    0.0000000000
13   
From optimize.out: Frame 4 / 33, Energy=    -286.7170652046
C       -0.0223600000   -0.0542710000   -0.0000000000
C       -0.1633680000    0.0698140000   -0.0000000000
C       -0.1239640000    0.2144380000   -0.0000000000
C       -0.1125590000    0.0369100000   -0.0000000000
C       -0.0898840000   -0.0994970000   -0.0000000000
N       -0.2950740000    0.8266830000   -0.0000000000
H        0.1704220000    0.0021350000   -0.0000000000
H        0.1526630000   -0.0013850000   -0.0000000000
H        0.1887200000   -0.0111980000   -0.0000000000
H        0.1583910000    0.0012250000   -0.0000000000
H        0.1558910000    0.0030090000   -0.0000000000
C       -0.1561490000    0.0103670000    0.0000000000
H        0.1372710000    0.0017700000    0.0000000000
13   
From optimize.out: Frame 5 / 33, Energy=    -286.7416889334
C       -0.0289360000   -0.0504310000   -0.0000000000
C       -0.1615910000    0.0660740000   -0.0000000000
C       -0.1214740000    0.2585750000   -0.0000000000
C       -0.1202780000    0.0420380000   -0.0000000000
C       -0.0817710000   -0.1091020000   -0.0000000000
N       -0.2954650000    0.7891740000   -0.0000000000
H        0.1647070000    0.0016980000   -0.0000000000
H        0.1526330000   -0.0024920000   -0.0000000000
H        0.1859610000   -0.0138120000   -0.0000000000
H        0.1561390000    0.0015840000   -0.0000000000
H        0.1551710000    0.0032530000   -0.0000000000
C       -0.1460110000    0.0122640000    0.0000000000
H        0.1409160000    0.0011780000    0.0000000000
13   
From optimize.out: Frame 6 / 33, Energy=    -286.7605467556
C       -0.0350750000   -0.0468030000   -0.0000000000
C       -0.1599510000    0.0612110000   -0.0000000000
C       -0.1196610000    0.2975830000   -0.0000000000
C       -0.1294780000    0.0448070000   -0.0000000000
C       -0.0713650000   -0.1172070000   -0.0000000000
N       -0.2953680000    0.7563570000   -0.0000000000
H        0.1599310000    0.0012410000   -0.0000000000
H        0.1527740000   -0.0029490000   -0.0000000000
H        0.1824860000   -0.0159010000   -0.0000000000
H        0.1540060000    0.0022930000    0.0000000000
H        0.1541070000    0.0033480000   -0.0000000000
C       -0.1358390000    0.0153030000    0.0000000000
H        0.1434360000    0.0007160000    0.0000000000
13   
From optimize.out: Frame 7 / 33, Energy=    -286.7748796055
C       -0.0398130000   -0.0437560000   -0.0000000000
C       -0.1588340000    0.0553850000   -0.0000000000
C       -0.1181350000    0.3310300000   -0.0000000000
C       -0.1383840000    0.0454710000   -0.0000000000
C       -0.0604840000   -0.1239530000   -0.0000000000
N       -0.2953570000    0.7289770000   -0.0000000000
H        0.1561540000    0.0008380000   -0.0000000000
H        0.1529040000   -0.0029670000   -0.0000000000
H        0.1786350000   -0.0174780000   -0.0000000000
H        0.1520830000    0.0033070000    0.0000000000
H        0.1530940000    0.0033650000   -0.0000000000
C       -0.1269190000    0.0194940000    0.0000000000
H        0.1450560000    0.0002860000    0.0000000000
13   
From optimize.out: Frame 8 / 33, Energy=    -286.7857080725
C       -0.0425730000   -0.0412660000   -0.0000000000
C       -0.1584080000    0.0487110000   -0.0000000000
C       -0.1164870000    0.3602960000   -0.0000000000
C       -0.1460700000    0.0446380000   -0.0000000000
C       -0.0502320000   -0.1295600000   -0.0000000000
N       -0.2958770000    0.7055520000   -0.0000000000
H        0.1533220000    0.0005260000   -0.0000000000
H        0.1528830000   -0.0027280000   -0.0000000000
H        0.1747250000   -0.0186820000   -0.0000000000
H        0.1504110000    0.0045570000    0.0000000000
H        0.1522700000    0.0033580000   -0.0000000000
C       -0.1199700000    0.0247770000    0.0000000000
H        0.1460050000   -0.0001780000    0.0000000000
13   
From optimize.out: Frame 9 / 33, Energy=    -286.7938333979
C       -0.0433520000   -0.0392490000   -0.0000000000
C       -0.1585060000    0.0415020000   -0.0000000000
C       -0.1144610000    0.3861760000   -0.0000000000
C       -0.1523020000    0.0428070000   -0.0000000000
C       -0.0411660000   -0.1341050000   -0.0000000000
N       -0.2971130000    0.6848560000   -0.0000000000
H        0.1513110000    0.0003240000   -0.0000000000
H        0.1526180000   -0.0023660000   -0.0000000000
H        0.1709770000   -0.0196270000   -0.0000000000
H        0.1489910000    0.0059440000    0.0000000000
H        0.1516070000    0.0033580000   -0.0000000000
C       -0.1150710000    0.0310870000    0.0000000000
H        0.1464680000   -0.0007060000    0.0000000000
13   
From optimize.out: Frame 10 / 33, Energy=    -286.7999184228
C       -0.0427590000   -0.0376000000   -0.0000000000
C       -0.1586850000    0.0341930000   -0.0000000000
C       -0.1120400000    0.4090190000   -0.0000000000
C       -0.1573220000    0.0403130000   -0.0000000000
C       -0.0333530000   -0.1376160000   -0.0000000000
N       -0.2989950000    0.6661640000   -0.0000000000
H        0.1499340000    0.0002320000   -0.0000000000
H        0.1520790000   -0.0019740000   -0.0000000000
H        0.1675290000   -0.0204000000   -0.0000000000
H        0.1478090000    0.0073580000    0.0000000000
H        0.1510340000    0.0033830000   -0.0000000000
C       -0.1118060000    0.0382280000    0.0000000000
H        0.1465750000   -0.0013010000    0.0000000000
13   
From optimize.out: Frame 11 / 33, Energy=    -286.8045105186
C       -0.0416440000   -0.0361780000   -0.0000000000
C       -0.1584900000    0.0272210000   -0.0000000000
C       -0.1093950000    0.4293000000   -0.0000000000
C       -0.1615650000    0.0373380000   -0.0000000000
C       -0.0266010000   -0.1401870000   -0.0000000000
N       -0.3012820000    0.6489620000   -0.0000000000
H        0.1490040000    0.0002330000   -0.0000000000
H        0.1513000000   -0.0016140000   -0.0000000000
H        0.1644580000   -0.0210850000   -0.0000000000
H        0.1468440000    0.0087030000    0.0000000000
H        0.1504990000    0.0034400000   -0.0000000000
C       -0.1095540000    0.0458050000    0.0000000000
H        0.1464270000   -0.0019370000    0.0000000000
13   
From optimize.out: Frame 12 / 33, Energy=    -286.8080125167
C       -0.0406350000   -0.0348340000   -0.0000000000
C       -0.1576690000    0.0208690000   -0.0000000000
C       -0.1067610000    0.4478500000   -0.0000000000
C       -0.1653960000    0.0339230000   -0.0000000000
C       -0.0206810000   -0.1420190000   -0.0000000000
N       -0.3037400000    0.6327680000   -0.0000000000
H        0.1483890000    0.0002950000   -0.0000000000
H        0.1503430000   -0.0013160000   -0.0000000000
H        0.1617850000   -0.0217580000   -0.0000000000
H        0.1460720000    0.0099110000    0.0000000000
H        0.1499830000    0.0035310000   -0.0000000000
C       -0.1077950000    0.0533590000    0.0000000000
H        0.1461050000   -0.0025780000    0.0000000000
13   
From optimize.out: Frame 13 / 33, Energy=    -286.8106843651
C       -0.0400670000   -0.0333960000   -0.0000000000
C       -0.1561250000    0.0151630000   -0.0000000000
C       -0.1044020000    0.4658520000   -0.0000000000
C       -0.1690510000    0.0300200000   -0.0000000000
C       -0.0153240000   -0.1433710000   -0.0000000000
N       -0.3062280000    0.6169670000   -0.0000000000
H        0.1480000000    0.0003810000   -0.0000000000
H        0.1492690000   -0.0010820000   -0.0000000000
H        0.1594880000   -0.0224870000   -0.0000000000
H        0.1454740000    0.0109530000    0.0000000000
H        0.1494940000    0.0036530000   -0.0000000000
C       -0.1062020000    0.0605310000    0.0000000000
H        0.1456750000   -0.0031850000    0.0000000000
13   
From optimize.out: Frame 14 / 33, Energy=    -286.8126848691
C       -0.0400940000   -0.0316410000   -0.0000000000
C       -0.1538060000    0.0098710000   -0.0000000000
C       -0.1025890000    0.4848430000   -0.0000000000
C       -0.1726920000    0.0255140000   -0.0000000000
C       -0.0102010000   -0.1444920000   -0.0000000000
N       -0.3087300000    0.6006430000   -0.0000000000
H        0.1477720000    0.0004610000   -0.0000000000
H        0.1481360000   -0.0008950000   -0.0000000000
H        0.1575180000   -0.0233310000   -0.0000000000
H        0.1450410000    0.0118370000    0.0000000000
H        0.1490520000    0.0038060000   -0.0000000000
C       -0.1045950000    0.0671090000    0.0000000000
H        0.1451890000   -0.0037250000    0.0000000000
13   
From optimize.out: Frame 15 / 33, Energy=    -286.8141193350
C       -0.0407340000   -0.0292390000   -0.0000000000
C       -0.1507500000    0.0045300000   -0.0000000000
C       -0.1015240000    0.5070070000   -0.0000000000
C       -0.1764990000    0.0202020000   -0.0000000000
C       -0.0048840000   -0.1455530000   -0.0000000000
N       -0.3113670000    0.5821890000   -0.0000000000
H        0.1476540000    0.0005150000   -0.0000000000
H        0.1470150000   -0.0007250000   -0.0000000000
H        0.1558240000   -0.0243660000   -0.0000000000
H        0.1447800000    0.0125990000    0.0000000000
H        0.1486760000    0.0039880000   -0.0000000000
C       -0.1028830000    0.0730140000    0.0000000000
H        0.1446930000   -0.0041640000    0.0000000000
13   
From optimize.out: Frame 16 / 33, Energy=    -286.8150871207
C       -0.0418560000   -0.0256190000   -0.0000000000
C       -0.1472090000   -0.0016610000   -0.0000000000
C       -0.1012230000    0.5359550000   -0.0000000000
C       -0.1808640000    0.0136700000   -0.0000000000
C        0.0012860000   -0.1464810000   -0.0000000000
N       -0.3144420000    0.5584790000   -0.0000000000
H        0.1476060000    0.0005360000   -0.0000000000
H        0.1460020000   -0.0005240000   -0.0000000000
H        0.1543690000   -0.0257210000   -0.0000000000
H        0.1447160000    0.0133140000    0.0000000000
H        0.1483600000    0.0042070000   -0.0000000000
C       -0.1009800000    0.0782990000    0.0000000000
H        0.1442350000   -0.0044520000    0.0000000000
13   
From optimize.out: Frame 17 / 33, Energy=    -286.8157532990
C       -0.0431250000   -0.0196990000   -0.0000000000
C       -0.1438490000   -0.0100870000   -0.0000000000
C       -0.1012470000    0.5779180000   -0.0000000000
C       -0.1867830000    0.0050820000   -0.0000000000
C        0.0095010000   -0.1463260000   -0.0000000000
N       -0.3185240000    0.5231730000   -0.0000000000
H        0.1475940000    0.0005260000   -0.0000000000
H        0.1452220000   -0.0002220000   -0.0000000000
H        0.1531240000   -0.0276540000   -0.0000000000
H        0.1448810000    0.0141140000   -0.0000000000
H        0.1480400000    0.0044600000   -0.0000000000
C       -0.0987290000    0.0832090000    0.0000000000
H        0.1438940000   -0.0044940000    0.0000000000
13   
From optimize.out: Frame 18 / 33, Energy=    -286.8164537288
C       -0.0440140000   -0.0103780000   -0.0000000000
C       -0.1416630000   -0.0218800000   -0.0000000000
C       -0.1005940000    0.6372880000   -0.0000000000
C       -0.1956330000   -0.0061400000   -0.0000000000
C        0.0210800000   -0.1417710000   -0.0000000000
N       -0.3240430000    0.4686830000   -0.0000000000
H        0.1476020000    0.0005140000   -0.0000000000
H        0.1447730000    0.0002370000   -0.0000000000
H        0.1519960000   -0.0303720000   -0.0000000000
H        0.1452250000    0.0150800000   -0.0000000000
H        0.1475740000    0.0046780000   -0.0000000000
C       -0.0961150000    0.0881600000    0.0000000000
H        0.1438120000   -0.0040980000    0.0000000000
13   
From optimize.out: Frame 19 / 33, Energy=    -286.8198568265
C       -0.0379550000    0.0160190000   -0.0000000000
C       -0.1525560000   -0.0503350000   -0.0000000000
C       -0.0913890000    0.7650520000   -0.0000000000
C       -0.2169440000   -0.0288490000   -0.0000000000
C        0.0419840000   -0.1104040000   -0.0000000000
N       -0.3338380000    0.3320170000   -0.0000000000
H        0.1481260000    0.0011510000   -0.0000000000
H        0.1460400000    0.0017030000   -0.0000000000
H        0.1519000000   -0.0361630000   -0.0000000000
H        0.1463290000    0.0174910000   -0.0000000000
H        0.1454500000    0.0043750000   -0.0000000000
C       -0.0924470000    0.0910370000    0.0000000000
H        0.1452990000   -0.0030950000    0.0000000000
13   
From optimize.out: Frame 20 / 33, Energy=    -286.8236048051
C       -0.0412300000    0.0382270000   -0.0000000000
C       -0.1520600000   -0.0680690000   -0.0000000000
C       -0.0852110000    0.8340410000   -0.0000000000
C       -0.2403790000   -0.0452170000   -0.0000000000
C        0.0680710000   -0.0545330000   -0.0000000000
N       -0.3343590000    0.2168710000   -0.0000000000
H        0.1479030000    0.0013580000   -0.0000000000
H        0.1453800000    0.0028840000   -0.0000000000
H        0.1470330000   -0.0393590000   -0.0000000000
H        0.1437160000    0.0202720000   -0.0000000000
H        0.1425810000    0.0034140000   -0.0000000000
C       -0.0875140000    0.0916660000    0.0000000000
H        0.1460680000   -0.0015550000    0.0000000000
13   
From optimize.out: Frame 21 / 33, Energy=    -286.8279535091
C       -0.0381260000    0.0549090000   -0.0000000000
C       -0.1578560000   -0.0803940000   -0.0000000000
C       -0.0789070000    0.8771710000   -0.0000000000
C       -0.2551160000   -0.0569310000   -0.0000000000
C        0.0827830000   -0.0151830000   -0.0000000000
N       -0.3350460000    0.1372640000   -0.0000000000
H        0.1486250000    0.0022120000   -0.0000000000
H        0.1457600000    0.0037940000   -0.0000000000
H        0.1442690000   -0.0397520000   -0.0000000000
H        0.1418700000    0.0208650000   -0.0000000000
H        0.1409770000    0.0029270000   -0.0000000000
C       -0.0867410000    0.0939430000    0.0000000000
H        0.1475080000   -0.0008250000    0.0000000000
13   
From optimize.out: Frame 22 / 33, Energy=    -286.8328680989
C       -0.0312060000    0.0622340000   -0.0000000000
C       -0.1608150000   -0.0860040000   -0.0000000000
C       -0.0726580000    0.8938880000   -0.0000000000
C       -0.2608460000   -0.0633180000   -0.0000000000
C        0.0861600000    0.0057240000   -0.0000000000
N       -0.3426970000    0.0978390000   -0.0000000000
H        0.1498710000    0.0027170000   -0.0000000000
H        0.1457090000    0.0039550000   -0.0000000000
H        0.1433790000   -0.0393610000   -0.0000000000
H        0.1405760000    0.0204790000   -0.0000000000
H        0.1433160000    0.0027710000   -0.0000000000
C       -0.0895260000    0.0992770000    0.0000000000
H        0.1487360000   -0.0002010000    0.0000000000
13   
From optimize.out: Frame 23 / 33, Energy=    -286.8357357624
C       -0.0251930000    0.0692400000   -0.0000000000
C       -0.1655010000   -0.0915140000   -0.0000000000
C       -0.0702450000    0.9097750000   -0.0000000000
C       -0.2619920000   -0.0671130000   -0.0000000000
C        0.0895090000    0.0240300000   -0.0000000000
N       -0.3405700000    0.0647260000   -0.0000000000
H        0.1497210000    0.0031050000   -0.0000000000
H        0.1458990000    0.0041720000   -0.0000000000
H        0.1435210000   -0.0369000000   -0.0000000000
H        0.1403060000    0.0198280000   -0.0000000000
H        0.1415740000    0.0023580000   -0.0000000000
C       -0.0965740000    0.0983950000    0.0000000000
H        0.1495460000   -0.0001010000    0.0000000000
13   
From optimize.out: Frame 24 / 33, Energy=    -286.8370844118
C       -0.0194310000    0.0749240000   -0.0000000000
C       -0.1622080000   -0.0938070000   -0.0000000000
C       -0.0707040000    0.9050770000   -0.0000000000
C       -0.2612100000   -0.0682540000   -0.0000000000
C        0.0902430000    0.0353920000   -0.0000000000
N       -0.3444630000    0.0468220000   -0.0000000000
H        0.1508550000    0.0036920000   -0.0000000000
H        0.1460480000    0.0043920000   -0.0000000000
H        0.1412930000   -0.0330360000   -0.0000000000
H        0.1401960000    0.0196710000   -0.0000000000
H        0.1434280000    0.0021700000   -0.0000000000
C       -0.1041650000    0.1032140000    0.0000000000
H        0.1501170000   -0.0002570000    0.0000000000
13   
From optimize.out: Frame 25 / 33, Energy=    -286.8374456494
C       -0.0182250000    0.0784670000   -0.0000000000
C       -0.1634260000   -0.0937590000   -0.0000000000
C       -0.0708260000    0.9038400000   -0.0000000000
C       -0.2590920000   -0.0680270000   -0.0000000000
C        0.0891100000    0.0371900000   -0.0000000000
N       -0.3441340000    0.0448950000   -0.0000000000
H        0.1511090000    0.0037240000   -0.0000000000
H        0.1465530000    0.0048650000   -0.0000000000
H        0.1400380000   -0.0283820000   -0.0000000000
H        0.1412170000    0.0201320000   -0.0000000000
H        0.1433180000    0.0020350000   -0.0000000000
C       -0.1055230000    0.0959970000    0.0000000000
H        0.1498810000   -0.0009770000    0.0000000000
13   
From optimize.out: Frame 27 / 33, Energy=    -286.8379151194
C       -0.0162010000    0.0861190000   -0.0000000000
C       -0.1641560000   -0.0953600000   -0.0000000000
C       -0.0677070000    0.8957190000   -0.0000000000
C       -0.2570550000   -0.0675090000   -0.0000000000
C        0.0888560000    0.0463350000   -0.0000000000
N       -0.3419160000    0.0364910000   -0.0000000000
H        0.1509190000    0.0034820000   -0.0000000000
H        0.1471980000    0.0051600000   -0.0000000000
H        0.1378610000   -0.0228630000   -0.0000000000
H        0.1423380000    0.0210270000   -0.0000000000
H        0.1419580000    0.0016420000   -0.0000000000
C       -0.1112860000    0.0906210000    0.0000000000
H        0.1491920000   -0.0008650000    0.0000000000
13   
From optimize.out: Frame 28 / 33, Energy=    -286.8381931996
C       -0.0180540000    0.0887460000   -0.0000000000
C       -0.1633070000   -0.0945290000   -0.0000000000
C       -0.0677780000    0.8924050000   -0.0000000000
C       -0.2580040000   -0.0665040000   -0.0000000000
C        0.0893100000    0.0426450000   -0.0000000000
N       -0.3431020000    0.0413890000   -0.0000000000
H        0.1514690000    0.0035000000   -0.0000000000
H        0.1471100000    0.0053930000   -0.0000000000
H        0.1367510000   -0.0214390000   -0.0000000000
H        0.1423790000    0.0218550000   -0.0000000000
H        0.1430890000    0.0017290000   -0.0000000000
C       -0.1087510000    0.0859160000    0.0000000000
H        0.1488900000   -0.0011060000    0.0000000000
13   
From optimize.out: Frame 29 / 33, Energy=    -286.8382245391
C       -0.0182030000    0.0932440000   -0.0000000000
C       -0.1637680000   -0.0934180000   -0.0000000000
C       -0.0679160000    0.8892330000   -0.0000000000
C       -0.2572820000   -0.0650620000   -0.0000000000
C        0.0892610000    0.0450210000   -0.0000000000
N       -0.3416890000    0.0389770000   -0.0000000000
H        0.1517230000    0.0031540000   -0.0000000000
H        0.1473040000    0.0056320000   -0.0000000000
H        0.1352170000   -0.0171590000   -0.0000000000
H        0.1431150000    0.0225310000   -0.0000000000
H        0.1431820000    0.0015640000   -0.0000000000
C       -0.1092680000    0.0775400000    0.0000000000
H        0.1483240000   -0.0012560000    0.0000000000
13   
From optimize.out: Frame 30 / 33, Energy=    -286.8383108368
C       -0.0187150000    0.0935240000   -0.0000000000
C       -0.1635940000   -0.0947880000   -0.0000000000
C       -0.0669020000    0.8895900000   -0.0000000000
C       -0.2582020000   -0.0657410000   -0.0000000000
C        0.0895150000    0.0452920000   -0.0000000000
N       -0.3421270000    0.0399400000   -0.0000000000
H        0.1513580000    0.0030980000   -0.0000000000
H        0.1470540000    0.0053780000   -0.0000000000
H        0.1360310000   -0.0193700000   -0.0000000000
H        0.1426600000    0.0225960000   -0.0000000000
H        0.1430050000    0.0015250000   -0.0000000000
C       -0.1085000000    0.0799280000    0.0000000000
H        0.1484160000   -0.0009710000    0.0000000000
13   
From optimize.out: Frame 31 / 33, Energy=    -286.8383302494
C       -0.0188720000    0.0950460000   -0.0000000000
C       -0.1637540000   -0.0954370000   -0.0000000000
C       -0.0663780000    0.8892230000   -0.0000000000
C       -0.2580510000   -0.0657230000   -0.0000000000
C        0.0890690000    0.0457750000   -0.0000000000
N       -0.3425060000    0.0398210000   -0.0000000000
H        0.1513230000    0.0030260000   -0.0000000000
H        0.1472550000    0.0053040000   -0.0000000000
H        0.1362380000   -0.0194520000   -0.0000000000
H        0.1426760000    0.0227060000   -0.0000000000
H        0.1430850000    0.0014390000   -0.0000000000
C       -0.1083740000    0.0791080000    0.0000000000
H        0.1482890000   -0.0008350000    0.0000000000
13   
From optimize.out: Frame 32 / 33, Energy=    -286.8383360531
C       -0.0190590000    0.0965410000   -0.0000000000
C       -0.1637780000   -0.0957670000   -0.0000000000
C       -0.0661650000    0.8886030000   -0.0000000000
C       -0.2580340000   -0.0656660000   -0.0000000000
C        0.0889220000    0.0468850000   -0.0000000000
N       -0.3423410000    0.0391820000   -0.0000000000
H        0.1513100000    0.0028820000   -0.0000000000
H        0.1472100000    0.0052800000   -0.0000000000
H        0.1362290000   -0.0192480000   -0.0000000000
H        0.1427460000    0.0227800000   -0.0000000000
H        0.1430100000    0.0013770000   -0.0000000000
C       -0.1082200000    0.0779210000    0.0000000000
H        0.1481700000   -0.0007700000    0.0000000000
