
Running Job 1 of 1 optimize.in
qchem optimize.in_35930.0 ./optimize.d/ 1
/home/leeping/opt/qchem/5.0.2-openmp/exe/qcprog.exe_s optimize.in_35930.0 ./optimize.d/
Check license passed

                  Welcome to Q-Chem
     A Quantum Leap Into The Future Of Chemistry


 Q-Chem 5.0, Q-Chem, Inc., Pleasanton, CA (2017)

 Yihan Shao,  Zhengting Gan,  E. Epifanovsky,  A. T. B. Gilbert,  M. Wormit,  
 J. Kussmann,  A. W. Lange,  A. Behn,  Jia Deng,  Xintian Feng,  D. Ghosh,  
 M. Goldey,  P. R. Horn,  L. D. Jacobson,  I. Kaliman,  T. Kus,  A. Landau,  
 Jie Liu,  E. I. Proynov,  R. M. Richard,  R. P. Steele,  E. J. Sundstrom,  
 H. L. Woodcock III,  P. M. Zimmerman,  D. Zuev,  B. Albrecht,  E. Alguire,  
 S. A. Baeppler,  D. Barton,  Z. Benda,  Y. A. Bernard,  E. J. Berquist,  
 K. B. Bravaya,  H. Burton,  D. Casanova,  Chun-Min Chang,  Yunqing Chen,  
 A. Chien,  K. D. Closser,  M. P. Coons,  S. Dasgupta,  A. L. Dempwolff,  
 M. Diedenhofen,  Hainam Do,  R. G. Edgar,  Po-Tung Fang,  S. Fatehi,  
 Qingguo Feng,  J. Fosso-Tande,  Qinghui Ge,  A. Ghysels,  G. Gidofalvi,  
 J. Gomes,  J. Gonthier,  A. Gunina,  M. W. D. Hanson-Heine,  
 P. H. P. Harbach,  A. W. Hauser,  J. E. Herr,  E. G. Hohenstein,  
 Z. C. Holden,  Kerwin Hui,  T.-C. Jagau,  Hyunjun Ji,  B. Kaduk,  
 K. Khistyaev,  Jaehoon Kim,  P. Klunzinger,  K. Koh,  D. Kosenkov,  
 L. Koulias,  T. Kowalczyk,  C. M. Krauter,  A. Kunitsa,  Ka Un Lao,  
 A. Laurent,  K. V. Lawler,  Joonho Lee,  D. Lefrancois,  S. Lehtola,  
 D. S. Levine,  Yi-Pei Li,  You-Sheng Lin,  Fenglai Liu,  E. Livshits,  
 A. Luenser,  P. Manohar,  E. Mansoor,  S. F. Manzer,  Shan-Ping Mao,  
 Yuezhi Mao,  N. Mardirossian,  A. V. Marenich,  T. Markovich,  
 L. A. Martinez-Martinez,  S. A. Maurer,  N. J. Mayhall,  S. C. McKenzie,  
 J.-M. Mewes,  A. F. Morrison,  J. W. Mullinax,  K. Nanda,  
 T. S. Nguyen-Beck,  R. Olivares-Amaya,  J. A. Parkhill,  T. M. Perrine,  
 F. Plasser,  S. Prager,  A. Prociuk,  E. Ramos,  D. R. Rehn,  F. Rob,  
 M. Schneider,  N. Sergueev,  S. M. Sharada,  S. Sharma,  D. W. Small,  
 T. Stauch,  T. Stein,  Yu-Chuan Su,  A. J. W. Thom,  A. Tkatchenko,  
 T. Tsuchimochi,  L. Vogt,  O. Vydrov,  M. A. Watson,  J. Wenzel,  
 M. de Wergifosse,  T. A. Wesolowski,  A. White,  J. Witte,  A. Yamada,  
 Jun Yang,  K. Yao,  S. Yeganeh,  S. R. Yost,  Zhi-Qiang You,  A. Zech,  
 Igor Ying Zhang,  Xing Zhang,  Yan Zhao,  Ying Zhu,  B. R. Brooks,  
 G. K. L. Chan,  C. J. Cramer,  M. S. Gordon,  W. J. Hehre,  A. Klamt,  
 M. W. Schmidt,  C. D. Sherrill,  D. G. Truhlar,  A. Aspuru-Guzik,  R. Baer,  
 A. T. Bell,  N. A. Besley,  Jeng-Da Chai,  R. A. DiStasio Jr.,  A. Dreuw,  
 B. D. Dunietz,  T. R. Furlani,  Chao-Ping Hsu,  Yousung Jung,  Jing Kong,  
 D. S. Lambrecht,  WanZhen Liang,  C. Ochsenfeld,  V. A. Rassolov,  
 L. V. Slipchenko,  J. E. Subotnik,  T. Van Voorhis,  J. M. Herbert,  
 A. I. Krylov,  P. M. W. Gill,  M. Head-Gordon

 Contributors to earlier versions of Q-Chem not listed above: 
 R. D. Adamson,  B. Austin,  J. Baker,  G. J. O. Beran,  K. Brandhorst,  
 S. T. Brown,  E. F. C. Byrd,  A. K. Chakraborty,  C.-L. Cheng,  
 Siu Hung Chien,  D. M. Chipman,  D. L. Crittenden,  H. Dachsel,  
 R. J. Doerksen,  A. D. Dutoi,  L. Fusti-Molnar,  W. A. Goddard III,  
 A. Golubeva-Zadorozhnaya,  S. R. Gwaltney,  G. Hawkins,  A. Heyden,  
 S. Hirata,  G. Kedziora,  F. J. Keil,  C. Kelley,  Jihan Kim,  R. A. King,  
 R. Z. Khaliullin,  P. P. Korambath,  W. Kurlancheek,  A. M. Lee,  M. S. Lee,  
 S. V. Levchenko,  Ching Yeh Lin,  D. Liotard,  R. C. Lochan,  I. Lotan,  
 P. E. Maslen,  N. Nair,  D. P. O'Neill,  D. Neuhauser,  E. Neuscamman,  
 C. M. Oana,  R. Olson,  B. Peters,  R. Peverati,  P. A. Pieniazek,  
 Y. M. Rhee,  J. Ritchie,  M. A. Rohrdanz,  E. Rosta,  N. J. Russ,  
 H. F. Schaefer III,  N. E. Schultz,  N. Shenvi,  A. C. Simmonett,  A. Sodt,  
 D. Stuck,  K. S. Thanthiriwatte,  V. Vanovschi,  Tao Wang,  A. Warshel,  
 C. F. Williams,  Q. Wu,  X. Xu,  W. Zhang

 Please cite Q-Chem as follows:
 Y. Shao et al., Mol. Phys. 113, 184-215 (2015)
 DOI: 10.1080/00268976.2014.952696

 Q-Chem 5.0.2 for Intel X86 EM64T Linux

 Parts of Q-Chem use Armadillo 5.200.1 (Boston Tea Smuggler).
 http://arma.sourceforge.net/

 Q-Chem begins on Tue Mar  1 16:07:57 2022  

Host: 
0

     Scratch files written to ./optimize.d//
 Dec517 15110_ 26548  26544 5633   
Processing $rem in /home/leeping/opt/qchem/5.0.2-openmp/config/preferences.
 MEM_STATIC 2000
 MEM_TOTAL  8000
 SYMMETRY   OFF
 SYM_IGNORE TRUE 

Checking the input file for inconsistencies... 	...done.

--------------------------------------------------------------
User input:
--------------------------------------------------------------
$molecule
0 2
C        1.6339636619    0.2624246827   -0.3412296002
C        1.1273590393   -1.0237511376   -0.3079788530
C       -0.2263373235   -1.4392159210   -0.0420776214
C       -1.2894469070   -0.6345044095    0.2408201842
C       -0.2241475645    1.6691147398    0.1546413918
N        1.0826518298    1.4840413253   -0.1500482659
H        2.6997469088    0.3273155821   -0.5711927536
H        1.8452117632   -1.8154075702   -0.5107490207
H       -0.4081458392   -2.5116939688   -0.0737876549
H       -2.2483621443   -1.1180590646    0.4153093004
H       -0.4686659678    2.7270849373    0.2763232645
C       -1.2857716224    0.8030701189    0.3352238194
H       -2.2380558343    1.2695806857    0.5747458094
$end

$rem
method                b3lyp
basis                 6-31g(d)
unrestricted          true
symmetry              off
sym_ignore            true
incdft                false
incfock               0
scf_convergence       8
thresh                14
jobtype               opt
scf_guess             read
scf_algorithm         diis
max_scf_cycles        100
geom_opt_tol_gradient 600
geom_opt_tol_displacement 2400
geom_opt_tol_energy   200
geom_opt_max_cycles   100
$end

--------------------------------------------------------------
 ----------------------------------------------------------------
             Standard Nuclear Orientation (Angstroms)
    I     Atom           X                Y                Z
 ----------------------------------------------------------------
    1      C       1.6339636619     0.2624246827    -0.3412296002
    2      C       1.1273590393    -1.0237511376    -0.3079788530
    3      C      -0.2263373235    -1.4392159210    -0.0420776214
    4      C      -1.2894469070    -0.6345044095     0.2408201842
    5      C      -0.2241475645     1.6691147398     0.1546413918
    6      N       1.0826518298     1.4840413253    -0.1500482659
    7      H       2.6997469088     0.3273155821    -0.5711927536
    8      H       1.8452117632    -1.8154075702    -0.5107490207
    9      H      -0.4081458392    -2.5116939688    -0.0737876549
   10      H      -2.2483621443    -1.1180590646     0.4153093004
   11      H      -0.4686659678     2.7270849373     0.2763232645
   12      C      -1.2857716224     0.8030701189     0.3352238194
   13      H      -2.2380558343     1.2695806857     0.5747458094
 ----------------------------------------------------------------
 Nuclear Repulsion Energy =   260.6948741176 hartrees
 There are       25 alpha and       24 beta electrons
 Requested basis set is 6-31G(d)
 There are 40 shells and 117 basis functions

 Total QAlloc Memory Limit   8000 MB
 Mega-Array Size      1956 MB
 MEM_STATIC part      2000 MB
 A cutoff of  1.0D-14 yielded    791 shell pairs
 There are      7063 function pairs
 
 -------------------------------------------------------
 OpenMP Integral Computing Module                       
 Release: version 1.0, May 2013, Q-Chem Inc. Pittsburgh 
 -------------------------------------------------------
 Integral Job Info:
 Integral job number is                      11
 Integral operator is                         1
 short-range coefficients                     0
 long-range coefficients              100000000
 Omega coefficients                           0
 if combine SR and LR in K                    0
 Integral screening is                        0
 Integral computing path is                   2
 max size of driver memory is            800000
 size of driver memory is                593474
 size of scratch memory is              2361544
 max col of scratch BK array               1296
 max len of scratch array in speh3          155
 max len of scratch index in speh4           18
 max int batch size is                      520
 min int batch size is                       52
 fixed nKL is                                52
 max L of basis functions is                  2
 order of int derivative is                   0
 number of shells is                         40
 number of basis is                         117
 number of cartesian basis is               117
 number of contracted shell pairs           791
 number of primitive shell pairs           3395
 maxK2 (contraction) of shell pair           36
 max number of K2 of shell pair               1
 max number of CS2 of shell pair             94
 max number of PS2 of shell pair            402
 mem total for path MDJ                  535308
 -------------------------------------------------------
 Smallest overlap matrix eigenvalue = 1.33E-03

 Scale SEOQF with 1.000000e-01/1.000000e-01/1.000000e+00

 Standard Electronic Orientation quadrupole field applied
 Nucleus-field energy     =     0.0000000041 hartrees
 Guess MOs from SCF MO coefficient file
 Reading MOs from coefficient file
 Reading MOs from coefficient file
 An unrestricted hybrid HF-DFT SCF calculation will be
 performed using Pulay DIIS extrapolation
 Exchange:     0.2000 Hartree-Fock + 0.0800 Slater + 0.7200 B88
 Correlation:  0.1900 VWN1RPA + 0.8100 LYP
 Using SG-1 standard quadrature grid
 SCF converges when DIIS error is below 1.0E-08
Using Q-Chem read-in guess as SCF_GUESS READ specified.

 using 4 threads for integral computing
 -------------------------------------------------------
 OpenMP Integral computing Module                
 Release: version 1.0, May 2013, Q-Chem Inc. Pittsburgh 
 -------------------------------------------------------
 -------------------------------------------------------
 OpenMP BLAS3 based DFT computing Module                
 Release: version 1.0, May 2013, Q-Chem Inc. Pittsburgh 
 -------------------------------------------------------
 ---------------------------------------
  Cycle       Energy         DIIS Error
 ---------------------------------------
    1    -286.9243050268      3.51E-10
    2    -286.9243050268      6.02E-10 Convergence criterion met
 ---------------------------------------
 <S^2> = 0.7684
 SCF time:  CPU 5.15 s  wall 3.22 s
 SCF   energy in the final basis set = -286.92430503
 Total energy in the final basis set = -286.92430503
 
 --------------------------------------------------------------
 
                    Orbital Energies (a.u.)
 --------------------------------------------------------------
 
 Alpha MOs
 -- Occupied --
-14.322 -10.232 -10.232 -10.212 -10.211 -10.201 -10.201  -0.922
 -0.818  -0.784  -0.693  -0.667  -0.551  -0.537  -0.518  -0.449
 -0.439  -0.414  -0.394  -0.387  -0.349  -0.322  -0.299  -0.251
 -0.162
 -- Virtual --
 -0.072   0.077   0.097   0.101   0.117   0.142   0.181   0.184
  0.193   0.213   0.266   0.319   0.357   0.390   0.412   0.483
  0.497   0.521   0.547   0.576   0.584   0.587   0.591   0.610
  0.619   0.624   0.646   0.658   0.713   0.718   0.833   0.840
  0.847   0.853   0.868   0.872   0.885   0.922   0.965   0.975
  1.024   1.027   1.043   1.127   1.177   1.185   1.300   1.303
  1.325   1.402   1.429   1.480   1.482   1.546   1.574   1.585
  1.682   1.732   1.769   1.829   1.850   1.919   1.924   2.030
  2.046   2.047   2.100   2.141   2.141   2.191   2.246   2.391
  2.410   2.414   2.446   2.545   2.576   2.600   2.614   2.739
  2.748   2.807   3.051   3.248   3.251   4.017   4.046   4.102
  4.196   4.239   4.531   4.595
 
 Beta MOs
 -- Occupied --
-14.314 -10.233 -10.233 -10.210 -10.210 -10.196 -10.196  -0.911
 -0.809  -0.777  -0.681  -0.665  -0.546  -0.534  -0.514  -0.447
 -0.438  -0.411  -0.383  -0.373  -0.347  -0.295  -0.276  -0.242
 -- Virtual --
 -0.078  -0.070   0.078   0.118   0.124   0.125   0.142   0.182
  0.187   0.196   0.219   0.268   0.324   0.360   0.392   0.414
  0.486   0.505   0.525   0.551   0.587   0.588   0.592   0.596
  0.614   0.624   0.629   0.649   0.676   0.715   0.729   0.834
  0.843   0.846   0.869   0.875   0.880   0.887   0.924   0.967
  0.979   1.026   1.030   1.045   1.133   1.180   1.189   1.311
  1.315   1.333   1.411   1.429   1.489   1.492   1.560   1.582
  1.596   1.685   1.736   1.781   1.831   1.854   1.922   1.933
  2.035   2.058   2.061   2.110   2.141   2.146   2.203   2.258
  2.399   2.422   2.426   2.448   2.558   2.578   2.611   2.624
  2.742   2.760   2.810   3.053   3.251   3.254   4.029   4.053
  4.109   4.200   4.239   4.536   4.601
 --------------------------------------------------------------
 
          Ground-State Mulliken Net Atomic Charges

     Atom                 Charge (a.u.)    Spin (a.u.)
  --------------------------------------------------------
      1 C                     0.035853      -0.113808
      2 C                    -0.131746       0.348745
      3 C                    -0.111089       0.091519
      4 C                    -0.111448       0.095931
      5 C                     0.035427      -0.111369
      6 N                    -0.423633       0.387403
      7 H                     0.142505       0.003464
      8 H                     0.134513      -0.018426
      9 H                     0.141925      -0.006529
     10 H                     0.141957      -0.006738
     11 H                     0.142676       0.003343
     12 C                    -0.131311       0.344685
     13 H                     0.134371      -0.018220
  --------------------------------------------------------
  Sum of atomic charges =    -0.000000
  Sum of spin   charges =     1.000000

 -----------------------------------------------------------------
                    Cartesian Multipole Moments
 -----------------------------------------------------------------
    Charge (ESU x 10^10)
                -0.0000
    Dipole Moment (Debye)
         X      -1.3198      Y      -1.8073      Z       0.1833
       Tot       2.2455
    Quadrupole Moments (Debye-Ang)
        XX     -37.4766     XY      -3.7060     YY     -39.5552
        XZ      -1.4945     YZ       1.0834     ZZ     -42.9723
    Octopole Moments (Debye-Ang^2)
       XXX     -12.9368    XXY     -11.2047    XYY     -13.1638
       YYY     -24.4366    XXZ       0.6001    XYZ       0.7885
       YYZ       2.0112    XZZ      -3.5317    YZZ      -4.9352
       ZZZ       1.4312
    Hexadecapole Moments (Debye-Ang^3)
      XXXX    -362.7462   XXXY     -11.2149   XXYY    -139.2585
      XYYY     -24.7810   YYYY    -394.3526   XXXZ      27.4135
      XXYZ      -1.6293   XYYZ      11.4003   YYYZ      -3.8525
      XXZZ     -78.3086   XYZZ      -1.4528   YYZZ     -83.3402
      XZZZ      41.0404   YZZZ     -11.7644   ZZZZ     -63.1938
 -----------------------------------------------------------------
 Calculating analytic gradient of the SCF energy
 Gradient of SCF Energy
            1           2           3           4           5           6
    1   0.0000767  -0.0001037  -0.0001289  -0.0002206  -0.0004200   0.0003286
    2  -0.0001651  -0.0004793   0.0002792   0.0000836  -0.0000434   0.0003607
    3   0.0002770  -0.0001134   0.0001004   0.0001468   0.0002285  -0.0004019
            7           8           9          10          11          12
    1  -0.0000702   0.0004207  -0.0000394   0.0000382  -0.0000178   0.0000320
    2  -0.0001214  -0.0000098  -0.0000193   0.0000897   0.0002950  -0.0000873
    3  -0.0000474  -0.0000589  -0.0000419  -0.0000905   0.0000467   0.0000705
           13
    1   0.0001045
    2  -0.0001825
    3  -0.0001160
 Max gradient component =       4.793E-04
 RMS gradient           =       2.000E-04
 Gradient time:  CPU 7.70 s  wall 2.85 s
 Geometry Optimization Parameters
   NAtoms,    NIC,     NZ,  NCons,   NDum,   NFix, NCnnct, MaxDiis
       13      82       0       0       0       0       0       0


** GEOMETRY OPTIMIZATION IN DELOCALIZED INTERNAL COORDINATES **
   Searching for a Minimum

   Optimization Cycle:   1

                       Coordinates (Angstroms)
     ATOM                X               Y               Z
      1  C         1.6339636619    0.2624246827   -0.3412296002
      2  C         1.1273590393   -1.0237511376   -0.3079788530
      3  C        -0.2263373235   -1.4392159210   -0.0420776214
      4  C        -1.2894469070   -0.6345044095    0.2408201842
      5  C        -0.2241475645    1.6691147398    0.1546413918
      6  N         1.0826518298    1.4840413253   -0.1500482659
      7  H         2.6997469088    0.3273155821   -0.5711927536
      8  H         1.8452117632   -1.8154075702   -0.5107490207
      9  H        -0.4081458392   -2.5116939688   -0.0737876549
     10  H        -2.2483621443   -1.1180590646    0.4153093004
     11  H        -0.4686659678    2.7270849373    0.2763232645
     12  C        -1.2857716224    0.8030701189    0.3352238194
     13  H        -2.2380558343    1.2695806857    0.5747458094
   Point Group: c1    Number of degrees of freedom:    33


   Energy is   -286.924305027


 Attempting to Generate Delocalized Internal Coordinates

 33 Hessian modes will be used to form the next step
  Hessian Eigenvalues:
     0.018549    0.019879    0.020875    0.021842    0.021986    0.022683
     0.023079    0.023756    0.023988    0.025330    0.159999    0.160000
     0.160000    0.160000    0.160000    0.160000    0.219998    0.219999
     0.220000    0.233937    0.345075    0.345551    0.350167    0.350423
     0.350767    0.351466    0.382630    0.389712    0.466914    0.484394
     0.506739    0.533258    0.537390

 Minimum Search - Taking Simple RFO Step
 Searching for Lamda that Minimizes Along All modes
 Value Taken    Lamda =  -0.00000718
 Step Taken.  Stepsize is  0.011715

                             Maximum     Tolerance    Cnvgd?
         Gradient           0.000513      0.000600     YES
         Displacement       0.005443      0.002400      NO
         Energy change     *********      0.000002      NO


 New Cartesian Coordinates Obtained by Inverse Iteration

 Displacement from previous Coordinates is:  0.010389
 ----------------------------------------------------------------
             Standard Nuclear Orientation (Angstroms)
    I     Atom           X                Y                Z
 ----------------------------------------------------------------
    1      C       1.6341844940     0.2628552785    -0.3418465063
    2      C       1.1268582493    -1.0228558637    -0.3089043954
    3      C      -0.2262955647    -1.4391671868    -0.0426802572
    4      C      -1.2895630326    -0.6347288779     0.2400817773
    5      C      -0.2239425408     1.6684866073     0.1540533149
    6      N       1.0829595674     1.4836238100    -0.1481750432
    7      H       2.7004684466     0.3283499259    -0.5697943175
    8      H       1.8427617129    -1.8156571447    -0.5117074658
    9      H      -0.4071575794    -2.5118170959    -0.0725509887
   10      H      -2.2478697381    -1.1188750465     0.4170837128
   11      H      -0.4683000409     2.7259835335     0.2760994285
   12      C      -1.2861771136     0.8031057322     0.3337376539
   13      H      -2.2379268602     1.2706963283     0.5746030868
 ----------------------------------------------------------------
 Nuclear Repulsion Energy =   260.7268183415 hartrees
 There are       25 alpha and       24 beta electrons
 Applying Cartesian multipole field
    Component          Value
    ---------          -----
     (2,0,0)        1.00000E-11
     (0,2,0)        2.00000E-11
     (0,0,2)       -3.00000E-10
 Nucleus-field energy     =     0.0000000041 hartrees
 Requested basis set is 6-31G(d)
 There are 40 shells and 117 basis functions
 A cutoff of  1.0D-14 yielded    791 shell pairs
 There are      7063 function pairs
 Smallest overlap matrix eigenvalue = 1.33E-03
 Guess MOs from SCF MO coefficient file
 Reading MOs from coefficient file
 Reading MOs from coefficient file
 An unrestricted hybrid HF-DFT SCF calculation will be
 performed using Pulay DIIS extrapolation
 Exchange:     0.2000 Hartree-Fock + 0.0800 Slater + 0.7200 B88
 Correlation:  0.1900 VWN1RPA + 0.8100 LYP
 Using SG-1 standard quadrature grid
 SCF converges when DIIS error is below 1.0E-08
 Geometry optimization detected.  Setting ReadMinima to 0
 Setting SaveMinima to 0
Using Q-Chem read-in guess as SCF_GUESS READ specified.

 using 4 threads for integral computing
 -------------------------------------------------------
 OpenMP Integral computing Module                
 Release: version 1.0, May 2013, Q-Chem Inc. Pittsburgh 
 -------------------------------------------------------
 -------------------------------------------------------
 OpenMP BLAS3 based DFT computing Module                
 Release: version 1.0, May 2013, Q-Chem Inc. Pittsburgh 
 -------------------------------------------------------
 ---------------------------------------
  Cycle       Energy         DIIS Error
 ---------------------------------------
    1    -286.9250732465      7.50E-05
    2    -286.9243085906      1.29E-05
    3    -286.9243077790      2.44E-05
    4    -286.9243090791      2.92E-06
    5    -286.9243090970      1.22E-06
    6    -286.9243091026      6.00E-07
    7    -286.9243091042      2.17E-07
    8    -286.9243091047      1.49E-07
    9    -286.9243091049      4.48E-08
   10    -286.9243091050      1.92E-08
   11    -286.9243091050      1.79E-08
   12    -286.9243091050      1.14E-08
   13    -286.9243091050      5.60E-09 Convergence criterion met
 ---------------------------------------
 <S^2> = 0.7683
 SCF time:  CPU 33.72 s  wall 25.49 s
 SCF   energy in the final basis set = -286.92430911
 Total energy in the final basis set = -286.92430911
 
 --------------------------------------------------------------
 
                    Orbital Energies (a.u.)
 --------------------------------------------------------------
 
 Alpha MOs
 -- Occupied --
-14.322 -10.232 -10.232 -10.212 -10.211 -10.201 -10.201  -0.922
 -0.818  -0.784  -0.693  -0.667  -0.551  -0.537  -0.518  -0.449
 -0.439  -0.414  -0.394  -0.386  -0.349  -0.322  -0.299  -0.251
 -0.162
 -- Virtual --
 -0.072   0.077   0.097   0.101   0.117   0.142   0.181   0.184
  0.193   0.213   0.266   0.320   0.357   0.390   0.412   0.484
  0.497   0.521   0.547   0.576   0.584   0.587   0.591   0.610
  0.619   0.624   0.646   0.658   0.713   0.718   0.833   0.840
  0.847   0.854   0.868   0.872   0.885   0.922   0.965   0.975
  1.024   1.027   1.043   1.127   1.177   1.185   1.300   1.303
  1.326   1.402   1.429   1.480   1.482   1.546   1.574   1.586
  1.682   1.732   1.769   1.829   1.850   1.919   1.925   2.030
  2.046   2.048   2.100   2.141   2.142   2.191   2.247   2.391
  2.410   2.415   2.446   2.545   2.577   2.601   2.614   2.739
  2.748   2.807   3.052   3.249   3.251   4.018   4.046   4.102
  4.196   4.239   4.532   4.595
 
 Beta MOs
 -- Occupied --
-14.314 -10.233 -10.233 -10.210 -10.210 -10.196 -10.196  -0.911
 -0.809  -0.777  -0.681  -0.665  -0.546  -0.534  -0.514  -0.447
 -0.438  -0.411  -0.383  -0.373  -0.348  -0.295  -0.276  -0.242
 -- Virtual --
 -0.078  -0.070   0.078   0.118   0.124   0.125   0.142   0.182
  0.187   0.196   0.219   0.268   0.324   0.360   0.393   0.415
  0.486   0.505   0.525   0.551   0.587   0.588   0.592   0.596
  0.614   0.624   0.629   0.649   0.676   0.715   0.729   0.834
  0.843   0.846   0.869   0.875   0.880   0.887   0.925   0.967
  0.979   1.026   1.030   1.045   1.133   1.180   1.189   1.311
  1.315   1.333   1.411   1.429   1.489   1.492   1.560   1.582
  1.597   1.685   1.737   1.781   1.831   1.854   1.922   1.933
  2.036   2.058   2.061   2.110   2.142   2.147   2.203   2.259
  2.399   2.422   2.426   2.448   2.558   2.579   2.611   2.624
  2.743   2.761   2.810   3.054   3.252   3.254   4.030   4.053
  4.109   4.200   4.239   4.537   4.601
 --------------------------------------------------------------
 
          Ground-State Mulliken Net Atomic Charges

     Atom                 Charge (a.u.)    Spin (a.u.)
  --------------------------------------------------------
      1 C                     0.035809      -0.113636
      2 C                    -0.131736       0.348661
      3 C                    -0.111064       0.091548
      4 C                    -0.111451       0.095954
      5 C                     0.035495      -0.111501
      6 N                    -0.423486       0.387012
      7 H                     0.142558       0.003455
      8 H                     0.134387      -0.018411
      9 H                     0.141972      -0.006532
     10 H                     0.141902      -0.006742
     11 H                     0.142603       0.003350
     12 C                    -0.131390       0.345089
     13 H                     0.134402      -0.018245
  --------------------------------------------------------
  Sum of atomic charges =     0.000000
  Sum of spin   charges =     1.000000

 -----------------------------------------------------------------
                    Cartesian Multipole Moments
 -----------------------------------------------------------------
    Charge (ESU x 10^10)
                 0.0000
    Dipole Moment (Debye)
         X      -1.3185      Y      -1.8073      Z       0.1829
       Tot       2.2446
    Quadrupole Moments (Debye-Ang)
        XX     -37.4839     XY      -3.7014     YY     -39.5517
        XZ      -1.5028     YZ       1.0713     ZZ     -42.9666
    Octopole Moments (Debye-Ang^2)
       XXX     -12.9163    XXY     -11.1829    XYY     -13.1587
       YYY     -24.4624    XXZ       0.6251    XYZ       0.7762
       YYZ       2.0166    XZZ      -3.5315    YZZ      -4.9310
       ZZZ       1.4773
    Hexadecapole Moments (Debye-Ang^3)
      XXXX    -362.8003   XXXY     -11.2213   XXYY    -139.2404
      XYYY     -24.8252   YYYY    -394.2017   XXXZ      27.3590
      XXYZ      -1.6671   XYYZ      11.3462   YYYZ      -3.9349
      XXZZ     -78.3014   XYZZ      -1.4660   YYZZ     -83.2893
      XZZZ      40.9862   YZZZ     -11.7966   ZZZZ     -63.1515
 -----------------------------------------------------------------
 Calculating analytic gradient of the SCF energy
 Gradient of SCF Energy
            1           2           3           4           5           6
    1  -0.0001036  -0.0000667   0.0000254   0.0000194  -0.0002004   0.0001607
    2   0.0000199  -0.0002048   0.0000416   0.0000320  -0.0000324   0.0000627
    3  -0.0000278   0.0000370  -0.0000047  -0.0000255   0.0000679  -0.0001358
            7           8           9          10          11          12
    1   0.0000195   0.0000100  -0.0000334   0.0000016   0.0000585   0.0001260
    2   0.0000027   0.0000531  -0.0000126   0.0000157  -0.0000231   0.0000399
    3   0.0000455   0.0000371  -0.0000055  -0.0000083   0.0000065  -0.0000017
           13
    1  -0.0000171
    2   0.0000053
    3   0.0000154
 Max gradient component =       2.048E-04
 RMS gradient           =       6.952E-05
 Gradient time:  CPU 7.71 s  wall 2.23 s
 Geometry Optimization Parameters
   NAtoms,    NIC,     NZ,  NCons,   NDum,   NFix, NCnnct, MaxDiis
       13      82       0       0       0       0       0       0

 Cartesian Hessian Update
 Hessian Updated using BFGS Update


** GEOMETRY OPTIMIZATION IN DELOCALIZED INTERNAL COORDINATES **
   Searching for a Minimum

   Optimization Cycle:   2

                       Coordinates (Angstroms)
     ATOM                X               Y               Z
      1  C         1.6341844940    0.2628552785   -0.3418465063
      2  C         1.1268582493   -1.0228558637   -0.3089043954
      3  C        -0.2262955647   -1.4391671868   -0.0426802572
      4  C        -1.2895630326   -0.6347288779    0.2400817773
      5  C        -0.2239425408    1.6684866073    0.1540533149
      6  N         1.0829595674    1.4836238100   -0.1481750432
      7  H         2.7004684466    0.3283499259   -0.5697943175
      8  H         1.8427617129   -1.8156571447   -0.5117074658
      9  H        -0.4071575794   -2.5118170959   -0.0725509887
     10  H        -2.2478697381   -1.1188750465    0.4170837128
     11  H        -0.4683000409    2.7259835335    0.2760994285
     12  C        -1.2861771136    0.8031057322    0.3337376539
     13  H        -2.2379268602    1.2706963283    0.5746030868
   Point Group: c1    Number of degrees of freedom:    33


   Energy is   -286.924309105

 Hessian Updated using BFGS Update

 28 Hessian modes will be used to form the next step
  Hessian Eigenvalues:
     0.015063    0.019853    0.020848    0.021379    0.021863    0.022700
     0.023452    0.023875    0.025261    0.026714    0.149049    0.163124
     0.209450    0.222087    0.235539    0.345518    0.346866    0.349952
     0.350350    0.351270    0.360777    0.385069    0.391611    0.466243
     0.486532    0.504371    0.529974    0.545188

 Minimum Search - Taking Simple RFO Step
 Searching for Lamda that Minimizes Along All modes
 Value Taken    Lamda =  -0.00000126
 Step Taken.  Stepsize is  0.007896

                             Maximum     Tolerance    Cnvgd?
         Gradient           0.000098      0.000600     YES
         Displacement       0.006439      0.002400      NO
         Energy change     -0.000004      0.000002      NO


 New Cartesian Coordinates Obtained by Inverse Iteration

 Displacement from previous Coordinates is:  0.008427
 ----------------------------------------------------------------
             Standard Nuclear Orientation (Angstroms)
    I     Atom           X                Y                Z
 ----------------------------------------------------------------
    1      C       1.6347079005     0.2628962107    -0.3410474835
    2      C       1.1268220350    -1.0224858368    -0.3093919094
    3      C      -0.2261704207    -1.4390344664    -0.0423078471
    4      C      -1.2896224974    -0.6348315742     0.2405314400
    5      C      -0.2237938324     1.6682822026     0.1543689895
    6      N       1.0833677092     1.4832917253    -0.1458576138
    7      H       2.7007174603     0.3284708385    -0.5702536502
    8      H       1.8417245862    -1.8157705476    -0.5138371647
    9      H      -0.4066248807    -2.5117270782    -0.0717329559
   10      H      -2.2477759080    -1.1191562117     0.4181029695
   11      H      -0.4685184569     2.7257921388     0.2754748750
   12      C      -1.2865070794     0.8031240535     0.3330864155
   13      H      -2.2383266158     1.2711485455     0.5728639350
 ----------------------------------------------------------------
 Nuclear Repulsion Energy =   260.7297287363 hartrees
 There are       25 alpha and       24 beta electrons
 Applying Cartesian multipole field
    Component          Value
    ---------          -----
     (2,0,0)        1.00000E-11
     (0,2,0)        2.00000E-11
     (0,0,2)       -3.00000E-10
 Nucleus-field energy     =     0.0000000041 hartrees
 Requested basis set is 6-31G(d)
 There are 40 shells and 117 basis functions
 A cutoff of  1.0D-14 yielded    791 shell pairs
 There are      7063 function pairs
 Smallest overlap matrix eigenvalue = 1.33E-03
 Guess MOs from SCF MO coefficient file
 Reading MOs from coefficient file
 Reading MOs from coefficient file
 An unrestricted hybrid HF-DFT SCF calculation will be
 performed using Pulay DIIS extrapolation
 Exchange:     0.2000 Hartree-Fock + 0.0800 Slater + 0.7200 B88
 Correlation:  0.1900 VWN1RPA + 0.8100 LYP
 Using SG-1 standard quadrature grid
 SCF converges when DIIS error is below 1.0E-08
 Geometry optimization detected.  Setting ReadMinima to 0
 Setting SaveMinima to 0
Using Q-Chem read-in guess as SCF_GUESS READ specified.

 using 4 threads for integral computing
 -------------------------------------------------------
 OpenMP Integral computing Module                
 Release: version 1.0, May 2013, Q-Chem Inc. Pittsburgh 
 -------------------------------------------------------
 -------------------------------------------------------
 OpenMP BLAS3 based DFT computing Module                
 Release: version 1.0, May 2013, Q-Chem Inc. Pittsburgh 
 -------------------------------------------------------
 ---------------------------------------
  Cycle       Energy         DIIS Error
 ---------------------------------------
    1    -286.9244069326      5.67E-05
    2    -286.9243097334      6.69E-06
    3    -286.9243096126      1.14E-05
    4    -286.9243098807      1.94E-06
    5    -286.9243098888      8.01E-07
    6    -286.9243098911      3.97E-07
    7    -286.9243098922      9.32E-08
    8    -286.9243098928      1.28E-07
    9    -286.9243098931      6.61E-08
   10    -286.9243098934      4.74E-08
   11    -286.9243098935      2.76E-08
   12    -286.9243098936      8.89E-09 Convergence criterion met
 ---------------------------------------
 <S^2> = 0.7684
 SCF time:  CPU 31.14 s  wall 18.94 s
 SCF   energy in the final basis set = -286.92430989
 Total energy in the final basis set = -286.92430989
 
 --------------------------------------------------------------
 
                    Orbital Energies (a.u.)
 --------------------------------------------------------------
 
 Alpha MOs
 -- Occupied --
-14.322 -10.232 -10.232 -10.212 -10.211 -10.201 -10.200  -0.922
 -0.818  -0.784  -0.693  -0.667  -0.551  -0.537  -0.518  -0.449
 -0.439  -0.414  -0.394  -0.386  -0.349  -0.322  -0.299  -0.251
 -0.162
 -- Virtual --
 -0.072   0.077   0.097   0.101   0.117   0.142   0.181   0.184
  0.193   0.213   0.266   0.320   0.356   0.390   0.412   0.483
  0.497   0.521   0.547   0.576   0.584   0.587   0.591   0.610
  0.619   0.624   0.646   0.658   0.714   0.718   0.833   0.840
  0.847   0.854   0.868   0.872   0.885   0.922   0.965   0.975
  1.024   1.027   1.043   1.127   1.177   1.185   1.300   1.303
  1.326   1.401   1.429   1.480   1.482   1.546   1.574   1.586
  1.682   1.732   1.769   1.829   1.850   1.919   1.925   2.030
  2.046   2.048   2.100   2.141   2.141   2.191   2.247   2.391
  2.410   2.415   2.446   2.545   2.577   2.601   2.614   2.739
  2.749   2.807   3.052   3.249   3.250   4.018   4.046   4.102
  4.196   4.239   4.532   4.595
 
 Beta MOs
 -- Occupied --
-14.314 -10.233 -10.233 -10.210 -10.210 -10.196 -10.196  -0.911
 -0.809  -0.777  -0.681  -0.665  -0.546  -0.535  -0.514  -0.447
 -0.438  -0.411  -0.383  -0.373  -0.348  -0.295  -0.276  -0.241
 -- Virtual --
 -0.078  -0.070   0.078   0.118   0.124   0.125   0.142   0.182
  0.187   0.196   0.219   0.268   0.324   0.360   0.393   0.415
  0.486   0.505   0.525   0.551   0.587   0.588   0.592   0.596
  0.614   0.624   0.629   0.649   0.676   0.716   0.729   0.834
  0.843   0.846   0.869   0.875   0.880   0.887   0.925   0.967
  0.979   1.026   1.030   1.045   1.133   1.180   1.189   1.311
  1.315   1.333   1.411   1.429   1.489   1.492   1.560   1.582
  1.597   1.685   1.737   1.781   1.831   1.854   1.922   1.933
  2.036   2.058   2.061   2.110   2.142   2.147   2.203   2.259
  2.399   2.422   2.426   2.448   2.558   2.579   2.611   2.624
  2.743   2.761   2.810   3.054   3.252   3.254   4.030   4.053
  4.109   4.200   4.239   4.537   4.601
 --------------------------------------------------------------
 
          Ground-State Mulliken Net Atomic Charges

     Atom                 Charge (a.u.)    Spin (a.u.)
  --------------------------------------------------------
      1 C                     0.035809      -0.113404
      2 C                    -0.131710       0.348318
      3 C                    -0.111132       0.091992
      4 C                    -0.111400       0.095500
      5 C                     0.035571      -0.111782
      6 N                    -0.423471       0.386909
      7 H                     0.142594       0.003441
      8 H                     0.134340      -0.018393
      9 H                     0.141966      -0.006553
     10 H                     0.141911      -0.006721
     11 H                     0.142582       0.003363
     12 C                    -0.131461       0.345603
     13 H                     0.134401      -0.018271
  --------------------------------------------------------
  Sum of atomic charges =     0.000000
  Sum of spin   charges =     1.000000

 -----------------------------------------------------------------
                    Cartesian Multipole Moments
 -----------------------------------------------------------------
    Charge (ESU x 10^10)
                 0.0000
    Dipole Moment (Debye)
         X      -1.3188      Y      -1.8069      Z       0.1787
       Tot       2.2441
    Quadrupole Moments (Debye-Ang)
        XX     -37.4858     XY      -3.7013     YY     -39.5508
        XZ      -1.5103     YZ       1.0627     ZZ     -42.9640
    Octopole Moments (Debye-Ang^2)
       XXX     -12.9322    XXY     -11.1757    XYY     -13.1651
       YYY     -24.4614    XXZ       0.5958    XYZ       0.7723
       YYZ       1.9815    XZZ      -3.5274    YZZ      -4.9313
       ZZZ       1.4311
    Hexadecapole Moments (Debye-Ang^3)
      XXXX    -362.9059   XXXY     -11.2225   XXYY    -139.2498
      XYYY     -24.8427   YYYY    -394.1279   XXXZ      27.2926
      XXYZ      -1.7033   XYYZ      11.3010   YYYZ      -4.0224
      XXZZ     -78.3059   XYZZ      -1.4647   YYZZ     -83.2611
      XZZZ      40.9399   YZZZ     -11.8443   ZZZZ     -63.1184
 -----------------------------------------------------------------
 Calculating analytic gradient of the SCF energy
 Gradient of SCF Energy
            1           2           3           4           5           6
    1  -0.0000199  -0.0000367   0.0000530   0.0000179  -0.0000967   0.0000837
    2   0.0000836  -0.0000241  -0.0000362  -0.0000044  -0.0000075  -0.0000865
    3   0.0000616   0.0000380  -0.0000285  -0.0000199   0.0000347  -0.0000832
            7           8           9          10          11          12
    1   0.0000141  -0.0000593  -0.0000229  -0.0000198   0.0000296   0.0000669
    2  -0.0000058   0.0000066   0.0000078   0.0000054  -0.0000431   0.0000674
    3  -0.0000239   0.0000308  -0.0000026  -0.0000006  -0.0000182  -0.0000185
           13
    1  -0.0000099
    2   0.0000369
    3   0.0000301
 Max gradient component =       9.673E-05
 RMS gradient           =       4.337E-05
 Gradient time:  CPU 7.24 s  wall 2.07 s
 Geometry Optimization Parameters
   NAtoms,    NIC,     NZ,  NCons,   NDum,   NFix, NCnnct, MaxDiis
       13      82       0       0       0       0       0       0

 Cartesian Hessian Update
 Hessian Updated using BFGS Update


** GEOMETRY OPTIMIZATION IN DELOCALIZED INTERNAL COORDINATES **
   Searching for a Minimum

   Optimization Cycle:   3

                       Coordinates (Angstroms)
     ATOM                X               Y               Z
      1  C         1.6347079005    0.2628962107   -0.3410474835
      2  C         1.1268220350   -1.0224858368   -0.3093919094
      3  C        -0.2261704207   -1.4390344664   -0.0423078471
      4  C        -1.2896224974   -0.6348315742    0.2405314400
      5  C        -0.2237938324    1.6682822026    0.1543689895
      6  N         1.0833677092    1.4832917253   -0.1458576138
      7  H         2.7007174603    0.3284708385   -0.5702536502
      8  H         1.8417245862   -1.8157705476   -0.5138371647
      9  H        -0.4066248807   -2.5117270782   -0.0717329559
     10  H        -2.2477759080   -1.1191562117    0.4181029695
     11  H        -0.4685184569    2.7257921388    0.2754748750
     12  C        -1.2865070794    0.8031240535    0.3330864155
     13  H        -2.2383266158    1.2711485455    0.5728639350
   Point Group: c1    Number of degrees of freedom:    33


   Energy is   -286.924309894

 Hessian Updated using BFGS Update

 31 Hessian modes will be used to form the next step
  Hessian Eigenvalues:
     0.008379    0.020090    0.020825    0.021223    0.021859    0.022701
     0.023627    0.023966    0.025358    0.031095    0.158756    0.159999
     0.161400    0.163956    0.218412    0.220498    0.224812    0.234045
     0.345536    0.346864    0.350241    0.350663    0.351261    0.359755
     0.387263    0.389164    0.458298    0.487008    0.505943    0.528486
     0.551773

 Minimum Search - Taking Simple RFO Step
 Searching for Lamda that Minimizes Along All modes
 Value Taken    Lamda =   0.00000000
 Step Taken.  Stepsize is  0.007301

                             Maximum     Tolerance    Cnvgd?
         Gradient           0.000086      0.000600     YES
         Displacement       0.006458      0.002400      NO
         Energy change     -0.000001      0.000002     YES


                       Distance Matrix (Angstroms)
             C (  1)   C (  2)   C (  3)   C (  4)   C (  5)   N (  6)
   C (  2)  1.382446
   C (  3)  2.539425  1.440637
   C (  4)  3.113817  2.508365  1.362964
   C (  5)  2.382137  3.046222  3.113536  2.539242
   N (  6)  1.353307  2.511484  3.203998  3.204189  1.353894
   H (  7)  1.092342  2.090521  3.459693  4.184273  3.297414  2.032128
   H (  8)  2.096084  1.087283  2.154173  3.430601  4.105057  3.405044
   H (  9)  3.455156  2.150763  1.088163  2.097601  4.190111  4.264475
   H ( 10)  4.190472  3.453477  2.097901  1.088191  3.454833  4.264658
   H ( 11)  3.296895  4.115431  4.183957  3.459657  1.092192  2.032161
   C ( 12)  3.046276  3.093507  2.508487  1.440935  1.381954  2.511637
   H ( 13)  4.105144  4.166936  3.431079  2.154819  2.095518  3.405175
             H (  7)   H (  8)   H (  9)   H ( 10)   H ( 11)   C ( 12)
   H (  8)  2.310589
   H (  9)  4.239201  2.394762
   H ( 10)  5.249768  4.251799  2.359879
   H ( 11)  4.062815  5.156164  5.249380  4.239072
   C ( 12)  4.115735  4.166740  3.453449  2.150913  2.090234
   H ( 13)  5.156502  5.230373  4.252151  2.395328  2.310119  1.087428

 
 Final energy is   -286.924309893554     


 ******************************
 **  OPTIMIZATION CONVERGED  **
 ******************************

                       Coordinates (Angstroms)
     ATOM                X               Y               Z
      1  C         1.6347079005    0.2628962107   -0.3410474835
      2  C         1.1268220350   -1.0224858368   -0.3093919094
      3  C        -0.2261704207   -1.4390344664   -0.0423078471
      4  C        -1.2896224974   -0.6348315742    0.2405314400
      5  C        -0.2237938324    1.6682822026    0.1543689895
      6  N         1.0833677092    1.4832917253   -0.1458576138
      7  H         2.7007174603    0.3284708385   -0.5702536502
      8  H         1.8417245862   -1.8157705476   -0.5138371647
      9  H        -0.4066248807   -2.5117270782   -0.0717329559
     10  H        -2.2477759080   -1.1191562117    0.4181029695
     11  H        -0.4685184569    2.7257921388    0.2754748750
     12  C        -1.2865070794    0.8031240535    0.3330864155
     13  H        -2.2383266158    1.2711485455    0.5728639350

Z-matrix Print:
$molecule
0 2
N 
C  1 1.353307
H  2 1.092342 1 111.944588
C  1 1.353894 2 123.266893 3 -179.854281 0
H  4 1.092192 1 111.914257 2 179.806525 0
C  4 1.381954 1 133.281823 2 -0.245170 0
H  6 1.087428 4 115.605079 1 -179.983568 0
C  2 1.382446 1 133.274668 3 -179.949340 0
H  8 1.087283 2 115.627087 1 -179.992586 0
C  8 1.440637 2 128.178789 1 0.106964 0
H  10 1.088163 8 115.833858 2 179.814879 0
C  10 1.362964 8 126.916346 2 -0.212975 0
H  12 1.088191 10 117.275053 8 -179.963669 0
$end

 
 --------------------------------------------------------------
 
                    Orbital Energies (a.u.)
 --------------------------------------------------------------
 
 Alpha MOs
 -- Occupied --
-14.322 -10.232 -10.232 -10.212 -10.211 -10.201 -10.200  -0.922
 -0.818  -0.784  -0.693  -0.667  -0.551  -0.537  -0.518  -0.449
 -0.439  -0.414  -0.394  -0.386  -0.349  -0.322  -0.299  -0.251
 -0.162
 -- Virtual --
 -0.072   0.077   0.097   0.101   0.117   0.142   0.181   0.184
  0.193   0.213   0.266   0.320   0.356   0.390   0.412   0.483
  0.497   0.521   0.547   0.576   0.584   0.587   0.591   0.610
  0.619   0.624   0.646   0.658   0.714   0.718   0.833   0.840
  0.847   0.854   0.868   0.872   0.885   0.922   0.965   0.975
  1.024   1.027   1.043   1.127   1.177   1.185   1.300   1.303
  1.326   1.401   1.429   1.480   1.482   1.546   1.574   1.586
  1.682   1.732   1.769   1.829   1.850   1.919   1.925   2.030
  2.046   2.048   2.100   2.141   2.141   2.191   2.247   2.391
  2.410   2.415   2.446   2.545   2.577   2.601   2.614   2.739
  2.749   2.807   3.052   3.249   3.250   4.018   4.046   4.102
  4.196   4.239   4.532   4.595
 
 Beta MOs
 -- Occupied --
-14.314 -10.233 -10.233 -10.210 -10.210 -10.196 -10.196  -0.911
 -0.809  -0.777  -0.681  -0.665  -0.546  -0.535  -0.514  -0.447
 -0.438  -0.411  -0.383  -0.373  -0.348  -0.295  -0.276  -0.241
 -- Virtual --
 -0.078  -0.070   0.078   0.118   0.124   0.125   0.142   0.182
  0.187   0.196   0.219   0.268   0.324   0.360   0.393   0.415
  0.486   0.505   0.525   0.551   0.587   0.588   0.592   0.596
  0.614   0.624   0.629   0.649   0.676   0.716   0.729   0.834
  0.843   0.846   0.869   0.875   0.880   0.887   0.925   0.967
  0.979   1.026   1.030   1.045   1.133   1.180   1.189   1.311
  1.315   1.333   1.411   1.429   1.489   1.492   1.560   1.582
  1.597   1.685   1.737   1.781   1.831   1.854   1.922   1.933
  2.036   2.058   2.061   2.110   2.142   2.147   2.203   2.259
  2.399   2.422   2.426   2.448   2.558   2.579   2.611   2.624
  2.743   2.761   2.810   3.054   3.252   3.254   4.030   4.053
  4.109   4.200   4.239   4.537   4.601
 --------------------------------------------------------------
 
          Ground-State Mulliken Net Atomic Charges

     Atom                 Charge (a.u.)    Spin (a.u.)
  --------------------------------------------------------
      1 C                     0.035809      -0.113404
      2 C                    -0.131710       0.348318
      3 C                    -0.111132       0.091992
      4 C                    -0.111400       0.095500
      5 C                     0.035571      -0.111782
      6 N                    -0.423471       0.386909
      7 H                     0.142594       0.003441
      8 H                     0.134340      -0.018393
      9 H                     0.141966      -0.006553
     10 H                     0.141911      -0.006721
     11 H                     0.142582       0.003363
     12 C                    -0.131461       0.345603
     13 H                     0.134401      -0.018271
  --------------------------------------------------------
  Sum of atomic charges =     0.000000
  Sum of spin   charges =     1.000000

 -----------------------------------------------------------------
                    Cartesian Multipole Moments
 -----------------------------------------------------------------
    Charge (ESU x 10^10)
                 0.0000
    Dipole Moment (Debye)
         X      -1.3188      Y      -1.8069      Z       0.1787
       Tot       2.2441
    Quadrupole Moments (Debye-Ang)
        XX     -37.4858     XY      -3.7013     YY     -39.5508
        XZ      -1.5103     YZ       1.0627     ZZ     -42.9640
    Octopole Moments (Debye-Ang^2)
       XXX     -12.9322    XXY     -11.1757    XYY     -13.1651
       YYY     -24.4614    XXZ       0.5958    XYZ       0.7723
       YYZ       1.9815    XZZ      -3.5274    YZZ      -4.9313
       ZZZ       1.4311
    Hexadecapole Moments (Debye-Ang^3)
      XXXX    -362.9059   XXXY     -11.2225   XXYY    -139.2498
      XYYY     -24.8427   YYYY    -394.1279   XXXZ      27.2926
      XXYZ      -1.7033   XYYZ      11.3010   YYYZ      -4.0224
      XXZZ     -78.3059   XYZZ      -1.4647   YYZZ     -83.2611
      XZZZ      40.9399   YZZZ     -11.8443   ZZZZ     -63.1184
 -----------------------------------------------------------------
Archival summary:
1\1\c8-89\OPT\ProcedureUnspecified\6-31G*\166(2)\hpark21\TueMar116:09:052022TueMar116:09:052022\0\\#,OPT,ProcedureUnspecified,6-31G*,\\0,2\N\C,1,1.35331\H,2,1.09234,1,111.945\C,1,1.35389,2,123.267,3,-179.854,0\H,4,1.09219,1,111.914,2,179.807,0\C,4,1.38195,1,133.282,2,-0.24517,0\H,6,1.08743,4,115.605,1,-179.984,0\C,2,1.38245,1,133.275,3,-179.949,0\H,8,1.08728,2,115.627,1,-179.993,0\C,8,1.44064,2,128.179,1,0.106964,0\H,10,1.08816,8,115.834,2,179.815,0\C,10,1.36296,8,126.916,2,-0.212975,0\H,12,1.08819,10,117.275,8,-179.964,0\\\@

 Total job time:  67.93s(wall), 97.08s(cpu) 
 Tue Mar  1 16:09:05 2022

        *************************************************************
        *                                                           *
        *  Thank you very much for using Q-Chem.  Have a nice day.  *
        *                                                           *
        *************************************************************


