13   
From optimize.out: Frame 1 / 3, Energy=    -286.9243050268
C        0.0358530000   -0.1138080000   -0.0000000000
C       -0.1317460000    0.3487450000   -0.0000000000
C       -0.1110890000    0.0915190000   -0.0000000000
C       -0.1114480000    0.0959310000    0.0000000000
C        0.0354270000   -0.1113690000    0.0000000000
N       -0.4236330000    0.3874030000   -0.0000000000
H        0.1425050000    0.0034640000   -0.0000000000
H        0.1345130000   -0.0184260000   -0.0000000000
H        0.1419250000   -0.0065290000   -0.0000000000
H        0.1419570000   -0.0067380000    0.0000000000
H        0.1426760000    0.0033430000    0.0000000000
C       -0.1313110000    0.3446850000    0.0000000000
H        0.1343710000   -0.0182200000    0.0000000000
13   
From optimize.out: Frame 2 / 3, Energy=    -286.9243091050
C        0.0358090000   -0.1136360000   -0.0000000000
C       -0.1317360000    0.3486610000   -0.0000000000
C       -0.1110640000    0.0915480000   -0.0000000000
C       -0.1114510000    0.0959540000    0.0000000000
C        0.0354950000   -0.1115010000    0.0000000000
N       -0.4234860000    0.3870120000   -0.0000000000
H        0.1425580000    0.0034550000   -0.0000000000
H        0.1343870000   -0.0184110000   -0.0000000000
H        0.1419720000   -0.0065320000   -0.0000000000
H        0.1419020000   -0.0067420000    0.0000000000
H        0.1426030000    0.0033500000    0.0000000000
C       -0.1313900000    0.3450890000    0.0000000000
H        0.1344020000   -0.0182450000    0.0000000000
