13   
From optimize.out: Frame 1 / 3, Energy=    -286.9243050268
C        1.6339636619    0.2624246827   -0.3412296002
C        1.1273590393   -1.0237511376   -0.3079788530
C       -0.2263373235   -1.4392159210   -0.0420776214
C       -1.2894469070   -0.6345044095    0.2408201842
C       -0.2241475645    1.6691147398    0.1546413918
N        1.0826518298    1.4840413253   -0.1500482659
H        2.6997469088    0.3273155821   -0.5711927536
H        1.8452117632   -1.8154075702   -0.5107490207
H       -0.4081458392   -2.5116939688   -0.0737876549
H       -2.2483621443   -1.1180590646    0.4153093004
H       -0.4686659678    2.7270849373    0.2763232645
C       -1.2857716224    0.8030701189    0.3352238194
H       -2.2380558343    1.2695806857    0.5747458094
13   
From optimize.out: Frame 2 / 3, Energy=    -286.9243091050
C        1.6341844940    0.2628552785   -0.3418465063
C        1.1268582493   -1.0228558637   -0.3089043954
C       -0.2262955647   -1.4391671868   -0.0426802572
C       -1.2895630326   -0.6347288779    0.2400817773
C       -0.2239425408    1.6684866073    0.1540533149
N        1.0829595674    1.4836238100   -0.1481750432
H        2.7004684466    0.3283499259   -0.5697943175
H        1.8427617129   -1.8156571447   -0.5117074658
H       -0.4071575794   -2.5118170959   -0.0725509887
H       -2.2478697381   -1.1188750465    0.4170837128
H       -0.4683000409    2.7259835335    0.2760994285
C       -1.2861771136    0.8031057322    0.3337376539
H       -2.2379268602    1.2706963283    0.5746030868
