
Running Job 1 of 1 qcirc.in
qchem qcirc.in_60372.0 ./qcirc.d/ 1
/home/leeping/opt/qchem/5.0.2-openmp/exe/qcprog.exe_s qcirc.in_60372.0 ./qcirc.d/
Check license passed

                  Welcome to Q-Chem
     A Quantum Leap Into The Future Of Chemistry


 Q-Chem 5.0, Q-Chem, Inc., Pleasanton, CA (2017)

 Yihan Shao,  Zhengting Gan,  E. Epifanovsky,  A. T. B. Gilbert,  M. Wormit,  
 J. Kussmann,  A. W. Lange,  A. Behn,  Jia Deng,  Xintian Feng,  D. Ghosh,  
 M. Goldey,  P. R. Horn,  L. D. Jacobson,  I. Kaliman,  T. Kus,  A. Landau,  
 Jie Liu,  E. I. Proynov,  R. M. Richard,  R. P. Steele,  E. J. Sundstrom,  
 H. L. Woodcock III,  P. M. Zimmerman,  D. Zuev,  B. Albrecht,  E. Alguire,  
 S. A. Baeppler,  D. Barton,  Z. Benda,  Y. A. Bernard,  E. J. Berquist,  
 K. B. Bravaya,  H. Burton,  D. Casanova,  Chun-Min Chang,  Yunqing Chen,  
 A. Chien,  K. D. Closser,  M. P. Coons,  S. Dasgupta,  A. L. Dempwolff,  
 M. Diedenhofen,  Hainam Do,  R. G. Edgar,  Po-Tung Fang,  S. Fatehi,  
 Qingguo Feng,  J. Fosso-Tande,  Qinghui Ge,  A. Ghysels,  G. Gidofalvi,  
 J. Gomes,  J. Gonthier,  A. Gunina,  M. W. D. Hanson-Heine,  
 P. H. P. Harbach,  A. W. Hauser,  J. E. Herr,  E. G. Hohenstein,  
 Z. C. Holden,  Kerwin Hui,  T.-C. Jagau,  Hyunjun Ji,  B. Kaduk,  
 K. Khistyaev,  Jaehoon Kim,  P. Klunzinger,  K. Koh,  D. Kosenkov,  
 L. Koulias,  T. Kowalczyk,  C. M. Krauter,  A. Kunitsa,  Ka Un Lao,  
 A. Laurent,  K. V. Lawler,  Joonho Lee,  D. Lefrancois,  S. Lehtola,  
 D. S. Levine,  Yi-Pei Li,  You-Sheng Lin,  Fenglai Liu,  E. Livshits,  
 A. Luenser,  P. Manohar,  E. Mansoor,  S. F. Manzer,  Shan-Ping Mao,  
 Yuezhi Mao,  N. Mardirossian,  A. V. Marenich,  T. Markovich,  
 L. A. Martinez-Martinez,  S. A. Maurer,  N. J. Mayhall,  S. C. McKenzie,  
 J.-M. Mewes,  A. F. Morrison,  J. W. Mullinax,  K. Nanda,  
 T. S. Nguyen-Beck,  R. Olivares-Amaya,  J. A. Parkhill,  T. M. Perrine,  
 F. Plasser,  S. Prager,  A. Prociuk,  E. Ramos,  D. R. Rehn,  F. Rob,  
 M. Schneider,  N. Sergueev,  S. M. Sharada,  S. Sharma,  D. W. Small,  
 T. Stauch,  T. Stein,  Yu-Chuan Su,  A. J. W. Thom,  A. Tkatchenko,  
 T. Tsuchimochi,  L. Vogt,  O. Vydrov,  M. A. Watson,  J. Wenzel,  
 M. de Wergifosse,  T. A. Wesolowski,  A. White,  J. Witte,  A. Yamada,  
 Jun Yang,  K. Yao,  S. Yeganeh,  S. R. Yost,  Zhi-Qiang You,  A. Zech,  
 Igor Ying Zhang,  Xing Zhang,  Yan Zhao,  Ying Zhu,  B. R. Brooks,  
 G. K. L. Chan,  C. J. Cramer,  M. S. Gordon,  W. J. Hehre,  A. Klamt,  
 M. W. Schmidt,  C. D. Sherrill,  D. G. Truhlar,  A. Aspuru-Guzik,  R. Baer,  
 A. T. Bell,  N. A. Besley,  Jeng-Da Chai,  R. A. DiStasio Jr.,  A. Dreuw,  
 B. D. Dunietz,  T. R. Furlani,  Chao-Ping Hsu,  Yousung Jung,  Jing Kong,  
 D. S. Lambrecht,  WanZhen Liang,  C. Ochsenfeld,  V. A. Rassolov,  
 L. V. Slipchenko,  J. E. Subotnik,  T. Van Voorhis,  J. M. Herbert,  
 A. I. Krylov,  P. M. W. Gill,  M. Head-Gordon

 Contributors to earlier versions of Q-Chem not listed above: 
 R. D. Adamson,  B. Austin,  J. Baker,  G. J. O. Beran,  K. Brandhorst,  
 S. T. Brown,  E. F. C. Byrd,  A. K. Chakraborty,  C.-L. Cheng,  
 Siu Hung Chien,  D. M. Chipman,  D. L. Crittenden,  H. Dachsel,  
 R. J. Doerksen,  A. D. Dutoi,  L. Fusti-Molnar,  W. A. Goddard III,  
 A. Golubeva-Zadorozhnaya,  S. R. Gwaltney,  G. Hawkins,  A. Heyden,  
 S. Hirata,  G. Kedziora,  F. J. Keil,  C. Kelley,  Jihan Kim,  R. A. King,  
 R. Z. Khaliullin,  P. P. Korambath,  W. Kurlancheek,  A. M. Lee,  M. S. Lee,  
 S. V. Levchenko,  Ching Yeh Lin,  D. Liotard,  R. C. Lochan,  I. Lotan,  
 P. E. Maslen,  N. Nair,  D. P. O'Neill,  D. Neuhauser,  E. Neuscamman,  
 C. M. Oana,  R. Olson,  B. Peters,  R. Peverati,  P. A. Pieniazek,  
 Y. M. Rhee,  J. Ritchie,  M. A. Rohrdanz,  E. Rosta,  N. J. Russ,  
 H. F. Schaefer III,  N. E. Schultz,  N. Shenvi,  A. C. Simmonett,  A. Sodt,  
 D. Stuck,  K. S. Thanthiriwatte,  V. Vanovschi,  Tao Wang,  A. Warshel,  
 C. F. Williams,  Q. Wu,  X. Xu,  W. Zhang

 Please cite Q-Chem as follows:
 Y. Shao et al., Mol. Phys. 113, 184-215 (2015)
 DOI: 10.1080/00268976.2014.952696

 Q-Chem 5.0.2 for Intel X86 EM64T Linux

 Parts of Q-Chem use Armadillo 5.200.1 (Boston Tea Smuggler).
 http://arma.sourceforge.net/

 Q-Chem begins on Thu Mar  3 07:37:40 2022  

Host: 
0

     Scratch files written to ./qcirc.d//
 Dec517 15110_ 26548  26544 5633   
Processing $rem in /home/leeping/opt/qchem/5.0.2-openmp/config/preferences.
 MEM_STATIC 2000
 MEM_TOTAL  8000
 SYMMETRY   OFF
 SYM_IGNORE TRUE 

Checking the input file for inconsistencies... 	...done.

--------------------------------------------------------------
User input:
--------------------------------------------------------------
$molecule
0 2
C        1.1628614809    0.3140366017   -0.0335672126
C        0.5169804464   -1.0228036285    0.2090919102
C       -0.8599300766   -1.0411957904    0.1779154810
C       -1.5633759342    0.1865118697    0.1678571773
C       -0.8329384327    1.3817530794    0.4950910246
N        0.4643430087    1.4629109280    0.5278058468
H        2.2216358766    0.3220924824    0.2965485999
H        1.1190061373   -1.8968895556    0.4322821220
H       -1.4015148711   -1.9793539218    0.2713346972
H       -2.6443347972    0.2170738949    0.0830064048
H       -1.3922230562    2.2723230023    0.7841077510
C        1.2714638955    0.3421676876   -1.5266481047
H        1.9212828036   -0.5253640497   -1.7762969451
$end

$rem
method                b3lyp
basis                 6-31+g(d,p)
unrestricted          true
symmetry              off
sym_ignore            true
incdft                false
incfock               0
scf_convergence       8
thresh                14
jobtype               opt
scf_guess             read
scf_algorithm         diis
max_scf_cycles        100
geom_opt_max_cycles   300
$end

--------------------------------------------------------------
 ----------------------------------------------------------------
             Standard Nuclear Orientation (Angstroms)
    I     Atom           X                Y                Z
 ----------------------------------------------------------------
    1      C       1.1628614809     0.3140366017    -0.0335672126
    2      C       0.5169804464    -1.0228036285     0.2090919102
    3      C      -0.8599300766    -1.0411957904     0.1779154810
    4      C      -1.5633759342     0.1865118697     0.1678571773
    5      C      -0.8329384327     1.3817530794     0.4950910246
    6      N       0.4643430087     1.4629109280     0.5278058468
    7      H       2.2216358766     0.3220924824     0.2965485999
    8      H       1.1190061373    -1.8968895556     0.4322821220
    9      H      -1.4015148711    -1.9793539218     0.2713346972
   10      H      -2.6443347972     0.2170738949     0.0830064048
   11      H      -1.3922230562     2.2723230023     0.7841077510
   12      C       1.2714638955     0.3421676876    -1.5266481047
   13      H       1.9212828036    -0.5253640497    -1.7762969451
 ----------------------------------------------------------------
 Nuclear Repulsion Energy =   265.1555973633 hartrees
 There are       25 alpha and       24 beta electrons
 Requested basis set is 6-31+G(d,p)
 There are 53 shells and 163 basis functions

 Total QAlloc Memory Limit   8000 MB
 Mega-Array Size      1956 MB
 MEM_STATIC part      2000 MB
 A cutoff of  1.0D-14 yielded   1379 shell pairs
 There are     13435 function pairs
 
 -------------------------------------------------------
 OpenMP Integral Computing Module                       
 Release: version 1.0, May 2013, Q-Chem Inc. Pittsburgh 
 -------------------------------------------------------
 Integral Job Info:
 Integral job number is                      11
 Integral operator is                         1
 short-range coefficients                     0
 long-range coefficients              100000000
 Omega coefficients                           0
 if combine SR and LR in K                    0
 Integral screening is                        0
 Integral computing path is                   2
 max size of driver memory is            800000
 size of driver memory is                593474
 size of scratch memory is              2361544
 max col of scratch BK array               1296
 max len of scratch array in speh3          155
 max len of scratch index in speh4           18
 max int batch size is                      520
 min int batch size is                       52
 fixed nKL is                                52
 max L of basis functions is                  2
 order of int derivative is                   0
 number of shells is                         53
 number of basis is                         163
 number of cartesian basis is               163
 number of contracted shell pairs          1379
 number of primitive shell pairs           4642
 maxK2 (contraction) of shell pair           36
 max number of K2 of shell pair               1
 max number of CS2 of shell pair            130
 max number of PS2 of shell pair            678
 mem total for path MDJ                  535308
 -------------------------------------------------------
 Smallest overlap matrix eigenvalue = 1.84E-05

 Scale SEOQF with 1.000000e-01/1.000000e-01/1.000000e-01

 Standard Electronic Orientation quadrupole field applied
 Nucleus-field energy     =     0.0000000038 hartrees
 Guess MOs from SCF MO coefficient file
 Reading MOs from coefficient file
 Reading MOs from coefficient file
 An unrestricted hybrid HF-DFT SCF calculation will be
 performed using Pulay DIIS extrapolation
 Exchange:     0.2000 Hartree-Fock + 0.0800 Slater + 0.7200 B88
 Correlation:  0.1900 VWN1RPA + 0.8100 LYP
 Using SG-1 standard quadrature grid
 SCF converges when DIIS error is below 1.0E-08
Using Q-Chem read-in guess as SCF_GUESS READ specified.

 using 4 threads for integral computing
 -------------------------------------------------------
 OpenMP Integral computing Module                
 Release: version 1.0, May 2013, Q-Chem Inc. Pittsburgh 
 -------------------------------------------------------
 -------------------------------------------------------
 OpenMP BLAS3 based DFT computing Module                
 Release: version 1.0, May 2013, Q-Chem Inc. Pittsburgh 
 -------------------------------------------------------
 ---------------------------------------
  Cycle       Energy         DIIS Error
 ---------------------------------------
    1    -286.8095607561      1.56E-09
    2    -286.8095607561      1.91E-09 Convergence criterion met
 ---------------------------------------
 <S^2> = 1.0713
 SCF time:  CPU 10.05 s  wall 2.73 s
 SCF   energy in the final basis set = -286.80956076
 Total energy in the final basis set = -286.80956076
 
 --------------------------------------------------------------
 
                    Orbital Energies (a.u.)
 --------------------------------------------------------------
 
 Alpha MOs
 -- Occupied --
-14.342 -10.247 -10.245 -10.237 -10.236 -10.225 -10.224  -0.949
 -0.826  -0.799  -0.697  -0.632  -0.601  -0.539  -0.495  -0.481
 -0.457  -0.431  -0.410  -0.387  -0.358  -0.314  -0.269  -0.257
 -0.214
 -- Virtual --
 -0.103  -0.026  -0.004   0.013   0.025   0.035   0.042   0.047
  0.053   0.068   0.077   0.086   0.091   0.094   0.105   0.113
  0.121   0.125   0.135   0.147   0.154   0.166   0.177   0.182
  0.189   0.196   0.204   0.209   0.212   0.225   0.245   0.262
  0.264   0.274   0.279   0.284   0.293   0.303   0.326   0.336
  0.366   0.393   0.480   0.506   0.586   0.625   0.653   0.668
  0.680   0.701   0.718   0.719   0.727   0.743   0.756   0.773
  0.800   0.848   0.865   0.886   0.920   0.929   0.960   0.967
  1.005   1.021   1.044   1.056   1.069   1.092   1.138   1.154
  1.162   1.199   1.258   1.299   1.308   1.355   1.403   1.454
  1.488   1.514   1.536   1.607   1.659   1.702   1.769   1.807
  1.846   1.883   1.916   1.934   1.961   1.968   2.002   2.040
  2.060   2.106   2.138   2.206   2.235   2.243   2.329   2.356
  2.380   2.381   2.427   2.430   2.458   2.479   2.499   2.524
  2.546   2.560   2.598   2.607   2.643   2.694   2.714   2.749
  2.877   2.901   2.981   3.096   3.236   3.253   3.286   3.325
  3.401   3.477   3.758   4.167   4.286   4.334   4.378   4.467
  4.571   4.735
 
 Beta MOs
 -- Occupied --
-14.336 -10.247 -10.241 -10.238 -10.232 -10.227 -10.217  -0.941
 -0.819  -0.791  -0.685  -0.628  -0.595  -0.535  -0.491  -0.477
 -0.450  -0.426  -0.407  -0.381  -0.342  -0.299  -0.264  -0.242
 -- Virtual --
 -0.120  -0.094  -0.016  -0.003   0.014   0.025   0.036   0.046
  0.049   0.063   0.069   0.080   0.085   0.091   0.095   0.105
  0.116   0.123   0.126   0.137   0.150   0.154   0.167   0.180
  0.183   0.191   0.198   0.206   0.210   0.217   0.227   0.248
  0.265   0.269   0.278   0.283   0.286   0.296   0.305   0.328
  0.341   0.369   0.396   0.485   0.511   0.589   0.627   0.662
  0.671   0.694   0.704   0.722   0.726   0.741   0.744   0.757
  0.780   0.800   0.851   0.868   0.888   0.918   0.932   0.966
  0.969   1.011   1.024   1.051   1.063   1.078   1.097   1.139
  1.158   1.169   1.204   1.264   1.305   1.313   1.362   1.412
  1.457   1.495   1.518   1.547   1.615   1.663   1.709   1.777
  1.811   1.850   1.891   1.926   1.940   1.971   1.972   2.007
  2.051   2.066   2.116   2.144   2.211   2.238   2.247   2.332
  2.359   2.385   2.388   2.431   2.437   2.462   2.485   2.504
  2.531   2.549   2.566   2.605   2.616   2.647   2.700   2.719
  2.753   2.880   2.905   2.983   3.100   3.238   3.254   3.288
  3.327   3.406   3.479   3.761   4.175   4.293   4.335   4.387
  4.470   4.573   4.739
 --------------------------------------------------------------
 
          Ground-State Mulliken Net Atomic Charges

     Atom                 Charge (a.u.)    Spin (a.u.)
  --------------------------------------------------------
      1 C                    -0.198533      -0.047422
      2 C                    -0.101930       0.419515
      3 C                    -0.108444      -0.269217
      4 C                    -0.013835       0.592510
      5 C                    -0.101050      -0.186157
      6 N                    -0.077781       0.275537
      7 H                     0.169825       0.060303
      8 H                     0.148047      -0.018458
      9 H                     0.140529       0.009778
     10 H                     0.135528      -0.026089
     11 H                     0.132285       0.005627
     12 C                    -0.236058       0.192852
     13 H                     0.111418      -0.008779
  --------------------------------------------------------
  Sum of atomic charges =    -0.000000
  Sum of spin   charges =     1.000000

 -----------------------------------------------------------------
                    Cartesian Multipole Moments
 -----------------------------------------------------------------
    Charge (ESU x 10^10)
                -0.0000
    Dipole Moment (Debye)
         X      -0.7274      Y      -2.8686      Z       0.9118
       Tot       3.0966
    Quadrupole Moments (Debye-Ang)
        XX     -35.3131     XY      -3.9418     YY     -43.5943
        XZ      -0.8962     YZ       0.3784     ZZ     -48.2936
    Octopole Moments (Debye-Ang^2)
       XXX      -4.0392    XXY      -9.3862    XYY     -10.5493
       YYY     -36.4704    XXZ       0.0078    XYZ      -1.2865
       YYZ       2.8510    XZZ      -2.3943    YZZ     -13.2720
       ZZZ       9.9181
    Hexadecapole Moments (Debye-Ang^3)
      XXXX    -331.7696   XXXY      -3.7208   XXYY    -108.3713
      XYYY     -18.6909   YYYY    -317.3111   XXXZ      46.4501
      XXYZ      -2.5851   XYYZ      12.1553   YYYZ     -15.7325
      XXZZ     -94.2174   XYZZ      -7.4489   YYZZ     -90.5682
      XZZZ      56.0797   YZZZ      -2.7112   ZZZZ    -206.6996
 -----------------------------------------------------------------
 Calculating analytic gradient of the SCF energy
 Gradient of SCF Energy
            1           2           3           4           5           6
    1  -0.0095662  -0.0056757   0.0112322  -0.0023463  -0.0028216   0.0028419
    2  -0.0120833  -0.0087352  -0.0045809   0.0073847  -0.0003857   0.0005886
    3  -0.0160773   0.0055625  -0.0004381  -0.0013961   0.0007528   0.0048039
            7           8           9          10          11          12
    1   0.0039022  -0.0006677   0.0005972   0.0000880   0.0000891   0.0015638
    2  -0.0000847   0.0008997  -0.0002021   0.0004147   0.0003924   0.0194203
    3  -0.0053016   0.0062874   0.0010931  -0.0006496  -0.0014983   0.0011137
           13
    1   0.0007629
    2  -0.0030287
    3   0.0057476
 Max gradient component =       1.942E-02
 RMS gradient           =       5.986E-03
 Gradient time:  CPU 16.58 s  wall 4.29 s
 Geometry Optimization Parameters
   NAtoms,    NIC,     NZ,  NCons,   NDum,   NFix, NCnnct, MaxDiis
       13      85       0       0       0       0       0       0


** GEOMETRY OPTIMIZATION IN DELOCALIZED INTERNAL COORDINATES **
   Searching for a Minimum

   Optimization Cycle:   1

                       Coordinates (Angstroms)
     ATOM                X               Y               Z
      1  C         1.1628614809    0.3140366017   -0.0335672126
      2  C         0.5169804464   -1.0228036285    0.2090919102
      3  C        -0.8599300766   -1.0411957904    0.1779154810
      4  C        -1.5633759342    0.1865118697    0.1678571773
      5  C        -0.8329384327    1.3817530794    0.4950910246
      6  N         0.4643430087    1.4629109280    0.5278058468
      7  H         2.2216358766    0.3220924824    0.2965485999
      8  H         1.1190061373   -1.8968895556    0.4322821220
      9  H        -1.4015148711   -1.9793539218    0.2713346972
     10  H        -2.6443347972    0.2170738949    0.0830064048
     11  H        -1.3922230562    2.2723230023    0.7841077510
     12  C         1.2714638955    0.3421676876   -1.5266481047
     13  H         1.9212828036   -0.5253640497   -1.7762969451
   Point Group: c1    Number of degrees of freedom:    33


   Energy is   -286.809560756


 Attempting to Generate Delocalized Internal Coordinates

 33 Hessian modes will be used to form the next step
  Hessian Eigenvalues:
     0.009537    0.012001    0.016347    0.019091    0.019375    0.021432
     0.022524    0.023426    0.060128    0.081048    0.094771    0.157333
     0.158863    0.159797    0.159873    0.160000    0.174435    0.200045
     0.219510    0.221611    0.307754    0.323582    0.326633    0.326983
     0.347415    0.351287    0.354307    0.354487    0.357539    0.385189
     0.420118    0.478915    0.647925

 Minimum Search - Taking Simple RFO Step
 Searching for Lamda that Minimizes Along All modes
 Value Taken    Lamda =  -0.00895578
 Calculated Step too Large.  Step scaled by  0.760330
 Step Taken.  Stepsize is  0.300000

                             Maximum     Tolerance    Cnvgd?
         Gradient           0.014815      0.000300      NO
         Displacement       0.177372      0.001200      NO
         Energy change     *********      0.000001      NO


 New Cartesian Coordinates Obtained by Inverse Iteration

 Displacement from previous Coordinates is:  0.363281
 ----------------------------------------------------------------
             Standard Nuclear Orientation (Angstroms)
    I     Atom           X                Y                Z
 ----------------------------------------------------------------
    1      C       1.1755555766     0.3367796713    -0.0152619143
    2      C       0.5221284666    -0.9944298311     0.1922763974
    3      C      -0.8609080455    -1.0255393373     0.1664119889
    4      C      -1.5737809166     0.1872120440     0.1974475718
    5      C      -0.8445894432     1.3923449173     0.4924861508
    6      N       0.4511696939     1.4927179969     0.4947668810
    7      H       2.2181695656     0.3520283889     0.3549732841
    8      H       1.1290387769    -1.8800888473     0.3441573260
    9      H      -1.3946093814    -1.9708887670     0.2274995002
   10      H      -2.6566964311     0.2057189153     0.1372736695
   11      H      -1.4064883442     2.2758383859     0.7981906510
   12      C       1.2817371720     0.2587156137    -1.5143897118
   13      H       1.9425297914    -0.5971465506    -1.7673030420
 ----------------------------------------------------------------
 Nuclear Repulsion Energy =   265.2069275308 hartrees
 There are       25 alpha and       24 beta electrons
 Applying Cartesian multipole field
    Component          Value
    ---------          -----
     (2,0,0)        1.00000E-11
     (0,2,0)        2.00000E-11
     (0,0,2)       -3.00000E-11
 Nucleus-field energy     =     0.0000000039 hartrees
 Requested basis set is 6-31+G(d,p)
 There are 53 shells and 163 basis functions
 A cutoff of  1.0D-14 yielded   1377 shell pairs
 There are     13431 function pairs
 Smallest overlap matrix eigenvalue = 1.79E-05
 Guess MOs from SCF MO coefficient file
 Reading MOs from coefficient file
 Reading MOs from coefficient file
 An unrestricted hybrid HF-DFT SCF calculation will be
 performed using Pulay DIIS extrapolation
 Exchange:     0.2000 Hartree-Fock + 0.0800 Slater + 0.7200 B88
 Correlation:  0.1900 VWN1RPA + 0.8100 LYP
 Using SG-1 standard quadrature grid
 SCF converges when DIIS error is below 1.0E-08
 Geometry optimization detected.  Setting ReadMinima to 0
 Setting SaveMinima to 0
Using Q-Chem read-in guess as SCF_GUESS READ specified.

 using 4 threads for integral computing
 -------------------------------------------------------
 OpenMP Integral computing Module                
 Release: version 1.0, May 2013, Q-Chem Inc. Pittsburgh 
 -------------------------------------------------------
 -------------------------------------------------------
 OpenMP BLAS3 based DFT computing Module                
 Release: version 1.0, May 2013, Q-Chem Inc. Pittsburgh 
 -------------------------------------------------------
 ---------------------------------------
  Cycle       Energy         DIIS Error
 ---------------------------------------
    1    -286.8253270913      1.44E-03
    2    -286.8149247014      2.69E-04
    3    -286.8148995187      3.81E-04
    4    -286.8155580681      9.29E-05
    5    -286.8156286250      2.93E-05
    6    -286.8156627556      2.69E-05
    7    -286.8156843993      1.91E-05
    8    -286.8156908008      6.97E-06
    9    -286.8156932973      2.08E-06
   10    -286.8156935957      1.02E-06
   11    -286.8156936734      4.45E-07
   12    -286.8156937124      2.53E-07
   13    -286.8156937358      2.17E-07
   14    -286.8156937439      8.73E-08
   15    -286.8156937461      4.61E-08
   16    -286.8156937465      2.24E-08
   17    -286.8156937466      9.79E-09 Convergence criterion met
 ---------------------------------------
 <S^2> = 1.0155
 SCF time:  CPU 84.41 s  wall 26.86 s
 SCF   energy in the final basis set = -286.81569375
 Total energy in the final basis set = -286.81569375
 
 --------------------------------------------------------------
 
                    Orbital Energies (a.u.)
 --------------------------------------------------------------
 
 Alpha MOs
 -- Occupied --
-14.343 -10.249 -10.242 -10.238 -10.238 -10.227 -10.224  -0.948
 -0.828  -0.801  -0.693  -0.635  -0.600  -0.540  -0.497  -0.482
 -0.460  -0.431  -0.411  -0.387  -0.358  -0.315  -0.270  -0.253
 -0.214
 -- Virtual --
 -0.099  -0.025  -0.004   0.013   0.025   0.036   0.044   0.046
  0.054   0.068   0.077   0.088   0.091   0.094   0.106   0.113
  0.122   0.125   0.136   0.147   0.152   0.166   0.178   0.183
  0.189   0.198   0.204   0.207   0.210   0.224   0.249   0.261
  0.266   0.271   0.281   0.285   0.294   0.302   0.323   0.335
  0.367   0.391   0.485   0.511   0.587   0.626   0.651   0.665
  0.688   0.702   0.718   0.721   0.723   0.746   0.760   0.770
  0.795   0.850   0.867   0.887   0.915   0.931   0.962   0.971
  1.005   1.031   1.045   1.056   1.066   1.092   1.141   1.155
  1.177   1.201   1.264   1.292   1.314   1.362   1.397   1.452
  1.481   1.506   1.549   1.603   1.655   1.692   1.766   1.803
  1.849   1.876   1.921   1.956   1.962   1.980   2.001   2.044
  2.061   2.101   2.140   2.210   2.225   2.254   2.334   2.353
  2.377   2.391   2.421   2.430   2.458   2.484   2.497   2.522
  2.541   2.565   2.592   2.608   2.640   2.689   2.734   2.749
  2.865   2.911   2.984   3.103   3.246   3.251   3.293   3.323
  3.399   3.470   3.766   4.171   4.289   4.336   4.386   4.466
  4.567   4.736
 
 Beta MOs
 -- Occupied --
-14.338 -10.249 -10.240 -10.237 -10.233 -10.229 -10.218  -0.941
 -0.821  -0.793  -0.682  -0.631  -0.593  -0.536  -0.493  -0.478
 -0.453  -0.427  -0.407  -0.382  -0.344  -0.301  -0.265  -0.236
 -- Virtual --
 -0.119  -0.087  -0.016  -0.002   0.014   0.024   0.037   0.045
  0.049   0.064   0.069   0.080   0.089   0.091   0.094   0.107
  0.115   0.124   0.126   0.138   0.150   0.153   0.167   0.181
  0.183   0.191   0.199   0.205   0.208   0.215   0.226   0.251
  0.263   0.270   0.275   0.285   0.287   0.297   0.303   0.325
  0.338   0.371   0.395   0.489   0.515   0.591   0.628   0.665
  0.668   0.699   0.705   0.718   0.726   0.741   0.749   0.758
  0.778   0.796   0.853   0.869   0.889   0.914   0.934   0.968
  0.973   1.011   1.036   1.054   1.059   1.075   1.097   1.143
  1.158   1.183   1.206   1.270   1.295   1.320   1.369   1.405
  1.455   1.487   1.512   1.560   1.610   1.661   1.699   1.775
  1.808   1.854   1.884   1.928   1.963   1.969   1.985   2.007
  2.059   2.063   2.110   2.146   2.215   2.228   2.258   2.336
  2.357   2.383   2.396   2.425   2.437   2.468   2.485   2.504
  2.528   2.544   2.572   2.599   2.616   2.644   2.695   2.739
  2.753   2.868   2.915   2.986   3.107   3.247   3.251   3.295
  3.326   3.405   3.472   3.768   4.179   4.297   4.339   4.393
  4.469   4.569   4.740
 --------------------------------------------------------------
 
          Ground-State Mulliken Net Atomic Charges

     Atom                 Charge (a.u.)    Spin (a.u.)
  --------------------------------------------------------
      1 C                    -0.194598      -0.081337
      2 C                    -0.120831       0.400417
      3 C                    -0.080744      -0.262094
      4 C                    -0.031664       0.538402
      5 C                    -0.086269      -0.168129
      6 N                    -0.080079       0.244622
      7 H                     0.171340       0.067707
      8 H                     0.149008      -0.016575
      9 H                     0.140520       0.008601
     10 H                     0.136502      -0.023534
     11 H                     0.131860       0.005036
     12 C                    -0.250525       0.298863
     13 H                     0.115480      -0.011978
  --------------------------------------------------------
  Sum of atomic charges =     0.000000
  Sum of spin   charges =     1.000000

 -----------------------------------------------------------------
                    Cartesian Multipole Moments
 -----------------------------------------------------------------
    Charge (ESU x 10^10)
                 0.0000
    Dipole Moment (Debye)
         X      -0.7810      Y      -2.8657      Z       1.0114
       Tot       3.1376
    Quadrupole Moments (Debye-Ang)
        XX     -35.2414     XY      -3.9408     YY     -43.4349
        XZ      -0.9290     YZ       0.5271     ZZ     -48.2582
    Octopole Moments (Debye-Ang^2)
       XXX      -4.3427    XXY      -9.5127    XYY     -10.4449
       YYY     -37.1321    XXZ       0.3452    XYZ      -1.1365
       YYZ       2.1735    XZZ      -2.0741    YZZ     -12.5539
       ZZZ       9.9582
    Hexadecapole Moments (Debye-Ang^3)
      XXXX    -335.2642   XXXY      -1.9751   XXYY    -108.4221
      XYYY     -16.6240   YYYY    -317.6873   XXXZ      47.1944
      XXYZ      -2.6832   XYYZ      11.9588   YYYZ     -18.7885
      XXZZ     -93.7441   XYZZ      -6.3667   YYZZ     -88.9880
      XZZZ      56.2447   YZZZ      -7.2503   ZZZZ    -203.0145
 -----------------------------------------------------------------
 Calculating analytic gradient of the SCF energy
 Gradient of SCF Energy
            1           2           3           4           5           6
    1  -0.0054046  -0.0083685   0.0114776  -0.0034723  -0.0038203   0.0008619
    2  -0.0125729  -0.0064672  -0.0051205   0.0074751  -0.0005574   0.0029215
    3  -0.0138929   0.0083387  -0.0008931   0.0006802   0.0001479   0.0031835
            7           8           9          10          11          12
    1   0.0036526  -0.0001535  -0.0001052   0.0000110  -0.0000732   0.0045971
    2  -0.0005057   0.0004266  -0.0000184   0.0000672  -0.0000918   0.0168494
    3  -0.0034546   0.0041100   0.0011301  -0.0009059  -0.0002652  -0.0005676
           13
    1   0.0007973
    2  -0.0024061
    3   0.0023888
 Max gradient component =       1.685E-02
 RMS gradient           =       5.513E-03
 Gradient time:  CPU 16.69 s  wall 4.34 s
 Geometry Optimization Parameters
   NAtoms,    NIC,     NZ,  NCons,   NDum,   NFix, NCnnct, MaxDiis
       13      85       0       0       0       0       0       0

 Cartesian Hessian Update
 Hessian Updated using BFGS Update


** GEOMETRY OPTIMIZATION IN DELOCALIZED INTERNAL COORDINATES **
   Searching for a Minimum

   Optimization Cycle:   2

                       Coordinates (Angstroms)
     ATOM                X               Y               Z
      1  C         1.1755555766    0.3367796713   -0.0152619143
      2  C         0.5221284666   -0.9944298311    0.1922763974
      3  C        -0.8609080455   -1.0255393373    0.1664119889
      4  C        -1.5737809166    0.1872120440    0.1974475718
      5  C        -0.8445894432    1.3923449173    0.4924861508
      6  N         0.4511696939    1.4927179969    0.4947668810
      7  H         2.2181695656    0.3520283889    0.3549732841
      8  H         1.1290387769   -1.8800888473    0.3441573260
      9  H        -1.3946093814   -1.9708887670    0.2274995002
     10  H        -2.6566964311    0.2057189153    0.1372736695
     11  H        -1.4064883442    2.2758383859    0.7981906510
     12  C         1.2817371720    0.2587156137   -1.5143897118
     13  H         1.9425297914   -0.5971465506   -1.7673030420
   Point Group: c1    Number of degrees of freedom:    33


   Energy is   -286.815693747

 Hessian Updated using BFGS Update

 33 Hessian modes will be used to form the next step
  Hessian Eigenvalues:
     0.008738    0.010810    0.016462    0.019180    0.019380    0.021434
     0.022366    0.024478    0.035386    0.064128    0.094445    0.116125
     0.157349    0.159110    0.159808    0.159876    0.173639    0.214688
     0.219402    0.226572    0.303959    0.323305    0.326556    0.336017
     0.347414    0.351300    0.354308    0.354484    0.368763    0.386974
     0.415669    0.473939    0.650946

 Minimum Search - Taking Simple RFO Step
 Searching for Lamda that Minimizes Along All modes
 Value Taken    Lamda =  -0.01958062
 Calculated Step too Large.  Step scaled by  0.429071
 Step Taken.  Stepsize is  0.300000

                             Maximum     Tolerance    Cnvgd?
         Gradient           0.019069      0.000300      NO
         Displacement       0.149556      0.001200      NO
         Energy change     -0.006133      0.000001      NO


 New Cartesian Coordinates Obtained by Inverse Iteration

 Displacement from previous Coordinates is:  0.534655
 ----------------------------------------------------------------
             Standard Nuclear Orientation (Angstroms)
    I     Atom           X                Y                Z
 ----------------------------------------------------------------
    1      C       1.1927638144     0.3757470790     0.0256780272
    2      C       0.5489728583    -0.9508218231     0.1720470033
    3      C      -0.8441398954    -1.0028456617     0.1308693820
    4      C      -1.5632653728     0.1881521771     0.2025609554
    5      C      -0.8444326527     1.4014458506     0.5033159194
    6      N       0.4468351167     1.5254886381     0.4964819616
    7      H       2.2247985208     0.4099228909     0.4087546473
    8      H       1.1660242922    -1.8375350386     0.2617591145
    9      H      -1.3659490985    -1.9565304288     0.1405001800
   10      H      -2.6467010581     0.1939048732     0.1503906711
   11      H      -1.4164408314     2.2747980204     0.8201016904
   12      C       1.2169552051     0.1325005704    -1.4675160960
   13      H       1.8678355823    -0.7209645475    -1.7364147037
 ----------------------------------------------------------------
 Nuclear Repulsion Energy =   266.8365823703 hartrees
 There are       25 alpha and       24 beta electrons
 Applying Cartesian multipole field
    Component          Value
    ---------          -----
     (2,0,0)        1.00000E-11
     (0,2,0)        2.00000E-11
     (0,0,2)       -3.00000E-11
 Nucleus-field energy     =     0.0000000039 hartrees
 Requested basis set is 6-31+G(d,p)
 There are 53 shells and 163 basis functions
 A cutoff of  1.0D-14 yielded   1380 shell pairs
 There are     13446 function pairs
 Smallest overlap matrix eigenvalue = 1.64E-05
 Guess MOs from SCF MO coefficient file
 Reading MOs from coefficient file
 Reading MOs from coefficient file
 An unrestricted hybrid HF-DFT SCF calculation will be
 performed using Pulay DIIS extrapolation
 Exchange:     0.2000 Hartree-Fock + 0.0800 Slater + 0.7200 B88
 Correlation:  0.1900 VWN1RPA + 0.8100 LYP
 Using SG-1 standard quadrature grid
 SCF converges when DIIS error is below 1.0E-08
 Geometry optimization detected.  Setting ReadMinima to 0
 Setting SaveMinima to 0
Using Q-Chem read-in guess as SCF_GUESS READ specified.

 using 4 threads for integral computing
 -------------------------------------------------------
 OpenMP Integral computing Module                
 Release: version 1.0, May 2013, Q-Chem Inc. Pittsburgh 
 -------------------------------------------------------
 -------------------------------------------------------
 OpenMP BLAS3 based DFT computing Module                
 Release: version 1.0, May 2013, Q-Chem Inc. Pittsburgh 
 -------------------------------------------------------
 ---------------------------------------
  Cycle       Energy         DIIS Error
 ---------------------------------------
    1    -286.8501081289      2.13E-03
    2    -286.8212761514      4.86E-04
    3    -286.8202296303      8.01E-04
    4    -286.8231627986      1.74E-04
    5    -286.8234188985      5.31E-05
    6    -286.8235260222      3.75E-05
    7    -286.8236390189      2.01E-05
    8    -286.8236882292      9.81E-06
    9    -286.8237235797      5.85E-06
   10    -286.8237444125      5.88E-06
   11    -286.8237550787      4.25E-06
   12    -286.8237606105      2.69E-06
   13    -286.8237616405      7.36E-07
   14    -286.8237616221      2.12E-07
   15    -286.8237616540      1.24E-07
   16    -286.8237616640      6.17E-08
   17    -286.8237616666      1.42E-08
   18    -286.8237616669      5.03E-09 Convergence criterion met
 ---------------------------------------
 <S^2> = 0.8363
 SCF time:  CPU 88.77 s  wall 25.15 s
 SCF   energy in the final basis set = -286.82376167
 Total energy in the final basis set = -286.82376167
 
 --------------------------------------------------------------
 
                    Orbital Energies (a.u.)
 --------------------------------------------------------------
 
 Alpha MOs
 -- Occupied --
-14.342 -10.252 -10.240 -10.239 -10.237 -10.230 -10.222  -0.951
 -0.835  -0.803  -0.687  -0.641  -0.599  -0.543  -0.498  -0.484
 -0.465  -0.430  -0.411  -0.387  -0.356  -0.314  -0.273  -0.254
 -0.217
 -- Virtual --
 -0.090  -0.020  -0.003   0.013   0.024   0.036   0.043   0.047
  0.058   0.068   0.078   0.089   0.092   0.094   0.110   0.115
  0.122   0.126   0.139   0.149   0.152   0.166   0.179   0.183
  0.189   0.198   0.203   0.207   0.212   0.224   0.249   0.260
  0.268   0.271   0.282   0.287   0.299   0.302   0.321   0.336
  0.371   0.383   0.488   0.518   0.593   0.619   0.651   0.665
  0.697   0.706   0.716   0.723   0.729   0.751   0.759   0.774
  0.784   0.856   0.870   0.888   0.908   0.934   0.961   0.982
  1.005   1.042   1.049   1.060   1.066   1.098   1.138   1.154
  1.193   1.208   1.265   1.285   1.327   1.372   1.394   1.449
  1.478   1.504   1.556   1.591   1.661   1.683   1.766   1.796
  1.848   1.871   1.918   1.967   1.969   1.995   2.011   2.044
  2.102   2.139   2.161   2.210   2.226   2.280   2.339   2.349
  2.375   2.400   2.416   2.439   2.449   2.500   2.502   2.519
  2.533   2.583   2.587   2.611   2.648   2.685   2.739   2.761
  2.853   2.930   2.989   3.115   3.250   3.259   3.301   3.328
  3.402   3.469   3.777   4.182   4.280   4.357   4.408   4.469
  4.563   4.742
 
 Beta MOs
 -- Occupied --
-14.339 -10.253 -10.240 -10.234 -10.232 -10.232 -10.218  -0.946
 -0.829  -0.796  -0.677  -0.637  -0.587  -0.539  -0.495  -0.481
 -0.458  -0.427  -0.407  -0.383  -0.345  -0.305  -0.267  -0.225
 -- Virtual --
 -0.120  -0.074  -0.015  -0.000   0.013   0.024   0.037   0.043
  0.049   0.066   0.070   0.080   0.091   0.092   0.096   0.111
  0.116   0.126   0.126   0.139   0.150   0.154   0.167   0.181
  0.184   0.190   0.200   0.204   0.209   0.215   0.226   0.253
  0.262   0.271   0.274   0.285   0.291   0.301   0.306   0.322
  0.338   0.374   0.387   0.492   0.521   0.597   0.622   0.663
  0.674   0.701   0.709   0.717   0.729   0.743   0.756   0.762
  0.781   0.789   0.860   0.872   0.889   0.908   0.936   0.967
  0.985   1.010   1.048   1.055   1.063   1.072   1.104   1.142
  1.155   1.196   1.214   1.270   1.289   1.332   1.380   1.399
  1.452   1.483   1.511   1.568   1.605   1.667   1.690   1.776
  1.803   1.851   1.882   1.924   1.971   1.976   2.002   2.017
  2.056   2.111   2.147   2.168   2.212   2.233   2.285   2.342
  2.352   2.379   2.404   2.423   2.443   2.458   2.505   2.508
  2.525   2.535   2.587   2.597   2.617   2.653   2.689   2.743
  2.768   2.855   2.934   2.991   3.118   3.250   3.260   3.302
  3.336   3.408   3.471   3.778   4.188   4.289   4.364   4.415
  4.472   4.566   4.745
 --------------------------------------------------------------
 
          Ground-State Mulliken Net Atomic Charges

     Atom                 Charge (a.u.)    Spin (a.u.)
  --------------------------------------------------------
      1 C                    -0.244016      -0.124734
      2 C                    -0.089224       0.280979
      3 C                    -0.054422      -0.206955
      4 C                    -0.050295       0.382644
      5 C                    -0.074489      -0.108337
      6 N                    -0.088611       0.163427
      7 H                     0.172361       0.067163
      8 H                     0.151770      -0.008910
      9 H                     0.141175       0.005485
     10 H                     0.136100      -0.016496
     11 H                     0.131542       0.003869
     12 C                    -0.259628       0.574213
     13 H                     0.127737      -0.012347
  --------------------------------------------------------
  Sum of atomic charges =    -0.000000
  Sum of spin   charges =     1.000000

 -----------------------------------------------------------------
                    Cartesian Multipole Moments
 -----------------------------------------------------------------
    Charge (ESU x 10^10)
                -0.0000
    Dipole Moment (Debye)
         X      -0.8026      Y      -2.8918      Z       0.9376
       Tot       3.1442
    Quadrupole Moments (Debye-Ang)
        XX     -35.4157     XY      -3.9973     YY     -43.2041
        XZ      -0.9195     YZ       0.6386     ZZ     -47.9399
    Octopole Moments (Debye-Ang^2)
       XXX      -4.5040    XXY      -9.8310    XYY     -10.2503
       YYY     -37.7213    XXZ       0.6253    XYZ      -0.9874
       YYZ       0.6302    XZZ      -1.6168    YZZ     -11.9858
       ZZZ       7.7598
    Hexadecapole Moments (Debye-Ang^3)
      XXXX    -330.1763   XXXY       0.0377   XXYY    -106.3788
      XYYY     -13.7411   YYYY    -317.3179   XXXZ      44.6823
      XXYZ      -3.3202   XYYZ       9.6246   YYYZ     -25.2891
      XXZZ     -91.5823   XYZZ      -5.2353   YYZZ     -86.5155
      XZZZ      49.8784   YZZZ     -15.8416   ZZZZ    -192.6083
 -----------------------------------------------------------------
 Calculating analytic gradient of the SCF energy
 Gradient of SCF Energy
            1           2           3           4           5           6
    1   0.0015869  -0.0145259   0.0128975  -0.0032210  -0.0025575  -0.0017753
    2  -0.0164166  -0.0005060  -0.0059260   0.0063816  -0.0016591   0.0046311
    3  -0.0119666   0.0135546  -0.0014300   0.0023427   0.0015647  -0.0007203
            7           8           9          10          11          12
    1   0.0015186   0.0010899  -0.0007520   0.0000575   0.0000517   0.0038834
    2  -0.0005565   0.0002637   0.0001526  -0.0003539  -0.0000434   0.0161512
    3   0.0012116  -0.0002292   0.0013543  -0.0011966   0.0001976  -0.0071340
           13
    1   0.0017463
    2  -0.0021188
    3   0.0024514
 Max gradient component =       1.642E-02
 RMS gradient           =       6.112E-03
 Gradient time:  CPU 16.53 s  wall 4.24 s
 Geometry Optimization Parameters
   NAtoms,    NIC,     NZ,  NCons,   NDum,   NFix, NCnnct, MaxDiis
       13      85       0       0       0       0       0       0

 Cartesian Hessian Update
 Hessian Updated using BFGS Update


** GEOMETRY OPTIMIZATION IN DELOCALIZED INTERNAL COORDINATES **
   Searching for a Minimum

   Optimization Cycle:   3

                       Coordinates (Angstroms)
     ATOM                X               Y               Z
      1  C         1.1927638144    0.3757470790    0.0256780272
      2  C         0.5489728583   -0.9508218231    0.1720470033
      3  C        -0.8441398954   -1.0028456617    0.1308693820
      4  C        -1.5632653728    0.1881521771    0.2025609554
      5  C        -0.8444326527    1.4014458506    0.5033159194
      6  N         0.4468351167    1.5254886381    0.4964819616
      7  H         2.2247985208    0.4099228909    0.4087546473
      8  H         1.1660242922   -1.8375350386    0.2617591145
      9  H        -1.3659490985   -1.9565304288    0.1405001800
     10  H        -2.6467010581    0.1939048732    0.1503906711
     11  H        -1.4164408314    2.2747980204    0.8201016904
     12  C         1.2169552051    0.1325005704   -1.4675160960
     13  H         1.8678355823   -0.7209645475   -1.7364147037
   Point Group: c1    Number of degrees of freedom:    33


   Energy is   -286.823761667

 Hessian Updated using BFGS Update

 33 Hessian modes will be used to form the next step
  Hessian Eigenvalues:
     0.003040    0.009638    0.016899    0.019048    0.019365    0.021424
     0.021856    0.023347    0.036158    0.075279    0.095573    0.109563
     0.157448    0.159130    0.159874    0.163510    0.176431    0.218030
     0.220486    0.237944    0.311008    0.323233    0.326798    0.347396
     0.350614    0.351485    0.354311    0.354693    0.382376    0.404568
     0.420452    0.480582    0.651204

 Minimum Search - Taking Simple RFO Step
 Searching for Lamda that Minimizes Along All modes
 Value Taken    Lamda =  -0.02761836
 Calculated Step too Large.  Step scaled by  0.324335
 Step Taken.  Stepsize is  0.300000

                             Maximum     Tolerance    Cnvgd?
         Gradient           0.019839      0.000300      NO
         Displacement       0.152646      0.001200      NO
         Energy change     -0.008068      0.000001      NO


 New Cartesian Coordinates Obtained by Inverse Iteration

 Displacement from previous Coordinates is:  0.638265
 ----------------------------------------------------------------
             Standard Nuclear Orientation (Angstroms)
    I     Atom           X                Y                Z
 ----------------------------------------------------------------
    1      C       1.2065694068     0.4204015206     0.0656801012
    2      C       0.5861772111    -0.9031015277     0.1417242591
    3      C      -0.8201348511    -0.9768042818     0.0810226855
    4      C      -1.5438931701     0.1892479626     0.1927214617
    5      C      -0.8392492884     1.4088177680     0.5204466336
    6      N       0.4468852408     1.5575051650     0.5141940775
    7      H       2.2325485728     0.4809466523     0.4445486912
    8      H       1.2149359224    -1.7838695497     0.1933258084
    9      H      -1.3281329629    -1.9368498076     0.0411166915
   10      H      -2.6273798496     0.1825301188     0.1418773855
   11      H      -1.4248957095     2.2668960333     0.8544042849
   12      C       1.1331548454    -0.0036459217    -1.3926915374
   13      H       1.7466711134    -0.8688115320    -1.6898417903
 ----------------------------------------------------------------
 Nuclear Repulsion Energy =   269.3707012794 hartrees
 There are       25 alpha and       24 beta electrons
 Applying Cartesian multipole field
    Component          Value
    ---------          -----
     (2,0,0)        1.00000E-11
     (0,2,0)        2.00000E-11
     (0,0,2)       -3.00000E-11
 Nucleus-field energy     =     0.0000000040 hartrees
 Requested basis set is 6-31+G(d,p)
 There are 53 shells and 163 basis functions
 A cutoff of  1.0D-14 yielded   1382 shell pairs
 There are     13456 function pairs
 Smallest overlap matrix eigenvalue = 1.56E-05
 Guess MOs from SCF MO coefficient file
 Reading MOs from coefficient file
 Reading MOs from coefficient file
 An unrestricted hybrid HF-DFT SCF calculation will be
 performed using Pulay DIIS extrapolation
 Exchange:     0.2000 Hartree-Fock + 0.0800 Slater + 0.7200 B88
 Correlation:  0.1900 VWN1RPA + 0.8100 LYP
 Using SG-1 standard quadrature grid
 SCF converges when DIIS error is below 1.0E-08
 Geometry optimization detected.  Setting ReadMinima to 0
 Setting SaveMinima to 0
Using Q-Chem read-in guess as SCF_GUESS READ specified.

 using 4 threads for integral computing
 -------------------------------------------------------
 OpenMP Integral computing Module                
 Release: version 1.0, May 2013, Q-Chem Inc. Pittsburgh 
 -------------------------------------------------------
 -------------------------------------------------------
 OpenMP BLAS3 based DFT computing Module                
 Release: version 1.0, May 2013, Q-Chem Inc. Pittsburgh 
 -------------------------------------------------------
 ---------------------------------------
  Cycle       Energy         DIIS Error
 ---------------------------------------
    1    -286.8738474053      3.07E-03
    2    -286.8273236480      7.50E-04
    3    -286.8240377046      1.27E-03
    4    -286.8308750174      2.35E-04
    5    -286.8312830017      1.05E-04
    6    -286.8314395170      5.47E-05
    7    -286.8316485537      3.64E-05
    8    -286.8317560051      2.69E-05
    9    -286.8318301255      1.24E-05
   10    -286.8318515211      5.99E-06
   11    -286.8318573554      1.81E-06
   12    -286.8318592279      1.11E-06
   13    -286.8318601369      4.74E-07
   14    -286.8318605702      3.08E-07
   15    -286.8318607199      1.22E-07
   16    -286.8318607251      5.87E-08
   17    -286.8318607255      1.42E-08
   18    -286.8318607255      4.10E-09 Convergence criterion met
 ---------------------------------------
 <S^2> = 0.7585
 SCF time:  CPU 88.90 s  wall 25.33 s
 SCF   energy in the final basis set = -286.83186073
 Total energy in the final basis set = -286.83186073
 
 --------------------------------------------------------------
 
                    Orbital Energies (a.u.)
 --------------------------------------------------------------
 
 Alpha MOs
 -- Occupied --
-14.339 -10.255 -10.242 -10.238 -10.230 -10.229 -10.213  -0.954
 -0.846  -0.803  -0.678  -0.646  -0.594  -0.545  -0.499  -0.487
 -0.468  -0.426  -0.408  -0.383  -0.351  -0.315  -0.280  -0.258
 -0.221
 -- Virtual --
 -0.072  -0.011   0.003   0.014   0.023   0.036   0.042   0.049
  0.066   0.071   0.077   0.090   0.092   0.096   0.114   0.117
  0.122   0.128   0.142   0.150   0.155   0.168   0.177   0.184
  0.190   0.199   0.202   0.208   0.214   0.229   0.247   0.261
  0.269   0.278   0.281   0.289   0.304   0.312   0.320   0.340
  0.371   0.373   0.492   0.526   0.608   0.614   0.650   0.671
  0.700   0.708   0.715   0.726   0.736   0.745   0.755   0.775
  0.778   0.866   0.877   0.892   0.905   0.937   0.964   0.994
  1.011   1.040   1.045   1.057   1.071   1.115   1.136   1.156
  1.197   1.212   1.280   1.294   1.326   1.385   1.395   1.449
  1.489   1.528   1.563   1.577   1.678   1.704   1.770   1.805
  1.839   1.870   1.916   1.969   1.979   2.005   2.028   2.047
  2.108   2.148   2.164   2.229   2.280   2.318   2.343   2.363
  2.385   2.405   2.432   2.447   2.450   2.497   2.518   2.535
  2.541   2.583   2.604   2.613   2.671   2.692   2.729   2.788
  2.857   2.953   2.998   3.136   3.256   3.273   3.308   3.337
  3.415   3.477   3.791   4.195   4.271   4.387   4.420   4.484
  4.568   4.747
 
 Beta MOs
 -- Occupied --
-14.338 -10.255 -10.239 -10.230 -10.229 -10.229 -10.211  -0.951
 -0.840  -0.798  -0.670  -0.643  -0.579  -0.542  -0.496  -0.483
 -0.462  -0.424  -0.404  -0.380  -0.342  -0.310  -0.268  -0.221
 -- Virtual --
 -0.116  -0.062  -0.009   0.008   0.015   0.023   0.038   0.042
  0.050   0.071   0.072   0.080   0.091   0.093   0.099   0.115
  0.119   0.125   0.129   0.142   0.151   0.156   0.169   0.181
  0.185   0.191   0.201   0.203   0.210   0.217   0.230   0.253
  0.262   0.270   0.281   0.283   0.295   0.306   0.317   0.322
  0.342   0.375   0.377   0.495   0.528   0.614   0.616   0.660
  0.684   0.702   0.711   0.719   0.731   0.743   0.748   0.765
  0.783   0.784   0.870   0.880   0.896   0.905   0.939   0.972
  0.996   1.015   1.045   1.053   1.060   1.073   1.117   1.142
  1.158   1.200   1.218   1.284   1.301   1.330   1.390   1.398
  1.452   1.496   1.537   1.569   1.604   1.685   1.711   1.779
  1.817   1.841   1.883   1.920   1.979   1.983   2.011   2.034
  2.057   2.115   2.154   2.170   2.234   2.286   2.323   2.345
  2.365   2.387   2.410   2.437   2.452   2.457   2.500   2.526
  2.537   2.548   2.589   2.615   2.617   2.676   2.694   2.734
  2.796   2.860   2.956   2.999   3.138   3.257   3.275   3.309
  3.349   3.421   3.479   3.792   4.200   4.281   4.397   4.426
  4.486   4.571   4.748
 --------------------------------------------------------------
 
          Ground-State Mulliken Net Atomic Charges

     Atom                 Charge (a.u.)    Spin (a.u.)
  --------------------------------------------------------
      1 C                    -0.429648      -0.092765
      2 C                     0.085915       0.091057
      3 C                    -0.080442      -0.114271
      4 C                    -0.032106       0.190517
      5 C                    -0.098918      -0.050062
      6 N                    -0.105198       0.070385
      7 H                     0.166596       0.050749
      8 H                     0.150920      -0.000018
      9 H                     0.140748       0.001833
     10 H                     0.132728      -0.007488
     11 H                     0.130256       0.002490
     12 C                    -0.209803       0.858103
     13 H                     0.148951      -0.000530
  --------------------------------------------------------
  Sum of atomic charges =    -0.000000
  Sum of spin   charges =     1.000000

 -----------------------------------------------------------------
                    Cartesian Multipole Moments
 -----------------------------------------------------------------
    Charge (ESU x 10^10)
                -0.0000
    Dipole Moment (Debye)
         X      -0.7122      Y      -2.9549      Z       0.5299
       Tot       3.0853
    Quadrupole Moments (Debye-Ang)
        XX     -36.0692     XY      -4.2002     YY     -43.0164
        XZ      -0.7944     YZ       0.8923     ZZ     -47.0218
    Octopole Moments (Debye-Ang^2)
       XXX      -4.1139    XXY     -10.4578    XYY      -9.6903
       YYY     -38.5926    XXZ       1.0607    XYZ      -0.6167
       YYZ      -1.5215    XZZ      -1.5011    YZZ     -11.8121
       ZZZ       3.9636
    Hexadecapole Moments (Debye-Ang^3)
      XXXX    -324.6047   XXXY       1.2406   XXYY    -103.8171
      XYYY     -11.6623   YYYY    -318.8955   XXXZ      41.3324
      XXYZ      -3.8125   XYYZ       6.1084   YYYZ     -32.0851
      XXZZ     -89.8648   XYZZ      -4.8341   YYZZ     -83.2285
      XZZZ      42.8359   YZZZ     -24.9608   ZZZZ    -176.4046
 -----------------------------------------------------------------
 Calculating analytic gradient of the SCF energy
 Gradient of SCF Energy
            1           2           3           4           5           6
    1  -0.0004230  -0.0147678   0.0138879   0.0001162   0.0002423  -0.0004444
    2  -0.0227671   0.0135244  -0.0053979   0.0031419  -0.0025912   0.0038712
    3  -0.0033301   0.0224277  -0.0061602   0.0029672   0.0032223  -0.0042020
            7           8           9          10          11          12
    1  -0.0012607   0.0033959  -0.0013786   0.0001210   0.0000913  -0.0023026
    2  -0.0002508   0.0014458   0.0003249  -0.0008143  -0.0000850   0.0172263
    3   0.0054825  -0.0081396   0.0019599  -0.0013825   0.0005893  -0.0218623
           13
    1   0.0027225
    2  -0.0076281
    3   0.0084278
 Max gradient component =       2.277E-02
 RMS gradient           =       8.472E-03
 Gradient time:  CPU 17.20 s  wall 4.91 s
 Geometry Optimization Parameters
   NAtoms,    NIC,     NZ,  NCons,   NDum,   NFix, NCnnct, MaxDiis
       13      85       0       0       0       0       0       0

 Cartesian Hessian Update
 Hessian Updated using BFGS Update


** GEOMETRY OPTIMIZATION IN DELOCALIZED INTERNAL COORDINATES **
   Searching for a Minimum

   Optimization Cycle:   4

                       Coordinates (Angstroms)
     ATOM                X               Y               Z
      1  C         1.2065694068    0.4204015206    0.0656801012
      2  C         0.5861772111   -0.9031015277    0.1417242591
      3  C        -0.8201348511   -0.9768042818    0.0810226855
      4  C        -1.5438931701    0.1892479626    0.1927214617
      5  C        -0.8392492884    1.4088177680    0.5204466336
      6  N         0.4468852408    1.5575051650    0.5141940775
      7  H         2.2325485728    0.4809466523    0.4445486912
      8  H         1.2149359224   -1.7838695497    0.1933258084
      9  H        -1.3281329629   -1.9368498076    0.0411166915
     10  H        -2.6273798496    0.1825301188    0.1418773855
     11  H        -1.4248957095    2.2668960333    0.8544042849
     12  C         1.1331548454   -0.0036459217   -1.3926915374
     13  H         1.7466711134   -0.8688115320   -1.6898417903
   Point Group: c1    Number of degrees of freedom:    33


   Energy is   -286.831860725

 Hessian Updated using BFGS Update

 33 Hessian modes will be used to form the next step
  Hessian Eigenvalues:
     0.006401    0.014621    0.017905    0.019164    0.020891    0.021611
     0.022836    0.026358    0.037649    0.078214    0.094581    0.097188
     0.157455    0.159156    0.160013    0.163721    0.184091    0.219518
     0.232646    0.260878    0.321286    0.326642    0.341307    0.347425
     0.351300    0.354308    0.354517    0.371824    0.390048    0.404335
     0.442631    0.564069    0.662456

 Minimum Search - Taking Simple RFO Step
 Searching for Lamda that Minimizes Along All modes
 Value Taken    Lamda =  -0.02045348
 Calculated Step too Large.  Step scaled by  0.375083
 Step Taken.  Stepsize is  0.300000

                             Maximum     Tolerance    Cnvgd?
         Gradient           0.011614      0.000300      NO
         Displacement       0.110264      0.001200      NO
         Energy change     -0.008099      0.000001      NO


 New Cartesian Coordinates Obtained by Inverse Iteration

 Displacement from previous Coordinates is:  0.478126
 ----------------------------------------------------------------
             Standard Nuclear Orientation (Angstroms)
    I     Atom           X                Y                Z
 ----------------------------------------------------------------
    1      C       1.2206930125     0.4533377406     0.0964588427
    2      C       0.6169899848    -0.8723264137     0.1070144554
    3      C      -0.8063441417    -0.9571098950     0.0448344930
    4      C      -1.5301171182     0.1885165477     0.1826244823
    5      C      -0.8338741938     1.4120796224     0.5304549528
    6      N       0.4480874820     1.5770389073     0.5299059019
    7      H       2.2404900841     0.5470198774     0.4690183897
    8      H       1.2460803471    -1.7523908771     0.1542581560
    9      H      -1.3042313317    -1.9201672875    -0.0275964903
   10      H      -2.6137103909     0.1753616845     0.1355009013
   11      H      -1.4287480025     2.2604063441     0.8736191055
   12      C       1.0705642268    -0.1178773056    -1.3060726145
   13      H       1.6573765224    -0.9606263452    -1.6814918234
 ----------------------------------------------------------------
 Nuclear Repulsion Energy =   271.7251308529 hartrees
 There are       25 alpha and       24 beta electrons
 Applying Cartesian multipole field
    Component          Value
    ---------          -----
     (2,0,0)        1.00000E-11
     (0,2,0)        2.00000E-11
     (0,0,2)       -3.00000E-11
 Nucleus-field energy     =     0.0000000041 hartrees
 Requested basis set is 6-31+G(d,p)
 There are 53 shells and 163 basis functions
 A cutoff of  1.0D-14 yielded   1383 shell pairs
 There are     13459 function pairs
 Smallest overlap matrix eigenvalue = 1.66E-05
 Guess MOs from SCF MO coefficient file
 Reading MOs from coefficient file
 Reading MOs from coefficient file
 An unrestricted hybrid HF-DFT SCF calculation will be
 performed using Pulay DIIS extrapolation
 Exchange:     0.2000 Hartree-Fock + 0.0800 Slater + 0.7200 B88
 Correlation:  0.1900 VWN1RPA + 0.8100 LYP
 Using SG-1 standard quadrature grid
 SCF converges when DIIS error is below 1.0E-08
 Geometry optimization detected.  Setting ReadMinima to 0
 Setting SaveMinima to 0
Using Q-Chem read-in guess as SCF_GUESS READ specified.

 using 4 threads for integral computing
 -------------------------------------------------------
 OpenMP Integral computing Module                
 Release: version 1.0, May 2013, Q-Chem Inc. Pittsburgh 
 -------------------------------------------------------
 -------------------------------------------------------
 OpenMP BLAS3 based DFT computing Module                
 Release: version 1.0, May 2013, Q-Chem Inc. Pittsburgh 
 -------------------------------------------------------
 ---------------------------------------
  Cycle       Energy         DIIS Error
 ---------------------------------------
    1    -286.8802374349      3.67E-03
    2    -286.8335462425      8.13E-04
    3    -286.8310790955      1.25E-03
    4    -286.8373899084      2.24E-04
    5    -286.8376227659      1.07E-04
    6    -286.8377035318      5.45E-05
    7    -286.8377923303      1.94E-05
    8    -286.8378148469      1.53E-05
    9    -286.8378238768      4.56E-06
   10    -286.8378255125      2.77E-06
   11    -286.8378260018      6.39E-07
   12    -286.8378263566      3.87E-07
   13    -286.8378265617      2.66E-07
   14    -286.8378266606      1.55E-07
   15    -286.8378266918      3.88E-08
   16    -286.8378266923      1.91E-08
   17    -286.8378266924      4.54E-09 Convergence criterion met
 ---------------------------------------
 <S^2> = 0.7545
 SCF time:  CPU 84.86 s  wall 26.17 s
 SCF   energy in the final basis set = -286.83782669
 Total energy in the final basis set = -286.83782669
 
 --------------------------------------------------------------
 
                    Orbital Energies (a.u.)
 --------------------------------------------------------------
 
 Alpha MOs
 -- Occupied --
-14.338 -10.254 -10.237 -10.236 -10.230 -10.221 -10.206  -0.959
 -0.860  -0.802  -0.672  -0.649  -0.587  -0.548  -0.504  -0.489
 -0.468  -0.423  -0.404  -0.380  -0.346  -0.319  -0.283  -0.253
 -0.225
 -- Virtual --
 -0.062  -0.007   0.013   0.019   0.023   0.037   0.041   0.050
  0.068   0.076   0.077   0.090   0.094   0.103   0.116   0.119
  0.124   0.133   0.145   0.151   0.156   0.173   0.180   0.187
  0.191   0.200   0.202   0.210   0.215   0.235   0.250   0.261
  0.268   0.275   0.290   0.296   0.313   0.319   0.325   0.345
  0.357   0.371   0.492   0.531   0.610   0.626   0.651   0.677
  0.699   0.711   0.712   0.726   0.736   0.740   0.756   0.771
  0.782   0.876   0.883   0.902   0.905   0.940   0.970   0.997
  1.013   1.033   1.043   1.054   1.074   1.110   1.150   1.161
  1.195   1.225   1.293   1.312   1.318   1.383   1.402   1.450
  1.493   1.538   1.567   1.612   1.719   1.758   1.776   1.829
  1.842   1.871   1.918   1.969   1.989   2.019   2.037   2.068
  2.107   2.152   2.173   2.222   2.277   2.334   2.360   2.381
  2.390   2.409   2.433   2.464   2.485   2.513   2.538   2.539
  2.560   2.602   2.616   2.626   2.686   2.709   2.734   2.803
  2.889   2.965   3.003   3.160   3.263   3.281   3.314   3.352
  3.437   3.492   3.802   4.210   4.286   4.399   4.437   4.507
  4.573   4.755
 
 Beta MOs
 -- Occupied --
-14.337 -10.253 -10.237 -10.229 -10.222 -10.221 -10.205  -0.955
 -0.853  -0.798  -0.666  -0.646  -0.570  -0.544  -0.500  -0.484
 -0.463  -0.421  -0.400  -0.378  -0.338  -0.315  -0.268  -0.224
 -- Virtual --
 -0.106  -0.058  -0.006   0.014   0.021   0.026   0.040   0.042
  0.051   0.072   0.077   0.080   0.091   0.094   0.105   0.118
  0.122   0.126   0.134   0.145   0.152   0.157   0.174   0.183
  0.189   0.192   0.202   0.203   0.212   0.218   0.236   0.256
  0.263   0.270   0.280   0.291   0.303   0.315   0.321   0.330
  0.347   0.361   0.376   0.495   0.533   0.613   0.631   0.661
  0.691   0.703   0.712   0.720   0.731   0.737   0.745   0.771
  0.778   0.785   0.878   0.885   0.905   0.911   0.942   0.978
  1.000   1.016   1.043   1.046   1.055   1.076   1.111   1.154
  1.163   1.198   1.230   1.298   1.317   1.324   1.387   1.406
  1.453   1.499   1.554   1.573   1.627   1.730   1.761   1.789
  1.832   1.853   1.884   1.921   1.979   1.992   2.025   2.048
  2.076   2.110   2.159   2.178   2.229   2.280   2.336   2.363
  2.385   2.395   2.413   2.439   2.470   2.488   2.520   2.541
  2.546   2.564   2.607   2.627   2.633   2.690   2.713   2.741
  2.809   2.894   2.969   3.004   3.161   3.263   3.283   3.315
  3.363   3.444   3.494   3.802   4.213   4.296   4.412   4.442
  4.510   4.579   4.756
 --------------------------------------------------------------
 
          Ground-State Mulliken Net Atomic Charges

     Atom                 Charge (a.u.)    Spin (a.u.)
  --------------------------------------------------------
      1 C                    -0.505278      -0.061746
      2 C                     0.239917       0.039077
      3 C                    -0.126138      -0.074805
      4 C                     0.002039       0.120678
      5 C                    -0.125391      -0.044776
      6 N                    -0.127273       0.040446
      7 H                     0.157196       0.030364
      8 H                     0.148619       0.001855
      9 H                     0.140707       0.001186
     10 H                     0.130117      -0.003516
     11 H                     0.128705       0.002063
     12 C                    -0.221922       0.943682
     13 H                     0.158702       0.005492
  --------------------------------------------------------
  Sum of atomic charges =     0.000000
  Sum of spin   charges =     1.000000

 -----------------------------------------------------------------
                    Cartesian Multipole Moments
 -----------------------------------------------------------------
    Charge (ESU x 10^10)
                 0.0000
    Dipole Moment (Debye)
         X      -0.6995      Y      -2.9885      Z       0.2241
       Tot       3.0774
    Quadrupole Moments (Debye-Ang)
        XX     -36.6395     XY      -4.2193     YY     -42.6931
        XZ      -0.6968     YZ       1.0410     ZZ     -46.2140
    Octopole Moments (Debye-Ang^2)
       XXX      -4.1841    XXY     -10.4099    XYY      -9.0486
       YYY     -39.0911    XXZ       1.0967    XYZ      -0.5348
       YYZ      -3.3004    XZZ      -1.3780    YZZ     -11.6572
       ZZZ       0.9499
    Hexadecapole Moments (Debye-Ang^3)
      XXXX    -322.1913   XXXY       2.7092   XXYY    -102.1671
      XYYY     -10.4726   YYYY    -320.3596   XXXZ      37.9242
      XXYZ      -4.9078   XYYZ       3.4379   YYYZ     -36.8317
      XXZZ     -88.0276   XYZZ      -4.3210   YYZZ     -80.3068
      XZZZ      37.2315   YZZZ     -31.6688   ZZZZ    -162.3481
 -----------------------------------------------------------------
 Calculating analytic gradient of the SCF energy
 Gradient of SCF Energy
            1           2           3           4           5           6
    1  -0.0115817  -0.0040644   0.0124766   0.0047458   0.0016463   0.0051276
    2  -0.0259264   0.0286251  -0.0018769  -0.0008542  -0.0050869   0.0014506
    3   0.0083250   0.0277956  -0.0143006   0.0019802   0.0031784  -0.0050026
            7           8           9          10          11          12
    1  -0.0032821   0.0051113  -0.0018458   0.0001809   0.0002042  -0.0058549
    2   0.0018049   0.0036600   0.0005940  -0.0011414  -0.0000456   0.0139633
    3   0.0056198  -0.0156884   0.0025384  -0.0010084   0.0007663  -0.0286162
           13
    1  -0.0028636
    2  -0.0151665
    3   0.0144124
 Max gradient component =       2.863E-02
 RMS gradient           =       1.110E-02
 Gradient time:  CPU 16.61 s  wall 4.29 s
 Geometry Optimization Parameters
   NAtoms,    NIC,     NZ,  NCons,   NDum,   NFix, NCnnct, MaxDiis
       13      85       0       0       0       0       0       0

 Cartesian Hessian Update
 Hessian Updated using BFGS Update


** GEOMETRY OPTIMIZATION IN DELOCALIZED INTERNAL COORDINATES **
   Searching for a Minimum

   Optimization Cycle:   5

                       Coordinates (Angstroms)
     ATOM                X               Y               Z
      1  C         1.2206930125    0.4533377406    0.0964588427
      2  C         0.6169899848   -0.8723264137    0.1070144554
      3  C        -0.8063441417   -0.9571098950    0.0448344930
      4  C        -1.5301171182    0.1885165477    0.1826244823
      5  C        -0.8338741938    1.4120796224    0.5304549528
      6  N         0.4480874820    1.5770389073    0.5299059019
      7  H         2.2404900841    0.5470198774    0.4690183897
      8  H         1.2460803471   -1.7523908771    0.1542581560
      9  H        -1.3042313317   -1.9201672875   -0.0275964903
     10  H        -2.6137103909    0.1753616845    0.1355009013
     11  H        -1.4287480025    2.2604063441    0.8736191055
     12  C         1.0705642268   -0.1178773056   -1.3060726145
     13  H         1.6573765224   -0.9606263452   -1.6814918234
   Point Group: c1    Number of degrees of freedom:    33


   Energy is   -286.837826692

 Hessian Updated using BFGS Update

 33 Hessian modes will be used to form the next step
  Hessian Eigenvalues:
     0.007591    0.015352    0.018290    0.019198    0.021412    0.021879
     0.022925    0.036181    0.063495    0.083250    0.091073    0.106517
     0.157454    0.159253    0.160044    0.164657    0.183477    0.219759
     0.231719    0.270049    0.322302    0.326716    0.347240    0.347902
     0.351332    0.354309    0.354792    0.371313    0.386560    0.417377
     0.449093    0.644389    0.795054

 Minimum Search - Taking Simple RFO Step
 Searching for Lamda that Minimizes Along All modes
 Value Taken    Lamda =  -0.01471149
 Calculated Step too Large.  Step scaled by  0.462293
 Step Taken.  Stepsize is  0.300000

                             Maximum     Tolerance    Cnvgd?
         Gradient           0.035117      0.000300      NO
         Displacement       0.139559      0.001200      NO
         Energy change     -0.005966      0.000001      NO


 New Cartesian Coordinates Obtained by Inverse Iteration

 Displacement from previous Coordinates is:  0.222915
 ----------------------------------------------------------------
             Standard Nuclear Orientation (Angstroms)
    I     Atom           X                Y                Z
 ----------------------------------------------------------------
    1      C       1.2295536703     0.4666026185     0.1098158192
    2      C       0.6295038883    -0.8669090703     0.0766998365
    3      C      -0.8112470173    -0.9495944036     0.0368519901
    4      C      -1.5289957037     0.1869404305     0.1826475771
    5      C      -0.8318602865     1.4139729832     0.5301520936
    6      N       0.4475772369     1.5810524703     0.5335624733
    7      H       2.2416103927     0.5896493536     0.4835203793
    8      H       1.2476522786    -1.7537056471     0.1416180100
    9      H      -1.3055357399    -1.9133086878    -0.0462125935
   10      H      -2.6130180609     0.1754164343     0.1453338583
   11      H      -1.4281202427     2.2614482205     0.8734567327
   12      C       1.0536961549    -0.1885332175    -1.2486801463
   13      H       1.6524399103    -0.9697688845    -1.7102372780
 ----------------------------------------------------------------
 Nuclear Repulsion Energy =   272.7782641964 hartrees
 There are       25 alpha and       24 beta electrons
 Applying Cartesian multipole field
    Component          Value
    ---------          -----
     (2,0,0)        1.00000E-11
     (0,2,0)        2.00000E-11
     (0,0,2)       -3.00000E-11
 Nucleus-field energy     =     0.0000000042 hartrees
 Requested basis set is 6-31+G(d,p)
 There are 53 shells and 163 basis functions
 A cutoff of  1.0D-14 yielded   1383 shell pairs
 There are     13459 function pairs
 Smallest overlap matrix eigenvalue = 1.84E-05
 Guess MOs from SCF MO coefficient file
 Reading MOs from coefficient file
 Reading MOs from coefficient file
 An unrestricted hybrid HF-DFT SCF calculation will be
 performed using Pulay DIIS extrapolation
 Exchange:     0.2000 Hartree-Fock + 0.0800 Slater + 0.7200 B88
 Correlation:  0.1900 VWN1RPA + 0.8100 LYP
 Using SG-1 standard quadrature grid
 SCF converges when DIIS error is below 1.0E-08
 Geometry optimization detected.  Setting ReadMinima to 0
 Setting SaveMinima to 0
Using Q-Chem read-in guess as SCF_GUESS READ specified.

 using 4 threads for integral computing
 -------------------------------------------------------
 OpenMP Integral computing Module                
 Release: version 1.0, May 2013, Q-Chem Inc. Pittsburgh 
 -------------------------------------------------------
 -------------------------------------------------------
 OpenMP BLAS3 based DFT computing Module                
 Release: version 1.0, May 2013, Q-Chem Inc. Pittsburgh 
 -------------------------------------------------------
 ---------------------------------------
  Cycle       Energy         DIIS Error
 ---------------------------------------
    1    -286.8699803243      2.82E-03
    2    -286.8417594874      4.78E-04
    3    -286.8413223893      6.94E-04
    4    -286.8430845797      1.71E-04
    5    -286.8431882658      6.61E-05
    6    -286.8432158442      2.60E-05
    7    -286.8432378795      1.12E-05
    8    -286.8432415685      7.34E-06
    9    -286.8432431725      3.73E-06
   10    -286.8432434778      9.32E-07
   11    -286.8432435540      2.95E-07
   12    -286.8432435926      1.60E-07
   13    -286.8432436130      8.09E-08
   14    -286.8432436293      5.81E-08
   15    -286.8432436361      1.56E-08
   16    -286.8432436365      8.99E-09 Convergence criterion met
 ---------------------------------------
 <S^2> = 0.7537
 SCF time:  CPU 79.41 s  wall 21.58 s
 SCF   energy in the final basis set = -286.84324364
 Total energy in the final basis set = -286.84324364
 
 --------------------------------------------------------------
 
                    Orbital Energies (a.u.)
 --------------------------------------------------------------
 
 Alpha MOs
 -- Occupied --
-14.337 -10.250 -10.236 -10.229 -10.228 -10.216 -10.203  -0.961
 -0.868  -0.801  -0.671  -0.649  -0.581  -0.549  -0.507  -0.489
 -0.468  -0.422  -0.400  -0.378  -0.345  -0.321  -0.281  -0.248
 -0.228
 -- Virtual --
 -0.060  -0.006   0.014   0.021   0.029   0.039   0.041   0.051
  0.068   0.076   0.078   0.090   0.094   0.107   0.117   0.121
  0.124   0.136   0.145   0.151   0.157   0.176   0.183   0.191
  0.194   0.199   0.203   0.211   0.215   0.237   0.255   0.261
  0.269   0.276   0.290   0.306   0.316   0.324   0.335   0.350
  0.351   0.367   0.488   0.530   0.609   0.632   0.655   0.672
  0.703   0.712   0.716   0.722   0.735   0.748   0.757   0.773
  0.784   0.878   0.882   0.903   0.908   0.943   0.969   1.001
  1.012   1.029   1.045   1.052   1.079   1.107   1.151   1.160
  1.194   1.225   1.296   1.310   1.345   1.385   1.409   1.449
  1.503   1.543   1.568   1.626   1.753   1.780   1.804   1.821
  1.859   1.881   1.930   1.965   1.993   2.021   2.048   2.092
  2.115   2.169   2.175   2.236   2.273   2.335   2.355   2.382
  2.392   2.418   2.426   2.474   2.491   2.530   2.537   2.559
  2.561   2.601   2.636   2.651   2.696   2.730   2.748   2.800
  2.910   2.965   3.001   3.175   3.264   3.282   3.316   3.361
  3.455   3.506   3.803   4.217   4.303   4.405   4.450   4.517
  4.573   4.763
 
 Beta MOs
 -- Occupied --
-14.337 -10.250 -10.236 -10.228 -10.217 -10.214 -10.203  -0.958
 -0.861  -0.798  -0.666  -0.647  -0.564  -0.545  -0.504  -0.484
 -0.463  -0.420  -0.397  -0.376  -0.338  -0.318  -0.267  -0.229
 -- Virtual --
 -0.098  -0.057  -0.004   0.014   0.022   0.030   0.041   0.043
  0.052   0.073   0.078   0.081   0.091   0.095   0.109   0.118
  0.122   0.126   0.136   0.146   0.152   0.160   0.177   0.185
  0.192   0.197   0.201   0.205   0.214   0.218   0.238   0.257
  0.264   0.270   0.282   0.292   0.312   0.319   0.328   0.340
  0.353   0.355   0.373   0.490   0.532   0.612   0.639   0.663
  0.688   0.706   0.713   0.724   0.726   0.737   0.752   0.773
  0.780   0.786   0.880   0.884   0.904   0.916   0.946   0.976
  1.005   1.015   1.039   1.047   1.055   1.082   1.109   1.157
  1.160   1.196   1.231   1.302   1.312   1.353   1.391   1.412
  1.454   1.508   1.556   1.573   1.639   1.758   1.792   1.811
  1.829   1.866   1.892   1.935   1.974   1.995   2.027   2.060
  2.099   2.121   2.173   2.183   2.243   2.275   2.337   2.357
  2.385   2.396   2.422   2.434   2.480   2.495   2.534   2.540
  2.562   2.573   2.604   2.644   2.657   2.700   2.738   2.755
  2.805   2.916   2.969   3.002   3.176   3.265   3.284   3.318
  3.369   3.462   3.510   3.804   4.219   4.310   4.418   4.458
  4.519   4.582   4.764
 --------------------------------------------------------------
 
          Ground-State Mulliken Net Atomic Charges

     Atom                 Charge (a.u.)    Spin (a.u.)
  --------------------------------------------------------
      1 C                    -0.475510      -0.055476
      2 C                     0.278236       0.043746
      3 C                    -0.153915      -0.060261
      4 C                     0.035052       0.094795
      5 C                    -0.145667      -0.050608
      6 N                    -0.136720       0.033886
      7 H                     0.151679       0.020227
      8 H                     0.147106       0.003156
      9 H                     0.140246       0.001382
     10 H                     0.129174      -0.001588
     11 H                     0.127575       0.002059
     12 C                    -0.254207       0.968436
     13 H                     0.156950       0.000246
  --------------------------------------------------------
  Sum of atomic charges =     0.000000
  Sum of spin   charges =     1.000000

 -----------------------------------------------------------------
                    Cartesian Multipole Moments
 -----------------------------------------------------------------
    Charge (ESU x 10^10)
                 0.0000
    Dipole Moment (Debye)
         X      -0.7171      Y      -2.9227      Z       0.0610
       Tot       3.0100
    Quadrupole Moments (Debye-Ang)
        XX     -36.8037     XY      -4.1186     YY     -42.5229
        XZ      -0.7922     YZ       0.9942     ZZ     -45.6290
    Octopole Moments (Debye-Ang^2)
       XXX      -4.2717    XXY      -9.9606    XYY      -8.7125
       YYY     -38.6424    XXZ       0.6944    XYZ      -0.5718
       YYZ      -3.9683    XZZ      -0.8738    YZZ     -11.2880
       ZZZ      -1.0278
    Hexadecapole Moments (Debye-Ang^3)
      XXXX    -323.1328   XXXY       3.7768   XXYY    -102.0900
      XYYY      -9.5375   YYYY    -321.4792   XXXZ      35.9254
      XXYZ      -5.6224   XYYZ       2.7668   YYYZ     -39.0547
      XXZZ     -86.4206   XYZZ      -3.9147   YYZZ     -78.9482
      XZZZ      34.3432   YZZZ     -34.6867   ZZZZ    -153.5526
 -----------------------------------------------------------------
 Calculating analytic gradient of the SCF energy
 Gradient of SCF Energy
            1           2           3           4           5           6
    1  -0.0181959   0.0076230   0.0096216   0.0070228   0.0021448   0.0090749
    2  -0.0253885   0.0386933   0.0015937  -0.0031845  -0.0067793  -0.0007701
    3   0.0136201   0.0224480  -0.0185862   0.0007588   0.0025263  -0.0040226
            7           8           9          10          11          12
    1  -0.0050971   0.0053693  -0.0018435   0.0002705   0.0003344  -0.0087022
    2   0.0046263   0.0049945   0.0008124  -0.0011339   0.0000507   0.0042331
    3   0.0042706  -0.0193096   0.0024810  -0.0007093   0.0007808  -0.0199383
           13
    1  -0.0076226
    2  -0.0177478
    3   0.0156804
 Max gradient component =       3.869E-02
 RMS gradient           =       1.187E-02
 Gradient time:  CPU 17.02 s  wall 4.59 s
 Geometry Optimization Parameters
   NAtoms,    NIC,     NZ,  NCons,   NDum,   NFix, NCnnct, MaxDiis
       13      85       0       0       0       0       0       0

 Cartesian Hessian Update
 Hessian Updated using BFGS Update


** GEOMETRY OPTIMIZATION IN DELOCALIZED INTERNAL COORDINATES **
   Searching for a Minimum

   Optimization Cycle:   6

                       Coordinates (Angstroms)
     ATOM                X               Y               Z
      1  C         1.2295536703    0.4666026185    0.1098158192
      2  C         0.6295038883   -0.8669090703    0.0766998365
      3  C        -0.8112470173   -0.9495944036    0.0368519901
      4  C        -1.5289957037    0.1869404305    0.1826475771
      5  C        -0.8318602865    1.4139729832    0.5301520936
      6  N         0.4475772369    1.5810524703    0.5335624733
      7  H         2.2416103927    0.5896493536    0.4835203793
      8  H         1.2476522786   -1.7537056471    0.1416180100
      9  H        -1.3055357399   -1.9133086878   -0.0462125935
     10  H        -2.6130180609    0.1754164343    0.1453338583
     11  H        -1.4281202427    2.2614482205    0.8734567327
     12  C         1.0536961549   -0.1885332175   -1.2486801463
     13  H         1.6524399103   -0.9697688845   -1.7102372780
   Point Group: c1    Number of degrees of freedom:    33


   Energy is   -286.843243636

 Hessian Updated using BFGS Update

 33 Hessian modes will be used to form the next step
  Hessian Eigenvalues:
     0.012421    0.014428    0.018127    0.019216    0.021386    0.021859
     0.022924    0.035487    0.072821    0.084284    0.092243    0.122118
     0.157451    0.159244    0.160049    0.170578    0.181525    0.219775
     0.229629    0.270695    0.320539    0.326843    0.345401    0.347503
     0.351308    0.354306    0.354449    0.363326    0.384314    0.423014
     0.449771    0.650435    0.855317

 Minimum Search - Taking Simple RFO Step
 Searching for Lamda that Minimizes Along All modes
[...]
    7      H       2.3674107679     1.4423233066    -0.2231610037
    8      H       0.5823115890    -2.3787415379    -0.6806857982
    9      H      -1.6493752909    -1.9382544100    -0.0506981672
   10      H      -2.5536089802     0.1666255662     0.6526038946
   11      H      -1.4743176395     2.1988107072     0.8696991326
   12      C       1.4290924465    -0.4169169476    -0.4287496229
   13      H       2.3916448966    -0.8081206523    -0.7482926809
 ----------------------------------------------------------------
 Nuclear Repulsion Energy =   260.5186995646 hartrees
 There are       25 alpha and       24 beta electrons
 Applying Cartesian multipole field
    Component          Value
    ---------          -----
     (2,0,0)        1.00000E-11
     (0,2,0)        2.00000E-11
     (0,0,2)       -3.00000E-11
 Nucleus-field energy     =     0.0000000071 hartrees
 Requested basis set is 6-31+G(d,p)
 There are 53 shells and 163 basis functions
 A cutoff of  1.0D-14 yielded   1361 shell pairs
 There are     13409 function pairs
 Smallest overlap matrix eigenvalue = 9.07E-06
 Guess MOs from SCF MO coefficient file
 Reading MOs from coefficient file
 Reading MOs from coefficient file
 An unrestricted hybrid HF-DFT SCF calculation will be
 performed using Pulay DIIS extrapolation
 Exchange:     0.2000 Hartree-Fock + 0.0800 Slater + 0.7200 B88
 Correlation:  0.1900 VWN1RPA + 0.8100 LYP
 Using SG-1 standard quadrature grid
 SCF converges when DIIS error is below 1.0E-08
 Geometry optimization detected.  Setting ReadMinima to 0
 Setting SaveMinima to 0
Using Q-Chem read-in guess as SCF_GUESS READ specified.

 using 4 threads for integral computing
 -------------------------------------------------------
 OpenMP Integral computing Module                
 Release: version 1.0, May 2013, Q-Chem Inc. Pittsburgh 
 -------------------------------------------------------
 -------------------------------------------------------
 OpenMP BLAS3 based DFT computing Module                
 Release: version 1.0, May 2013, Q-Chem Inc. Pittsburgh 
 -------------------------------------------------------
 ---------------------------------------
  Cycle       Energy         DIIS Error
 ---------------------------------------
    1    -286.9461339672      1.43E-05
    2    -286.9461694205      1.66E-06
    3    -286.9461694024      2.88E-06
    4    -286.9461694358      4.90E-07
    5    -286.9461694367      1.95E-07
    6    -286.9461694368      5.04E-08
    7    -286.9461694368      1.97E-08
    8    -286.9461694368      8.30E-09 Convergence criterion met
 ---------------------------------------
 <S^2> = 0.7675
 SCF time:  CPU 38.83 s  wall 11.95 s
 SCF   energy in the final basis set = -286.94616944
 Total energy in the final basis set = -286.94616944
 
 --------------------------------------------------------------
 
                    Orbital Energies (a.u.)
 --------------------------------------------------------------
 
 Alpha MOs
 -- Occupied --
-14.337 -10.243 -10.243 -10.223 -10.222 -10.212 -10.212  -0.934
 -0.829  -0.795  -0.703  -0.678  -0.562  -0.547  -0.527  -0.458
 -0.449  -0.423  -0.405  -0.395  -0.359  -0.333  -0.310  -0.263
 -0.174
 -- Virtual --
 -0.087  -0.002   0.015   0.023   0.045   0.050   0.054   0.064
  0.072   0.075   0.077   0.083   0.091   0.094   0.128   0.132
  0.133   0.134   0.139   0.143   0.164   0.183   0.183   0.184
  0.205   0.207   0.213   0.228   0.229   0.247   0.247   0.259
  0.264   0.265   0.291   0.291   0.302   0.308   0.339   0.391
  0.408   0.411   0.460   0.596   0.613   0.623   0.647   0.682
  0.694   0.702   0.702   0.733   0.735   0.755   0.774   0.777
  0.894   0.914   0.919   0.940   0.943   0.977   0.978   0.998
  1.001   1.022   1.037   1.109   1.114   1.124   1.164   1.192
  1.217   1.265   1.275   1.279   1.298   1.339   1.365   1.382
  1.428   1.462   1.499   1.597   1.676   1.727   1.784   1.843
  1.853   1.893   1.905   1.943   1.950   1.976   2.003   2.029
  2.075   2.101   2.132   2.257   2.293   2.361   2.383   2.393
  2.399   2.418   2.449   2.450   2.455   2.472   2.503   2.512
  2.525   2.562   2.620   2.624   2.664   2.737   2.755   2.842
  3.009   3.072   3.117   3.244   3.261   3.290   3.346   3.350
  3.405   3.652   3.759   4.179   4.224   4.306   4.381   4.409
  4.649   4.713
 
 Beta MOs
 -- Occupied --
-14.329 -10.245 -10.245 -10.222 -10.221 -10.208 -10.208  -0.923
 -0.820  -0.788  -0.692  -0.676  -0.557  -0.544  -0.524  -0.456
 -0.448  -0.420  -0.392  -0.384  -0.357  -0.307  -0.287  -0.254
 -- Virtual --
 -0.093  -0.085  -0.002   0.016   0.023   0.045   0.050   0.058
  0.064   0.075   0.081   0.085   0.091   0.096   0.103   0.129
  0.132   0.133   0.140   0.142   0.143   0.165   0.183   0.184
  0.190   0.205   0.209   0.213   0.227   0.231   0.250   0.253
  0.259   0.268   0.269   0.292   0.293   0.307   0.310   0.338
  0.394   0.412   0.414   0.464   0.598   0.616   0.625   0.655
  0.686   0.703   0.704   0.706   0.736   0.751   0.757   0.776
  0.788   0.895   0.917   0.920   0.940   0.944   0.978   0.978
  1.001   1.025   1.028   1.039   1.115   1.118   1.130   1.163
  1.194   1.220   1.270   1.286   1.291   1.306   1.346   1.374
  1.387   1.429   1.467   1.513   1.608   1.679   1.733   1.796
  1.845   1.855   1.894   1.914   1.951   1.957   1.988   2.008
  2.037   2.080   2.114   2.131   2.259   2.294   2.364   2.386
  2.405   2.409   2.420   2.453   2.453   2.464   2.476   2.505
  2.518   2.527   2.572   2.624   2.624   2.670   2.749   2.757
  2.847   3.011   3.074   3.122   3.247   3.263   3.291   3.347
  3.351   3.405   3.654   3.761   4.192   4.230   4.314   4.385
  4.409   4.652   4.719
 --------------------------------------------------------------
 
          Ground-State Mulliken Net Atomic Charges

     Atom                 Charge (a.u.)    Spin (a.u.)
  --------------------------------------------------------
      1 C                    -0.234847      -0.113462
      2 C                    -0.164609       0.080530
      3 C                    -0.164409       0.076571
      4 C                     0.100250       0.371858
      5 C                    -0.234449      -0.115345
      6 N                    -0.176853       0.375481
      7 H                     0.127056       0.003250
      8 H                     0.132762      -0.006841
      9 H                     0.132774      -0.006671
     10 H                     0.127352      -0.018740
     11 H                     0.126938       0.003336
     12 C                     0.100733       0.368642
     13 H                     0.127304      -0.018606
  --------------------------------------------------------
  Sum of atomic charges =     0.000000
  Sum of spin   charges =     1.000000

 -----------------------------------------------------------------
                    Cartesian Multipole Moments
 -----------------------------------------------------------------
    Charge (ESU x 10^10)
                 0.0000
    Dipole Moment (Debye)
         X      -0.5673      Y      -2.3020      Z      -0.3985
       Tot       2.4041
    Quadrupole Moments (Debye-Ang)
        XX     -36.0971     XY      -1.5226     YY     -43.8203
        XZ      -2.5133     YZ       0.6565     ZZ     -44.4138
    Octopole Moments (Debye-Ang^2)
       XXX      -3.1089    XXY      -5.5797    XYY      -7.6834
       YYY     -40.3037    XXZ      -1.5052    XYZ      -1.5996
       YYZ      -5.0054    XZZ      -1.7851    YZZ      -6.5309
       ZZZ      -4.2392
    Hexadecapole Moments (Debye-Ang^3)
      XXXX    -372.3744   XXXY      -3.7423   XXYY    -124.7921
      XYYY     -26.2090   YYYY    -443.6088   XXXZ      27.0746
      XXYZ     -10.0441   XYYZ       4.9055   YYYZ     -37.6499
      XXZZ     -86.5774   XYZZ      -6.9267   YYZZ     -88.2816
      XZZZ      42.8685   YZZZ     -42.2626   ZZZZ     -96.4576
 -----------------------------------------------------------------
 Calculating analytic gradient of the SCF energy
 Gradient of SCF Energy
            1           2           3           4           5           6
    1   0.0000378  -0.0000414   0.0000096  -0.0000253   0.0000183  -0.0000341
    2   0.0000213  -0.0000349  -0.0000173  -0.0000211   0.0000006   0.0000556
    3   0.0000143   0.0000425  -0.0000295   0.0000242   0.0000445  -0.0000305
            7           8           9          10          11          12
    1   0.0000102  -0.0000144  -0.0000067   0.0000022  -0.0000019   0.0000418
    2  -0.0000211   0.0000022   0.0000045  -0.0000029   0.0000067   0.0000094
    3   0.0000177  -0.0000150  -0.0000047   0.0000007  -0.0000165  -0.0000392
           13
    1   0.0000039
    2  -0.0000030
    3  -0.0000086
 Max gradient component =       5.558E-05
 RMS gradient           =       2.400E-05
 Gradient time:  CPU 15.86 s  wall 4.12 s
 Geometry Optimization Parameters
   NAtoms,    NIC,     NZ,  NCons,   NDum,   NFix, NCnnct, MaxDiis
       13      85       0       0       0       0       0       0

 Cartesian Hessian Update
 Hessian Updated using BFGS Update


** GEOMETRY OPTIMIZATION IN DELOCALIZED INTERNAL COORDINATES **
   Searching for a Minimum

   Optimization Cycle:  39

                       Coordinates (Angstroms)
     ATOM                X               Y               Z
      1  C         1.4100559428    0.9305454817   -0.1131290358
      2  C         0.3398862992   -1.3597821828   -0.3875060774
      3  C        -0.9507851744   -1.1050805010   -0.0232129804
      4  C        -1.4964144716    0.1597748792    0.3997988874
      5  C        -0.8457065650    1.3749450950    0.5280714411
      6  N         0.4330626607    1.7671337956    0.3137907632
      7  H         2.3674107679    1.4423233066   -0.2231610037
      8  H         0.5823115890   -2.3787415379   -0.6806857982
      9  H        -1.6493752909   -1.9382544100   -0.0506981672
     10  H        -2.5536089802    0.1666255662    0.6526038946
     11  H        -1.4743176395    2.1988107072    0.8696991326
     12  C         1.4290924465   -0.4169169476   -0.4287496229
     13  H         2.3916448966   -0.8081206523   -0.7482926809
   Point Group: c1    Number of degrees of freedom:    33


   Energy is   -286.946169437

 Hessian Updated using BFGS Update

 33 Hessian modes will be used to form the next step
  Hessian Eigenvalues:
     0.007478    0.014023    0.017623    0.019211    0.021844    0.027219
     0.028346    0.031697    0.069563    0.075641    0.116333    0.140025
     0.156119    0.159532    0.160564    0.187375    0.201643    0.229591
     0.235289    0.258777    0.308084    0.328207    0.332094    0.347660
     0.351486    0.354297    0.355928    0.418036    0.449948    0.462625
     0.525959    0.727704    3.774958

 Minimum Search - Taking Simple RFO Step
 Searching for Lamda that Minimizes Along All modes
 Value Taken    Lamda =   0.00000000
 Step Taken.  Stepsize is  0.001343

                             Maximum     Tolerance    Cnvgd?
         Gradient           0.000112      0.000300     YES
         Displacement       0.000562      0.001200     YES
         Energy change     -0.000000      0.000001     YES


                       Distance Matrix (Angstroms)
             C (  1)   C (  2)   C (  3)   C (  4)   C (  5)   N (  6)
   C (  2)  2.542862
   C (  3)  3.118562  1.365070
   C (  4)  3.050369  2.510160  1.441010
   C (  5)  2.386859  3.118116  2.542731  1.384382
   N (  6)  1.355233  3.205948  3.205967  2.512744  1.354614
   H (  7)  1.091124  3.462609  4.188039  4.118514  3.300456  2.033598
   H (  8)  3.458130  1.087659  2.098778  3.454362  4.194102  4.266092
   H (  9)  4.194524  2.098864  1.087641  2.151295  3.458056  4.266064
   H ( 10)  4.108596  3.432792  2.154764  1.087022  2.095823  3.405382
   H ( 11)  3.300615  4.187539  3.462236  2.092597  1.091153  2.033096
   C ( 12)  1.384064  1.441203  2.510348  3.094779  3.049752  2.512672
   H ( 13)  2.095211  2.155043  3.433040  4.167966  4.107959  3.405290
             H (  7)   H (  8)   H (  9)   H ( 10)   H ( 11)   C ( 12)
   H (  8)  4.242222
   H (  9)  5.252868  2.360369
   H ( 10)  5.158566  4.253299  2.396412
   H ( 11)  4.065156  5.252371  4.241826  2.311228
   C ( 12)  2.092721  2.151573  3.454613  4.167944  4.117984
   H ( 13)  2.311028  2.396895  4.253667  5.231460  5.158023  1.087040

 
 Final energy is   -286.946169436828     


 ******************************
 **  OPTIMIZATION CONVERGED  **
 ******************************

                       Coordinates (Angstroms)
     ATOM                X               Y               Z
      1  C         1.4100559428    0.9305454817   -0.1131290358
      2  C         0.3398862992   -1.3597821828   -0.3875060774
      3  C        -0.9507851744   -1.1050805010   -0.0232129804
      4  C        -1.4964144716    0.1597748792    0.3997988874
      5  C        -0.8457065650    1.3749450950    0.5280714411
      6  N         0.4330626607    1.7671337956    0.3137907632
      7  H         2.3674107679    1.4423233066   -0.2231610037
      8  H         0.5823115890   -2.3787415379   -0.6806857982
      9  H        -1.6493752909   -1.9382544100   -0.0506981672
     10  H        -2.5536089802    0.1666255662    0.6526038946
     11  H        -1.4743176395    2.1988107072    0.8696991326
     12  C         1.4290924465   -0.4169169476   -0.4287496229
     13  H         2.3916448966   -0.8081206523   -0.7482926809

Z-matrix Print:
$molecule
0 2
N 
C  1 1.354614
H  2 1.091153 1 112.009994
C  1 1.355233 2 123.480299 3 179.957878 0
H  4 1.091124 1 112.009014 2 179.992049 0
C  4 1.384064 1 133.057252 2 -0.057105 0
H  6 1.087040 4 115.440618 1 -179.938914 0
C  2 1.384382 1 133.093705 3 179.932126 0
H  8 1.087022 2 115.471140 1 -179.905349 0
C  8 1.441010 2 128.293703 1 0.147561 0
H  10 1.087641 8 115.887806 2 179.960680 0
C  10 1.365070 8 126.878706 2 0.020238 0
H  12 1.087659 10 117.224219 8 179.943815 0
$end

 
 --------------------------------------------------------------
 
                    Orbital Energies (a.u.)
 --------------------------------------------------------------
 
 Alpha MOs
 -- Occupied --
-14.337 -10.243 -10.243 -10.223 -10.222 -10.212 -10.212  -0.934
 -0.829  -0.795  -0.703  -0.678  -0.562  -0.547  -0.527  -0.458
 -0.449  -0.423  -0.405  -0.395  -0.359  -0.333  -0.310  -0.263
 -0.174
 -- Virtual --
 -0.087  -0.002   0.015   0.023   0.045   0.050   0.054   0.064
  0.072   0.075   0.077   0.083   0.091   0.094   0.128   0.132
  0.133   0.134   0.139   0.143   0.164   0.183   0.183   0.184
  0.205   0.207   0.213   0.228   0.229   0.247   0.247   0.259
  0.264   0.265   0.291   0.291   0.302   0.308   0.339   0.391
  0.408   0.411   0.460   0.596   0.613   0.623   0.647   0.682
  0.694   0.702   0.702   0.733   0.735   0.755   0.774   0.777
  0.894   0.914   0.919   0.940   0.943   0.977   0.978   0.998
  1.001   1.022   1.037   1.109   1.114   1.124   1.164   1.192
  1.217   1.265   1.275   1.279   1.298   1.339   1.365   1.382
  1.428   1.462   1.499   1.597   1.676   1.727   1.784   1.843
  1.853   1.893   1.905   1.943   1.950   1.976   2.003   2.029
  2.075   2.101   2.132   2.257   2.293   2.361   2.383   2.393
  2.399   2.418   2.449   2.450   2.455   2.472   2.503   2.512
  2.525   2.562   2.620   2.624   2.664   2.737   2.755   2.842
  3.009   3.072   3.117   3.244   3.261   3.290   3.346   3.350
  3.405   3.652   3.759   4.179   4.224   4.306   4.381   4.409
  4.649   4.713
 
 Beta MOs
 -- Occupied --
-14.329 -10.245 -10.245 -10.222 -10.221 -10.208 -10.208  -0.923
 -0.820  -0.788  -0.692  -0.676  -0.557  -0.544  -0.524  -0.456
 -0.448  -0.420  -0.392  -0.384  -0.357  -0.307  -0.287  -0.254
 -- Virtual --
 -0.093  -0.085  -0.002   0.016   0.023   0.045   0.050   0.058
  0.064   0.075   0.081   0.085   0.091   0.096   0.103   0.129
  0.132   0.133   0.140   0.142   0.143   0.165   0.183   0.184
  0.190   0.205   0.209   0.213   0.227   0.231   0.250   0.253
  0.259   0.268   0.269   0.292   0.293   0.307   0.310   0.338
  0.394   0.412   0.414   0.464   0.598   0.616   0.625   0.655
  0.686   0.703   0.704   0.706   0.736   0.751   0.757   0.776
  0.788   0.895   0.917   0.920   0.940   0.944   0.978   0.978
  1.001   1.025   1.028   1.039   1.115   1.118   1.130   1.163
  1.194   1.220   1.270   1.286   1.291   1.306   1.346   1.374
  1.387   1.429   1.467   1.513   1.608   1.679   1.733   1.796
  1.845   1.855   1.894   1.914   1.951   1.957   1.988   2.008
  2.037   2.080   2.114   2.131   2.259   2.294   2.364   2.386
  2.405   2.409   2.420   2.453   2.453   2.464   2.476   2.505
  2.518   2.527   2.572   2.624   2.624   2.670   2.749   2.757
  2.847   3.011   3.074   3.122   3.247   3.263   3.291   3.347
  3.351   3.405   3.654   3.761   4.192   4.230   4.314   4.385
  4.409   4.652   4.719
 --------------------------------------------------------------
 
          Ground-State Mulliken Net Atomic Charges

     Atom                 Charge (a.u.)    Spin (a.u.)
  --------------------------------------------------------
      1 C                    -0.234847      -0.113462
      2 C                    -0.164609       0.080530
      3 C                    -0.164409       0.076571
      4 C                     0.100250       0.371858
      5 C                    -0.234449      -0.115345
      6 N                    -0.176853       0.375481
      7 H                     0.127056       0.003250
      8 H                     0.132762      -0.006841
      9 H                     0.132774      -0.006671
     10 H                     0.127352      -0.018740
     11 H                     0.126938       0.003336
     12 C                     0.100733       0.368642
     13 H                     0.127304      -0.018606
  --------------------------------------------------------
  Sum of atomic charges =     0.000000
  Sum of spin   charges =     1.000000

 -----------------------------------------------------------------
                    Cartesian Multipole Moments
 -----------------------------------------------------------------
    Charge (ESU x 10^10)
                 0.0000
    Dipole Moment (Debye)
         X      -0.5673      Y      -2.3020      Z      -0.3985
       Tot       2.4041
    Quadrupole Moments (Debye-Ang)
        XX     -36.0971     XY      -1.5226     YY     -43.8203
        XZ      -2.5133     YZ       0.6565     ZZ     -44.4138
    Octopole Moments (Debye-Ang^2)
       XXX      -3.1089    XXY      -5.5797    XYY      -7.6834
       YYY     -40.3037    XXZ      -1.5052    XYZ      -1.5996
       YYZ      -5.0054    XZZ      -1.7851    YZZ      -6.5309
       ZZZ      -4.2392
    Hexadecapole Moments (Debye-Ang^3)
      XXXX    -372.3744   XXXY      -3.7423   XXYY    -124.7921
      XYYY     -26.2090   YYYY    -443.6088   XXXZ      27.0746
      XXYZ     -10.0441   XYYZ       4.9055   YYYZ     -37.6499
      XXZZ     -86.5774   XYZZ      -6.9267   YYZZ     -88.2816
      XZZZ      42.8685   YZZZ     -42.2626   ZZZZ     -96.4576
 -----------------------------------------------------------------
Archival summary:
1\1\c8-68\OPT\ProcedureUnspecified\6-31+G**\166(2)\hpark21\ThuMar307:55:292022ThuMar307:55:292022\0\\#,OPT,ProcedureUnspecified,6-31+G**,\\0,2\N\C,1,1.35461\H,2,1.09115,1,112.01\C,1,1.35523,2,123.48,3,179.958,0\H,4,1.09112,1,112.009,2,179.992,0\C,4,1.38406,1,133.057,2,-0.0571053,0\H,6,1.08704,4,115.441,1,-179.939,0\C,2,1.38438,1,133.094,3,179.932,0\H,8,1.08702,2,115.471,1,-179.905,0\C,8,1.44101,2,128.294,1,0.147561,0\H,10,1.08764,8,115.888,2,179.961,0\C,10,1.36507,8,126.879,2,0.0202377,0\H,12,1.08766,10,117.224,8,179.944,0\\\@

 Total job time:  1069.68s(wall), 3526.76s(cpu) 
 Thu Mar  3 07:55:29 2022

        *************************************************************
        *                                                           *
        *  Thank you very much for using Q-Chem.  Have a nice day.  *
        *                                                           *
        *************************************************************


