13   
From optimize.out: Frame 1 / 2, Energy=    -286.8405101568
C        1.3124298484   -0.0975946439    0.0436157441
C        0.4498855437   -1.2273034426    0.4519224280
C       -0.8926964123   -1.1033291819    0.4848436928
C       -1.5382567658    0.1827420806    0.2616387570
C       -0.8211695858    1.2682934622   -0.0838731046
N        0.5722795659    1.2083535336   -0.3343067327
H        2.2232983203    0.0643887170    0.6254488622
H        0.9378922942   -2.1508412213    0.7558459933
H       -1.5110716912   -1.9466871404    0.7809235959
H       -2.5984363969    0.2871612308    0.4746464774
H       -1.2414452168    2.2700125292   -0.1119807278
C        1.1871675708    0.4342154903   -1.3192912543
H        1.9201229259    0.8105885861   -2.0294337316
13   
From optimize.out: Frame 4 / 5, Energy=    -286.8724098281
C        1.5601380436    0.3371451380   -0.5944839082
C        0.0164753850   -1.1657143194    0.6125679642
C       -1.3105454223   -1.1496573351    0.9605560751
C       -1.8657031540    0.0697428026    0.4612278542
C       -0.8590346408    0.7542662969   -0.1735766864
N        0.2981486448    0.0001995742   -0.0825709653
H        2.3172238345   -0.4250597684   -0.3916015609
H        0.7937043972   -1.8955951916    0.7895352642
H       -1.8310894102   -1.9234706538    1.5083370588
H       -2.8901182288    0.4027196057    0.5611058299
H       -0.8462267545    1.7066192793   -0.6820617315
C        1.8669135885    1.4356628466   -1.2555278794
H        2.7501137170    1.8531417250   -1.7135073147
