13   
Frame   0 IRC: Energy =  -286.9461694368 ; +0.0000 kcal/mol
C        1.4113439058    0.9279868202   -0.1214774014
C        0.3411742622   -1.3623408443   -0.3958544430
C       -0.9494972114   -1.1076391625   -0.0315613460
C       -1.4951265086    0.1572162177    0.3914505218
C       -0.8444186020    1.3723864335    0.5197230755
N        0.4343506237    1.7645751341    0.3054423976
H        2.3686987309    1.4397646451   -0.2315093693
H        0.5835995520   -2.3813001994   -0.6890341638
H       -1.6480873279   -1.9408130715   -0.0590465328
H       -2.5523210172    0.1640669047    0.6442555290
H       -1.4730296765    2.1962520457    0.8613507670
C        1.4303804095   -0.4194756091   -0.4370979885
H        2.3929328596   -0.8106793138   -0.7566410465
13   
Frame   1 IRC: Energy =  -286.9461692514 ; +0.0001 kcal/mol
C        1.4115603095    0.9279764002   -0.1210346310
C        0.3411748671   -1.3624039101   -0.3958348216
C       -0.9494853878   -1.1077173803   -0.0313174706
C       -1.4950661427    0.1571516854    0.3916520696
C       -0.8444672409    1.3725064396    0.5191858111
N        0.4343484235    1.7644165613    0.3054068942
H        2.3687509098    1.4399589449   -0.2315412465
H        0.5834802469   -2.3811936079   -0.6896988134
H       -1.6481545617   -1.9408171236   -0.0590086472
H       -2.5522087119    0.1640372848    0.6446507453
H       -1.4731279835    2.1962686377    0.8609998972
C        1.4303121370   -0.4194878233   -0.4370071421
H        2.3928831348   -0.8106961085   -0.7564526452
13   
Frame   2 IRC: Energy =  -286.9461681226 ; +0.0008 kcal/mol
C        1.4109535306    0.9286539579   -0.1218005113
C        0.3412167272   -1.3626306575   -0.3953338542
C       -0.9498804505   -1.1076425079   -0.0328938998
C       -1.4947260237    0.1572555587    0.3922448460
C       -0.8443924665    1.3722705796    0.5199743253
N        0.4340435137    1.7651563842    0.3026126758
H        2.3678980840    1.4405557596   -0.2353979856
H        0.5838468637   -2.3812039015   -0.6898266862
H       -1.6492316299   -1.9400602549   -0.0629897061
H       -2.5515627169    0.1637598128    0.6466555314
H       -1.4726153128    2.1956367982    0.8634164341
C        1.4307687149   -0.4201085020   -0.4343548735
H        2.3936811662   -0.8116430273   -0.7523062960
13   
Frame   3 IRC: Energy =  -286.9461657577 ; +0.0023 kcal/mol
C        1.4107229936    0.9292055831   -0.1219610250
C        0.3414111382   -1.3622604670   -0.3955975327
C       -0.9500062457   -1.1076689389   -0.0331619092
C       -1.4946152024    0.1575929797    0.3925783571
C       -0.8450189057    1.3718770562    0.5201361600
N        0.4344275898    1.7648475801    0.3012954415
H        2.3677439052    1.4412533123   -0.2353756804
H        0.5843441278   -2.3809972615   -0.6895224263
H       -1.6494741690   -1.9398942587   -0.0640028488
H       -2.5513856826    0.1638863338    0.6475103550
H       -1.4724919260    2.1955381954    0.8639015801
C        1.4305805186   -0.4209666408   -0.4342979440
H        2.3937618583   -0.8124134739   -0.7515025274
13   
Frame   4 IRC: Energy =  -286.9461572698 ; +0.0076 kcal/mol
C        1.4093241372    0.9299013148   -0.1224438302
C        0.3415530759   -1.3614048120   -0.3961964321
C       -0.9496400814   -1.1080636386   -0.0329823142
C       -1.4943099174    0.1583155049    0.3924744026
C       -0.8466407198    1.3713595714    0.5197798137
N        0.4359860124    1.7655473970    0.3001024865
H        2.3678360708    1.4398854183   -0.2342272315
H        0.5835846362   -2.3803827825   -0.6902370930
H       -1.6485906350   -1.9405535094   -0.0632453513
H       -2.5511136619    0.1636023273    0.6476242267
H       -1.4723826421    2.1956809183    0.8643613091
C        1.4306037789   -0.4213193264   -0.4339676663
H        2.3937899461   -0.8125683831   -0.7510423200
13   
Frame   5 IRC: Energy =  -286.9461402671 ; +0.0183 kcal/mol
C        1.4084595000    0.9299597288   -0.1214047985
C        0.3419883451   -1.3602078075   -0.3970458030
C       -0.9492900379   -1.1085585534   -0.0308789456
C       -1.4947736310    0.1589039729    0.3922486052
C       -0.8484558239    1.3711822012    0.5195817845
N        0.4380485507    1.7649320229    0.3032341572
H        2.3690462354    1.4375778589   -0.2273168383
H        0.5837525231   -2.3797726489   -0.6896794091
H       -1.6471270298   -1.9419933199   -0.0576621458
H       -2.5521876759    0.1636295054    0.6451665500
H       -1.4732931880    2.1975729199    0.8602147464
C        1.4305701326   -0.4214301136   -0.4384958762
H        2.3932620997   -0.8117957667   -0.7579620267
13   
Frame   6 IRC: Energy =  -286.9461088954 ; +0.0380 kcal/mol
C        1.4103287070    0.9300049302   -0.1299818473
C        0.3410422717   -1.3599675057   -0.4016192122
C       -0.9524444888   -1.1064853872   -0.0413544369
C       -1.4964498350    0.1587502862    0.3920214366
C       -0.8482026752    1.3695466148    0.5209655437
N        0.4343850197    1.7666658360    0.2887774584
H        2.3662514916    1.4459556126   -0.2368965945
H        0.5843531035   -2.3819187121   -0.6846918656
H       -1.6526157963   -1.9380360356   -0.0705550361
H       -2.5506730199    0.1608192080    0.6574872767
H       -1.4681144984    2.1943577289    0.8742592793
C        1.4328252541   -0.4235697041   -0.4316535355
H        2.3993144661   -0.8161228719   -0.7367584668
13   
Frame   7 IRC: Energy =  -286.9458366584 ; +0.2088 kcal/mol
C        1.4094115837    0.9256261866   -0.1140924577
C        0.3407766684   -1.3561562093   -0.4013183358
C       -0.9451322371   -1.1122321522   -0.0139191460
C       -1.4955534356    0.1603366642    0.3989640391
C       -0.8565123105    1.3693127739    0.5160392603
N        0.4503398508    1.7576398993    0.3235710920
H        2.3713354330    1.4360254651   -0.2034044639
H        0.5680080544   -2.3762286355   -0.7060916609
H       -1.6357291079   -1.9516190727   -0.0260290447
H       -2.5583869067    0.1664340474    0.6292632800
H       -1.4789483361    2.2057937021    0.8318451795
C        1.4333096250   -0.4209802783   -0.4552769198
H        2.3970811185   -0.8039523905   -0.7795508222
13   
Frame   8 IRC: Energy =  -286.9452070726 ; +0.6039 kcal/mol
C        1.4149286539    0.9245569557   -0.0770219199
C        0.3441420664   -1.3471178278   -0.4028218185
C       -0.9356235186   -1.1200128570    0.0346225413
C       -1.4963328724    0.1598264000    0.4006965071
C       -0.8637902324    1.3699945404    0.5029713094
N        0.4671881076    1.7342056962    0.3855421232
H        2.3918573676    1.4130568009   -0.1328121829
H        0.5637232403   -2.3624330822   -0.7298967518
H       -1.6124459185   -1.9699632434    0.0511352051
H       -2.5676028924    0.1720558217    0.5906725118
H       -1.4937826986    2.2234959849    0.7491759779
C        1.4181534994   -0.4116989832   -0.5027315051
H        2.3695851976   -0.7859662063   -0.8695319976
13   
Frame   9 IRC: Energy =  -286.9440723667 ; +1.3159 kcal/mol
C        1.4212499551    0.9268351330   -0.0401839993
C        0.3481694295   -1.3474778547   -0.3910146888
C       -0.9289948852   -1.1287404432    0.0819365724
C       -1.4952266731    0.1582720216    0.3991167290
C       -0.8622545454    1.3652518723    0.4926591506
N        0.4840495771    1.7045833575    0.4542323964
H        2.4027692450    1.4093492868   -0.0689999479
H        0.5654106129   -2.3585778902   -0.7327663708
H       -1.6004205698   -1.9818047890    0.1165018150
H       -2.5751869511    0.1818961339    0.5341823043
H       -1.4931946569    2.2332951463    0.6764862954
C        1.4006782031   -0.4002631183   -0.5485003592
H        2.3329512590   -0.7626188561   -0.9736498971
13   
Frame  10 IRC: Energy =  -286.9430518191 ; +1.9563 kcal/mol
C        1.4329897770    0.9381955271   -0.0149228755
C        0.3472480377   -1.3463771503   -0.4023215830
C       -0.9226245357   -1.1366671909    0.1078269514
C       -1.4932466816    0.1548072427    0.3938475268
C       -0.8596517377    1.3605170479    0.4779660572
N        0.4919036029    1.6868269886    0.4961675171
H        2.4260192080    1.3960058053   -0.0116372008
H        0.5650893409   -2.3602753858   -0.7361356311
H       -1.5865222102   -1.9931976115    0.1748441115
H       -2.5758195577    0.1844497096    0.5084509506
H       -1.4905658367    2.2365030758    0.6191733345
C        1.3749392673   -0.3796166392   -0.5767147633
H        2.2902413257   -0.7411714193   -1.0365443955
13   
Frame  11 IRC: Energy =  -286.9423427986 ; +2.4013 kcal/mol
C        1.4333028341    0.9299753914    0.0031179180
C        0.3413286977   -1.3343688305   -0.4201106319
C       -0.9220058013   -1.1332864415    0.1195762304
C       -1.5010910333    0.1582004454    0.3790894209
C       -0.8668433888    1.3655860091    0.4601614736
N        0.4862066151    1.6709096683    0.5222205811
H        2.4421778706    1.3463342173    0.0596207892
H        0.5846864176   -2.3548365183   -0.7134619768
H       -1.5704092698   -1.9969555249    0.2340686746
H       -2.5831685787    0.1849189335    0.4999623345
H       -1.4935001637    2.2464668356    0.5877993440
C        1.3648540242   -0.3730644564   -0.6311103710
H        2.2844617763   -0.7098797288   -1.1009337865
13   
Frame  12 IRC: Energy =  -286.9410386352 ; +3.2196 kcal/mol
C        1.4281842619    0.9314829855    0.0034403874
C        0.3356164139   -1.3400879140   -0.4396686227
C       -0.9193647831   -1.1294137519    0.1086082233
C       -1.5015592332    0.1629084904    0.3569493086
C       -0.8658649932    1.3693024974    0.4470959595
N        0.4891081774    1.6608021324    0.5234722508
H        2.4422146538    1.3160251025    0.1406356311
H        0.5996258648   -2.3744622599   -0.6585634011
H       -1.5562649466   -1.9946110434    0.2701065127
H       -2.5815004529    0.1844262788    0.4973902741
H       -1.4872561399    2.2515114571    0.5871500800
C        1.3486198643   -0.3531515647   -0.6808092758
H        2.2684413129   -0.6847324103   -1.1558073279
13   
Frame  13 IRC: Energy =  -286.9389403313 ; +4.5363 kcal/mol
C        1.4347467882    0.9206405389    0.0063883747
C        0.3449110631   -1.3268275985   -0.4447800126
C       -0.9110474320   -1.1156147543    0.0936958998
C       -1.5078153250    0.1682712599    0.3324645434
C       -0.8739109000    1.3736640990    0.4335135747
N        0.4801662121    1.6485656672    0.5111875987
H        2.4537331508    1.2527702597    0.2199265225
H        0.6313775320   -2.3691640739   -0.5867845509
H       -1.5308483687   -1.9867915344    0.2907625774
H       -2.5834810544    0.1776475929    0.5019415756
H       -1.4892570491    2.2553843223    0.5971036416
C        1.3185758283   -0.3319424713   -0.7353541785
H        2.2328495547   -0.6666033075   -1.2200655663
13   
Frame  14 IRC: Energy =  -286.9356725291 ; +6.5869 kcal/mol
C        1.4156252930    0.8956586343    0.0082353946
C        0.3404200377   -1.3257356180   -0.4753437543
C       -0.9004797646   -1.1025982710    0.0841383212
C       -1.5107087444    0.1758476988    0.3139694064
C       -0.8791738567    1.3869289779    0.4133150478
N        0.4745984522    1.6413694564    0.4952597071
H        2.4298674796    1.1654387098    0.3171996504
H        0.6426043050   -2.3719271130   -0.5384110563
H       -1.4984150962   -1.9775136245    0.3313456966
H       -2.5795472863    0.1747374546    0.5200352452
H       -1.4886259566    2.2695030514    0.5921289739
C        1.3116503958   -0.3138571129   -0.7934298665
H        2.2421847415   -0.6178522441   -1.2684427661
13   
Frame  15 IRC: Energy =  -286.9308517558 ; +9.6120 kcal/mol
C        1.4063070855    0.8665288230    0.0118744555
C        0.3558285081   -1.3137726730   -0.4705855870
C       -0.8871308762   -1.0851502317    0.0695517550
C       -1.5143017972    0.1826942086    0.2912786623
C       -0.8832505338    1.3946561526    0.4022092860
N        0.4689463735    1.6290571156    0.4772413589
H        2.4086575784    1.0763111752    0.3989530872
H        0.6782032738   -2.3563931143   -0.4619855762
H       -1.4670134368   -1.9655044825    0.3418380948
H       -2.5772080567    0.1706642672    0.5233883942
H       -1.4853722370    2.2772473915    0.6028851670
C        1.2864801559   -0.2863772211   -0.8491152458
H        2.2098539624   -0.5899614111   -1.3375338520
13   
Frame  16 IRC: Energy =  -286.9242552792 ; +13.7514 kcal/mol
C        1.3803653290    0.8206807440    0.0168336239
C        0.3681568360   -1.3012137256   -0.4755933780
C       -0.8735292235   -1.0653050569    0.0609414543
C       -1.5173341250    0.1916730841    0.2732410123
C       -0.8863574816    1.4072984681    0.3874998317
N        0.4616511520    1.6173913510    0.4630185801
H        2.3615019430    0.9669310530    0.4835251060
H        0.7111056021   -2.3347424055   -0.3962788675
H       -1.4314512431   -1.9515768472    0.3601158151
H       -2.5733631786    0.1730833277    0.5313035055
H       -1.4828313990    2.2896110774    0.6062980332
C        1.2777058574   -0.2636956392   -0.9103469827
H        2.2043799313   -0.5501354309   -1.4005577339
13   
Frame  17 IRC: Energy =  -286.9159210826 ; +18.9811 kcal/mol
C        1.3511916988    0.7695057895    0.0242057985
C        0.3900046543   -1.2807116757   -0.4589643540
C       -0.8632175121   -1.0467556581    0.0561912210
C       -1.5199226655    0.1981511247    0.2580596008
C       -0.8831511362    1.4169452112    0.3823489901
N        0.4582650518    1.6059422465    0.4554065945
H        2.3096290384    0.8595091479    0.5504806472
H        0.7610312651   -2.2994964542   -0.3230100880
H       -1.4030897604   -1.9415458950    0.3607684499
H       -2.5732557215    0.1788212361    0.5238782285
H       -1.4762631248    2.2996582575    0.6115631010
C        1.2671538435   -0.2379372838   -0.9654189844
H        2.1816243685   -0.5220860465   -1.4755092050
13   
Frame  18 IRC: Energy =  -286.9071210107 ; +24.5033 kcal/mol
C        1.3205699865    0.7126926877    0.0397610566
C        0.4113931276   -1.2468722942   -0.4492580824
C       -0.8609512139   -1.0316710215    0.0592188697
C       -1.5262088535    0.2000873440    0.2475025991
C       -0.8759025700    1.4233763558    0.3754387613
N        0.4555844113    1.5921240799    0.4553863928
H        2.2568267468    0.7614653980    0.6088403944
H        0.8162676477   -2.2441539866   -0.2578237489
H       -1.3801809844   -1.9361877440    0.3684641942
H       -2.5790917284    0.1852084186    0.5141225438
H       -1.4657801464    2.3089521836    0.6060232500
C        1.2632356960   -0.2194878785   -1.0186743932
H        2.1642378807   -0.5055335427   -1.5490018373
13   
Frame  19 IRC: Energy =  -286.8993932245 ; +29.3525 kcal/mol
C        1.3121752751    0.6524662739    0.0692880020
C        0.4410262222   -1.1971078596   -0.3960289249
C       -0.8668712185   -1.0218034667    0.0720552130
C       -1.5361374547    0.1943429237    0.2381065741
C       -0.8699966899    1.4199314789    0.3740078689
N        0.4536932239    1.5693187013    0.4700457720
H        2.2543680510    0.6778138434    0.6292293460
H        0.8807621224   -2.1756910027   -0.1875322853
H       -1.3838908518   -1.9358760096    0.3554073095
H       -2.5938368927    0.1834933144    0.4855531242
H       -1.4576623898    2.3095469720    0.5953349689
C        1.2449814774   -0.2030988123   -1.0636379795
H        2.1213891254   -0.4733363568   -1.6418289889
13   
Frame  20 IRC: Energy =  -286.8881204818 ; +36.4263 kcal/mol
C        1.2856904661    0.5872204771    0.0714571004
C        0.4609263196   -1.1708652851   -0.3817829296
C       -0.8811676134   -1.0169932366    0.0807937988
C       -1.5575486728    0.1964500073    0.2352854616
C       -0.8682770985    1.4316030055    0.3788355790
N        0.4321966227    1.5558317480    0.4877647244
H        2.2085452824    0.5761464178    0.6485621442
H        0.9115690869   -2.1365884240   -0.1365742049
H       -1.3837113858   -1.9415422441    0.3560070893
H       -2.6166886698    0.1986067126    0.4731263552
H       -1.4438748731    2.3315402591    0.5974631471
C        1.2800973578   -0.1892735158   -1.1220571314
H        2.1722431777   -0.4221359220   -1.6888811340
13   
Frame  21 IRC: Energy =  -286.8838331417 ; +39.1166 kcal/mol
C        1.2776750394    0.5316713515    0.0984725171
C        0.4930573485   -1.1169140472   -0.3238410693
C       -0.8819534715   -1.0078239775    0.0843251534
C       -1.5593332823    0.1885480754    0.2218809971
C       -0.8589857700    1.4260268623    0.3771994271
N        0.4368411360    1.5360176261    0.5009665095
H        2.2125899472    0.4996073916    0.6562134297
H        0.9779914242   -2.0618396277   -0.0657902379
H       -1.3828631232   -1.9406183926    0.3338976939
H       -2.6217451909    0.1901930034    0.4461800030
H       -1.4344032390    2.3270321554    0.5904940877
C        1.2397052061   -0.1767854593   -1.1507059370
H        2.1014239756   -0.3951149614   -1.7692925744
13   
Frame  22 IRC: Energy =  -286.8811110850 ; +40.8248 kcal/mol
C        1.2786118203    0.4818917016    0.1335919276
C        0.5237081173   -1.0663996560   -0.2594479123
C       -0.8777585756   -1.0012277512    0.0802708154
C       -1.5542988634    0.1791087933    0.1981194091
C       -0.8454038479    1.4160462825    0.3682185902
N        0.4476602926    1.5126529359    0.5122373522
H        2.2248007443    0.4216506905    0.6716263514
H        1.0450619799   -1.9900499015    0.0025692218
H       -1.3760662531   -1.9379630231    0.3203435472
H       -2.6175335222    0.1771863330    0.4209428498
H       -1.4212764911    2.3172235425    0.5761124135
C        1.1804503030   -0.1552360177   -1.1670498855
H        1.9920442959   -0.3548839297   -1.8575346804
13   
Frame  23 IRC: Energy =  -286.8798999733 ; +41.5848 kcal/mol
C        1.2656636017    0.4588068617    0.1186020060
C        0.5449131251   -1.0423668086   -0.2168440145
C       -0.8830129599   -0.9951079256    0.0759795467
C       -1.5602694948    0.1761071523    0.2077719475
C       -0.8436995842    1.4172070774    0.3960251864
N        0.4448139772    1.5214497137    0.5058196192
H        2.2289230159    0.4339410867    0.6281667693
H        1.0621849739   -1.9564943454    0.0820225909
H       -1.3892531548   -1.9442037734    0.2384295000
H       -2.6299806955    0.1770255735    0.3947360294
H       -1.4214637544    2.3123939550    0.6277541416
C        1.1833805606   -0.1723211580   -1.1881420716
H        1.9978003893   -0.3864374093   -1.8703212508
13   
Frame  24 IRC: Energy =  -286.8793135236 ; +41.9528 kcal/mol
C        1.2668622217    0.4479768048    0.1105001475
C        0.5599881466   -1.0262458899   -0.1726535073
C       -0.8848781815   -0.9917380658    0.0731586984
C       -1.5651066034    0.1734181067    0.2125163569
C       -0.8431332896    1.4157026579    0.4135990894
N        0.4431353114    1.5272451693    0.4995748509
H        2.2468907088    0.4584839048    0.5889962436
H        1.0736555072   -1.9392390552    0.1345812093
H       -1.3940961718   -1.9476359910    0.1750558963
H       -2.6394710164    0.1766395549    0.3687696038
H       -1.4215688144    2.3039040323    0.6717381382
C        1.1755160522   -0.1876470745   -1.1935100734
H        1.9822061291   -0.4108641544   -1.8823266538
13   
Frame  25 IRC: Energy =  -286.8786502357 ; +42.3690 kcal/mol
C        1.2648582207    0.4449386682    0.0990336512
C        0.5722004903   -1.0096925192   -0.1476837849
C       -0.8842994303   -0.9865600778    0.0750795453
C       -1.5693951788    0.1718032993    0.2157841397
C       -0.8449204872    1.4134520814    0.4339873140
N        0.4383247466    1.5330150854    0.4948483524
H        2.2524174699    0.4932822840    0.5590344960
H        1.0816584288   -1.9219545331    0.1661966995
H       -1.3906856615   -1.9471217478    0.1378874117
H       -2.6480180673    0.1769422136    0.3372309237
H       -1.4228882405    2.2962319877    0.7125882811
C        1.1776530772   -0.1936453149   -1.2015315736
H        1.9730946323   -0.4706914269   -1.8824554560
13   
Frame  26 IRC: Energy =  -286.8767601011 ; +43.5551 kcal/mol
C        1.2688538806    0.4481372901    0.0936738200
C        0.5889295473   -0.9875426743   -0.0999024570
C       -0.8786563396   -0.9812335577    0.0801839805
C       -1.5724456178    0.1714016100    0.2144996335
C       -0.8486418880    1.4116081128    0.4508364733
N        0.4328905340    1.5379608835    0.4954762069
H        2.2676909149    0.5405965147    0.5225847020
H        1.1031378306   -1.9069229534    0.1796700460
H       -1.3791792470   -1.9463710975    0.1012259680
H       -2.6546227541    0.1777511680    0.2976131202
H       -1.4274667999    2.2854347024    0.7553343567
C        1.1718813008   -0.1919010242   -1.2045793076
H        1.9276286382   -0.5589189743   -1.8866165424
13   
Frame  27 IRC: Energy =  -286.8733279221 ; +45.7088 kcal/mol
C        1.2683501386    0.4537465693    0.0916294677
C        0.6009788422   -0.9709142720   -0.0567057977
C       -0.8719958559   -0.9791113409    0.0816360969
C       -1.5697248624    0.1703398437    0.2099612526
C       -0.8477664895    1.4085921680    0.4666758098
N        0.4328148711    1.5423148784    0.5022871667
H        2.2732297903    0.5704719478    0.4986631999
H        1.1245651288   -1.8942017577    0.1865267501
H       -1.3684937155   -1.9462827470    0.0781869779
H       -2.6536874085    0.1767711909    0.2648425819
H       -1.4292124676    2.2776170847    0.7795727143
C        1.1645570909   -0.1760706773   -1.2147535904
H        1.8763849375   -0.6332728879   -1.8885226298
13   
Frame  28 IRC: Energy =  -286.8680929884 ; +48.9938 kcal/mol
C        1.2640143501    0.4695471013    0.0888242249
C        0.6261641949   -0.9362642193   -0.0263932246
C       -0.8542007431   -0.9699357130    0.0796893241
C       -1.5610648881    0.1693133342    0.2103763952
C       -0.8496231035    1.4124990096    0.4795464163
N        0.4285490265    1.5585562065    0.4968836329
H        2.2700230263    0.6167731248    0.4756330405
H        1.1710388534   -1.8559399999    0.1728876306
H       -1.3415144215   -1.9407336749    0.0522449889
H       -2.6458773203    0.1690572726    0.2456779236
H       -1.4372029239    2.2726836698    0.8056619242
C        1.1436184331   -0.2016434764   -1.2101064180
H        1.7860755160   -0.7639126353   -1.8709258585
13   
Frame  29 IRC: Energy =  -286.8624516529 ; +52.5337 kcal/mol
C        1.2589818051    0.4750247421    0.0864049957
C        0.6369777491   -0.9198915398    0.0121166431
C       -0.8415610162   -0.9681597575    0.0776115251
C       -1.5525534583    0.1688951171    0.2064202853
C       -0.8471164640    1.4114266419    0.4924658300
N        0.4305093804    1.5649853556    0.5002943917
H        2.2677422967    0.6362322263    0.4557499081
H        1.2000560187   -1.8351503473    0.1706980082
H       -1.3276573100   -1.9385231923    0.0331597236
H       -2.6377041167    0.1664809538    0.2215942868
H       -1.4382752534    2.2666692031    0.8253186093
C        1.1232865865   -0.1955530494   -1.2274697678
H        1.7273137820   -0.8324363537   -1.8543644392
13   
Frame  30 IRC: Energy =  -286.8531469396 ; +58.3725 kcal/mol
C        1.2413344840    0.4838682143    0.0776710319
C        0.6463580090   -0.8880191294    0.0454426009
C       -0.8198848005   -0.9638786671    0.0711751801
C       -1.5347628291    0.1663658098    0.2045508110
C       -0.8377093251    1.4090549818    0.5092237438
N        0.4378336770    1.5808231115    0.4975398890
H        2.2491345098    0.6586988490    0.4332591055
H        1.2442760022   -1.7857480812    0.1552056384
H       -1.3056515210   -1.9333667556    0.0148999170
H       -2.6195511198    0.1548158297    0.2008587791
H       -1.4340755890    2.2603239345    0.8430647945
C        1.0739733584   -0.2159131075   -1.2448385948
H        1.6587251442   -0.9270249898   -1.8080528964
13   
Frame  31 IRC: Energy =  -286.8432436365 ; +64.5870 kcal/mol
C        1.2266701523    0.4813472291    0.0647205289
C        0.6435670946   -0.8600656323    0.0682123369
C       -0.7965113190   -0.9617537996    0.0635683367
C       -1.5255342195    0.1678923142    0.2069427668
C       -0.8366782699    1.4094903776    0.5172293983
N        0.4401899613    1.5928739590    0.4878092655
H        2.2454338807    0.6236704838    0.4124545703
H        1.2746429060   -1.7376760800    0.1335819984
H       -1.2799050683   -1.9329664264    0.0084067137
H       -2.6098862342    0.1419329316    0.1952634797
H       -1.4358729857    2.2550844229    0.8600627277
C        1.0279116328   -0.1992294998   -1.2780193881
H        1.6259724690   -0.9806002801   -1.7402327347
13   
Frame  32 IRC: Energy =  -286.8378266924 ; +67.9862 kcal/mol
C        1.2183631460    0.4652644806    0.0576450033
C        0.6300464961   -0.8668034397    0.0954972384
C       -0.7932187936   -0.9680555253    0.0638973570
C       -1.5269034740    0.1709695211    0.2039761999
C       -0.8375042430    1.4060418825    0.5236194485
N        0.4422231551    1.5851810938    0.4945585703
H        2.2445229771    0.5744643708    0.4078369664
H        1.2698973502   -1.7392493564    0.1394189642
H       -1.2815685593   -1.9373314052    0.0125532481
H       -2.6110214113    0.1452729731    0.1795620979
H       -1.4347134639    2.2515637748    0.8696376370
C        1.0457285855   -0.1234590369   -1.3350221135
H        1.6341482351   -0.9638593334   -1.7131806174
13   
Frame  33 IRC: Energy =  -286.8318607255 ; +71.7299 kcal/mol
C        1.2061548145    0.4238078235    0.0487493664
C        0.5933273397   -0.9033249780    0.1228474262
C       -0.8130799428   -0.9840193813    0.0745011515
C       -1.5418049279    0.1775872661    0.1994429389
C       -0.8405139839    1.3989371255    0.5277306654
N        0.4447248248    1.5543669644    0.5106475337
H        2.2352174220    0.4875539051    0.4186236117
H        1.2270721598   -1.7810787683    0.1636926498
H       -1.3164538820   -1.9464606503    0.0337155827
H       -2.6256607807    0.1655043962    0.1584048009
H       -1.4275181517    2.2520377584    0.8719009285
C        1.1216452951    0.0076699257   -1.4112989748
H        1.7368898130   -0.8525813870   -1.7189576808
13   
Frame  34 IRC: Energy =  -286.8237616669 ; +76.8121 kcal/mol
C        1.1951113283    0.3683892331    0.0364396077
C        0.5460615409   -0.9597625626    0.1385322377
C       -0.8469053792   -1.0057322538    0.0866172320
C       -1.5626337840    0.1850339275    0.1894070075
C       -0.8419056558    1.3862457607    0.5313085474
N        0.4497738906    1.5059967518    0.5367323790
H        2.2246626206    0.3874694652    0.4271714845
H        1.1596232655   -1.8508911124    0.2055619280
H       -1.3718533589   -1.9574746760    0.0640736702
H       -2.6456714629    0.1960801809    0.1302877825
H       -1.4131910434    2.2516286946    0.8704780880
C        1.2285144681    0.1701171330   -1.4632120790
H        1.8784135702   -0.6771005420   -1.7533978855
13   
Frame  35 IRC: Energy =  -286.8156937466 ; +81.8748 kcal/mol
C        1.1804440309    0.3217498528    0.0158356382
C        0.5095898202   -1.0111590162    0.1401998332
C       -0.8729546909   -1.0253016670    0.0873091619
C       -1.5738176419    0.1920373804    0.1697325690
C       -0.8380305572    1.3715597985    0.5418312677
N        0.4584136821    1.4570957798    0.5732578240
H        2.2159582258    0.3056262955    0.4054520377
H        1.1044025785   -1.9103919839    0.2558617825
H       -1.4173807295   -1.9664997656    0.0881877982
H       -2.6551521514    0.2258826850    0.0907415041
H       -1.3965336152    2.2438662218    0.8837408516
C        1.3142020494    0.3220803362   -1.4831177849
H        1.9708589992   -0.5265459173   -1.7690324834
13   
Frame  36 IRC: Energy =  -286.8095607561 ; +85.7233 kcal/mol
C        1.1688332653    0.2963545874    0.0047018172
C        0.4999403640   -1.0442244840    0.1411481499
C       -0.8760383017   -1.0400737217    0.0790328357
C       -1.5627096258    0.1957318442    0.1379432642
C       -0.8240347718    1.3549233631    0.5620387327
N        0.4731410424    1.4144582621    0.6282693670
H        2.2198993720    0.2662032382    0.3573992844
H        1.0851117836   -1.9403123855    0.3168635264
H       -1.4320065750   -1.9743040608    0.0962046635
H       -2.6409763108    0.2480009719    0.0320440254
H       -1.3778234579    2.2318754934    0.8992594291
C        1.3114770047    0.4246812462   -1.4802431060
H        1.9551862110   -0.4333143546   -1.7746619895
13   
Frame  37 IRC: Energy =  -286.7998590884 ; +91.8112 kcal/mol
C        1.1698594108    0.2771799754    0.0108847146
C        0.4986479295   -1.0602357358    0.1514866305
C       -0.8776386289   -1.0508714921    0.0708001299
C       -1.5541472536    0.1915102974    0.1083838137
C       -0.8111121507    1.3357101431    0.5760920523
N        0.4834827074    1.3730941038    0.6893212998
H        2.2316593812    0.2341804792    0.3292907069
H        1.0771835897   -1.9442056678    0.3971353228
H       -1.4343350467   -1.9844902582    0.0976648894
H       -2.6293936477    0.2607577931   -0.0251631317
H       -1.3549979058    2.2248807250    0.8935843275
C        1.3025036149    0.5039125648   -1.4658634729
H        1.8982879999   -0.3614229280   -1.8336172828
13   
Frame  38 IRC: Energy =  -286.7945566753 ; +95.1385 kcal/mol
C        1.1756505708    0.2468381039    0.0216075067
C        0.4897425091   -1.0833163126    0.1674297993
C       -0.8862006064   -1.0665255361    0.0682293051
C       -1.5494039838    0.1857892585    0.0753323223
C       -0.7969094604    1.3096491434    0.5857354067
N        0.4942407591    1.3134549351    0.7515048011
H        2.2432850330    0.1861917361    0.3165591529
H        1.0585177349   -1.9515824486    0.4814872720
H       -1.4429263716   -1.9994813343    0.1110102981
H       -2.6207396700    0.2795248814   -0.0870394123
H       -1.3168505930    2.2214503760    0.8729880984
C        1.2897842386    0.5914345577   -1.4426533350
H        1.8618098397   -0.2334273605   -1.9221912154
13   