13   
Frame   0 IRC: Energy =  -286.9461694368 ; +0.0000 kcal/mol
C        1.4113439058    0.9279868202   -0.1214774014
C        0.3411742622   -1.3623408443   -0.3958544430
C       -0.9494972114   -1.1076391625   -0.0315613460
C       -1.4951265086    0.1572162177    0.3914505218
C       -0.8444186020    1.3723864335    0.5197230755
N        0.4343506237    1.7645751341    0.3054423976
H        2.3686987309    1.4397646451   -0.2315093693
H        0.5835995520   -2.3813001994   -0.6890341638
H       -1.6480873279   -1.9408130715   -0.0590465328
H       -2.5523210172    0.1640669047    0.6442555290
H       -1.4730296765    2.1962520457    0.8613507670
C        1.4303804095   -0.4194756091   -0.4370979885
H        2.3929328596   -0.8106793138   -0.7566410465
13   
Frame   1 IRC: Energy =  -286.9458483805 ; +0.2015 kcal/mol
C        1.4094510737    0.9258147287   -0.1147766307
C        0.3407881049   -1.3563203179   -0.4013312911
C       -0.9454470916   -1.1119847052   -0.0151004680
C       -1.4955920332    0.1602683571    0.3986651011
C       -0.8561545102    1.3693228427    0.5162513786
N        0.4496528600    1.7580285424    0.3220729309
H        2.3711165262    1.4364530422   -0.2048465843
H        0.5687118475   -2.3764736416   -0.7051702181
H       -1.6364562231   -1.9510342077   -0.0279462664
H       -2.5580547584    0.1661922809    0.6304785625
H       -1.4784818474    2.2053012864    0.8336714663
C        1.4332887687   -0.4210917750   -0.4542597327
H        2.3971772830   -0.8044764330   -0.7777082482
13   
Frame   2 IRC: Energy =  -286.9452958979 ; +0.5482 kcal/mol
C        1.4141502768    0.9247078084   -0.0822520251
C        0.3436672585   -1.3483930099   -0.4026096993
C       -0.9369650583   -1.1189151145    0.0277740264
C       -1.4962229054    0.1598983907    0.4004520814
C       -0.8627634251    1.3698983532    0.5048150042
N        0.4648110675    1.7375119161    0.3767989262
H        2.3889620258    1.4162973401   -0.1427717109
H        0.5643277642   -2.3643794309   -0.7265382051
H       -1.6157308325   -1.9673751519    0.0402484695
H       -2.5663026529    0.1712626724    0.5961170990
H       -1.4916897892    2.2209984543    0.7608393809
C        1.4202918048   -0.4130084368   -0.4960363642
H        2.3734644658   -0.7885037912   -0.8568369831
13   
Frame   3 IRC: Energy =  -286.9443614586 ; +1.1345 kcal/mol
C        1.4196394611    0.9262547160   -0.0495692898
C        0.3471433680   -1.3473861297   -0.3940228212
C       -0.9306836789   -1.1265168939    0.0698822566
C       -1.4955085023    0.1586680345    0.3995192130
C       -0.8626457963    1.3664601739    0.4952864055
N        0.4797537377    1.7121303159    0.4367320011
H        2.3999891983    1.4102938596   -0.0852575530
H        0.5649807167   -2.3595600872   -0.7320352707
H       -1.6034842985   -1.9787878884    0.0998481978
H       -2.5732547412    0.1793890926    0.5485744579
H       -1.4933444737    2.2307985891    0.6950056304
C        1.4051304287   -0.4031766626   -0.5368397120
H        2.3422845805   -0.7685671198   -0.9471235155
13   
Frame   4 IRC: Energy =  -286.9432129629 ; +1.8552 kcal/mol
C        1.4311360664    0.9364017280   -0.0189115912
C        0.3473935249   -1.3465509508   -0.4005362314
C       -0.9236304099   -1.1354155624    0.1037388767
C       -1.4935593210    0.1553543291    0.3946795306
C       -0.8600627194    1.3612646737    0.4802860875
N        0.4906634571    1.6896307082    0.4895459877
H        2.4223480533    1.3981127327   -0.0206947428
H        0.5651400696   -2.3600073523   -0.7356036270
H       -1.5887167525   -1.9913986919    0.1656318992
H       -2.5757196695    0.1840465016    0.5125139153
H       -1.4909809257    2.2359965457    0.6282230153
C        1.3790034292   -0.3828767054   -0.5722597265
H        2.2969851976   -0.7445579562   -1.0266133934
13   
Frame   5 IRC: Energy =  -286.9423272347 ; +2.4110 kcal/mol
C        1.4332417489    0.9299933831    0.0031217664
C        0.3412605271   -1.3344370823   -0.4203440378
C       -0.9219742833   -1.1332402247    0.1194453378
C       -1.5010966208    0.1582566314    0.3788251999
C       -0.8668317126    1.3656303618    0.4600055492
N        0.4862412425    1.6707890445    0.5222355185
H        2.4421783095    1.3459725070    0.0605876237
H        0.5848647056   -2.3550707328   -0.7128068150
H       -1.5702404708   -1.9969275458    0.2344987516
H       -2.5831486712    0.1849130542    0.4999316395
H       -1.4934256473    2.2465270383    0.5877915957
C        1.3646602850   -0.3728268151   -0.6317034798
H        2.2842705875   -0.7095796197   -1.1015886496
13   
Frame   6 IRC: Energy =  -286.9405599108 ; +3.5200 kcal/mol
C        1.4296814908    0.9290093003    0.0041129656
C        0.3377369719   -1.3370625962   -0.4408347774
C       -0.9174671940   -1.1262655347    0.1052060028
C       -1.5029865496    0.1641319969    0.3513631522
C       -0.8677006527    1.3702975892    0.4439971622
N        0.4870680836    1.6580104042    0.5206695289
H        2.4448425787    1.3015936207    0.1587257094
H        0.6068699522   -2.3732534880   -0.6421871819
H       -1.5504661988   -1.9928270361    0.2748191578
H       -2.5819523237    0.1828797334    0.4984286455
H       -1.4877126439    2.2523950445    0.5894209677
C        1.3417653700   -0.3483127471   -0.6932536000
H        2.2603211155   -0.6805962872   -1.1704677327
13   
Frame   7 IRC: Energy =  -286.9380894786 ; +5.0703 kcal/mol
C        1.4297680364    0.9141358853    0.0068692918
C        0.3437417142   -1.3265432745   -0.4527380348
C       -0.9082958798   -1.1122255926    0.0912073491
C       -1.5085686979    0.1702439722    0.3276488794
C       -0.8752812402    1.3771179366    0.4282543912
N        0.4787165088    1.6466919567    0.5070403802
H        2.4475191360    1.2300313418    0.2452539749
H        0.6343006986   -2.3698834991   -0.5741893213
H       -1.5224035681   -1.9843758022    0.3013293911
H       -2.5824568010    0.1768898668    0.5066527077
H       -1.4890927287    2.2590604808    0.5958083645
C        1.3167726215   -0.3272335032   -0.7504756129
H        2.2352802003   -0.6539097686   -1.2326617607
13   
Frame   8 IRC: Energy =  -286.9345942113 ; +7.2636 kcal/mol
C        1.4135409824    0.8891428347    0.0090493851
C        0.3438666273   -1.3230597286   -0.4742794404
C       -0.8974938654   -1.0986954675    0.0808755763
C       -1.5115124438    0.1773791364    0.3088939069
C       -0.8800857339    1.3886574039    0.4108308944
N        0.4733341868    1.6386154137    0.4912293361
H        2.4251232173    1.1455025299    0.3354863811
H        0.6505671355   -2.3684524450   -0.5213160909
H       -1.4913911262   -1.9748274017    0.3336926519
H       -2.5790240439    0.1738263580    0.5207852826
H       -1.4878981598    2.2712353170    0.5945349352
C        1.3060202790   -0.3077103697   -0.8058856552
H        2.2349529446   -0.6116135809   -1.2838971633
13   
Frame   9 IRC: Energy =  -286.9298615349 ; +10.2334 kcal/mol
C        1.4024128749    0.8596464026    0.0126188942
C        0.3576791579   -1.3118874041   -0.4713373246
C       -0.8850890831   -1.0821712010    0.0682592317
C       -1.5147569908    0.1840420600    0.2885709656
C       -0.8837169289    1.3965539361    0.4000011968
N        0.4678512615    1.6273059256    0.4751063263
H        2.4015788759    1.0598917306    0.4116484979
H        0.6831423610   -2.3531430484   -0.4521221052
H       -1.4616750677   -1.9634137549    0.3445818293
H       -2.5766308882    0.1710274011    0.5245765601
H       -1.4849908227    2.2791033490    0.6033974846
C        1.2851630143   -0.2829724070   -0.8583069626
H        2.2090322359   -0.5839829896   -1.3469945942
13   
Frame  10 IRC: Energy =  -286.9240558648 ; +13.8765 kcal/mol
C        1.3796672842    0.8194562681    0.0170100197
C        0.3686795942   -1.3007231679   -0.4751954912
C       -0.8732824926   -1.0648612208    0.0608277943
C       -1.5173960616    0.1918280858    0.2728777628
C       -0.8862807626    1.4075292881    0.3873765863
N        0.4615701319    1.6171174054    0.4628364463
H        2.3602607670    0.9643607421    0.4851271680
H        0.7123001860   -2.3338990668   -0.3945257470
H       -1.4307726308   -1.9513368340    0.3601314308
H       -2.5733606074    0.1732206201    0.5311258390
H       -1.4826742382    2.2898514788    0.6064240118
C        1.2774533767   -0.2630793125   -0.9116647043
H        2.2038354532   -0.5494642863   -1.4023511166
13   
Frame  11 IRC: Energy =  -286.9168803689 ; +18.3792 kcal/mol
C        1.3545496546    0.7753961512    0.0233572432
C        0.3874899173   -1.2830715115   -0.4608783951
C       -0.8644044151   -1.0488907391    0.0567379844
C       -1.5196247182    0.1974054865    0.2598070182
C       -0.8835201943    1.4158348476    0.3829418645
N        0.4586548002    1.6072600663    0.4562827526
H        2.3155997359    0.8718736706    0.5427739015
H        0.7552846998   -2.3035533489   -0.3314435028
H       -1.4063542361   -1.9427004820    0.3606933301
H       -2.5732680901    0.1781607889    0.5247328959
H       -1.4770191491    2.2985018026    0.6109570789
C        1.2683684059   -0.2409021331   -0.9590800630
H        2.1842435892   -0.5253145989   -1.4668821083
13   
Frame  12 IRC: Energy =  -286.9091880237 ; +23.2062 kcal/mol
C        1.3277625957    0.7260372857    0.0361073454
C        0.4063692763   -1.2548206886   -0.4515379490
C       -0.8614835355   -1.0352141903    0.0585077177
C       -1.5247323164    0.1996325533    0.2499822902
C       -0.8776051562    1.4218657704    0.3770618768
N        0.4562140560    1.5953697728    0.4553911379
H        2.2692292619    0.7844944949    0.5951325112
H        0.8032933988   -2.2571531533   -0.2731351025
H       -1.3855619334   -1.9374462983    0.3666565722
H       -2.5777209325    0.1837081593    0.5164140168
H       -1.4682424505    2.3067691711    0.6073244830
C        1.2641560137   -0.2238213841   -1.0061654473
H        2.1683217220   -0.5094214929   -1.5317394524
13   
Frame  13 IRC: Energy =  -286.9024087479 ; +27.4603 kcal/mol
C        1.3154510449    0.6759677210    0.0577660484
C        0.4294628473   -1.2165268512   -0.4167999147
C       -0.8645611246   -1.0256539668    0.0670462373
C       -1.5322631331    0.1965845015    0.2417730747
C       -0.8723012722    1.4212757328    0.3745662293
N        0.4544311998    1.5782177767    0.4643254144
H        2.2553274790    0.7104562083    0.6212732046
H        0.8555952000   -2.2024065099   -0.2149612987
H       -1.3824431938   -1.9359976541    0.3605023445
H       -2.5880830602    0.1841625794    0.4967014337
H       -1.4608300868    2.3093148747    0.5995057314
C        1.2521046070   -0.2094941253   -1.0460923666
H        2.1381094926   -0.4859002870   -1.6056061383
13   
Frame  14 IRC: Energy =  -286.8938084731 ; +32.8570 kcal/mol
C        1.2990541494    0.6201421480    0.0703626185
C        0.4508851447   -1.1841067420   -0.3889711623
C       -0.8739539501   -1.0194203786    0.0763844903
C       -1.5467450178    0.1953868168    0.2367089362
C       -0.8691447685    1.4257137962    0.3763996170
N        0.4430433602    1.5626369839    0.4788241099
H        2.2316664976    0.6274456845    0.6388072166
H        0.8960245339   -2.1563187712   -0.1622865916
H       -1.3838019406   -1.9386831801    0.3557044529
H       -2.6051581387    0.1909808065    0.4793966442
H       -1.4508317670    2.3204429042    0.5963893127
C        1.2623786155   -0.1962494726   -1.0925800433
H        2.1465832815   -0.4479705956   -1.6651396010
13   
Frame  15 IRC: Energy =  -286.8864897230 ; +37.4496 kcal/mol
C        1.2826416695    0.5660914729    0.0817328491
C        0.4731478737   -1.1503440632   -0.3597438102
C       -0.8814665272   -1.0135055613    0.0821370063
C       -1.5582274777    0.1934443803    0.2301868577
C       -0.8647429921    1.4294820297    0.3782132423
N        0.4339632381    1.5482951277    0.4927862359
H        2.2100837358    0.5470335670    0.6514724338
H        0.9368338922   -2.1081565159   -0.1096503835
H       -1.3833887355   -1.9411908423    0.3475974248
H       -2.6186119990    0.1954064229    0.4628768763
H       -1.4402721846    2.3298255293    0.5948123532
C        1.2647335526   -0.1845234825   -1.1329541658
H        2.1453059541   -0.4118580646   -1.7194669199
13   
Frame  16 IRC: Energy =  -286.8833238042 ; +39.4363 kcal/mol
C        1.2778503251    0.5223568357    0.1050438832
C        0.4987925650   -1.1074620503   -0.3117921480
C       -0.8811685439   -1.0065897251    0.0835665262
C       -1.5583912674    0.1867818447    0.2174348491
C       -0.8564443896    1.4241593468    0.3755189784
N        0.4388655618    1.5316457436    0.5030754525
H        2.2148747697    0.4850205288    0.6590974175
H        0.9905413267   -2.0484066979   -0.0529991622
H       -1.3815913273   -1.9401215333    0.3313615106
H       -2.6209571248    0.1877592612    0.4414577548
H       -1.4319470284    2.3251968175    0.5878030617
C        1.2286177289   -0.1727532370   -1.1537641338
H        2.0809574042   -0.3875871346   -1.7858039901
13   
Frame  17 IRC: Energy =  -286.8812924761 ; +40.7109 kcal/mol
C        1.2785493956    0.4852088938    0.1312516573
C        0.5216656263   -1.0697658095   -0.2637389123
C       -0.8780381130   -1.0016673073    0.0805409864
C       -1.5546343446    0.1797378036    0.1997028223
C       -0.8463089135    1.4167113636    0.3688170509
N        0.4469393308    1.5142099008    0.5114862912
H        2.2239870471    0.4268455314    0.6705992726
H        1.0405925647   -1.9948337905   -0.0019860828
H       -1.3765191796   -1.9381399704    0.3212467619
H       -2.6178141773    0.1780530652    0.4226245910
H       -1.4221512250    2.3178771641    0.5770707725
C        1.1843989025   -0.1566720190   -1.1659607654
H        1.9993330860   -0.3575648257   -1.8516544457
13   
Frame  18 IRC: Energy =  -286.8798883191 ; +41.5921 kcal/mol
C        1.2656874213    0.4585916413    0.1184410017
C        0.5452127036   -1.0420464454   -0.2159658381
C       -0.8830500266   -0.9950409580    0.0759234894
C       -1.5603656203    0.1760537142    0.2078662308
C       -0.8436883305    1.4171771808    0.3963744240
N        0.4447806179    1.5215648839    0.5056955199
H        2.2292800791    0.4344288141    0.6273883526
H        1.0624129222   -1.9561514394    0.0830670627
H       -1.3893493977   -1.9442719802    0.2371701072
H       -2.6301692920    0.1770179024    0.3942200112
H       -1.4214658422    2.3122252389    0.6286282141
C        1.1832242731   -0.1726257225   -1.1882487472
H        1.9974904921   -0.3869228301   -1.8705598283
13   
Frame  19 IRC: Energy =  -286.8789870135 ; +42.1576 kcal/mol
C        1.2658757321    0.4464812516    0.1048556497
C        0.5659997953   -1.0180973271   -0.1603619110
C       -0.8845932854   -0.9891891493    0.0741042546
C       -1.5672176977    0.1726232016    0.2141249557
C       -0.8440130556    1.4145947891    0.4236353975
N        0.4407672626    1.5300854684    0.4972481846
H        2.2496113124    0.4756137560    0.5742472728
H        1.0775950256   -1.9307305758    0.1501442515
H       -1.3924173139   -1.9473828497    0.1567593369
H       -2.6436783880    0.1767885417    0.3532443722
H       -1.4222183151    2.3001273914    0.6918470308
C        1.1765680242   -0.1905997685   -1.1974587373
H        1.9777209034   -0.4403147294   -1.8823900580
13   
Frame  20 IRC: Energy =  -286.8770690750 ; +43.3612 kcal/mol
C        1.2682007237    0.4476144223    0.0945499733
C        0.5861949053   -0.9911634340   -0.1077131078
C       -0.8795787964   -0.9821042658    0.0793495758
C       -1.5719469730    0.1714672728    0.2147096073
C       -0.8480335633    1.4119095400    0.4480821986
N        0.4337788462    1.5371524108    0.4953735736
H        2.2651942169    0.5328622187    0.5285430256
H        1.0996266660   -1.9093801145    0.1774676040
H       -1.3810601614   -1.9464938038    0.1072188892
H       -2.6535431085    0.1776189310    0.3040893075
H       -1.4267183584    2.2871996978    0.7483468014
C        1.1728247934   -0.1921861575   -1.2040811049
H        1.9350608093   -0.5444967178   -1.8859363438
13   
Frame  21 IRC: Energy =  -286.8723627597 ; +46.3144 kcal/mol
C        1.2675507512    0.4566597065    0.0911122664
C        0.6056222546   -0.9645258570   -0.0511170820
C       -0.8687149788   -0.9774196344    0.0812771713
C       -1.5681282267    0.1701505866    0.2100377923
C       -0.8481087926    1.4093124707    0.4690487578
N        0.4320283792    1.5453092849    0.5012909195
H        2.2726385606    0.5790084754    0.4944171395
H        1.1331334689   -1.8871474543    0.1840121117
H       -1.3635195549   -1.9452596670    0.0734040648
H       -2.6522474660    0.1753489791    0.2613092023
H       -1.4306856645    2.2767075132    0.7843827705
C        1.1606966398   -0.1807855230   -1.2138967933
H        1.8597346292   -0.6573588806   -1.8852783208
13   
Frame  22 IRC: Energy =  -286.8667665098 ; +49.8261 kcal/mol
C        1.2628310198    0.4708350895    0.0882553781
C        0.6287068461   -0.9324144200   -0.0173381851
C       -0.8512286938   -0.9695181227    0.0792007597
C       -1.5590635483    0.1692149965    0.2094461731
C       -0.8490337034    1.4122468578    0.4825842299
N        0.4290099754    1.5600679281    0.4976856236
H        2.2694867456    0.6213486516    0.4709578089
H        1.1778618210   -1.8510516132    0.1723727725
H       -1.3382561217   -1.9402139118    0.0477573642
H       -2.6439555094    0.1684514884    0.2400150040
H       -1.4374550667    2.2712694548    0.8102839099
C        1.1388376928   -0.2002114004   -1.2141891591
H        1.7722585424   -0.7800249986   -1.8670316798
13   
Frame  23 IRC: Energy =  -286.8574429677 ; +55.6767 kcal/mol
C        1.2494823318    0.4797851433    0.0817035424
C        0.6420271007   -0.9027347652    0.0300558557
C       -0.8298928072   -0.9658552659    0.0741468696
C       -1.5429768429    0.1675336024    0.2054139558
C       -0.8420526436    1.4101499880    0.5014865393
N        0.4344520162    1.5735107481    0.4988116554
H        2.2577258090    0.6483259078    0.4436432106
H        1.2238594361   -1.8085573306    0.1623585355
H       -1.3158116931   -1.9357475057    0.0233305522
H       -2.6279324404    0.1602016702    0.2104324566
H       -1.4360145930    2.2632535736    0.8348713006
C        1.0967414985   -0.2065127767   -1.2368193289
H        1.6903928280   -0.8833529894   -1.8294351448
13   
Frame  24 IRC: Energy =  -286.8458564674 ; +62.9474 kcal/mol
C        1.2305391058    0.4820123514    0.0681373156
C        0.6443034335   -0.8674407232    0.0622048999
C       -0.8026780447   -0.9623144125    0.0655752828
C       -1.5279690431    0.1674895700    0.2063116868
C       -0.8369502976    1.4093755053    0.5151172322
N        0.4395682927    1.5896945323    0.4903765376
H        2.2464102335    0.6329121674    0.4179435200
H        1.2666310757   -1.7503591220    0.1392870559
H       -1.2866978652   -1.9330720469    0.0101198434
H       -2.6124361624    0.1453318818    0.1967397115
H       -1.4353987708    2.2564667857    0.8555780902
C        1.0400642952   -0.2036312075   -1.2692651573
H        1.6346137476   -0.9664652818   -1.7581260185
13   
Frame  25 IRC: Energy =  -286.8371742593 ; +68.3956 kcal/mol
C        1.2170280533    0.4607308159    0.0566721840
C        0.6260309205   -0.8707974040    0.0984882316
C       -0.7953907919   -0.9698013190    0.0650569789
C       -1.5285330843    0.1716932321    0.2034804463
C       -0.8378333857    1.4052649123    0.5240690477
N        0.4424967356    1.5818112869    0.4963180456
H        2.2435053295    0.5649599163    0.4090165847
H        1.2652140239   -1.7438237852    0.1420735138
H       -1.2853835885   -1.9383297717    0.0148675430
H       -2.6126223602    0.1474854643    0.1772483540
H       -1.4339265907    2.2516156093    0.8698851486
C        1.0540307721   -0.1091188853   -1.3433636861
H        1.6453839665   -0.9516900720   -1.7138123921
13   
Frame  26 IRC: Energy =  -286.8328516646 ; +71.1080 kcal/mol
C        1.2081826019    0.4306937185    0.0502269197
C        0.5994263422   -0.8972587997    0.1183045968
C       -0.8097810326   -0.9813678063    0.0727398755
C       -1.5393298165    0.1764880676    0.2001959074
C       -0.8400140700    1.4001172161    0.5270477978
N        0.4443093008    1.5594851498    0.5079751785
H        2.2367630622    0.5019896165    0.4168319645
H        1.2341853663   -1.7741309592    0.1596608233
H       -1.3106594768   -1.9449442950    0.0302005474
H       -2.6232292011    0.1621439840    0.1619189995
H       -1.4287132834    2.2519590303    0.8715249988
C        1.1090356318   -0.0141104186   -1.3986294908
H        1.7198245752   -0.8710645041   -1.7179981183
13   
Frame  27 IRC: Energy =  -286.8284726294 ; +73.8559 kcal/mol
C        1.2015349699    0.4006244489    0.0435997993
C        0.5735545394   -0.9269346307    0.1294088861
C       -0.8272302083   -0.9931025726    0.0795696968
C       -1.5505183068    0.1807024435    0.1952445867
C       -0.8410961649    1.3936279204    0.5292274083
N        0.4468370111    1.5341321523    0.5215596615
H        2.2308020099    0.4456853723    0.4221994612
H        1.1988561230   -1.8102835120    0.1812079124
H       -1.3396292609   -1.9510681707    0.0464153449
H       -2.6340318912    0.1782952281    0.1466425498
H       -1.4215246626    2.2518666338    0.8713057087
C        1.1663520995    0.0756268053   -1.4330158921
H        1.7960937420   -0.7791721185   -1.7333651236
13   
Frame  28 IRC: Energy =  -286.8240768071 ; +76.6143 kcal/mol
C        1.1955410383    0.3705456102    0.0369185893
C        0.5479006870   -0.9575665358    0.1379219304
C       -0.8455892073   -1.0048873904    0.0861457867
C       -1.5618233183    0.1847441726    0.1897975127
C       -0.8418515048    1.3867395908    0.5311693295
N        0.4495774279    1.5078788714    0.5357173990
H        2.2250733155    0.3913638224    0.4268388806
H        1.1622477503   -1.8481746641    0.2039327644
H       -1.3696977256   -1.9570461123    0.0628924153
H       -2.6448928329    0.1948904552    0.1313818358
H       -1.4137485215    2.2516446115    0.8705334518
C        1.2243561120    0.1637961959   -1.4611921029
H        1.8729067795   -0.6839286273   -1.7520577925
13   
Frame  29 IRC: Energy =  -286.8189089418 ; +79.8572 kcal/mol
C        1.1862891834    0.3403363914    0.0240466494
C        0.5241243839   -0.9906767079    0.1395352697
C       -0.8625736238   -1.0175029430    0.0870334168
C       -1.5693606958    0.1892463925    0.1775731472
C       -0.8395748459    1.3774123892    0.5376377955
N        0.4549705871    1.4765835988    0.5587018503
H        2.2194270663    0.3382421069    0.4141075845
H        1.1264089050   -1.8866799355    0.2358164864
H       -1.3992373445   -1.9629031231    0.0785779327
H       -2.6513739455    0.2140059107    0.1065013282
H       -1.4031718666    2.2469596913    0.8784554283
C        1.2800541785    0.2615205706   -1.4751850429
H        1.9340180180   -0.5865443419   -1.7628018462
13   
Frame  30 IRC: Energy =  -286.8134424509 ; +83.2875 kcal/mol
C        1.1761819557    0.3124277688    0.0117486396
C        0.5060477016   -1.0232966750    0.1405479409
C       -0.8740866215   -1.0307241870    0.0842710913
C       -1.5697401158    0.1933935427    0.1580633636
C       -0.8328929899    1.3654529024    0.5492490160
N        0.4638197957    1.4414444167    0.5934514394
H        2.2174049402    0.2911548952    0.3878128520
H        1.0973213212   -1.9213751531    0.2782542786
H       -1.4227495790   -1.9693645632    0.0911306259
H       -2.6499484895    0.2340018570    0.0691948569
H       -1.3896654980    2.2394646700    0.8894374049
C        1.3132017411    0.3597430376   -1.4820625489
H        1.9651058383   -0.4923225122   -1.7710989603
13   
Frame  31 IRC: Energy =  -286.8064547708 ; +87.6724 kcal/mol
C        1.1691617854    0.2902158424    0.0066812696
C        0.4995265916   -1.0493504804    0.1444580107
C       -0.8765506459   -1.0435306239    0.0763971380
C       -1.5599683855    0.1943803176    0.1284798170
C       -0.8198975994    1.3487722578    0.5665378978
N        0.4764519227    1.4012155421    0.6478151208
H        2.2236643346    0.2559511637    0.3484003336
H        1.0825735752   -1.9415588184    0.3425625125
H       -1.4327520344   -1.9775651682    0.0966721543
H       -2.6372681255    0.2520850636    0.0137291751
H       -1.3705158658    2.2296361209    0.8974425474
C        1.3086041773    0.4500471237   -1.4756394718
H        1.9369702696   -0.4102983408   -1.7935365050
13   
Frame  32 IRC: Energy =  -286.7987091306 ; +92.5328 kcal/mol
C        1.1711153654    0.2705995992    0.0132102141
C        0.4967165715   -1.0652413229    0.1549442963
C       -0.8794955029   -1.0542664541    0.0702425838
C       -1.5531185596    0.1902695503    0.1012157902
C       -0.8080319503    1.3300581785    0.5781834493
N        0.4858158537    1.3601598928    0.7028073115
H        2.2341806879    0.2237729477    0.3265295583
H        1.0731354430   -1.9458055030    0.4154291042
H       -1.4361982855   -1.9877414393    0.1005591674
H       -2.6275168212    0.2648278948   -0.0385825151
H       -1.3467247289    2.2241367700    0.8891175319
C        1.2997451073    0.5228938475   -1.4608297874
H        1.8903768195   -0.3336639616   -1.8528267044
13   
Frame  33 IRC: Energy =  -286.7946869330 ; +95.0568 kcal/mol
C        1.1755083067    0.2475834741    0.0213440935
C        0.4899612773   -1.0827493213    0.1670381437
C       -0.8859902752   -1.0661409831    0.0682924593
C       -1.5495205057    0.1859298001    0.0761442564
C       -0.7972583598    1.3102893509    0.5854985107
N        0.4939764797    1.3149200149    0.7499772180
H        2.2429994404    0.1873706147    0.3168719128
H        1.0589762753   -1.9514012326    0.4794151047
H       -1.4427153194   -1.9991130676    0.1106824584
H       -2.6209522613    0.2790638541   -0.0855193762
H       -1.3177877096    2.2215346450    0.8734940599
C        1.2900966993    0.5892845159   -1.4432235090
H        1.8627059524   -0.2365716653   -1.9200153320
13   
Frame  34 IRC: Energy =  -286.7888877593 ; +98.6958 kcal/mol
C        1.1784897412    0.2259582690    0.0330739641
C        0.4832091178   -1.0984065804    0.1789127491
C       -0.8941319494   -1.0785017868    0.0765112773
C       -1.5485119107    0.1789414041    0.0620654305
C       -0.7834701196    1.2866651361    0.5908026032
N        0.5012070313    1.2649078022    0.7962498196
H        2.2501210556    0.1580413279    0.3138077020
H        1.0501896653   -1.9560505274    0.5207921831
H       -1.4519366091   -2.0107112367    0.1228294834
H       -2.6162759597    0.2922237468   -0.1255502565
H       -1.2744112843    2.2237590220    0.8344376536
C        1.2689334847    0.6418562062   -1.4203752847
H        1.8365877370   -0.1286827828   -1.9835573246
13   
Frame  35 IRC: Energy =  -286.7792022899 ; +104.7736 kcal/mol
C        1.1858326745    0.2191406725    0.0301783747
C        0.4761142280   -1.0986584000    0.1891479063
C       -0.8998665498   -1.0817041770    0.0874438523
C       -1.5628488743    0.1781190676    0.0589221341
C       -0.7847302284    1.2636566847    0.5871445913
N        0.4922757427    1.1847077814    0.8637032202
H        2.2620745791    0.1461952340    0.3070082431
H        1.0475098586   -1.9368986288    0.5641362519
H       -1.4500135255   -2.0170909573    0.1245193505
H       -2.6286727073    0.3041337740   -0.1464875603
H       -1.2316879438    2.2318253957    0.7896355571
C        1.2655731626    0.6743193840   -1.4199681257
H        1.8284395836   -0.0677458310   -2.0353837957
13   
Frame  36 IRC: Energy =  -286.7632034195 ; +114.8130 kcal/mol
C        1.2126694839    0.2575898195   -0.0010728245
C        0.4572804743   -1.0872032610    0.2100695501
C       -0.8886016130   -1.0834052618    0.0964990933
C       -1.5844535260    0.2042088746    0.0821353128
C       -0.8249415394    1.2406330991    0.5632978013
N        0.4846857206    1.0691268744    0.9298298281
H        2.2730478983    0.1450684791    0.3036286131
H        1.0450037520   -1.9052581429    0.5991325635
H       -1.4429089315   -2.0155234003    0.1083254356
H       -2.6441060717    0.3102297935   -0.1521990465
H       -1.2027413872    2.2379714551    0.7599613635
C        1.2819088301    0.6763948826   -1.4356889022
H        1.8331569096   -0.0498332120   -2.0639187881
13   
Frame  37 IRC: Energy =  -286.7538883195 ; +120.6583 kcal/mol
C        1.2420987328    0.2778889648   -0.0434068977
C        0.4493801457   -1.0475269867    0.2479438380
C       -0.9051271560   -1.0679543694    0.0905185325
C       -1.6123727688    0.1980845205    0.1003029480
C       -0.8384423353    1.2133831816    0.5757081358
N        0.4731713194    0.9574248907    0.9490898638
H        2.2852951441    0.1384629648    0.2920617308
H        1.0333414044   -1.8590552485    0.6588964056
H       -1.4366129870   -2.0155510923    0.0714750983
H       -2.6588619024    0.3123750337   -0.1626621155
H       -1.1727787272    2.2308725842    0.7492895139
C        1.2978076288    0.6933934815   -1.4522161598
H        1.8431015015   -0.0317979248   -2.0770008938
13   
Frame  38 IRC: Energy =  -286.7512381033 ; +122.3214 kcal/mol (Transition State)
C        1.2744782754    0.2870952541   -0.0860345101
C        0.4371283478   -0.9790662509    0.3082987767
C       -0.9310093198   -1.0570559789    0.0812354232
C       -1.6347857522    0.1824543923    0.1079931097
C       -0.8363843285    1.1886230491    0.5860433964
N        0.4608753268    0.8539218941    0.9553366105
H        2.3001210577    0.1333729411    0.2827101924
H        1.0232330103   -1.8035026740    0.7050794470
H       -1.4298942538   -2.0202895286    0.0384846977
H       -2.6731455463    0.3106828950   -0.1697950209
H       -1.1481006936    2.2182904630    0.7443835447
C        1.2995422383    0.7027454054   -1.4686432499