
Running Job 1 of 1 qcirc.in
qchem qcirc.in_59002.0 ./qcirc.d/ 1
/home/leeping/opt/qchem/5.0.2-openmp/exe/qcprog.exe_s qcirc.in_59002.0 ./qcirc.d/
Check license passed

                  Welcome to Q-Chem
     A Quantum Leap Into The Future Of Chemistry


 Q-Chem 5.0, Q-Chem, Inc., Pleasanton, CA (2017)

 Yihan Shao,  Zhengting Gan,  E. Epifanovsky,  A. T. B. Gilbert,  M. Wormit,  
 J. Kussmann,  A. W. Lange,  A. Behn,  Jia Deng,  Xintian Feng,  D. Ghosh,  
 M. Goldey,  P. R. Horn,  L. D. Jacobson,  I. Kaliman,  T. Kus,  A. Landau,  
 Jie Liu,  E. I. Proynov,  R. M. Richard,  R. P. Steele,  E. J. Sundstrom,  
 H. L. Woodcock III,  P. M. Zimmerman,  D. Zuev,  B. Albrecht,  E. Alguire,  
 S. A. Baeppler,  D. Barton,  Z. Benda,  Y. A. Bernard,  E. J. Berquist,  
 K. B. Bravaya,  H. Burton,  D. Casanova,  Chun-Min Chang,  Yunqing Chen,  
 A. Chien,  K. D. Closser,  M. P. Coons,  S. Dasgupta,  A. L. Dempwolff,  
 M. Diedenhofen,  Hainam Do,  R. G. Edgar,  Po-Tung Fang,  S. Fatehi,  
 Qingguo Feng,  J. Fosso-Tande,  Qinghui Ge,  A. Ghysels,  G. Gidofalvi,  
 J. Gomes,  J. Gonthier,  A. Gunina,  M. W. D. Hanson-Heine,  
 P. H. P. Harbach,  A. W. Hauser,  J. E. Herr,  E. G. Hohenstein,  
 Z. C. Holden,  Kerwin Hui,  T.-C. Jagau,  Hyunjun Ji,  B. Kaduk,  
 K. Khistyaev,  Jaehoon Kim,  P. Klunzinger,  K. Koh,  D. Kosenkov,  
 L. Koulias,  T. Kowalczyk,  C. M. Krauter,  A. Kunitsa,  Ka Un Lao,  
 A. Laurent,  K. V. Lawler,  Joonho Lee,  D. Lefrancois,  S. Lehtola,  
 D. S. Levine,  Yi-Pei Li,  You-Sheng Lin,  Fenglai Liu,  E. Livshits,  
 A. Luenser,  P. Manohar,  E. Mansoor,  S. F. Manzer,  Shan-Ping Mao,  
 Yuezhi Mao,  N. Mardirossian,  A. V. Marenich,  T. Markovich,  
 L. A. Martinez-Martinez,  S. A. Maurer,  N. J. Mayhall,  S. C. McKenzie,  
 J.-M. Mewes,  A. F. Morrison,  J. W. Mullinax,  K. Nanda,  
 T. S. Nguyen-Beck,  R. Olivares-Amaya,  J. A. Parkhill,  T. M. Perrine,  
 F. Plasser,  S. Prager,  A. Prociuk,  E. Ramos,  D. R. Rehn,  F. Rob,  
 M. Schneider,  N. Sergueev,  S. M. Sharada,  S. Sharma,  D. W. Small,  
 T. Stauch,  T. Stein,  Yu-Chuan Su,  A. J. W. Thom,  A. Tkatchenko,  
 T. Tsuchimochi,  L. Vogt,  O. Vydrov,  M. A. Watson,  J. Wenzel,  
 M. de Wergifosse,  T. A. Wesolowski,  A. White,  J. Witte,  A. Yamada,  
 Jun Yang,  K. Yao,  S. Yeganeh,  S. R. Yost,  Zhi-Qiang You,  A. Zech,  
 Igor Ying Zhang,  Xing Zhang,  Yan Zhao,  Ying Zhu,  B. R. Brooks,  
 G. K. L. Chan,  C. J. Cramer,  M. S. Gordon,  W. J. Hehre,  A. Klamt,  
 M. W. Schmidt,  C. D. Sherrill,  D. G. Truhlar,  A. Aspuru-Guzik,  R. Baer,  
 A. T. Bell,  N. A. Besley,  Jeng-Da Chai,  R. A. DiStasio Jr.,  A. Dreuw,  
 B. D. Dunietz,  T. R. Furlani,  Chao-Ping Hsu,  Yousung Jung,  Jing Kong,  
 D. S. Lambrecht,  WanZhen Liang,  C. Ochsenfeld,  V. A. Rassolov,  
 L. V. Slipchenko,  J. E. Subotnik,  T. Van Voorhis,  J. M. Herbert,  
 A. I. Krylov,  P. M. W. Gill,  M. Head-Gordon

 Contributors to earlier versions of Q-Chem not listed above: 
 R. D. Adamson,  B. Austin,  J. Baker,  G. J. O. Beran,  K. Brandhorst,  
 S. T. Brown,  E. F. C. Byrd,  A. K. Chakraborty,  C.-L. Cheng,  
 Siu Hung Chien,  D. M. Chipman,  D. L. Crittenden,  H. Dachsel,  
 R. J. Doerksen,  A. D. Dutoi,  L. Fusti-Molnar,  W. A. Goddard III,  
 A. Golubeva-Zadorozhnaya,  S. R. Gwaltney,  G. Hawkins,  A. Heyden,  
 S. Hirata,  G. Kedziora,  F. J. Keil,  C. Kelley,  Jihan Kim,  R. A. King,  
 R. Z. Khaliullin,  P. P. Korambath,  W. Kurlancheek,  A. M. Lee,  M. S. Lee,  
 S. V. Levchenko,  Ching Yeh Lin,  D. Liotard,  R. C. Lochan,  I. Lotan,  
 P. E. Maslen,  N. Nair,  D. P. O'Neill,  D. Neuhauser,  E. Neuscamman,  
 C. M. Oana,  R. Olson,  B. Peters,  R. Peverati,  P. A. Pieniazek,  
 Y. M. Rhee,  J. Ritchie,  M. A. Rohrdanz,  E. Rosta,  N. J. Russ,  
 H. F. Schaefer III,  N. E. Schultz,  N. Shenvi,  A. C. Simmonett,  A. Sodt,  
 D. Stuck,  K. S. Thanthiriwatte,  V. Vanovschi,  Tao Wang,  A. Warshel,  
 C. F. Williams,  Q. Wu,  X. Xu,  W. Zhang

 Please cite Q-Chem as follows:
 Y. Shao et al., Mol. Phys. 113, 184-215 (2015)
 DOI: 10.1080/00268976.2014.952696

 Q-Chem 5.0.2 for Intel X86 EM64T Linux

 Parts of Q-Chem use Armadillo 5.200.1 (Boston Tea Smuggler).
 http://arma.sourceforge.net/

 Q-Chem begins on Thu Mar  3 07:09:29 2022  

Host: 
0

     Scratch files written to ./qcirc.d//
 Dec517 15110_ 26548  26544 5633   
Processing $rem in /home/leeping/opt/qchem/5.0.2-openmp/config/preferences.
 MEM_STATIC 2000
 MEM_TOTAL  8000
 SYMMETRY   OFF
 SYM_IGNORE TRUE 

Checking the input file for inconsistencies... 	...done.

--------------------------------------------------------------
User input:
--------------------------------------------------------------
$molecule
0 2
C        1.2588893236    0.2987521232   -0.1438413932
C        0.4675911316   -0.9415347481    0.3963546351
C       -0.9042701909   -1.0557482597    0.2343207173
C       -1.6326364192    0.1697293140    0.1497646859
C       -0.8428956760    1.2358681399    0.4908480791
N        0.4733021937    0.9770220997    0.8486565093
H        2.3015498833    0.2049329398    0.1989111892
H        1.0814028675   -1.7053263335    0.8625903169
H       -1.3886390408   -2.0244871240    0.3144321237
H       -2.6825167219    0.2485918484   -0.1031729573
H       -1.1732650379    2.2698753936    0.5504002921
C        1.2368455588    0.5646945651   -1.5677083260
H        1.7878986105   -0.2091073585   -2.1230271194
$end

$rem
method                b3lyp
basis                 6-31+g(d,p)
unrestricted          true
symmetry              off
sym_ignore            true
incdft                false
incfock               0
scf_convergence       8
thresh                14
jobtype               rpath
scf_guess             core
scf_guess_mix         5
scf_algorithm         diis
max_scf_cycles        100
rpath_direction       1
rpath_tol_displacement 1000
rpath_max_cycles      50
geom_opt_max_cycles   300
geom_opt_hessian      read
$end

--------------------------------------------------------------
 ----------------------------------------------------------------
             Standard Nuclear Orientation (Angstroms)
    I     Atom           X                Y                Z
 ----------------------------------------------------------------
    1      C       1.2588893236     0.2987521232    -0.1438413932
    2      C       0.4675911316    -0.9415347481     0.3963546351
    3      C      -0.9042701909    -1.0557482597     0.2343207173
    4      C      -1.6326364192     0.1697293140     0.1497646859
    5      C      -0.8428956760     1.2358681399     0.4908480791
    6      N       0.4733021937     0.9770220997     0.8486565093
    7      H       2.3015498833     0.2049329398     0.1989111892
    8      H       1.0814028675    -1.7053263335     0.8625903169
    9      H      -1.3886390408    -2.0244871240     0.3144321237
   10      H      -2.6825167219     0.2485918484    -0.1031729573
   11      H      -1.1732650379     2.2698753936     0.5504002921
   12      C       1.2368455588     0.5646945651    -1.5677083260
   13      H       1.7878986105    -0.2091073585    -2.1230271194
 ----------------------------------------------------------------
 Nuclear Repulsion Energy =   266.9946043830 hartrees
 There are       25 alpha and       24 beta electrons
 Requested basis set is 6-31+G(d,p)
 There are 53 shells and 163 basis functions

 Total QAlloc Memory Limit   8000 MB
 Mega-Array Size      1956 MB
 MEM_STATIC part      2000 MB
 Starting direction for rxn path = 1

                       Distance Matrix (Angstroms)
             C (  1)   C (  2)   C (  3)   C (  4)   C (  5)   N (  6)
   C (  2)  1.567251
   C (  3)  2.580104  1.386111
   C (  4)  2.909256  2.388864  1.428097
   C (  5)  2.387157  2.543106  2.306746  1.369920
   N (  6)  1.436053  1.971160  2.531258  2.361175  1.388310
   H (  7)  1.101555  2.171814  3.444975  3.934651  3.321986  2.088248
   H (  8)  2.249608  1.085135  2.181644  3.374902  3.534366  2.750450
   H (  9)  3.552022  2.150602  1.086041  2.213873  3.310419  3.572293
   H ( 10)  3.941935  3.404278  2.231001  1.082795  2.170664  3.375764
   H ( 11)  3.206661  3.609611  3.351423  2.186811  1.087134  2.114618
   C ( 12)  1.448657  2.591915  3.233809  3.367438  3.002241  2.567456
   H ( 13)  2.110675  2.937166  3.677181  4.124216  3.980123  3.459186
             H (  7)   H (  8)   H (  9)   H ( 10)   H ( 11)   C ( 12)
   H (  8)  2.361847
   H (  9)  4.312905  2.550186
   H ( 10)  4.993404  4.349435  2.648660
   H ( 11)  4.057323  4.580744  4.306230  2.605875
   C ( 12)  2.093793  3.329190  4.139986  4.195973  3.633546
   H ( 13)  2.413848  3.413461  4.396271  4.926856  4.696920  1.100367

 
 A cutoff of  1.0D-14 yielded   1383 shell pairs
 There are     13453 function pairs
 
 -------------------------------------------------------
 OpenMP Integral Computing Module                       
 Release: version 1.0, May 2013, Q-Chem Inc. Pittsburgh 
 -------------------------------------------------------
 Integral Job Info:
 Integral job number is                      11
 Integral operator is                         1
 short-range coefficients                     0
 long-range coefficients              100000000
 Omega coefficients                           0
 if combine SR and LR in K                    0
 Integral screening is                        0
 Integral computing path is                   2
 max size of driver memory is            800000
 size of driver memory is                593474
 size of scratch memory is              2361544
 max col of scratch BK array               1296
 max len of scratch array in speh3          155
 max len of scratch index in speh4           18
 max int batch size is                      520
 min int batch size is                       52
 fixed nKL is                                52
 max L of basis functions is                  2
 order of int derivative is                   0
 number of shells is                         53
 number of basis is                         163
 number of cartesian basis is               163
 number of contracted shell pairs          1383
 number of primitive shell pairs           4667
 maxK2 (contraction) of shell pair           36
 max number of K2 of shell pair               1
 max number of CS2 of shell pair            129
 max number of PS2 of shell pair            666
 mem total for path MDJ                  535308
 -------------------------------------------------------
 Smallest overlap matrix eigenvalue = 2.25E-05

 Scale SEOQF with 1.000000e-01/1.000000e-01/1.000000e-01

 Standard Electronic Orientation quadrupole field applied
 Nucleus-field energy     =     0.0000000024 hartrees
 Guess MOs from core Hamiltonian diagonalization
 Mixing HOMO and LUMO in initial guess
 Adding  50% of the LUMO to the HOMO
 An unrestricted hybrid HF-DFT SCF calculation will be
 performed using Pulay DIIS extrapolation
 Exchange:     0.2000 Hartree-Fock + 0.0800 Slater + 0.7200 B88
 Correlation:  0.1900 VWN1RPA + 0.8100 LYP
 Using SG-1 standard quadrature grid
 SCF converges when DIIS error is below 1.0E-08
 using 4 threads for integral computing
 -------------------------------------------------------
 OpenMP Integral computing Module                
 Release: version 1.0, May 2013, Q-Chem Inc. Pittsburgh 
 -------------------------------------------------------
 -------------------------------------------------------
 OpenMP BLAS3 based DFT computing Module                
 Release: version 1.0, May 2013, Q-Chem Inc. Pittsburgh 
 -------------------------------------------------------
 ---------------------------------------
  Cycle       Energy         DIIS Error
 ---------------------------------------
    1    -230.4112042508      1.01E-01
    2    -210.2110436237      7.78E-02
    3    -265.8329381888      5.56E-02
    4    -265.4718532480      7.05E-02
    5    -284.3627259997      1.98E-02
    6    -282.9172714964      2.62E-02
    7    -286.5366508393      7.52E-03
    8    -286.6399795123      5.52E-03
    9    -286.7311930218      1.84E-03
   10    -286.7406840012      1.08E-03
   11    -286.7459881161      2.50E-04
   12    -286.7472550138      1.41E-04
   13    -286.7486123469      9.79E-05
   14    -286.7495344510      5.37E-05
   15    -286.7499978528      4.50E-05
   16    -286.7508110498      1.94E-05
   17    -286.7508065378      1.16E-05
   18    -286.7508302503      5.94E-06
   19    -286.7508311968      2.89E-06
   20    -286.7508320264      1.15E-06
   21    -286.7508320678      5.93E-07
   22    -286.7508321435      2.16E-07
   23    -286.7508321465      7.90E-08
   24    -286.7508321470      3.44E-08
   25    -286.7508321471      1.29E-08
   26    -286.7508321472      4.16E-09 Convergence criterion met
 ---------------------------------------
 <S^2> = 1.2353
 SCF time:  CPU 129.00 s  wall 33.81 s
 SCF   energy in the final basis set = -286.75083215
 Total energy in the final basis set = -286.75083215
 
 --------------------------------------------------------------
 
                    Orbital Energies (a.u.)
 --------------------------------------------------------------
 
 Alpha MOs
 -- Occupied --
-14.375 -10.260 -10.240 -10.234 -10.231 -10.217 -10.196  -0.971
 -0.806  -0.789  -0.708  -0.616  -0.607  -0.543  -0.496  -0.477
 -0.447  -0.437  -0.417  -0.392  -0.363  -0.313  -0.257  -0.237
 -0.211
 -- Virtual --
 -0.103  -0.028   0.001   0.018   0.027   0.032   0.035   0.049
  0.055   0.065   0.076   0.082   0.096   0.099   0.104   0.110
  0.117   0.130   0.138   0.149   0.162   0.167   0.176   0.183
  0.189   0.193   0.199   0.206   0.219   0.229   0.238   0.249
  0.262   0.272   0.277   0.280   0.287   0.309   0.336   0.342
  0.363   0.398   0.432   0.467   0.589   0.615   0.640   0.677
  0.703   0.714   0.725   0.728   0.740   0.748   0.761   0.774
  0.792   0.860   0.874   0.889   0.902   0.915   0.949   0.972
  0.989   1.020   1.037   1.063   1.071   1.091   1.101   1.129
  1.178   1.192   1.261   1.265   1.290   1.358   1.415   1.440
  1.475   1.518   1.554   1.591   1.661   1.718   1.756   1.849
  1.868   1.882   1.904   1.922   1.982   1.993   2.028   2.049
  2.080   2.102   2.113   2.145   2.215   2.275   2.320   2.372
  2.395   2.424   2.445   2.459   2.467   2.485   2.490   2.517
  2.551   2.559   2.581   2.598   2.637   2.700   2.710   2.811
  2.820   2.935   2.950   3.033   3.207   3.255   3.298   3.336
  3.401   3.493   3.758   4.162   4.259   4.328   4.377   4.535
  4.601   4.686
 
 Beta MOs
 -- Occupied --
-14.364 -10.259 -10.242 -10.231 -10.230 -10.212 -10.197  -0.955
 -0.799  -0.779  -0.703  -0.611  -0.599  -0.534  -0.491  -0.469
 -0.443  -0.433  -0.409  -0.386  -0.350  -0.291  -0.252  -0.224
 -- Virtual --
 -0.117  -0.092  -0.015   0.002   0.019   0.027   0.034   0.038
  0.049   0.058   0.068   0.075   0.085   0.098   0.100   0.103
  0.111   0.119   0.132   0.139   0.150   0.164   0.170   0.177
  0.182   0.190   0.195   0.199   0.208   0.222   0.231   0.243
  0.252   0.267   0.275   0.279   0.285   0.291   0.314   0.338
  0.350   0.366   0.402   0.435   0.473   0.591   0.614   0.654
  0.678   0.707   0.721   0.732   0.734   0.739   0.750   0.767
  0.773   0.798   0.862   0.875   0.893   0.902   0.924   0.952
  0.978   0.991   1.025   1.042   1.069   1.077   1.095   1.116
  1.134   1.181   1.197   1.267   1.275   1.296   1.362   1.420
  1.451   1.483   1.527   1.564   1.592   1.664   1.730   1.769
  1.855   1.872   1.886   1.917   1.926   1.984   1.998   2.037
  2.052   2.089   2.108   2.125   2.143   2.222   2.283   2.328
  2.376   2.398   2.427   2.450   2.469   2.475   2.491   2.495
  2.522   2.556   2.565   2.582   2.606   2.646   2.704   2.716
  2.818   2.824   2.942   2.954   3.038   3.210   3.256   3.301
  3.338   3.407   3.495   3.761   4.180   4.262   4.333   4.380
  4.536   4.605   4.690
 --------------------------------------------------------------
 
          Ground-State Mulliken Net Atomic Charges

     Atom                 Charge (a.u.)    Spin (a.u.)
  --------------------------------------------------------
      1 C                     0.117438       0.042967
      2 C                    -0.130428      -0.227630
      3 C                    -0.181756       0.396474
      4 C                    -0.034115      -0.090277
      5 C                    -0.225327       0.205267
      6 N                    -0.096344       0.476792
      7 H                     0.161089       0.035811
      8 H                     0.154668       0.024360
      9 H                     0.140931      -0.019801
     10 H                     0.129723       0.003627
     11 H                     0.150026       0.007926
     12 C                    -0.305923       0.144695
     13 H                     0.120018      -0.000211
  --------------------------------------------------------
  Sum of atomic charges =    -0.000000
  Sum of spin   charges =     1.000000

 -----------------------------------------------------------------
                    Cartesian Multipole Moments
 -----------------------------------------------------------------
    Charge (ESU x 10^10)
                 0.0000
    Dipole Moment (Debye)
         X       0.2102      Y      -1.8289      Z       0.0681
       Tot       1.8422
    Quadrupole Moments (Debye-Ang)
        XX     -36.3862     XY      -2.7090     YY     -40.5676
        XZ      -0.3460     YZ       1.0517     ZZ     -48.7581
    Octopole Moments (Debye-Ang^2)
       XXX       0.7092    XXY      -8.4208    XYY      -7.9968
       YYY     -21.0193    XXZ      -3.5631    XYZ       0.0589
       YYZ       5.2626    XZZ       0.0528    YZZ     -15.2346
       ZZZ      -3.9229
    Hexadecapole Moments (Debye-Ang^3)
      XXXX    -346.0305   XXXY     -10.4458   XXYY    -102.5916
      XYYY     -18.0236   YYYY    -242.2247   XXXZ      50.1322
      XXYZ       2.1828   XYYZ      17.1618   YYYZ       7.4069
      XXZZ    -102.1059   XYZZ     -12.2916   YYZZ     -89.8807
      XZZZ      47.4749   YZZZ      15.4504   ZZZZ    -232.3063
 -----------------------------------------------------------------
 Calculating analytic gradient of the SCF energy
 Gradient of SCF Energy
            1           2           3           4           5           6
    1   0.0000055   0.0000058   0.0000078  -0.0000018  -0.0000129  -0.0000140
    2   0.0000141   0.0000042  -0.0000081  -0.0000159  -0.0000081   0.0000036
    3   0.0000058  -0.0000012  -0.0000034  -0.0000054  -0.0000024   0.0000019
            7           8           9          10          11          12
    1  -0.0000037   0.0000124   0.0000173  -0.0000017  -0.0000227   0.0000014
    2   0.0000210   0.0000105  -0.0000128  -0.0000244  -0.0000109   0.0000088
    3   0.0000100   0.0000044  -0.0000064  -0.0000104  -0.0000039   0.0000034
           13
    1   0.0000066
    2   0.0000179
    3   0.0000077
 Max gradient component =       2.437E-05
 RMS gradient           =       1.062E-05
 Gradient time:  CPU 16.79 s  wall 4.27 s
rPathMan2.  file_steps = 951
 ------------------------------------------------------------------------
 Reaction path following.  The coordinates are cartesian              
 Step   1 E=    -286.750832 |G|=  0.000066 S_lin= 0.0000 S_tot= 0.0000
 ------------------------------------------------------------------------
 IRC -- neg. force constant =  -9.563451401395168E-002
 IRC -- max trans/rot const =  -9.078950273783789E-005
 In first_irc_step: ISign =            1
 ----------------------------------------------------------------
             Standard Nuclear Orientation (Angstroms)
    I     Atom           X                Y                Z
 ----------------------------------------------------------------
    1      C       1.2443943969     0.2954368771    -0.1226707599
    2      C       0.4742764890    -0.9755281051     0.3715323532
    3      C      -0.8930895820    -1.0585091963     0.2371512404
    4      C      -1.6246956327     0.1747036280     0.1449479254
    5      C      -0.8446031594     1.2442290613     0.4872492192
    6      N       0.4762202806     1.0230488962     0.8417431622
    7      H       2.2955166666     0.2081979382     0.2037114200
    8      H       1.0855743031    -1.7296837199     0.8484805869
    9      H      -1.3901758772    -2.0214406541     0.3257761683
   10      H      -2.6772852393     0.2486396845    -0.1027019369
   11      H      -1.1841355351     2.2739857814     0.5521774980
   12      C       1.2379624198     0.5636639519    -1.5604098048
   13      H       1.7832969508    -0.2134815437    -2.1184583194
 ----------------------------------------------------------------
 Nuclear Repulsion Energy =   266.4076844796 hartrees
 There are       25 alpha and       24 beta electrons

                       Distance Matrix (Angstroms)
             C (  1)   C (  2)   C (  3)   C (  4)   C (  5)   N (  6)
   C (  2)  1.566100
   C (  3)  2.555676  1.376457
   C (  4)  2.884072  2.404175  1.436859
   C (  5)  2.374051  2.584600  2.316787  1.367333
   N (  6)  1.431644  2.053147  2.563869  2.370456  1.385338
   H (  7)  1.104081  2.178597  3.431162  3.920796  3.318751  2.093061
   H (  8)  2.251549  1.081626  2.176996  3.386327  3.563738  2.819378
   H (  9)  3.536946  2.138273  1.087284  2.216021  3.314864  3.608126
   H ( 10)  3.922010  3.414063  2.237743  1.083855  2.167479  3.381757
   H ( 11)  3.204346  3.652712  3.359981  2.183327  1.086231  2.098922
   C ( 12)  1.462560  2.585484  3.225532  3.354750  2.998859  2.561567
   H ( 13)  2.128986  2.914499  3.664152  4.109514  3.977498  3.464138
             H (  7)   H (  8)   H (  9)   H ( 10)   H ( 11)   C ( 12)
   H (  8)  2.373831
   H (  9)  4.309352  2.547093
   H ( 10)  4.982397  4.356331  2.644524
   H ( 11)  4.061636  4.611805  4.306321  2.600075
   C ( 12)  2.087319  3.329477  4.140963  4.189668  3.640712
   H ( 13)  2.415089  3.404176  4.394761  4.916668  4.703769  1.101255

 
 Applying Cartesian multipole field
    Component          Value
    ---------          -----
     (2,0,0)        1.00000E-11
     (0,2,0)        2.00000E-11
     (0,0,2)       -3.00000E-11
 Nucleus-field energy     =     0.0000000025 hartrees
 Requested basis set is 6-31+G(d,p)
 There are 53 shells and 163 basis functions
 A cutoff of  1.0D-14 yielded   1383 shell pairs
 There are     13453 function pairs
 Smallest overlap matrix eigenvalue = 2.30E-05
 Guess MOs from core Hamiltonian diagonalization
 Mixing HOMO and LUMO in initial guess
 Adding  50% of the LUMO to the HOMO
 An unrestricted hybrid HF-DFT SCF calculation will be
 performed using Pulay DIIS extrapolation
 Exchange:     0.2000 Hartree-Fock + 0.0800 Slater + 0.7200 B88
 Correlation:  0.1900 VWN1RPA + 0.8100 LYP
 Using SG-1 standard quadrature grid
 SCF converges when DIIS error is below 1.0E-08
 using 4 threads for integral computing
 -------------------------------------------------------
 OpenMP Integral computing Module                
 Release: version 1.0, May 2013, Q-Chem Inc. Pittsburgh 
 -------------------------------------------------------
 -------------------------------------------------------
 OpenMP BLAS3 based DFT computing Module                
 Release: version 1.0, May 2013, Q-Chem Inc. Pittsburgh 
 -------------------------------------------------------
 ---------------------------------------
  Cycle       Energy         DIIS Error
 ---------------------------------------
    1    -230.6770214602      1.00E-01
    2    -210.3465816356      7.86E-02
    3    -266.4393881521      5.42E-02
    4    -262.9681518235      7.10E-02
    5    -284.4886766920      1.90E-02
    6    -283.1539020345      2.53E-02
    7    -286.5221569127      7.62E-03
    8    -286.6326709569      5.57E-03
    9    -286.7301440177      1.88E-03
   10    -286.7413473203      9.90E-04
   11    -286.7461622339      2.18E-04
   12    -286.7474580342      9.48E-05
   13    -286.7488498893      8.07E-05
   14    -286.7498051871      5.02E-05
   15    -286.7502986090      4.52E-05
   16    -286.7515477485      2.66E-05
   17    -286.7516328774      2.08E-05
   18    -286.7517168641      7.78E-06
   19    -286.7517153887      3.98E-06
   20    -286.7517188141      1.79E-06
   21    -286.7517190603      7.36E-07
   22    -286.7517191461      4.38E-07
   23    -286.7517192020      2.50E-07
   24    -286.7517192056      1.24E-07
   25    -286.7517192032      8.02E-08
   26    -286.7517192062      2.05E-08
   27    -286.7517192063      8.31E-09 Convergence criterion met
 ---------------------------------------
 <S^2> = 1.2698
 SCF time:  CPU 132.78 s  wall 35.55 s
 SCF   energy in the final basis set = -286.75171921
 Total energy in the final basis set = -286.75171921
 
 --------------------------------------------------------------
 
                    Orbital Energies (a.u.)
 --------------------------------------------------------------
 
 Alpha MOs
 -- Occupied --
-14.374 -10.260 -10.236 -10.234 -10.231 -10.218 -10.196  -0.968
 -0.804  -0.791  -0.705  -0.617  -0.607  -0.542  -0.496  -0.475
 -0.449  -0.438  -0.417  -0.391  -0.360  -0.315  -0.259  -0.237
 -0.216
 -- Virtual --
 -0.104  -0.032   0.000   0.018   0.027   0.032   0.037   0.049
  0.055   0.066   0.075   0.082   0.096   0.098   0.105   0.110
  0.117   0.130   0.138   0.150   0.161   0.168   0.177   0.184
  0.189   0.193   0.200   0.206   0.220   0.229   0.240   0.250
  0.261   0.272   0.277   0.279   0.285   0.310   0.333   0.341
  0.364   0.397   0.436   0.469   0.586   0.615   0.641   0.676
  0.702   0.713   0.725   0.730   0.742   0.749   0.760   0.776
  0.793   0.861   0.874   0.888   0.904   0.912   0.947   0.973
  0.991   1.018   1.035   1.055   1.071   1.089   1.097   1.130
  1.174   1.193   1.259   1.263   1.285   1.360   1.414   1.444
  1.469   1.521   1.552   1.597   1.661   1.714   1.758   1.841
  1.869   1.883   1.909   1.926   1.972   1.990   2.026   2.046
  2.076   2.091   2.113   2.142   2.213   2.252   2.325   2.372
  2.397   2.414   2.436   2.456   2.463   2.482   2.490   2.513
  2.550   2.563   2.581   2.594   2.635   2.701   2.710   2.815
  2.819   2.930   2.958   3.025   3.208   3.257   3.304   3.331
  3.396   3.498   3.757   4.153   4.259   4.330   4.376   4.530
  4.597   4.688
 
 Beta MOs
 -- Occupied --
-14.362 -10.259 -10.235 -10.233 -10.232 -10.214 -10.196  -0.949
 -0.797  -0.781  -0.701  -0.611  -0.600  -0.532  -0.491  -0.467
 -0.445  -0.434  -0.408  -0.385  -0.347  -0.293  -0.250  -0.220
 -- Virtual --
 -0.122  -0.096  -0.018   0.002   0.019   0.027   0.034   0.039
  0.050   0.058   0.068   0.074   0.085   0.098   0.099   0.104
  0.111   0.119   0.131   0.138   0.151   0.162   0.170   0.178
  0.184   0.190   0.194   0.201   0.208   0.223   0.231   0.245
  0.253   0.265   0.274   0.280   0.284   0.289   0.314   0.336
  0.349   0.367   0.402   0.439   0.475   0.587   0.615   0.654
  0.676   0.705   0.721   0.730   0.735   0.738   0.751   0.766
  0.774   0.798   0.864   0.876   0.893   0.904   0.924   0.950
  0.979   0.994   1.023   1.042   1.062   1.078   1.095   1.111
  1.134   1.178   1.197   1.265   1.275   1.292   1.364   1.418
  1.455   1.477   1.528   1.562   1.599   1.663   1.725   1.774
  1.846   1.872   1.889   1.921   1.928   1.976   1.994   2.033
  2.050   2.087   2.098   2.125   2.141   2.222   2.261   2.332
  2.375   2.401   2.417   2.443   2.462   2.468   2.490   2.495
  2.517   2.554   2.569   2.583   2.602   2.643   2.705   2.717
  2.819   2.825   2.936   2.963   3.031   3.211   3.258   3.307
  3.333   3.401   3.501   3.760   4.175   4.261   4.335   4.378
  4.531   4.601   4.691
 --------------------------------------------------------------
 
          Ground-State Mulliken Net Atomic Charges

     Atom                 Charge (a.u.)    Spin (a.u.)
  --------------------------------------------------------
      1 C                     0.112359       0.027084
      2 C                    -0.151912      -0.207120
      3 C                    -0.176003       0.325334
      4 C                    -0.040264      -0.047658
      5 C                    -0.227073       0.129318
      6 N                    -0.083932       0.604731
      7 H                     0.160819       0.036762
      8 H                     0.152754       0.024443
      9 H                     0.140381      -0.016072
     10 H                     0.130271       0.002375
     11 H                     0.149574       0.017006
     12 C                    -0.288298       0.103165
     13 H                     0.121324       0.000633
  --------------------------------------------------------
  Sum of atomic charges =     0.000000
  Sum of spin   charges =     1.000000

 -----------------------------------------------------------------
                    Cartesian Multipole Moments
 -----------------------------------------------------------------
    Charge (ESU x 10^10)
                 0.0000
    Dipole Moment (Debye)
         X       0.2131      Y      -1.7102      Z      -0.0327
       Tot       1.7237
    Quadrupole Moments (Debye-Ang)
        XX     -36.3037     XY      -2.5119     YY     -40.8033
        XZ      -0.4987     YZ       0.9316     ZZ     -48.5760
    Octopole Moments (Debye-Ang^2)
       XXX       0.7201    XXY      -8.4520    XYY      -8.2833
       YYY     -20.6922    XXZ      -3.6783    XYZ      -0.1084
       YYZ       5.2265    XZZ       0.1224    YZZ     -15.1809
       ZZZ      -4.4135
    Hexadecapole Moments (Debye-Ang^3)
      XXXX    -343.7666   XXXY      -9.1013   XXYY    -103.2752
      XYYY     -17.0445   YYYY    -249.7075   XXXZ      49.0544
      XXYZ       1.7551   XYYZ      16.8292   YYYZ       6.0235
      XXZZ    -101.0572   XYZZ     -11.7870   YYZZ     -90.7263
      XZZZ      46.3387   YZZZ      13.9494   ZZZZ    -228.9371
 -----------------------------------------------------------------
 Calculating analytic gradient of the SCF energy
 Gradient of SCF Energy
            1           2           3           4           5           6
    1   0.0013651   0.0007223  -0.0026355  -0.0018241   0.0011607  -0.0009441
    2  -0.0002002   0.0036232   0.0018936  -0.0017807  -0.0015251  -0.0054762
    3  -0.0022998   0.0031959  -0.0006530   0.0006123   0.0012967   0.0010606
            7           8           9          10          11          12
    1   0.0011813  -0.0008762   0.0002470  -0.0009375   0.0018069   0.0000961
    2  -0.0005341   0.0042099  -0.0006360  -0.0000250  -0.0006600   0.0004375
    3  -0.0008721   0.0026546  -0.0017971  -0.0002333  -0.0002815  -0.0018133
           13
    1   0.0006382
    2   0.0006731
    3  -0.0008700
 Max gradient component =       5.476E-03
 RMS gradient           =       1.810E-03
 Gradient time:  CPU 16.68 s  wall 4.25 s
rPathMan2.  file_steps = 951
 IRC --- Status = 2.  Assess steepest descent step
 IRC --- Previous SD length =   0.150000
 IRC --- Point 1 E =     -286.750832 |G| =   0.000066 G.D1 =  -0.000001
 IRC --- Point 2 E =     -286.751719 |G| =   0.011302 G.D1 =  -0.010590
 IRC --- Angle(G1/G2) =   20.45 Deg.  Curvature =  -0.0706
 IRC --- Corrector step required
 IRC --- equal length displacement: B_eq =   0.053265
 IRC --- chosen bisector length  : B_len =   0.026632
 ----------------------------------------------------------------
             Standard Nuclear Orientation (Angstroms)
    I     Atom           X                Y                Z
 ----------------------------------------------------------------
    1      C       1.2468483172     0.2977973525    -0.1251802117
    2      C       0.4683975382    -0.9712544464     0.3727209123
    3      C      -0.8894250218    -1.0637780555     0.2380289616
    4      C      -1.6222605355     0.1784693898     0.1452062904
    5      C      -0.8478251513     1.2454040397     0.4844952844
    6      N       0.4780764047     1.0192656068     0.8414754788
    7      H       2.2943851668     0.2084409950     0.2043737911
    8      H       1.0865654387    -1.7322882065     0.8462137274
    9      H      -1.3902747700    -2.0207303806     0.3264146732
   10      H      -2.6766090297     0.2487034667    -0.1021182767
   11      H      -1.1850452879     2.2742480733     0.5522772861
   12      C       1.2370665400     0.5626427973    -1.5576915241
   13      H       1.7833568722    -0.2136580322    -2.1176876403
 ----------------------------------------------------------------
 Nuclear Repulsion Energy =   266.5301278261 hartrees
 There are       25 alpha and       24 beta electrons

                       Distance Matrix (Angstroms)
             C (  1)   C (  2)   C (  3)   C (  4)   C (  5)   N (  6)
   C (  2)  1.569836
   C (  3)  2.559194  1.367620
   C (  4)  2.884291  2.396764  1.445283
   C (  5)  2.378512  2.580409  2.322670  1.361329
   N (  6)  1.430367  2.044993  2.563841  2.367096  1.391614
   H (  7)  1.101782  2.180425  3.428749  3.917207  3.320730  2.088615
   H (  8)  2.256223  1.088806  2.172863  3.388236  3.569224  2.818037
   H (  9)  3.540329  2.134996  1.083707  2.218814  3.314646  3.605218
   H ( 10)  3.923832  3.406587  2.243287  1.085243  2.163788  3.381741
   H ( 11)  3.206152  3.646834  3.365793  2.179255  1.084819  2.103471
   C ( 12)  1.456821  2.582670  3.223635  3.350105  2.997243  2.557454
   H ( 13)  2.125915  2.916368  3.662768  4.107637  3.977856  3.461286
             H (  7)   H (  8)   H (  9)   H ( 10)   H ( 11)   C ( 12)
   H (  8)  2.374282
   H (  9)  4.308227  2.547180
   H ( 10)  4.980597  4.357194  2.643601
   H ( 11)  4.061408  4.615078  4.305807  2.599197
   C ( 12)  2.085247  3.326878  4.138429  4.187375  3.639806
   H ( 13)  2.414806  3.402421  4.394438  4.916055  4.704232  1.102121

 
 Applying Cartesian multipole field
    Component          Value
    ---------          -----
     (2,0,0)        1.00000E-11
     (0,2,0)        2.00000E-11
     (0,0,2)       -3.00000E-11
 Nucleus-field energy     =     0.0000000025 hartrees
 Requested basis set is 6-31+G(d,p)
 There are 53 shells and 163 basis functions
 A cutoff of  1.0D-14 yielded   1383 shell pairs
 There are     13453 function pairs
 Smallest overlap matrix eigenvalue = 2.26E-05
 Guess MOs from core Hamiltonian diagonalization
 Mixing HOMO and LUMO in initial guess
 Adding  50% of the LUMO to the HOMO
 An unrestricted hybrid HF-DFT SCF calculation will be
 performed using Pulay DIIS extrapolation
 Exchange:     0.2000 Hartree-Fock + 0.0800 Slater + 0.7200 B88
 Correlation:  0.1900 VWN1RPA + 0.8100 LYP
 Using SG-1 standard quadrature grid
 SCF converges when DIIS error is below 1.0E-08
 using 4 threads for integral computing
 -------------------------------------------------------
 OpenMP Integral computing Module                
 Release: version 1.0, May 2013, Q-Chem Inc. Pittsburgh 
 -------------------------------------------------------
 -------------------------------------------------------
 OpenMP BLAS3 based DFT computing Module                
 Release: version 1.0, May 2013, Q-Chem Inc. Pittsburgh 
 -------------------------------------------------------
 ---------------------------------------
  Cycle       Energy         DIIS Error
 ---------------------------------------
    1    -230.7142877149      1.01E-01
    2    -210.5355496839      7.86E-02
    3    -266.4104354751      5.43E-02
    4    -262.9541461025      7.11E-02
    5    -284.4858032185      1.91E-02
    6    -283.1502558273      2.53E-02
    7    -286.5212593821      7.65E-03
    8    -286.6325418781      5.53E-03
    9    -286.7312605999      1.80E-03
   10    -286.7413743094      9.74E-04
   11    -286.7461319996      2.28E-04
   12    -286.7475087571      1.01E-04
   13    -286.7489087782      8.24E-05
   14    -286.7498801772      4.96E-05
   15    -286.7503505952      4.37E-05
   16    -286.7514812216      2.16E-05
   17    -286.7515035509      1.40E-05
   18    -286.7515498959      3.92E-06
   19    -286.7515496949      2.25E-06
   20    -286.7515502858      1.22E-06
   21    -286.7515502477      6.04E-07
   22    -286.7515503330      2.90E-07
   23    -286.7515503400      1.91E-07
   24    -286.7515503433      7.12E-08
   25    -286.7515503431      4.02E-08
   26    -286.7515503440      1.35E-08
   27    -286.7515503440      5.87E-09 Convergence criterion met
 ---------------------------------------
 <S^2> = 1.2630
 SCF time:  CPU 134.38 s  wall 36.62 s
 SCF   energy in the final basis set = -286.75155034
 Total energy in the final basis set = -286.75155034
 
 --------------------------------------------------------------
 
                    Orbital Energies (a.u.)
 --------------------------------------------------------------
 
 Alpha MOs
 -- Occupied --
-14.374 -10.260 -10.235 -10.232 -10.232 -10.217 -10.196  -0.968
 -0.804  -0.790  -0.707  -0.616  -0.606  -0.542  -0.495  -0.475
 -0.449  -0.438  -0.420  -0.389  -0.360  -0.315  -0.258  -0.237
 -0.217
 -- Virtual --
 -0.105  -0.031   0.000   0.018   0.027   0.032   0.037   0.049
  0.055   0.066   0.075   0.082   0.096   0.098   0.105   0.110
  0.117   0.130   0.138   0.149   0.161   0.168   0.176   0.184
  0.189   0.193   0.200   0.205   0.219   0.228   0.238   0.250
  0.262   0.272   0.277   0.278   0.286   0.312   0.334   0.342
  0.365   0.398   0.435   0.470   0.584   0.616   0.640   0.676
  0.700   0.713   0.726   0.731   0.742   0.750   0.762   0.776
  0.794   0.863   0.875   0.890   0.902   0.913   0.948   0.973
  0.991   1.019   1.035   1.057   1.070   1.090   1.098   1.130
  1.174   1.195   1.260   1.264   1.288   1.362   1.414   1.444
  1.468   1.521   1.553   1.596   1.661   1.714   1.757   1.841
  1.869   1.881   1.915   1.927   1.974   1.990   2.028   2.049
  2.077   2.091   2.113   2.144   2.213   2.255   2.324   2.371
  2.395   2.416   2.436   2.456   2.465   2.481   2.491   2.515
  2.549   2.563   2.581   2.594   2.637   2.703   2.709   2.815
  2.820   2.932   2.958   3.027   3.209   3.257   3.299   3.330
  3.399   3.498   3.759   4.153   4.261   4.332   4.375   4.532
  4.599   4.688
 
 Beta MOs
 -- Occupied --
-14.361 -10.258 -10.234 -10.234 -10.230 -10.213 -10.196  -0.949
 -0.797  -0.781  -0.702  -0.611  -0.599  -0.533  -0.490  -0.467
 -0.445  -0.434  -0.411  -0.383  -0.348  -0.293  -0.250  -0.221
 -- Virtual --
 -0.121  -0.096  -0.017   0.002   0.019   0.027   0.034   0.039
  0.050   0.058   0.068   0.074   0.085   0.098   0.099   0.104
  0.111   0.119   0.131   0.139   0.150   0.162   0.170   0.178
  0.184   0.190   0.195   0.201   0.207   0.222   0.231   0.243
  0.252   0.266   0.274   0.280   0.283   0.289   0.317   0.338
  0.349   0.369   0.403   0.438   0.475   0.585   0.615   0.654
  0.676   0.703   0.721   0.731   0.735   0.739   0.752   0.768
  0.775   0.799   0.866   0.877   0.895   0.902   0.925   0.951
  0.979   0.993   1.024   1.042   1.063   1.077   1.095   1.113
  1.134   1.179   1.199   1.267   1.274   1.295   1.366   1.417
  1.455   1.476   1.528   1.564   1.597   1.663   1.726   1.772
  1.846   1.873   1.890   1.922   1.929   1.979   1.994   2.035
  2.053   2.087   2.097   2.124   2.142   2.221   2.265   2.332
  2.374   2.399   2.419   2.443   2.463   2.470   2.492   2.495
  2.519   2.554   2.570   2.583   2.602   2.646   2.707   2.717
  2.820   2.825   2.938   2.964   3.033   3.212   3.258   3.302
  3.332   3.404   3.501   3.761   4.175   4.263   4.336   4.377
  4.533   4.603   4.691
 --------------------------------------------------------------
 
          Ground-State Mulliken Net Atomic Charges

     Atom                 Charge (a.u.)    Spin (a.u.)
  --------------------------------------------------------
      1 C                     0.113163       0.025390
      2 C                    -0.143193      -0.208256
      3 C                    -0.182991       0.323570
      4 C                    -0.038080      -0.041815
      5 C                    -0.230297       0.116260
      6 N                    -0.084131       0.608017
      7 H                     0.161020       0.037163
      8 H                     0.153095       0.025122
      9 H                     0.140593      -0.016326
     10 H                     0.129972       0.002132
     11 H                     0.149375       0.016964
     12 C                    -0.289662       0.111348
     13 H                     0.121136       0.000430
  --------------------------------------------------------
  Sum of atomic charges =     0.000000
  Sum of spin   charges =     1.000000

 -----------------------------------------------------------------
                    Cartesian Multipole Moments
 -----------------------------------------------------------------
    Charge (ESU x 10^10)
                 0.0000
    Dipole Moment (Debye)
         X       0.2190      Y      -1.7365      Z      -0.0425
       Tot       1.7508
    Quadrupole Moments (Debye-Ang)
        XX     -36.2955     XY      -2.4818     YY     -40.7565
        XZ      -0.5138     YZ       0.9155     ZZ     -48.5801
    Octopole Moments (Debye-Ang^2)
       XXX       0.6998    XXY      -8.5223    XYY      -8.2623
       YYY     -20.7423    XXZ      -3.6605    XYZ      -0.1138
       YYZ       5.1690    XZZ       0.1093    YZZ     -15.1946
       ZZZ      -4.4830
    Hexadecapole Moments (Debye-Ang^3)
      XXXX    -343.5428   XXXY      -8.8955   XXYY    -103.0854
      XYYY     -16.8807   YYYY    -249.3307   XXXZ      48.9580
      XXYZ       1.7654   XYYZ      16.7300   YYYZ       6.1005
      XXZZ    -100.9219   XYZZ     -11.7178   YYZZ     -90.5927
      XZZZ      46.1970   YZZZ      13.8873   ZZZZ    -228.4502
 -----------------------------------------------------------------
 Calculating analytic gradient of the SCF energy
 Gradient of SCF Energy
            1           2           3           4           5           6
    1   0.0034996  -0.0093458   0.0044842   0.0009755  -0.0043488   0.0018525
    2  -0.0000852   0.0089768  -0.0055765   0.0043389  -0.0020592  -0.0072182
    3  -0.0042870   0.0004881   0.0006556   0.0020365  -0.0002047   0.0004115
            7           8           9          10          11          12
    1  -0.0001138   0.0014557   0.0007816  -0.0017288   0.0019647  -0.0004256
    2  -0.0000771   0.0006878   0.0014988  -0.0000857  -0.0013786   0.0008328
    3  -0.0010562   0.0047812  -0.0022757  -0.0003656  -0.0002782   0.0011326
           13
    1   0.0009488
    2   0.0001454
    3  -0.0010379
 Max gradient component =       9.346E-03
 RMS gradient           =       3.207E-03
 Gradient time:  CPU 16.49 s  wall 4.27 s
rPathMan2.  file_steps = 951
 IRC --- Status = 3.  Assess initial corrector step
 IRC --- bisector search: b =  0.000000 E =     -286.751719 G.B =  -0.002007
 IRC --- bisector search: b =  0.026632 E =     -286.751550 G.B =   0.014723
 IRC --- performed gradient/energy interpolation
 IRC --- bisector search:  estimate b(min) =   3.201262551451707E-003
 ----------------------------------------------------------------
             Standard Nuclear Orientation (Angstroms)
    I     Atom           X                Y                Z
 ----------------------------------------------------------------
    1      C       1.2446893629     0.2957206108    -0.1229724009
    2      C       0.4735698277    -0.9750144030     0.3716752203
    3      C      -0.8926490947    -1.0591425234     0.2372567442
    4      C      -1.6244029293     0.1751562799     0.1449789814
    5      C      -0.8449904491     1.2443702960     0.4869181908
    6      N       0.4764433903     1.0225941374     0.8417109861
    7      H       2.2953806581     0.2082271541     0.2037910383
    8      H       1.0856934396    -1.7299967842     0.8482081060
    9      H      -1.3901877643    -2.0213552778     0.3258529178
   10      H      -2.6772039576     0.2486473512    -0.1026317798
   11      H      -1.1842448891     2.2740173094     0.5521894927
   12      C       1.2378547333     0.5635412071    -1.5600830621
   13      H       1.7833041535    -0.2135027580    -2.1183656823
 ----------------------------------------------------------------
 Nuclear Repulsion Energy =   266.4222810354 hartrees
 There are       25 alpha and       24 beta electrons

                       Distance Matrix (Angstroms)
             C (  1)   C (  2)   C (  3)   C (  4)   C (  5)   N (  6)
   C (  2)  1.566547
   C (  3)  2.556098  1.375391
   C (  4)  2.884099  2.403284  1.437871
   C (  5)  2.374587  2.584096  2.317493  1.366611
   N (  6)  1.431489  2.052165  2.563866  2.370051  1.386092
   H (  7)  1.103803  2.178816  3.430872  3.920364  3.318988  2.092527
   H (  8)  2.252111  1.082487  2.176499  3.386556  3.564398  2.819217
   H (  9)  3.537352  2.137878  1.086852  2.216356  3.314837  3.607776
   H ( 10)  3.922229  3.413164  2.238409  1.084021  2.167035  3.381755
   H ( 11)  3.204563  3.652005  3.360679  2.182837  1.086060  2.099469
   C ( 12)  1.461869  2.585145  3.225303  3.354191  2.998664  2.561072
   H ( 13)  2.128617  2.914723  3.663985  4.109289  3.977541  3.463795
             H (  7)   H (  8)   H (  9)   H ( 10)   H ( 11)   C ( 12)
   H (  8)  2.373885
   H (  9)  4.309217  2.547103
   H ( 10)  4.982181  4.356435  2.644413
   H ( 11)  4.061609  4.612199  4.306259  2.599969
   C ( 12)  2.087070  3.329164  4.140658  4.189392  3.640603
   H ( 13)  2.415055  3.403965  4.394723  4.916594  4.703825  1.101359

 
 Applying Cartesian multipole field
    Component          Value
    ---------          -----
     (2,0,0)        1.00000E-11
     (0,2,0)        2.00000E-11
     (0,0,2)       -3.00000E-11
 Nucleus-field energy     =     0.0000000025 hartrees
 Requested basis set is 6-31+G(d,p)
 There are 53 shells and 163 basis functions
 A cutoff of  1.0D-14 yielded   1383 shell pairs
 There are     13453 function pairs
 Smallest overlap matrix eigenvalue = 2.30E-05
 Guess MOs from core Hamiltonian diagonalization
 Mixing HOMO and LUMO in initial guess
 Adding  50% of the LUMO to the HOMO
 An unrestricted hybrid HF-DFT SCF calculation will be
 performed using Pulay DIIS extrapolation
 Exchange:     0.2000 Hartree-Fock + 0.0800 Slater + 0.7200 B88
 Correlation:  0.1900 VWN1RPA + 0.8100 LYP
 Using SG-1 standard quadrature grid
 SCF converges when DIIS error is below 1.0E-08
 using 4 threads for integral computing
 -------------------------------------------------------
 OpenMP Integral computing Module                
 Release: version 1.0, May 2013, Q-Chem Inc. Pittsburgh 
 -------------------------------------------------------
 -------------------------------------------------------
 OpenMP BLAS3 based DFT computing Module                
 Release: version 1.0, May 2013, Q-Chem Inc. Pittsburgh 
 -------------------------------------------------------
 ---------------------------------------
  Cycle       Energy         DIIS Error
 ---------------------------------------
    1    -230.6814489237      1.01E-01
    2    -210.3678205252      7.86E-02
    3    -266.4358180075      5.42E-02
    4    -262.9675553435      7.10E-02
    5    -284.4882727859      1.90E-02
    6    -283.1540593255      2.53E-02
    7    -286.5219782077      7.63E-03
    8    -286.6327604587      5.56E-03
    9    -286.7303282812      1.87E-03
   10    -286.7413756138      9.88E-04
   11    -286.7461833758      2.19E-04
   12    -286.7474897759      9.54E-05
   13    -286.7488829329      8.09E-05
   14    -286.7498404634      5.01E-05
   15    -286.7503286083      4.50E-05
   16    -286.7515679149      2.59E-05
   17    -286.7516398845      2.00E-05
   18    -286.7517206193      7.27E-06
   19    -286.7517191911      3.79E-06
   20    -286.7517221133      1.71E-06
   21    -286.7517222918      7.17E-07
   22    -286.7517223814      4.14E-07
   23    -286.7517224283      2.40E-07
   24    -286.7517224309      1.18E-07
   25    -286.7517224287      7.53E-08
   26    -286.7517224315      1.96E-08
   27    -286.7517224315      7.95E-09 Convergence criterion met
 ---------------------------------------
 <S^2> = 1.2690
 SCF time:  CPU 132.88 s  wall 34.95 s
 SCF   energy in the final basis set = -286.75172243
 Total energy in the final basis set = -286.75172243
 
 --------------------------------------------------------------
 
                    Orbital Energies (a.u.)
 --------------------------------------------------------------
 
 Alpha MOs
 -- Occupied --
-14.374 -10.260 -10.236 -10.234 -10.231 -10.218 -10.196  -0.968
 -0.804  -0.791  -0.705  -0.617  -0.607  -0.542  -0.496  -0.475
 -0.449  -0.438  -0.418  -0.391  -0.360  -0.315  -0.259  -0.237
 -0.216
 -- Virtual --
 -0.104  -0.032   0.000   0.018   0.027   0.032   0.037   0.049
  0.055   0.066   0.075   0.082   0.096   0.098   0.105   0.110
  0.117   0.130   0.138   0.150   0.161   0.168   0.177   0.184
  0.189   0.193   0.200   0.206   0.220   0.229   0.240   0.250
  0.261   0.272   0.277   0.279   0.285   0.310   0.333   0.341
  0.364   0.397   0.436   0.469   0.586   0.615   0.641   0.676
  0.701   0.713   0.725   0.730   0.742   0.749   0.760   0.776
  0.793   0.862   0.875   0.888   0.904   0.912   0.947   0.973
  0.991   1.018   1.035   1.056   1.071   1.089   1.097   1.130
  1.174   1.193   1.259   1.264   1.286   1.360   1.414   1.444
  1.469   1.521   1.552   1.597   1.661   1.714   1.758   1.841
  1.869   1.883   1.910   1.926   1.972   1.990   2.027   2.046
  2.076   2.091   2.113   2.142   2.213   2.252   2.325   2.372
  2.397   2.414   2.436   2.456   2.463   2.482   2.490   2.513
  2.549   2.563   2.581   2.594   2.635   2.701   2.710   2.815
  2.819   2.930   2.958   3.025   3.208   3.257   3.304   3.331
  3.396   3.498   3.758   4.153   4.259   4.330   4.376   4.530
  4.598   4.688
 
 Beta MOs
 -- Occupied --
-14.362 -10.259 -10.235 -10.233 -10.232 -10.214 -10.196  -0.949
 -0.797  -0.781  -0.701  -0.611  -0.599  -0.532  -0.491  -0.467
 -0.445  -0.434  -0.409  -0.384  -0.347  -0.293  -0.250  -0.220
 -- Virtual --
 -0.122  -0.096  -0.018   0.002   0.019   0.027   0.034   0.039
  0.050   0.058   0.068   0.074   0.085   0.098   0.099   0.104
  0.111   0.119   0.131   0.138   0.150   0.162   0.170   0.178
  0.184   0.190   0.194   0.201   0.208   0.223   0.231   0.244
  0.253   0.266   0.274   0.280   0.284   0.289   0.315   0.336
  0.349   0.367   0.402   0.439   0.475   0.587   0.615   0.654
  0.676   0.705   0.721   0.730   0.735   0.738   0.751   0.766
  0.774   0.798   0.865   0.876   0.893   0.904   0.924   0.950
  0.979   0.994   1.023   1.042   1.062   1.078   1.095   1.111
  1.134   1.178   1.197   1.265   1.275   1.292   1.364   1.418
  1.455   1.476   1.528   1.563   1.598   1.663   1.725   1.774
  1.846   1.872   1.889   1.921   1.928   1.976   1.994   2.033
  2.051   2.087   2.098   2.124   2.141   2.222   2.262   2.332
  2.375   2.400   2.418   2.443   2.463   2.468   2.491   2.495
  2.518   2.554   2.569   2.583   2.602   2.643   2.705   2.717
  2.819   2.825   2.937   2.963   3.031   3.211   3.258   3.307
  3.333   3.402   3.501   3.760   4.175   4.261   4.335   4.378
  4.531   4.602   4.691
 --------------------------------------------------------------
 
          Ground-State Mulliken Net Atomic Charges

     Atom                 Charge (a.u.)    Spin (a.u.)
  --------------------------------------------------------
      1 C                     0.112445       0.026859
      2 C                    -0.150883      -0.207296
      3 C                    -0.176837       0.325132
      4 C                    -0.040004      -0.046948
      5 C                    -0.227487       0.127695
      6 N                    -0.083935       0.605235
      7 H                     0.160845       0.036810
      8 H                     0.152800       0.024531
      9 H                     0.140406      -0.016104
     10 H                     0.130235       0.002346
     11 H                     0.149549       0.017007
     12 C                    -0.288437       0.104123
     13 H                     0.121303       0.000609
  --------------------------------------------------------
  Sum of atomic charges =    -0.000000
  Sum of spin   charges =     1.000000

 -----------------------------------------------------------------
                    Cartesian Multipole Moments
 -----------------------------------------------------------------
    Charge (ESU x 10^10)
                -0.0000
    Dipole Moment (Debye)
         X       0.2141      Y      -1.7133      Z      -0.0341
       Tot       1.7270
    Quadrupole Moments (Debye-Ang)
        XX     -36.3025     XY      -2.5080     YY     -40.7978
        XZ      -0.5007     YZ       0.9296     ZZ     -48.5764
    Octopole Moments (Debye-Ang^2)
       XXX       0.7185    XXY      -8.4606    XYY      -8.2801
       YYY     -20.6978    XXZ      -3.6767    XYZ      -0.1092
       YYZ       5.2193    XZZ       0.1214    YZZ     -15.1826
       ZZZ      -4.4229
    Hexadecapole Moments (Debye-Ang^3)
      XXXX    -343.7384   XXXY      -9.0757   XXYY    -103.2522
      XYYY     -17.0239   YYYY    -249.6624   XXXZ      49.0424
      XXYZ       1.7559   XYYZ      16.8173   YYYZ       6.0323
      XXZZ    -101.0405   XYZZ     -11.7783   YYZZ     -90.7102
      XZZZ      46.3211   YZZZ      13.9411   ZZZZ    -228.8776
 -----------------------------------------------------------------
 Calculating analytic gradient of the SCF energy
 Gradient of SCF Energy
            1           2           3           4           5           6
    1   0.0016295  -0.0004695  -0.0018008  -0.0015027   0.0005082  -0.0006092
    2  -0.0001883   0.0042847   0.0009870  -0.0010560  -0.0015766  -0.0056907
    3  -0.0025418   0.0028683  -0.0004988   0.0007810   0.0011229   0.0009818
            7           8           9          10          11          12
    1   0.0010257  -0.0005915   0.0003093  -0.0010327   0.0018256   0.0000326
    2  -0.0004798   0.0037824  -0.0003807  -0.0000322  -0.0007458   0.0004861
    3  -0.0008937   0.0029207  -0.0018571  -0.0002495  -0.0002814  -0.0014625
           13
    1   0.0006755
    2   0.0006097
    3  -0.0008899
 Max gradient component =       5.691E-03
 RMS gradient           =       1.755E-03
 Gradient time:  CPU 16.95 s  wall 4.63 s
rPathMan2.  file_steps = 951
 IRC --- Status = 4.  Checking bisector search.
 IRC --- Bisector search finished successfully.
 ------------------------------------------------------------------------
 Reaction path following.  The coordinates are cartesian              
 Step   2 E=    -286.751722 |G|=  0.010963 S_lin= 0.1495 S_tot= 0.1495
 ------------------------------------------------------------------------
  IRC -- SD step length =   0.150000000000000     
 ----------------------------------------------------------------
             Standard Nuclear Orientation (Angstroms)
    I     Atom           X                Y                Z
 ----------------------------------------------------------------
    1      C       1.2328910185     0.2970842757    -0.1045681393
    2      C       0.4769689793    -1.0060383331     0.3509070734
    3      C      -0.8796104781    -1.0662890931     0.2408681672
    4      C      -1.6135224082     0.1828022293     0.1393240319
    5      C      -0.8486702744     1.2557857890     0.4787878760
    6      N       0.4808540108     1.0637977419     0.8346021890
    7      H       2.2879541439     0.2117013793     0.2102616401
    8      H       1.0899761426    -1.7573835742     0.8270606265
    9      H      -1.3924272469    -2.0185991258     0.3392990630
   10      H      -2.6697263199     0.2488801711    -0.1008252778
   11      H      -1.1974634007     2.2794172700     0.5542270948
   12      C       1.2376188750     0.5600215502    -1.5494935778
   13      H       1.7784134392    -0.2179176805    -2.1119220143
 ----------------------------------------------------------------
 Nuclear Repulsion Energy =   265.9025153029 hartrees
 There are       25 alpha and       24 beta electrons

                       Distance Matrix (Angstroms)
             C (  1)   C (  2)   C (  3)   C (  4)   C (  5)   N (  6)
   C (  2)  1.573850
   C (  3)  2.537868  1.362368
   C (  4)  2.859128  2.414180  1.452297
   C (  5)  2.364807  2.624790  2.334437  1.360709
   N (  6)  1.426692  2.125605  2.596277  2.376127  1.389640
   H (  7)  1.104340  2.186856  3.415796  3.902228  3.316720  2.093199
   H (  8)  2.260353  1.080287  2.168065  3.397971  3.599838  2.886200
   H (  9)  3.528697  2.126042  1.086077  2.221495  3.322157  3.640835
   H ( 10)  3.902917  3.417685  2.247429  1.085175  2.160105  3.386041
   H ( 11)  3.204727  3.693140  3.375348  2.177394  1.084052  2.091194
   C ( 12)  1.468662  2.577335  3.214489  3.335177  2.991758  2.551548
   H ( 13)  2.142963  2.894895  3.649719  4.090711  3.973053  3.465322
             H (  7)   H (  8)   H (  9)   H ( 10)   H ( 11)   C ( 12)
   H (  8)  2.385977
   H (  9)  4.305357  2.543319
   H ( 10)  4.967570  4.361356  2.639444
   H ( 11)  4.067173  4.647857  4.307801  2.592245
   C ( 12)  2.078766  3.322676  4.139319  4.178851  3.648505
   H ( 13)  2.415935  3.388439  4.393765  4.903912  4.711781  1.101805

 
 Applying Cartesian multipole field
    Component          Value
    ---------          -----
     (2,0,0)        1.00000E-11
     (0,2,0)        2.00000E-11
     (0,0,2)       -3.00000E-11
 Nucleus-field energy     =     0.0000000026 hartrees
 Requested basis set is 6-31+G(d,p)
 There are 53 shells and 163 basis functions
 A cutoff of  1.0D-14 yielded   1384 shell pairs
 There are     13456 function pairs
 Smallest overlap matrix eigenvalue = 2.32E-05
 Guess MOs from core Hamiltonian diagonalization
 Mixing HOMO and LUMO in initial guess
 Adding  50% of the LUMO to the HOMO
 An unrestricted hybrid HF-DFT SCF calculation will be
 performed using Pulay DIIS extrapolation
 Exchange:     0.2000 Hartree-Fock + 0.0800 Slater + 0.7200 B88
 Correlation:  0.1900 VWN1RPA + 0.8100 LYP
 Using SG-1 standard quadrature grid
 SCF converges when DIIS error is below 1.0E-08
 using 4 threads for integral computing
 -------------------------------------------------------
 OpenMP Integral computing Module                
 Release: version 1.0, May 2013, Q-Chem Inc. Pittsburgh 
 -------------------------------------------------------
 -------------------------------------------------------
 OpenMP BLAS3 based DFT computing Module                
 Release: version 1.0, May 2013, Q-Chem Inc. Pittsburgh 
 -------------------------------------------------------
 ---------------------------------------
  Cycle       Energy         DIIS Error
 ---------------------------------------
    1    -231.0225733686      1.00E-01
    2    -210.7048582122      7.87E-02
    3    -266.7325557234      5.35E-02
    4    -262.2324023657      7.22E-02
    5    -284.7415813489      1.78E-02
    6    -283.2357464220      2.50E-02
    7    -286.5231543701      7.46E-03
    8    -286.6155771466      5.70E-03
    9    -286.7282456553      1.96E-03
   10    -286.7440646300      7.30E-04
   11    -286.7478447427      2.49E-04
   12    -286.7494521497      1.65E-04
   13    -286.7505560332      1.58E-04
   14    -286.7520189544      1.24E-04
   15    -286.7527317513      9.81E-05
   16    -286.7536957676      5.94E-05
   17    -286.7538906703      2.28E-05
   18    -286.7538744708      9.78E-06
   19    -286.7538838284      6.68E-06
   20    -286.7538969311      2.46E-06
   21    -286.7538977920      8.87E-07
   22    -286.7538978756      6.02E-07
   23    -286.7538979272      3.70E-07
   24    -286.7538979571      1.09E-07
   25    -286.7538979583      5.39E-08
   26    -286.7538979591      1.53E-08
   27    -286.7538979591      6.87E-09 Convergence criterion met
 ---------------------------------------
 <S^2> = 1.2711
 SCF time:  CPU 134.66 s  wall 38.68 s
 SCF   energy in the final basis set = -286.75389796
 Total energy in the final basis set = -286.75389796
 
 --------------------------------------------------------------
 
                    Orbital Energies (a.u.)
 --------------------------------------------------------------
 
 Alpha MOs
 -- Occupied --
-14.375 -10.259 -10.238 -10.232 -10.226 -10.217 -10.199  -0.966
 -0.803  -0.791  -0.705  -0.617  -0.607  -0.541  -0.496  -0.474
 -0.452  -0.439  -0.418  -0.390  -0.358  -0.316  -0.261  -0.241
 -0.219
 -- Virtual --
 -0.105  -0.034   0.000   0.018   0.027   0.032   0.038   0.049
  0.056   0.066   0.075   0.081   0.095   0.098   0.106   0.111
  0.117   0.130   0.138   0.149   0.159   0.169   0.177   0.184
  0.189   0.193   0.201   0.206   0.219   0.228   0.239   0.250
  0.261   0.271   0.276   0.278   0.285   0.312   0.332   0.341
  0.366   0.395   0.437   0.472   0.582   0.616   0.642   0.675
  0.698   0.712   0.725   0.732   0.743   0.751   0.762   0.776
  0.795   0.861   0.876   0.886   0.906   0.909   0.945   0.974
  0.994   1.018   1.034   1.048   1.073   1.085   1.097   1.132
  1.171   1.195   1.258   1.266   1.285   1.363   1.411   1.447
  1.463   1.523   1.553   1.602   1.655   1.714   1.757   1.834
  1.873   1.882   1.917   1.927   1.957   1.987   2.020   2.047
  2.074   2.083   2.111   2.144   2.211   2.234   2.330   2.370
  2.395   2.400   2.428   2.456   2.457   2.483   2.492   2.513
  2.545   2.571   2.583   2.592   2.636   2.698   2.713   2.810
  2.825   2.921   2.966   3.019   3.209   3.259   3.308   3.330
  3.395   3.505   3.756   4.143   4.262   4.334   4.373   4.526
  4.593   4.691
 
 Beta MOs
 -- Occupied --
-14.361 -10.258 -10.237 -10.231 -10.227 -10.215 -10.198  -0.945
 -0.796  -0.783  -0.700  -0.612  -0.599  -0.531  -0.490  -0.465
 -0.447  -0.434  -0.409  -0.382  -0.346  -0.296  -0.249  -0.218
 -- Virtual --
 -0.126  -0.098  -0.019   0.002   0.018   0.027   0.034   0.040
  0.050   0.058   0.068   0.074   0.084   0.097   0.099   0.104
  0.111   0.119   0.131   0.138   0.150   0.161   0.171   0.178
  0.185   0.189   0.194   0.202   0.208   0.221   0.230   0.244
  0.254   0.264   0.274   0.280   0.282   0.288   0.317   0.335
  0.348   0.370   0.400   0.441   0.477   0.583   0.616   0.655
  0.674   0.701   0.720   0.728   0.735   0.739   0.752   0.767
  0.776   0.798   0.865   0.877   0.893   0.906   0.921   0.949
  0.979   0.997   1.022   1.042   1.055   1.079   1.094   1.109
  1.135   1.176   1.198   1.264   1.278   1.292   1.368   1.414
  1.459   1.470   1.529   1.563   1.604   1.656   1.725   1.773
  1.839   1.875   1.892   1.924   1.926   1.964   1.990   2.023
  2.055   2.086   2.089   2.122   2.142   2.221   2.243   2.337
  2.372   2.400   2.404   2.435   2.458   2.463   2.494   2.497
  2.517   2.551   2.577   2.587   2.599   2.644   2.703   2.721
  2.815   2.831   2.928   2.972   3.025   3.212   3.261   3.311
  3.332   3.400   3.508   3.758   4.168   4.264   4.337   4.375
  4.526   4.596   4.694
 --------------------------------------------------------------
 
          Ground-State Mulliken Net Atomic Charges

     Atom                 Charge (a.u.)    Spin (a.u.)
  --------------------------------------------------------
      1 C                     0.100248       0.006571
      2 C                    -0.159789      -0.153372
      3 C                    -0.178568       0.225557
      4 C                    -0.040146       0.030878
      5 C                    -0.226336       0.022856
      6 N                    -0.067638       0.705073
      7 H                     0.160664       0.038013
      8 H                     0.151938       0.022248
      9 H                     0.139654      -0.011638
     10 H                     0.131473      -0.000420
     11 H                     0.149194       0.025230
     12 C                    -0.282980       0.088988
     13 H                     0.122286       0.000016
  --------------------------------------------------------
  Sum of atomic charges =    -0.000000
  Sum of spin   charges =     1.000000

 -----------------------------------------------------------------
                    Cartesian Multipole Moments
 -----------------------------------------------------------------
    Charge (ESU x 10^10)
                -0.0000
    Dipole Moment (Debye)
         X       0.1531      Y      -1.6623      Z      -0.0736
       Tot       1.6709
    Quadrupole Moments (Debye-Ang)
        XX     -36.1967     XY      -2.4291     YY     -41.0491
        XZ      -0.6068     YZ       0.7608     ZZ     -48.4757
    Octopole Moments (Debye-Ang^2)
       XXX       0.1037    XXY      -8.6014    XYY      -8.4877
       YYY     -20.5976    XXZ      -3.6564    XYZ      -0.2845
       YYZ       5.0811    XZZ       0.0159    YZZ     -15.3154
       ZZZ      -4.6689
    Hexadecapole Moments (Debye-Ang^3)
      XXXX    -341.0793   XXXY      -8.0737   XXYY    -103.9096
      XYYY     -16.4394   YYYY    -257.1571   XXXZ      48.0088
      XXYZ       1.3218   XYYZ      16.3960   YYYZ       4.4688
      XXZZ     -99.9470   XYZZ     -11.4454   YYZZ     -91.8377
      XZZZ      45.2109   YZZZ      12.4203   ZZZZ    -225.3519
 -----------------------------------------------------------------
 Calculating analytic gradient of the SCF energy
 Gradient of SCF Energy
            1           2           3           4           5           6
    1   0.0032331  -0.0015247  -0.0008908  -0.0024321  -0.0024036   0.0006260
    2   0.0019457   0.0044551  -0.0000647   0.0005637  -0.0020899  -0.0110364
    3  -0.0055913   0.0045193  -0.0004127   0.0023042   0.0017902   0.0011758
            7           8           9          10          11          12
    1   0.0009687  -0.0016884   0.0007759  -0.0017626   0.0034860   0.0007898
    2  -0.0008362   0.0066588   0.0000662   0.0000186  -0.0017043   0.0009251
    3  -0.0018523   0.0058993  -0.0034369  -0.0006081  -0.0009193  -0.0010578
           13
    1   0.0008227
    2   0.0010984
    3  -0.0018105
 Max gradient component =       1.104E-02
 RMS gradient           =       3.056E-03
 Gradient time:  CPU 16.64 s  wall 4.24 s
rPathMan2.  file_steps = 951
 IRC --- Status = 2.  Assess steepest descent step
 IRC --- Previous SD length =   0.150000
 IRC --- Point 1 E =     -286.751722 |G| =   0.010963 G.D1 =  -0.010963
 IRC --- Point 2 E =     -286.753898 |G| =   0.019083 G.D1 =  -0.017690
 IRC --- Angle(G1/G2) =   22.02 Deg.  Curvature =  -0.0449
 IRC --- Corrector step required
 IRC --- equal length displacement: B_eq =   0.057303
 IRC --- chosen bisector length  : B_len =   0.028652
 ----------------------------------------------------------------
             Standard Nuclear Orientation (Angstroms)
    I     Atom           X                Y                Z
 ----------------------------------------------------------------
    1      C       1.2320660688     0.2923558533    -0.1021415081
    2      C       0.4784404627    -0.9997919666     0.3518918946
    3      C      -0.8842771755    -1.0625811552     0.2399208239
    4      C      -1.6139043838     0.1778068893     0.1373592892
    5      C      -0.8418313341     1.2544246561     0.4791298434
    6      N       0.4773468146     1.0661494356     0.8357111001
    7      H       2.2896526125     0.2117033227     0.2108787002
    8      H       1.0913464018    -1.7575391393     0.8253649392
    9      H      -1.3929213178    -2.0201149620     0.3397239767
   10      H      -2.6697993210     0.2487251288    -0.1004638608
   11      H      -1.1981042751     2.2802618542     0.5551201518
   12      C       1.2360942694     0.5598572640    -1.5525882771
   13      H       1.7791476588    -0.2179945812    -2.1113783204
 ----------------------------------------------------------------
 Nuclear Repulsion Energy =   265.9965565299 hartrees
 There are       25 alpha and       24 beta electrons

                       Distance Matrix (Angstroms)
             C (  1)   C (  2)   C (  3)   C (  4)   C (  5)   N (  6)
   C (  2)  1.563248
   C (  3)  2.536093  1.368751
   C (  4)  2.858326  2.410533  1.442719
   C (  5)  2.358920  2.615492  2.329708  1.368214
   N (  6)  1.431057  2.121838  2.596243  2.377011  1.379431
   H (  7)  1.105882  2.183597  3.420303  3.904396  3.311407  2.098796
   H (  8)  2.254360  1.083518  2.174580  3.396660  3.595689  2.889692
   H (  9)  3.526092  2.131479  1.088830  2.218253  3.323514  3.642655
   H ( 10)  3.902110  3.416846  2.241311  1.084667  2.165370  3.383657
   H ( 11)  3.207724  3.689290  3.372304  2.183513  1.088599  2.088046
   C ( 12)  1.474913  2.575576  3.215800  3.335323  2.987989  2.556561
   H ( 13)  2.144012  2.893224  3.651817  4.089778  3.968410  3.468292
             H (  7)   H (  8)   H (  9)   H ( 10)   H ( 11)   C ( 12)
   H (  8)  2.385675
   H (  9)  4.308012  2.544873
   H ( 10)  4.969353  4.362164  2.640420
   H ( 11)  4.069630  4.649565  4.310173  2.592840
   C ( 12)  2.083510  3.323543  4.141114  4.178693  3.650692
   H ( 13)  2.416223  3.386404  4.395175  4.904563  4.713335  1.101003

 
 Applying Cartesian multipole field
    Component          Value
    ---------          -----
     (2,0,0)        1.00000E-11
     (0,2,0)        2.00000E-11
     (0,0,2)       -3.00000E-11
 Nucleus-field energy     =     0.0000000026 hartrees
 Requested basis set is 6-31+G(d,p)
 There are 53 shells and 163 basis functions
 A cutoff of  1.0D-14 yielded   1384 shell pairs
 There are     13456 function pairs
 Smallest overlap matrix eigenvalue = 2.32E-05
 Guess MOs from core Hamiltonian diagonalization
 Mixing HOMO and LUMO in initial guess
 Adding  50% of the LUMO to the HOMO
 An unrestricted hybrid HF-DFT SCF calculation will be
 performed using Pulay DIIS extrapolation
 Exchange:     0.2000 Hartree-Fock + 0.0800 Slater + 0.7200 B88
 Correlation:  0.1900 VWN1RPA + 0.8100 LYP
 Using SG-1 standard quadrature grid
 SCF converges when DIIS error is below 1.0E-08
 using 4 threads for integral computing
 -------------------------------------------------------
 OpenMP Integral computing Module                
 Release: version 1.0, May 2013, Q-Chem Inc. Pittsburgh 
 -------------------------------------------------------
 -------------------------------------------------------
 OpenMP BLAS3 based DFT computing Module                
 Release: version 1.0, May 2013, Q-Chem Inc. Pittsburgh 
 -------------------------------------------------------
 ---------------------------------------
  Cycle       Energy         DIIS Error
 ---------------------------------------
    1    -230.8245072228      1.00E-01
    2    -210.5381664901      7.85E-02
    3    -266.6707993912      5.37E-02
    4    -262.5936216423      7.19E-02
    5    -284.6588904980      1.82E-02
    6    -283.2276180981      2.50E-02
    7    -286.5334198252      7.32E-03
    8    -286.6248584621      5.54E-03
    9    -286.7310721555      1.84E-03
   10    -286.7443304301      7.36E-04
   11    -286.7478807603      2.47E-04
   12    -286.7492756695      1.49E-04
   13    -286.7502662926      1.40E-04
   14    -286.7516559403      1.15E-04
   15    -286.7524054705      9.20E-05
   16    -286.7535437565      5.60E-05
   17    -286.7537307912      2.36E-05
   18    -286.7537024220      1.27E-05
   19    -286.7537242580      8.54E-06
   20    -286.7537452376      2.56E-06
   21    -286.7537464387      1.00E-06
   22    -286.7537465301      7.07E-07
   23    -286.7537466050      4.41E-07
   24    -286.7537466516      1.49E-07
   25    -286.7537466528      8.28E-08
   26    -286.7537466550      2.60E-08
   27    -286.7537466551      7.39E-09 Convergence criterion met
 ---------------------------------------
 <S^2> = 1.2748
 SCF time:  CPU 133.15 s  wall 33.99 s
 SCF   energy in the final basis set = -286.75374666
 Total energy in the final basis set = -286.75374666
 
 --------------------------------------------------------------
 
                    Orbital Energies (a.u.)
 --------------------------------------------------------------
 
 Alpha MOs
 -- Occupied --
-14.376 -10.260 -10.239 -10.233 -10.225 -10.218 -10.198  -0.968
 -0.803  -0.792  -0.703  -0.617  -0.607  -0.541  -0.495  -0.474
 -0.452  -0.438  -0.417  -0.391  -0.358  -0.317  -0.261  -0.242
 -0.217
 -- Virtual --
 -0.105  -0.034   0.000   0.018   0.027   0.032   0.038   0.049
  0.056   0.066   0.075   0.081   0.095   0.098   0.105   0.111
  0.117   0.130   0.138   0.150   0.159   0.168   0.178   0.185
  0.189   0.193   0.201   0.206   0.220   0.228   0.241   0.251
  0.260   0.271   0.276   0.278   0.285   0.310   0.330   0.341
  0.363   0.395   0.440   0.471   0.584   0.617   0.642   0.676
  0.700   0.712   0.724   0.732   0.743   0.749   0.760   0.776
  0.793   0.860   0.876   0.885   0.905   0.908   0.944   0.974
  0.995   1.016   1.035   1.048   1.072   1.085   1.096   1.132
  1.171   1.195   1.258   1.265   1.282   1.363   1.411   1.448
  1.464   1.524   1.551   1.603   1.658   1.715   1.754   1.835
  1.874   1.884   1.914   1.927   1.959   1.987   2.018   2.048
  2.073   2.087   2.111   2.142   2.210   2.234   2.328   2.369
  2.394   2.400   2.429   2.455   2.459   2.484   2.490   2.511
  2.545   2.568   2.583   2.591   2.633   2.696   2.711   2.809
  2.825   2.920   2.965   3.016   3.208   3.255   3.302   3.330
  3.391   3.497   3.754   4.143   4.260   4.333   4.374   4.526
  4.592   4.692
 
 Beta MOs
 -- Occupied --
-14.362 -10.259 -10.238 -10.233 -10.227 -10.215 -10.198  -0.947
 -0.795  -0.784  -0.698  -0.612  -0.600  -0.531  -0.490  -0.465
 -0.447  -0.433  -0.408  -0.383  -0.346  -0.297  -0.250  -0.217
 -- Virtual --
 -0.127  -0.099  -0.019   0.002   0.018   0.027   0.034   0.040
  0.050   0.058   0.068   0.074   0.084   0.097   0.099   0.104
  0.111   0.119   0.131   0.138   0.151   0.161   0.170   0.179
  0.185   0.189   0.194   0.202   0.208   0.222   0.230   0.246
  0.254   0.264   0.274   0.279   0.282   0.288   0.315   0.334
  0.348   0.367   0.401   0.443   0.477   0.585   0.616   0.655
  0.675   0.703   0.720   0.727   0.735   0.739   0.751   0.765
  0.775   0.798   0.864   0.877   0.892   0.906   0.920   0.948
  0.980   0.997   1.020   1.043   1.054   1.079   1.094   1.109
  1.135   1.177   1.199   1.264   1.276   1.289   1.368   1.414
  1.460   1.471   1.530   1.561   1.605   1.660   1.726   1.770
  1.840   1.877   1.891   1.923   1.925   1.965   1.991   2.022
  2.055   2.087   2.091   2.122   2.141   2.220   2.244   2.336
  2.372   2.399   2.404   2.436   2.458   2.463   2.492   2.496
  2.514   2.550   2.574   2.586   2.599   2.641   2.700   2.720
  2.813   2.831   2.927   2.970   3.023   3.211   3.257   3.305
  3.332   3.397   3.500   3.757   4.168   4.262   4.336   4.376
  4.527   4.595   4.695
 --------------------------------------------------------------
 
          Ground-State Mulliken Net Atomic Charges

     Atom                 Charge (a.u.)    Spin (a.u.)
  --------------------------------------------------------
      1 C                     0.103937       0.009667
      2 C                    -0.169387      -0.158366
      3 C                    -0.173867       0.234183
      4 C                    -0.044595       0.022182
      5 C                    -0.224476       0.036228
      6 N                    -0.066373       0.696506
      7 H                     0.160733       0.037262
      8 H                     0.151617       0.022991
      9 H                     0.139752      -0.011640
     10 H                     0.131241      -0.000066
     11 H                     0.149768       0.026252
     12 C                    -0.280697       0.084572
     13 H                     0.122346       0.000228
  --------------------------------------------------------
  Sum of atomic charges =    -0.000000
  Sum of spin   charges =     1.000000

 -----------------------------------------------------------------
                    Cartesian Multipole Moments
 -----------------------------------------------------------------
    Charge (ESU x 10^10)
                -0.0000
    Dipole Moment (Debye)
         X       0.1789      Y      -1.6206      Z      -0.0648
       Tot       1.6318
    Quadrupole Moments (Debye-Ang)
        XX     -36.2156     XY      -2.3937     YY     -41.0429
        XZ      -0.6187     YZ       0.8144     ZZ     -48.4903
    Octopole Moments (Debye-Ang^2)
       XXX       0.3189    XXY      -8.5347    XYY      -8.4777
       YYY     -20.5226    XXZ      -3.6576    XYZ      -0.2530
       YYZ       5.1282    XZZ       0.0782    YZZ     -15.2255
       ZZZ      -4.6034
    Hexadecapole Moments (Debye-Ang^3)
      XXXX    -340.9469   XXXY      -8.1560   XXYY    -103.7563
      XYYY     -16.4690   YYYY    -256.6310   XXXZ      47.8688
      XXYZ       1.3345   XYYZ      16.3395   YYYZ       4.5343
      XXZZ    -100.0116   XYZZ     -11.3850   YYZZ     -91.7824
      XZZZ      45.1499   YZZZ      12.5332   ZZZZ    -225.9464
 -----------------------------------------------------------------
 Calculating analytic gradient of the SCF energy
 Gradient of SCF Energy
            1           2           3           4           5           6
    1   0.0015144   0.0018936  -0.0067690  -0.0035636   0.0079016  -0.0052173
    2  -0.0022032   0.0087745   0.0051518  -0.0073666  -0.0024431  -0.0076464
    3  -0.0028876   0.0030414  -0.0014186   0.0006067   0.0034978   0.0019437
            7           8           9          10          11          12
    1   0.0021511  -0.0001349   0.0000311  -0.0015636   0.0023134   0.0008646
    2  -0.0009360   0.0049536  -0.0015843  -0.0000682   0.0008626   0.0009778
    3  -0.0017422   0.0063078  -0.0028105  -0.0004298  -0.0004913  -0.0042627
           13
    1   0.0005783
    2   0.0015276
    3  -0.0013546
 Max gradient component =       8.774E-03
 RMS gradient           =       3.699E-03
 Gradient time:  CPU 16.40 s  wall 4.23 s
rPathMan2.  file_steps = 951
 IRC --- Status = 3.  Assess initial corrector step
 IRC --- bisector search: b =  0.000000 E =     -286.753898 G.B =  -0.003645
 IRC --- bisector search: b =  0.028652 E =     -286.753747 G.B =   0.014178
 IRC --- performed gradient/energy interpolation
 IRC --- bisector search:  estimate b(min) =   5.850205185308009E-003
 ----------------------------------------------------------------
             Standard Nuclear Orientation (Angstroms)
    I     Atom           X                Y                Z
 ----------------------------------------------------------------
    1      C       1.2327225772     0.2961188084    -0.1040726605
    2      C       0.4772694324    -1.0047629262     0.3511081579
    3      C      -0.8805633421    -1.0655319922     0.2406747350
    4      C      -1.6136004014     0.1817822617     0.1389228632
    5      C      -0.8472738735     1.2555078677     0.4788577002
    6      N       0.4801378981     1.0642779197     0.8348286107
    7      H       2.2883009437     0.2117017761     0.2103876338
    8      H       1.0902559273    -1.7574153380     0.8267143946
    9      H      -1.3925281282    -2.0189086350     0.3393858235
   10      H      -2.6697412255     0.2488485139    -0.1007514823
   11      H      -1.1975942569     2.2795897204     0.5544094426
   12      C       1.2373075753     0.5599880056    -1.5501254653
   13      H       1.7785633550    -0.2179333824    -2.1118110008
 ----------------------------------------------------------------
 Nuclear Repulsion Energy =   265.9213146352 hartrees
 There are       25 alpha and       24 beta electrons

                       Distance Matrix (Angstroms)
             C (  1)   C (  2)   C (  3)   C (  4)   C (  5)   N (  6)
   C (  2)  1.571685
   C (  3)  2.537503  1.363671
   C (  4)  2.858964  2.413431  1.450341
   C (  5)  2.363603  2.622891  2.333466  1.362240
   N (  6)  1.427581  2.124835  2.596270  2.376305  1.387554
   H (  7)  1.104653  2.186189  3.416715  3.902670  3.315635  2.094341
   H (  8)  2.259129  1.080944  2.169395  3.397703  3.598990  2.886912
   H (  9)  3.528165  2.127151  1.086636  2.220833  3.322433  3.641206
   H ( 10)  3.902751  3.417513  2.246180  1.085069  2.161180  3.385554
   H ( 11)  3.205339  3.692353  3.374726  2.178643  1.084977  2.090551
   C ( 12)  1.469938  2.576974  3.214756  3.335206  2.990987  2.552571
   H ( 13)  2.143176  2.894553  3.650146  4.090520  3.972105  3.465928
             H (  7)   H (  8)   H (  9)   H ( 10)   H ( 11)   C ( 12)
   H (  8)  2.385915
   H (  9)  4.305899  2.543636
   H ( 10)  4.967934  4.361521  2.639643
   H ( 11)  4.067675  4.648206  4.308285  2.592366
[...]
 -------------------------------------------------------
 ---------------------------------------
  Cycle       Energy         DIIS Error
 ---------------------------------------
    1    -231.6605751569      9.93E-02
    2    -213.6724060307      7.55E-02
    3    -264.8315561083      5.80E-02
    4    -266.0024066880      6.57E-02
    5    -283.6434740065      2.35E-02
    6    -285.5364534859      1.66E-02
    7    -286.4257471637      9.26E-03
    8    -286.7244598155      4.10E-03
    9    -286.7727587700      1.70E-03
   10    -286.7863484735      3.69E-04
   11    -286.7882764172      1.83E-04
   12    -286.7888341145      7.03E-05
   13    -286.7891784173      8.40E-05
   14    -286.7896104990      5.45E-05
   15    -286.7901117517      3.63E-05
   16    -286.7904174681      3.41E-05
   17    -286.7899328037      3.09E-05
   18    -286.7888720274      4.46E-05
   19    -286.7889716066      5.07E-05
   20    -286.7889252353      3.88E-05
   21    -286.7887709778      4.18E-06
   22    -286.7887469699      2.49E-06
   23    -286.7887365664      2.01E-06
   24    -286.7887343415      7.97E-07
   25    -286.7887348343      5.06E-07
   26    -286.7887344882      2.27E-07
   27    -286.7887344157      1.30E-07
   28    -286.7887343646      5.25E-08
   29    -286.7887343609      2.80E-08
   30    -286.7887343602      6.64E-09 Convergence criterion met
 ---------------------------------------
 <S^2> = 0.7828
 SCF time:  CPU 146.97 s  wall 39.44 s
 SCF   energy in the final basis set = -286.78873436
 Total energy in the final basis set = -286.78873436
 
 --------------------------------------------------------------
 
                    Orbital Energies (a.u.)
 --------------------------------------------------------------
 
 Alpha MOs
 -- Occupied --
-14.339 -10.257 -10.248 -10.232 -10.231 -10.227 -10.220  -0.946
 -0.820  -0.794  -0.700  -0.625  -0.609  -0.538  -0.495  -0.479
 -0.457  -0.434  -0.413  -0.387  -0.356  -0.312  -0.258  -0.248
 -0.213
 -- Virtual --
 -0.120  -0.030  -0.004   0.014   0.026   0.029   0.037   0.049
  0.053   0.067   0.075   0.078   0.093   0.096   0.107   0.113
  0.118   0.125   0.134   0.149   0.156   0.168   0.178   0.185
  0.189   0.191   0.203   0.210   0.218   0.227   0.242   0.256
  0.265   0.274   0.279   0.282   0.287   0.304   0.328   0.342
  0.360   0.388   0.466   0.494   0.582   0.618   0.656   0.667
  0.679   0.703   0.713   0.723   0.734   0.737   0.751   0.777
  0.795   0.845   0.865   0.877   0.913   0.924   0.960   0.975
  0.998   1.014   1.050   1.058   1.083   1.095   1.119   1.131
  1.164   1.196   1.237   1.275   1.323   1.359   1.396   1.464
  1.495   1.507   1.552   1.616   1.642   1.710   1.764   1.800
  1.838   1.861   1.916   1.925   1.955   1.963   2.006   2.041
  2.060   2.115   2.123   2.196   2.226   2.230   2.322   2.352
  2.373   2.383   2.429   2.442   2.449   2.470   2.512   2.520
  2.545   2.560   2.599   2.614   2.648   2.667   2.703   2.764
  2.863   2.888   2.976   3.072   3.215   3.249   3.289   3.332
  3.399   3.497   3.746   4.160   4.272   4.341   4.360   4.479
  4.566   4.735
 
 Beta MOs
 -- Occupied --
-14.333 -10.255 -10.249 -10.233 -10.226 -10.223 -10.219  -0.938
 -0.811  -0.786  -0.687  -0.620  -0.604  -0.536  -0.490  -0.474
 -0.450  -0.429  -0.410  -0.384  -0.337  -0.292  -0.251  -0.233
 -- Virtual --
 -0.125  -0.118  -0.015  -0.004   0.015   0.027   0.032   0.045
  0.050   0.060   0.067   0.077   0.080   0.094   0.097   0.108
  0.115   0.119   0.126   0.137   0.151   0.157   0.168   0.181
  0.185   0.191   0.193   0.204   0.212   0.224   0.231   0.244
  0.260   0.267   0.276   0.282   0.284   0.290   0.306   0.330
  0.349   0.363   0.391   0.470   0.500   0.586   0.622   0.658
  0.674   0.686   0.706   0.719   0.733   0.738   0.744   0.759
  0.779   0.798   0.848   0.869   0.880   0.916   0.927   0.964
  0.978   1.001   1.018   1.053   1.070   1.088   1.101   1.122
  1.138   1.168   1.200   1.241   1.284   1.329   1.365   1.407
  1.469   1.499   1.510   1.556   1.626   1.648   1.722   1.772
  1.802   1.841   1.869   1.923   1.933   1.961   1.969   2.011
  2.052   2.068   2.117   2.129   2.200   2.229   2.236   2.326
  2.357   2.375   2.392   2.436   2.444   2.451   2.474   2.517
  2.527   2.550   2.565   2.605   2.621   2.653   2.672   2.709
  2.767   2.867   2.893   2.979   3.075   3.217   3.250   3.291
  3.333   3.400   3.499   3.749   4.170   4.277   4.342   4.370
  4.482   4.568   4.740
 --------------------------------------------------------------
 
          Ground-State Mulliken Net Atomic Charges

     Atom                 Charge (a.u.)    Spin (a.u.)
  --------------------------------------------------------
      1 C                    -0.126005      -0.093685
      2 C                    -0.072397       0.491677
      3 C                    -0.194279      -0.251974
      4 C                    -0.032441       0.601136
      5 C                    -0.058303      -0.167082
      6 N                    -0.103388       0.320346
      7 H                     0.168445       0.011716
      8 H                     0.144995      -0.017722
      9 H                     0.142899       0.010662
     10 H                     0.136526      -0.027774
     11 H                     0.134932       0.007735
     12 C                    -0.259310       0.118220
     13 H                     0.118325      -0.003254
  --------------------------------------------------------
  Sum of atomic charges =    -0.000000
  Sum of spin   charges =     1.000000

 -----------------------------------------------------------------
                    Cartesian Multipole Moments
 -----------------------------------------------------------------
    Charge (ESU x 10^10)
                -0.0000
    Dipole Moment (Debye)
         X      -0.5067      Y      -3.0959      Z       0.3676
       Tot       3.1585
    Quadrupole Moments (Debye-Ang)
        XX     -34.9591     XY      -3.9173     YY     -44.8510
        XZ      -1.1124     YZ       0.4964     ZZ     -47.5252
    Octopole Moments (Debye-Ang^2)
       XXX      -2.4272    XXY      -8.6337    XYY     -12.0691
       YYY     -33.8723    XXZ      -2.7308    XYZ      -0.9453
       YYZ       4.3926    XZZ      -1.0450    YZZ     -16.4658
       ZZZ       2.3190
    Hexadecapole Moments (Debye-Ang^3)
      XXXX    -318.2696   XXXY      -8.3827   XXYY    -108.6294
      XYYY     -25.3804   YYYY    -314.4110   XXXZ      39.2922
      XXYZ      -2.2333   XYYZ      12.5942   YYYZ      -4.7820
      XXZZ     -91.4695   XYZZ     -11.4627   YYZZ     -97.1497
      XZZZ      43.6432   YZZZ      11.0788   ZZZZ    -206.1780
 -----------------------------------------------------------------
 Calculating analytic gradient of the SCF energy
 Gradient of SCF Energy
            1           2           3           4           5           6
    1  -0.0011798  -0.0112760   0.0082783   0.0013803  -0.0228903   0.0183552
    2  -0.0033521   0.0008460  -0.0002629  -0.0048566   0.0072005  -0.0085648
    3   0.0003871   0.0001393   0.0014510  -0.0020896   0.0010996   0.0092992
            7           8           9          10          11          12
    1   0.0012851   0.0006844   0.0003821  -0.0051970   0.0100499   0.0052084
    2   0.0000332   0.0045781  -0.0019011   0.0022522  -0.0056375  -0.0018773
    3  -0.0030689   0.0084240   0.0003688  -0.0008248  -0.0081736  -0.0025499
           13
    1  -0.0050806
    2   0.0115422
    3  -0.0044623
 Max gradient component =       2.289E-02
 RMS gradient           =       6.926E-03
 Gradient time:  CPU 16.42 s  wall 4.25 s
rPathMan2.  file_steps = 951
 IRC --- Status = 3.  Assess initial corrector step
 IRC --- bisector search: b =  0.000000 E =     -286.793941 G.B =  -0.009614
 IRC --- bisector search: b =  0.057947 E =     -286.788734 G.B =   0.036321
 IRC --- performed gradient/energy interpolation
 IRC --- bisector search:  estimate b(min) =   2.800293180135959E-003
 ----------------------------------------------------------------
             Standard Nuclear Orientation (Angstroms)
    I     Atom           X                Y                Z
 ----------------------------------------------------------------
    1      C       1.1728499199     0.2484293928    -0.0079737200
    2      C       0.5087029542    -1.0713830199     0.2904478420
    3      C      -0.8686398336    -1.0851998309     0.2199671064
    4      C      -1.5397939727     0.1597926334     0.0920447941
    5      C      -0.7854513474     1.3289319708     0.4868020263
    6      N       0.5000147239     1.3651674800     0.6431381860
    7      H       2.2502943415     0.2192747889     0.2506718198
    8      H       1.0971576915    -1.8906516831     0.6906457505
    9      H      -1.4168962451    -2.0117169430     0.3819088977
   10      H      -2.6105222322     0.2331784043    -0.0887796560
   11      H      -1.3019273757     2.2733504920     0.6548488983
   12      C       1.2041207116     0.5297681715    -1.4928020310
   13      H       1.7733471454    -0.2656792564    -2.0123911616
 ----------------------------------------------------------------
 Nuclear Repulsion Energy =   265.4401556663 hartrees
 There are       25 alpha and       24 beta electrons

                       Distance Matrix (Angstroms)
             C (  1)   C (  2)   C (  3)   C (  4)   C (  5)   N (  6)
   C (  2)  1.507333
   C (  3)  2.449123  1.379214
   C (  4)  2.715934  2.398228  1.420147
   C (  5)  2.290684  2.734027  2.430258  1.446289
   N (  6)  1.457312  2.461959  2.838413  2.432581  1.295445
   H (  7)  1.108438  2.168068  3.380880  3.793873  3.240810  2.128516
   H (  8)  2.251548  1.085191  2.175925  3.393547  3.735169  3.310468
   H (  9)  3.459343  2.144884  1.088689  2.194215  3.401420  3.891804
   H ( 10)  3.784266  3.402243  2.206264  1.088367  2.205188  3.390065
   H ( 11)  3.265603  3.820787  3.414194  2.200104  1.089456  2.017902
   C ( 12)  1.511570  2.495450  3.136564  3.190249  2.918200  2.399145
   H ( 13)  2.154668  2.748009  3.554593  3.947984  3.916146  3.366433
             H (  7)   H (  8)   H (  9)   H ( 10)   H ( 11)   C ( 12)
   H (  8)  2.444400
   H (  9)  4.294512  2.535832
   H ( 10)  4.872675  4.343391  2.585700
   H ( 11)  4.123211  4.805809  4.295290  2.535292
   C ( 12)  2.056839  3.261490  4.104073  4.075628  3.732661
   H ( 13)  2.363073  3.225551  4.354190  4.813258  4.797724  1.107578

 
 Applying Cartesian multipole field
    Component          Value
    ---------          -----
     (2,0,0)        1.00000E-11
     (0,2,0)        2.00000E-11
     (0,0,2)       -3.00000E-11
 Nucleus-field energy     =     0.0000000035 hartrees
 Requested basis set is 6-31+G(d,p)
 There are 53 shells and 163 basis functions
 A cutoff of  1.0D-14 yielded   1379 shell pairs
 There are     13435 function pairs
 Smallest overlap matrix eigenvalue = 1.91E-05
 Guess MOs from core Hamiltonian diagonalization
 Mixing HOMO and LUMO in initial guess
 Adding  50% of the LUMO to the HOMO
 An unrestricted hybrid HF-DFT SCF calculation will be
 performed using Pulay DIIS extrapolation
 Exchange:     0.2000 Hartree-Fock + 0.0800 Slater + 0.7200 B88
 Correlation:  0.1900 VWN1RPA + 0.8100 LYP
 Using SG-1 standard quadrature grid
 SCF converges when DIIS error is below 1.0E-08
 using 4 threads for integral computing
 -------------------------------------------------------
 OpenMP Integral computing Module                
 Release: version 1.0, May 2013, Q-Chem Inc. Pittsburgh 
 -------------------------------------------------------
 -------------------------------------------------------
 OpenMP BLAS3 based DFT computing Module                
 Release: version 1.0, May 2013, Q-Chem Inc. Pittsburgh 
 -------------------------------------------------------
 ---------------------------------------
  Cycle       Energy         DIIS Error
 ---------------------------------------
    1    -231.4109899829      9.95E-02
    2    -214.2320680769      7.51E-02
    3    -264.2672032777      5.96E-02
    4    -267.1093663392      6.43E-02
    5    -283.0613333509      2.59E-02
    6    -285.5878021287      1.63E-02
    7    -286.2443770109      1.09E-02
    8    -286.6824009910      4.86E-03
    9    -286.7412347864      2.70E-03
   10    -286.7819248173      7.16E-04
   11    -286.7855409660      4.20E-04
   12    -286.7884593763      1.33E-04
   13    -286.7898079534      9.18E-05
   14    -286.7909535312      1.03E-04
   15    -286.7913830205      6.86E-05
   16    -286.7921018536      4.21E-05
   17    -286.7925785914      3.67E-05
   18    -286.7923300343      3.78E-05
   19    -286.7910354831      4.73E-05
   20    -286.7910276469      4.73E-05
   21    -286.7911775104      4.15E-05
   22    -286.7908343407      5.98E-05
   23    -286.7918087711      4.68E-05
   24    -286.7900729390      8.55E-05
   25    -286.7901097958      7.41E-05
   26    -286.7904838457      2.55E-05
   27    -286.7903124182      2.11E-05
   28    -286.7901912645      1.55E-05
   29    -286.7899939159      7.01E-06
   30    -286.7899293076      5.73E-06
   31    -286.7898391532      3.55E-06
   32    -286.7898321020      5.05E-06
   33    -286.7898151771      9.14E-07
   34    -286.7898137324      1.65E-06
   35    -286.7898109596      8.50E-07
   36    -286.7898093942      1.02E-07
   37    -286.7898093772      8.74E-08
   38    -286.7898093770      3.75E-08
   39    -286.7898093742      2.03E-08
   40    -286.7898093742      4.60E-09 Convergence criterion met
 ---------------------------------------
 <S^2> = 0.7807
 SCF time:  CPU 199.21 s  wall 56.58 s
 SCF   energy in the final basis set = -286.78980937
 Total energy in the final basis set = -286.78980937
 
 --------------------------------------------------------------
 
                    Orbital Energies (a.u.)
 --------------------------------------------------------------
 
 Alpha MOs
 -- Occupied --
-14.337 -10.257 -10.249 -10.233 -10.231 -10.226 -10.222  -0.951
 -0.821  -0.794  -0.699  -0.624  -0.608  -0.538  -0.494  -0.480
 -0.457  -0.432  -0.414  -0.386  -0.357  -0.313  -0.259  -0.248
 -0.213
 -- Virtual --
 -0.119  -0.029  -0.004   0.014   0.026   0.029   0.038   0.048
  0.053   0.067   0.075   0.078   0.093   0.096   0.107   0.113
  0.118   0.125   0.134   0.149   0.156   0.168   0.178   0.185
  0.189   0.190   0.203   0.209   0.218   0.226   0.242   0.256
  0.264   0.274   0.278   0.283   0.287   0.303   0.328   0.344
  0.360   0.387   0.467   0.499   0.583   0.620   0.656   0.667
  0.680   0.704   0.713   0.720   0.735   0.739   0.750   0.777
  0.797   0.846   0.862   0.876   0.912   0.925   0.958   0.975
  0.998   1.013   1.049   1.059   1.084   1.096   1.121   1.134
  1.163   1.197   1.236   1.275   1.323   1.358   1.396   1.465
  1.494   1.507   1.556   1.614   1.642   1.711   1.761   1.798
  1.837   1.862   1.915   1.922   1.948   1.964   2.003   2.040
  2.055   2.122   2.127   2.208   2.225   2.232   2.319   2.353
  2.373   2.384   2.430   2.440   2.442   2.468   2.511   2.520
  2.541   2.559   2.598   2.613   2.654   2.671   2.702   2.760
  2.861   2.892   2.976   3.073   3.216   3.252   3.283   3.316
  3.399   3.485   3.740   4.168   4.272   4.339   4.363   4.478
  4.564   4.735
 
 Beta MOs
 -- Occupied --
-14.331 -10.255 -10.249 -10.233 -10.227 -10.224 -10.219  -0.942
 -0.812  -0.787  -0.686  -0.619  -0.604  -0.536  -0.489  -0.475
 -0.450  -0.427  -0.411  -0.383  -0.337  -0.294  -0.253  -0.234
 -- Virtual --
 -0.124  -0.118  -0.014  -0.004   0.015   0.026   0.032   0.045
  0.050   0.061   0.067   0.077   0.080   0.094   0.097   0.107
  0.115   0.119   0.126   0.137   0.151   0.157   0.168   0.181
  0.185   0.191   0.193   0.204   0.212   0.223   0.229   0.244
  0.260   0.267   0.276   0.281   0.284   0.290   0.305   0.330
  0.350   0.363   0.390   0.472   0.505   0.587   0.624   0.658
  0.674   0.687   0.708   0.717   0.734   0.738   0.745   0.759
  0.780   0.800   0.849   0.865   0.878   0.914   0.928   0.961
  0.977   1.001   1.017   1.052   1.070   1.089   1.102   1.124
  1.140   1.167   1.201   1.241   1.284   1.329   1.364   1.407
  1.470   1.497   1.511   1.561   1.624   1.648   1.723   1.769
  1.801   1.840   1.869   1.921   1.929   1.956   1.967   2.009
  2.050   2.064   2.126   2.133   2.212   2.230   2.236   2.324
  2.358   2.375   2.392   2.436   2.444   2.445   2.471   2.517
  2.526   2.545   2.565   2.603   2.621   2.659   2.676   2.708
  2.763   2.864   2.896   2.980   3.076   3.218   3.253   3.284
  3.318   3.400   3.487   3.743   4.177   4.277   4.341   4.374
  4.482   4.567   4.740
 --------------------------------------------------------------
 
          Ground-State Mulliken Net Atomic Charges

     Atom                 Charge (a.u.)    Spin (a.u.)
  --------------------------------------------------------
      1 C                    -0.117788      -0.095811
      2 C                    -0.076814       0.517872
      3 C                    -0.191184      -0.259402
      4 C                    -0.031384       0.606029
      5 C                    -0.052935      -0.147336
      6 N                    -0.103132       0.283665
      7 H                     0.168832       0.011713
      8 H                     0.145221      -0.018904
      9 H                     0.142838       0.011173
     10 H                     0.136485      -0.027991
     11 H                     0.132567       0.006447
     12 C                    -0.268522       0.116124
     13 H                     0.115816      -0.003580
  --------------------------------------------------------
  Sum of atomic charges =    -0.000000
  Sum of spin   charges =     1.000000

 -----------------------------------------------------------------
                    Cartesian Multipole Moments
 -----------------------------------------------------------------
    Charge (ESU x 10^10)
                -0.0000
    Dipole Moment (Debye)
         X      -0.4772      Y      -3.0860      Z       0.4196
       Tot       3.1507
    Quadrupole Moments (Debye-Ang)
        XX     -34.9772     XY      -3.7722     YY     -44.8583
        XZ      -1.0616     YZ       0.4189     ZZ     -47.5822
    Octopole Moments (Debye-Ang^2)
       XXX      -2.3984    XXY      -8.6242    XYY     -11.7275
       YYY     -34.1785    XXZ      -2.6071    XYZ      -0.9577
       YYZ       4.3743    XZZ      -1.0647    YZZ     -16.3215
       ZZZ       2.9364
    Hexadecapole Moments (Debye-Ang^3)
      XXXX    -317.5190   XXXY      -8.0669   XXYY    -108.5751
      XYYY     -24.6739   YYYY    -315.4651   XXXZ      39.3979
      XXYZ      -2.4570   XYYZ      12.5524   YYYZ      -5.2631
      XXZZ     -91.3229   XYZZ     -11.1548   YYZZ     -96.9449
      XZZZ      43.7423   YZZZ      10.8789   ZZZZ    -206.0561
 -----------------------------------------------------------------
 Calculating analytic gradient of the SCF energy
 Gradient of SCF Energy
            1           2           3           4           5           6
    1  -0.0003095  -0.0017750  -0.0002459  -0.0032242   0.0052260  -0.0036503
    2  -0.0027179  -0.0005750  -0.0021095   0.0012460  -0.0060905  -0.0056969
    3   0.0000718   0.0002500   0.0003858  -0.0013968   0.0011765   0.0066517
            7           8           9          10          11          12
    1   0.0012096   0.0001554   0.0008692  -0.0026361   0.0051832   0.0013775
    2  -0.0009574   0.0042118  -0.0015854   0.0007563   0.0027165   0.0041635
    3  -0.0035825   0.0083624   0.0009525  -0.0008499  -0.0069840   0.0008910
           13
    1  -0.0021801
    2   0.0066385
    3  -0.0059284
 Max gradient component =       8.362E-03
 RMS gradient           =       3.536E-03
 Gradient time:  CPU 16.61 s  wall 4.33 s
rPathMan2.  file_steps = 951
 IRC --- Status = 4.  Checking bisector search.
  IRC -- last step along bisector failed
  IRC -- this should really never happen....
  IRC -- and yet it did.
  IRC -- recommend running geom opt from here

 Q-Chem fatal error occurred in module 0, line  367:

 IRC failed final bisector step

