
Running Job 1 of 1 qcts1.in
qchem qcts1.in_55030.0 ./qcts1.d/ 1
/home/leeping/opt/qchem/5.0.2-openmp/exe/qcprog.exe_s qcts1.in_55030.0 ./qcts1.d/
Check license passed

                  Welcome to Q-Chem
     A Quantum Leap Into The Future Of Chemistry


 Q-Chem 5.0, Q-Chem, Inc., Pleasanton, CA (2017)

 Yihan Shao,  Zhengting Gan,  E. Epifanovsky,  A. T. B. Gilbert,  M. Wormit,  
 J. Kussmann,  A. W. Lange,  A. Behn,  Jia Deng,  Xintian Feng,  D. Ghosh,  
 M. Goldey,  P. R. Horn,  L. D. Jacobson,  I. Kaliman,  T. Kus,  A. Landau,  
 Jie Liu,  E. I. Proynov,  R. M. Richard,  R. P. Steele,  E. J. Sundstrom,  
 H. L. Woodcock III,  P. M. Zimmerman,  D. Zuev,  B. Albrecht,  E. Alguire,  
 S. A. Baeppler,  D. Barton,  Z. Benda,  Y. A. Bernard,  E. J. Berquist,  
 K. B. Bravaya,  H. Burton,  D. Casanova,  Chun-Min Chang,  Yunqing Chen,  
 A. Chien,  K. D. Closser,  M. P. Coons,  S. Dasgupta,  A. L. Dempwolff,  
 M. Diedenhofen,  Hainam Do,  R. G. Edgar,  Po-Tung Fang,  S. Fatehi,  
 Qingguo Feng,  J. Fosso-Tande,  Qinghui Ge,  A. Ghysels,  G. Gidofalvi,  
 J. Gomes,  J. Gonthier,  A. Gunina,  M. W. D. Hanson-Heine,  
 P. H. P. Harbach,  A. W. Hauser,  J. E. Herr,  E. G. Hohenstein,  
 Z. C. Holden,  Kerwin Hui,  T.-C. Jagau,  Hyunjun Ji,  B. Kaduk,  
 K. Khistyaev,  Jaehoon Kim,  P. Klunzinger,  K. Koh,  D. Kosenkov,  
 L. Koulias,  T. Kowalczyk,  C. M. Krauter,  A. Kunitsa,  Ka Un Lao,  
 A. Laurent,  K. V. Lawler,  Joonho Lee,  D. Lefrancois,  S. Lehtola,  
 D. S. Levine,  Yi-Pei Li,  You-Sheng Lin,  Fenglai Liu,  E. Livshits,  
 A. Luenser,  P. Manohar,  E. Mansoor,  S. F. Manzer,  Shan-Ping Mao,  
 Yuezhi Mao,  N. Mardirossian,  A. V. Marenich,  T. Markovich,  
 L. A. Martinez-Martinez,  S. A. Maurer,  N. J. Mayhall,  S. C. McKenzie,  
 J.-M. Mewes,  A. F. Morrison,  J. W. Mullinax,  K. Nanda,  
 T. S. Nguyen-Beck,  R. Olivares-Amaya,  J. A. Parkhill,  T. M. Perrine,  
 F. Plasser,  S. Prager,  A. Prociuk,  E. Ramos,  D. R. Rehn,  F. Rob,  
 M. Schneider,  N. Sergueev,  S. M. Sharada,  S. Sharma,  D. W. Small,  
 T. Stauch,  T. Stein,  Yu-Chuan Su,  A. J. W. Thom,  A. Tkatchenko,  
 T. Tsuchimochi,  L. Vogt,  O. Vydrov,  M. A. Watson,  J. Wenzel,  
 M. de Wergifosse,  T. A. Wesolowski,  A. White,  J. Witte,  A. Yamada,  
 Jun Yang,  K. Yao,  S. Yeganeh,  S. R. Yost,  Zhi-Qiang You,  A. Zech,  
 Igor Ying Zhang,  Xing Zhang,  Yan Zhao,  Ying Zhu,  B. R. Brooks,  
 G. K. L. Chan,  C. J. Cramer,  M. S. Gordon,  W. J. Hehre,  A. Klamt,  
 M. W. Schmidt,  C. D. Sherrill,  D. G. Truhlar,  A. Aspuru-Guzik,  R. Baer,  
 A. T. Bell,  N. A. Besley,  Jeng-Da Chai,  R. A. DiStasio Jr.,  A. Dreuw,  
 B. D. Dunietz,  T. R. Furlani,  Chao-Ping Hsu,  Yousung Jung,  Jing Kong,  
 D. S. Lambrecht,  WanZhen Liang,  C. Ochsenfeld,  V. A. Rassolov,  
 L. V. Slipchenko,  J. E. Subotnik,  T. Van Voorhis,  J. M. Herbert,  
 A. I. Krylov,  P. M. W. Gill,  M. Head-Gordon

 Contributors to earlier versions of Q-Chem not listed above: 
 R. D. Adamson,  B. Austin,  J. Baker,  G. J. O. Beran,  K. Brandhorst,  
 S. T. Brown,  E. F. C. Byrd,  A. K. Chakraborty,  C.-L. Cheng,  
 Siu Hung Chien,  D. M. Chipman,  D. L. Crittenden,  H. Dachsel,  
 R. J. Doerksen,  A. D. Dutoi,  L. Fusti-Molnar,  W. A. Goddard III,  
 A. Golubeva-Zadorozhnaya,  S. R. Gwaltney,  G. Hawkins,  A. Heyden,  
 S. Hirata,  G. Kedziora,  F. J. Keil,  C. Kelley,  Jihan Kim,  R. A. King,  
 R. Z. Khaliullin,  P. P. Korambath,  W. Kurlancheek,  A. M. Lee,  M. S. Lee,  
 S. V. Levchenko,  Ching Yeh Lin,  D. Liotard,  R. C. Lochan,  I. Lotan,  
 P. E. Maslen,  N. Nair,  D. P. O'Neill,  D. Neuhauser,  E. Neuscamman,  
 C. M. Oana,  R. Olson,  B. Peters,  R. Peverati,  P. A. Pieniazek,  
 Y. M. Rhee,  J. Ritchie,  M. A. Rohrdanz,  E. Rosta,  N. J. Russ,  
 H. F. Schaefer III,  N. E. Schultz,  N. Shenvi,  A. C. Simmonett,  A. Sodt,  
 D. Stuck,  K. S. Thanthiriwatte,  V. Vanovschi,  Tao Wang,  A. Warshel,  
 C. F. Williams,  Q. Wu,  X. Xu,  W. Zhang

 Please cite Q-Chem as follows:
 Y. Shao et al., Mol. Phys. 113, 184-215 (2015)
 DOI: 10.1080/00268976.2014.952696

 Q-Chem 5.0.2 for Intel X86 EM64T Linux

 Parts of Q-Chem use Armadillo 5.200.1 (Boston Tea Smuggler).
 http://arma.sourceforge.net/

 Q-Chem begins on Thu Mar  3 06:16:35 2022  

Host: 
0

     Scratch files written to ./qcts1.d//
 Dec517 15110_ 26548  26544 5633   
Processing $rem in /home/leeping/opt/qchem/5.0.2-openmp/config/preferences.
 MEM_STATIC 2000
 MEM_TOTAL  8000
 SYMMETRY   OFF
 SYM_IGNORE TRUE 

Checking the input file for inconsistencies... 	...done.

--------------------------------------------------------------
User input:
--------------------------------------------------------------
$molecule
0 2
C        1.4662243113   -0.0214065118   -0.4846542717
C        0.2148397207   -1.1572773826    0.5134859634
C       -1.1387178190   -1.1286635827    0.7252344848
C       -1.7824319724    0.0882527207    0.3356063768
C       -0.8523968556    1.0113060121   -0.0697928592
N        0.4613343870    0.7428897129    0.3280773883
H        2.3516862159   -0.2945626800    0.1171713129
H        0.8646799727   -1.9955811477    0.7945561064
H       -1.6756312825   -1.9505769172    1.2134434629
H       -2.8490714735    0.2873858775    0.4495750109
H       -1.0833506095    2.0095434078   -0.4294360540
C        1.5804865477    0.9717189357   -1.4650934200
H        2.4256053396    1.4702341554   -1.9196447486
$end

$rem
method                b3lyp
basis                 6-31g(d)
unrestricted          true
symmetry              off
sym_ignore            true
incdft                false
incfock               0
scf_convergence       8
thresh                14
jobtype               freq
scf_guess             read
scf_algorithm         diis
max_scf_cycles        100
$end

--------------------------------------------------------------
 ----------------------------------------------------------------
             Standard Nuclear Orientation (Angstroms)
    I     Atom           X                Y                Z
 ----------------------------------------------------------------
    1      C       1.4662243113    -0.0214065118    -0.4846542717
    2      C       0.2148397207    -1.1572773826     0.5134859634
    3      C      -1.1387178190    -1.1286635827     0.7252344848
    4      C      -1.7824319724     0.0882527207     0.3356063768
    5      C      -0.8523968556     1.0113060121    -0.0697928592
    6      N       0.4613343870     0.7428897129     0.3280773883
    7      H       2.3516862159    -0.2945626800     0.1171713129
    8      H       0.8646799727    -1.9955811477     0.7945561064
    9      H      -1.6756312825    -1.9505769172     1.2134434629
   10      H      -2.8490714735     0.2873858775     0.4495750109
   11      H      -1.0833506095     2.0095434078    -0.4294360540
   12      C       1.5804865477     0.9717189357    -1.4650934200
   13      H       2.4256053396     1.4702341554    -1.9196447486
 ----------------------------------------------------------------
 Nuclear Repulsion Energy =   259.5727197568 hartrees
 There are       25 alpha and       24 beta electrons
 Requested basis set is 6-31G(d)
 There are 40 shells and 117 basis functions

 Total QAlloc Memory Limit   8000 MB
 Mega-Array Size      1956 MB
 MEM_STATIC part      2000 MB

                       Distance Matrix (Angstroms)
             C (  1)   C (  2)   C (  3)   C (  4)   C (  5)   N (  6)
   C (  2)  1.962766
   C (  3)  3.078242  1.370319
   C (  4)  3.352405  2.360525  1.430756
   C (  5)  2.571888  2.486355  2.300765  1.371620
   N (  6)  1.501494  1.925038  2.494116  2.337326  1.398656
   H (  7)  1.104921  2.338259  3.639833  4.157547  3.465025  2.166615
   H (  8)  2.428086  1.097290  2.184022  3.400029  3.568868  2.807047
   H (  9)  4.059124  2.166367  1.096433  2.222348  3.331240  3.550388
   H ( 10)  4.426050  3.388021  2.237520  1.091037  2.186438  3.343805
   H ( 11)  3.260083  3.550092  3.344349  2.182971  1.085892  2.136420
   C ( 12)  1.400220  3.211291  4.074704  3.915642  2.804880  2.126106
   H ( 13)  2.281360  4.208495  5.143351  4.970272  3.791816  3.072401
             H (  7)   H (  8)   H (  9)   H ( 10)   H ( 11)   C ( 12)
   H (  8)  2.358708
   H (  9)  4.490377  2.575009
   H ( 10)  5.243762  4.372974  2.639874
   H ( 11)  4.172189  4.618875  4.328095  2.618446
   C ( 12)  2.168359  3.797797  5.129978  4.873936  3.040673
   H ( 13)  2.696033  4.670680  6.191796  5.902080  3.850240  1.081370

 
 A cutoff of  1.0D-14 yielded    792 shell pairs
 There are      7034 function pairs
 Smallest overlap matrix eigenvalue = 1.61E-03
 Guess MOs from SCF MO coefficient file
 Reading MOs from coefficient file
 Reading MOs from coefficient file
 An unrestricted hybrid HF-DFT SCF calculation will be
 performed using Pulay DIIS extrapolation
 Exchange:     0.2000 Hartree-Fock + 0.0800 Slater + 0.7200 B88
 Correlation:  0.1900 VWN1RPA + 0.8100 LYP
 Using SG-1 standard quadrature grid
 SCF converges when DIIS error is below 1.0E-08
Using Q-Chem read-in guess as SCF_GUESS READ specified.

 -------------------------------------------------------
 OpenMP BLAS3 based DFT computing Module                
 -------------------------------------------------------
 ---------------------------------------
  Cycle       Energy         DIIS Error
 ---------------------------------------
    1    -286.6498352916      2.16E-11
    2    -286.6498352916      3.81E-11 Convergence criterion met
 ---------------------------------------
 <S^2> = 1.1770
 SCF time:  CPU 3.20 s  wall 3.94 s
 SCF   energy in the final basis set = -286.64983529
 Total energy in the final basis set = -286.64983529
 
 --------------------------------------------------------------
 
                    Orbital Energies (a.u.)
 --------------------------------------------------------------
 
 Alpha MOs
 -- Occupied --
-14.363 -10.241 -10.238 -10.223 -10.203 -10.200 -10.190  -0.926
 -0.801  -0.742  -0.688  -0.594  -0.583  -0.520  -0.490  -0.473
 -0.433  -0.403  -0.399  -0.367  -0.339  -0.272  -0.241  -0.224
 -0.184
 -- Virtual --
 -0.066  -0.016   0.014   0.086   0.099   0.127   0.146   0.155
  0.168   0.197   0.201   0.276   0.301   0.349   0.380   0.423
  0.494   0.522   0.533   0.548   0.561   0.571   0.579   0.593
  0.604   0.615   0.639   0.682   0.691   0.720   0.784   0.812
  0.818   0.835   0.842   0.864   0.887   0.901   0.920   0.938
  0.973   1.014   1.023   1.053   1.114   1.140   1.180   1.281
  1.303   1.346   1.397   1.461   1.495   1.516   1.571   1.653
  1.701   1.778   1.800   1.812   1.877   1.900   1.939   1.963
  2.019   2.057   2.102   2.126   2.145   2.201   2.258   2.269
  2.303   2.366   2.440   2.497   2.533   2.593   2.604   2.649
  2.698   2.740   2.856   2.897   3.050   4.004   4.079   4.088
  4.125   4.274   4.347   4.461
 
 Beta MOs
 -- Occupied --
-14.368 -10.244 -10.235 -10.224 -10.204 -10.190 -10.179  -0.931
 -0.798  -0.741  -0.674  -0.583  -0.576  -0.518  -0.485  -0.465
 -0.430  -0.403  -0.399  -0.372  -0.339  -0.274  -0.230  -0.184
 -- Virtual --
 -0.065  -0.052  -0.016   0.039   0.084   0.100   0.128   0.148
  0.157   0.170   0.202   0.205   0.275   0.303   0.363   0.385
  0.426   0.496   0.523   0.544   0.560   0.565   0.572   0.586
  0.594   0.615   0.637   0.644   0.684   0.695   0.724   0.784
  0.812   0.818   0.835   0.848   0.868   0.894   0.908   0.925
  0.942   0.978   1.018   1.037   1.058   1.118   1.140   1.180
  1.285   1.306   1.351   1.399   1.464   1.495   1.516   1.577
  1.695   1.705   1.777   1.807   1.852   1.902   1.918   1.942
  1.967   2.020   2.066   2.116   2.130   2.151   2.207   2.257
  2.279   2.310   2.362   2.443   2.500   2.536   2.591   2.610
  2.659   2.702   2.740   2.857   2.897   3.052   3.995   4.085
  4.122   4.128   4.277   4.345   4.461
 --------------------------------------------------------------
 
          Ground-State Mulliken Net Atomic Charges

     Atom                 Charge (a.u.)    Spin (a.u.)
  --------------------------------------------------------
      1 C                    -0.032279      -0.371512
      2 C                    -0.147883       0.359278
      3 C                    -0.091261      -0.131544
      4 C                    -0.127450       0.027683
      5 C                     0.026600      -0.049447
      6 N                    -0.365733      -0.304847
      7 H                     0.177251       0.048220
      8 H                     0.166419      -0.006780
      9 H                     0.152236       0.023800
     10 H                     0.139593      -0.001257
     11 H                     0.161865      -0.010780
     12 C                    -0.210961       1.411828
     13 H                     0.151603       0.005359
  --------------------------------------------------------
  Sum of atomic charges =    -0.000000
  Sum of spin   charges =     1.000000

 -----------------------------------------------------------------
                    Cartesian Multipole Moments
 -----------------------------------------------------------------
    Charge (ESU x 10^10)
                -0.0000
    Dipole Moment (Debye)
         X      -0.1284      Y      -0.9397      Z       0.4855
       Tot       1.0655
    Quadrupole Moments (Debye-Ang)
        XX     -34.7495     XY      -1.1389     YY     -37.9277
        XZ      -1.3151     YZ      -3.4538     ZZ     -44.5463
    Octopole Moments (Debye-Ang^2)
       XXX       0.8529    XXY      -1.5866    XYY      -2.0139
       YYY     -10.2889    XXZ       1.5304    XYZ      -0.9923
       YYZ       2.8994    XZZ       0.1064    YZZ      -4.2965
       ZZZ       3.7774
    Hexadecapole Moments (Debye-Ang^3)
      XXXX    -409.6277   XXXY     -28.5360   XXYY    -109.3326
      XYYY     -36.5744   YYYY    -243.9024   XXXZ      63.9838
      XXYZ       5.8521   XYYZ      22.0794   YYYZ      44.9312
      XXZZ    -100.6620   XYZZ      -4.7058   YYZZ     -71.2102
      XZZZ      78.3826   YZZZ      56.6128   ZZZZ    -192.6287
 -----------------------------------------------------------------
 Calculating MO derivatives via CPSCF
   1         3          39      0.338409    0.072306
   2         3          39      0.056265    0.011740
   3         3          39      0.011537    0.002820
   4         3          39      0.001842    0.000476
   5        21          21      0.000160    0.000042
   6        39           3      0.000008    0.000003
   7        42           0      0.000000    0.000000    Roots Converged
 Time for AOints: 5.8 s (CPU) 6.0 s (wall)
 ------------------------------------------------------------------------------
                     AOints        : Timing summary (seconds)
 ------------------------------------------------------------------------------
     job step          cpu (% of tot)      sys (% of tot)     wall (% of tot)
 ------------------------------------------------------------------------------
  cpscf_lag         0.5265E+02 (27.6)   0.2500E-04 (34.7)   0.5430E+02 (28.1)
  iterzp            0.1322E+03 (69.3)   0.4500E-04 (62.5)   0.1330E+03 (68.7)
  make_fx           0.0000E+00 ( 0.0)   0.0000E+00 ( 0.0)   0.0000E+00 ( 0.0)
  AOints            0.5760E+01 ( 3.0)   0.1000E-05 ( 1.4)   0.6044E+01 ( 3.1)
 ------------------------------------------------------------------------------
   Grand Totals     0.1907E+03          0.7200E-04          0.1935E+03
 ------------------------------------------------------------------------------
 Calculating analytic Hessian of the SCF energy
 Polarizability Matrix (a.u.)
            1           2           3
    1 -92.7805621  -9.1267833  24.3205912
    2  -9.1267833 -73.1839525  26.2602347
    3  24.3205912  26.2602347 -56.3612866
 
 Direct stationary perturbation theory relativistic correction:
 
 rels  =       0.069293993598
 relv  =      -0.334678401099
 rel2e =       0.152414827270
 E_rel =      -0.112969580232
 
 Hessian of the SCF Energy
            1           2           3           4           5           6
    1   0.2829278  -0.1906726   0.1973887   0.0506370  -0.0747230  -0.0410553
    2  -0.1906726   0.0897685  -0.0619479   0.1095704  -0.0432040  -0.0707845
    3   0.1973887  -0.0619479   0.2558749  -0.0735719   0.0949840   0.0395915
    4   0.0506370   0.1095704  -0.0735719   0.5909108  -0.1666221   0.0674835
    5  -0.0747230  -0.0432040   0.0949840  -0.1666221   0.1942907  -0.1054135
    6  -0.0410553  -0.0707845   0.0395915   0.0674835  -0.1054135   0.0750217
    7  -0.0099978  -0.0323889  -0.0002753  -0.3748364   0.0543738   0.0249678
    8   0.0073400   0.0152499  -0.0107232  -0.0222164  -0.0782798   0.0258123
    9   0.0003320  -0.0114719   0.0084657   0.0685498   0.0195914  -0.0686844
   10   0.0049937  -0.0059902  -0.0012157  -0.0304257   0.0254534  -0.0121778
   11   0.0023866  -0.0235294  -0.0011091   0.0758487   0.0115416  -0.0095997
   12  -0.0099243  -0.0040269   0.0122071  -0.0161873  -0.0112676   0.0106473
   13  -0.0293646   0.0162201   0.0006386  -0.0358704   0.0013170   0.0090042
   14   0.0133628  -0.0104940   0.0008998   0.0007363  -0.0234424   0.0170907
   15   0.0049756   0.0000172   0.0108017   0.0042091   0.0047665  -0.0022131
   16  -0.0308847   0.0744219  -0.0423518  -0.0360328   0.0791086  -0.0098773
   17   0.1322686   0.1162134  -0.1344825  -0.0973006   0.1205488   0.0498368
   18   0.0171790  -0.0417359  -0.0445951  -0.0125640  -0.0783273  -0.0022091
   19  -0.1965679   0.0677747  -0.1090856  -0.0124948   0.0018891   0.0008687
   20   0.0624709  -0.0185088   0.0152052  -0.0164937   0.0035013   0.0054885
   21  -0.1214449   0.0479824  -0.1332265   0.0007533   0.0019190   0.0012052
   22  -0.0112225  -0.0189715   0.0174463  -0.1470899   0.1148410  -0.0481744
   23  -0.0103778  -0.0131774   0.0172079   0.1439872  -0.2155115   0.0569168
   24   0.0017124   0.0147749  -0.0100714  -0.0615267   0.0557919  -0.0324889
   25   0.0050721   0.0065528  -0.0069242  -0.0135700  -0.0200101   0.0123676
   26   0.0041581   0.0047914  -0.0044677  -0.0011719   0.0059231   0.0020659
   27   0.0089306   0.0093728  -0.0103680  -0.0031154   0.0120792   0.0061552
   28  -0.0002139  -0.0002189  -0.0015560  -0.0014764   0.0016710   0.0000180
   29  -0.0009139  -0.0005247  -0.0009161   0.0005247  -0.0039926   0.0024254
   30  -0.0036934   0.0002862   0.0017265  -0.0020403   0.0007254   0.0023762
   31  -0.0030700   0.0010889  -0.0013131  -0.0034178  -0.0030285  -0.0014838
   32   0.0018770   0.0017493  -0.0001932  -0.0004930   0.0001325  -0.0001514
   33   0.0048505   0.0036801  -0.0044277  -0.0010512  -0.0005733  -0.0023631
   34  -0.0615403  -0.0342866   0.0255165   0.0145770  -0.0110631  -0.0028704
   35   0.0642455  -0.1228139   0.0863101  -0.0254750   0.0249025   0.0274606
   36  -0.0736043   0.1092588  -0.1161765   0.0375986   0.0029919  -0.0304573
   37  -0.0007690   0.0068999  -0.0046964  -0.0009106  -0.0032071   0.0009292
   38  -0.0114222   0.0044797  -0.0007674  -0.0008946   0.0035898  -0.0011480
   39   0.0143533   0.0045947  -0.0098021  -0.0085374   0.0027325   0.0034187
            7           8           9          10          11          12
    1  -0.0099978   0.0073400   0.0003320   0.0049937   0.0023866  -0.0099243
    2  -0.0323889   0.0152499  -0.0114719  -0.0059902  -0.0235294  -0.0040269
    3  -0.0002753  -0.0107232   0.0084657  -0.0012157  -0.0011091   0.0122071
    4  -0.3748364  -0.0222164   0.0685498  -0.0304257   0.0758487  -0.0161873
    5   0.0543738  -0.0782798   0.0195914   0.0254534   0.0115416  -0.0112676
    6   0.0249678   0.0258123  -0.0686844  -0.0121778  -0.0095997   0.0106473
    7   0.6528822   0.0308139  -0.1080166  -0.1447953   0.0333085  -0.0021427
    8   0.0308139   0.5714635  -0.1862124   0.0920177  -0.2135046   0.0521911
    9  -0.1080166  -0.1862124   0.2186737  -0.0241087   0.0512172  -0.0755469
   10  -0.1447953   0.0920177  -0.0241087   0.7869656   0.0007671  -0.0738982
   11   0.0333085  -0.2135046   0.0512172   0.0007671   0.5314610  -0.1473396
   12  -0.0021427   0.0521911  -0.0755469  -0.0738982  -0.1473396   0.1736370
   13   0.0454140  -0.0408114   0.0135239  -0.2333547  -0.1021432   0.0522635
   14   0.0100491  -0.0566215   0.0233136  -0.1529263  -0.2302165   0.0741473
   15  -0.0043069   0.0176990   0.0023600   0.0725914   0.0821543  -0.0901290
   16  -0.0375385   0.0094639  -0.0057883  -0.0800591  -0.0538093   0.0143060
   17  -0.0252481  -0.0395043   0.0096815  -0.0034837   0.0096693   0.0082652
   18   0.0239062   0.0121108  -0.0046195  -0.0005037   0.0015184   0.0051957
   19   0.0022393  -0.0014897   0.0020507   0.0000717   0.0014114   0.0000475
   20   0.0005222   0.0005313   0.0016140  -0.0001939  -0.0009774   0.0015226
   21   0.0008395  -0.0010805  -0.0001461   0.0004780  -0.0000034  -0.0002902
   22  -0.0068502   0.0228790  -0.0109185  -0.0039444   0.0010450   0.0012798
   23  -0.0023632   0.0033257  -0.0006487   0.0021476   0.0038979   0.0003467
   24   0.0122495  -0.0062608   0.0020833   0.0024386   0.0056696   0.0014976
   25  -0.1174711  -0.0969236   0.0638101   0.0121570   0.0120735  -0.0051115
   26  -0.0928334  -0.2030674   0.0938903  -0.0154450  -0.0119966   0.0081445
   27   0.0602922   0.0968357  -0.0895659   0.0040916   0.0025025   0.0020351
   28  -0.0040762  -0.0037204   0.0014194  -0.3221148   0.0512547   0.0300806
   29   0.0252505   0.0016149  -0.0044282   0.0523935  -0.0645192   0.0069143
   30  -0.0063522  -0.0034048   0.0014149   0.0346532   0.0077805  -0.0390347
   31  -0.0020475  -0.0024128   0.0015106   0.0108353  -0.0185807   0.0068268
   32  -0.0022762  -0.0009672   0.0033252   0.0073267  -0.0110309   0.0048155
   33   0.0019022   0.0017693   0.0071320  -0.0033893   0.0079093   0.0032690
   34  -0.0042617   0.0061930  -0.0028920  -0.0005354  -0.0051401   0.0033006
   35  -0.0000042  -0.0014583   0.0003479  -0.0010310  -0.0010300   0.0069658
   36  -0.0065093   0.0034682  -0.0031558   0.0009822  -0.0038319  -0.0017863
   37   0.0013393  -0.0011333   0.0005277   0.0002060   0.0015778  -0.0008409
   38   0.0007960   0.0012178  -0.0002199  -0.0010360   0.0002347  -0.0006789
   39   0.0034457  -0.0022048   0.0015889   0.0000584   0.0031318  -0.0017018
           13          14          15          16          17          18
    1  -0.0293646   0.0133628   0.0049756  -0.0308847   0.1322686   0.0171790
    2   0.0162201  -0.0104940   0.0000172   0.0744219   0.1162134  -0.0417359
    3   0.0006386   0.0008998   0.0108017  -0.0423518  -0.1344825  -0.0445951
    4  -0.0358704   0.0007363   0.0042091  -0.0360328  -0.0973006  -0.0125640
    5   0.0013170  -0.0234424   0.0047665   0.0791086   0.1205488  -0.0783273
    6   0.0090042   0.0170907  -0.0022131  -0.0098773   0.0498368  -0.0022091
    7   0.0454140   0.0100491  -0.0043069  -0.0375385  -0.0252481   0.0239062
    8  -0.0408114  -0.0566215   0.0176990   0.0094639  -0.0395043   0.0121108
    9   0.0135239   0.0233136   0.0023600  -0.0057883   0.0096815  -0.0046195
   10  -0.2333547  -0.1529263   0.0725914  -0.0800591  -0.0034837  -0.0005037
   11  -0.1021432  -0.2302165   0.0821543  -0.0538093   0.0096693   0.0015184
   12   0.0522635   0.0741473  -0.0901290   0.0143060   0.0082652   0.0051957
   13   0.5283727   0.0418336  -0.0249337  -0.1872226   0.0491980  -0.0494872
   14   0.0418336   0.6973678  -0.2131309   0.0211916  -0.0773822   0.0092329
   15  -0.0249337  -0.2131309   0.2101594  -0.0225107   0.0084548  -0.0730619
   16  -0.1872226   0.0211916  -0.0225107   0.3855473  -0.1071445   0.0082540
   17   0.0491980  -0.0773822   0.0084548  -0.1071445  -0.0957484   0.0674796
   18  -0.0494872   0.0092329  -0.0730619   0.0082540   0.0674796   0.1412763
   19  -0.0010945   0.0032969   0.0009187  -0.0151126  -0.0016789  -0.0092883
   20   0.0009232  -0.0012890  -0.0000719   0.0129914  -0.0149194   0.0012264
   21   0.0013635  -0.0032200  -0.0001711   0.0172084  -0.0041116   0.0086696
   22  -0.0049158  -0.0010211  -0.0010732   0.0103236   0.0138795  -0.0024489
   23  -0.0063152  -0.0001633  -0.0010953   0.0130404   0.0173619  -0.0069258
   24  -0.0042134  -0.0009614   0.0011983   0.0033787  -0.0022448  -0.0070696
   25  -0.0029856   0.0038280  -0.0012321  -0.0036981  -0.0073595   0.0022049
   26   0.0026547  -0.0040733   0.0032628  -0.0011183  -0.0029720   0.0023530
   27   0.0024313   0.0009083   0.0035306  -0.0071165  -0.0097085   0.0069988
   28  -0.0116898   0.0068571  -0.0024667  -0.0022256  -0.0009966   0.0039134
   29  -0.0201237   0.0075076  -0.0025767  -0.0040370  -0.0004829   0.0051346
   30   0.0084908  -0.0047841   0.0001892   0.0014785   0.0057810   0.0066884
   31  -0.0616546   0.0501825  -0.0218590  -0.0098718   0.0283804  -0.0074166
   32   0.0488525  -0.2988524   0.0974247   0.0049089  -0.0014814  -0.0009599
   33  -0.0137745   0.0935698  -0.0629546  -0.0116110   0.0041707  -0.0005705
   34  -0.0044609   0.0037988  -0.0042280   0.0032542   0.0193742   0.0240021
   35   0.0078030  -0.0015086   0.0034159  -0.0471904  -0.0301934   0.0221982
   36   0.0072578   0.0061453   0.0004639   0.0544619  -0.0004203  -0.0393633
   37  -0.0011734  -0.0011893  -0.0000845   0.0035208   0.0001111   0.0022491
   38   0.0005914  -0.0008325  -0.0003203  -0.0018272  -0.0011095   0.0066949
   39  -0.0025649  -0.0032112  -0.0001733   0.0001682  -0.0027019   0.0026602
           19          20          21          22          23          24
    1  -0.1965679   0.0624709  -0.1214449  -0.0112225  -0.0103778   0.0017124
    2   0.0677747  -0.0185088   0.0479824  -0.0189715  -0.0131774   0.0147749
    3  -0.1090856   0.0152052  -0.1332265   0.0174463   0.0172079  -0.0100714
    4  -0.0124948  -0.0164937   0.0007533  -0.1470899   0.1439872  -0.0615267
    5   0.0018891   0.0035013   0.0019190   0.1148410  -0.2155115   0.0557919
    6   0.0008687   0.0054885   0.0012052  -0.0481744   0.0569168  -0.0324889
    7   0.0022393   0.0005222   0.0008395  -0.0068502  -0.0023632   0.0122495
    8  -0.0014897   0.0005313  -0.0010805   0.0228790   0.0033257  -0.0062608
    9   0.0020507   0.0016140  -0.0001461  -0.0109185  -0.0006487   0.0020833
   10   0.0000717  -0.0001939   0.0004780  -0.0039444   0.0021476   0.0024386
   11   0.0014114  -0.0009774  -0.0000034   0.0010450   0.0038979   0.0056696
   12   0.0000475   0.0015226  -0.0002902   0.0012798   0.0003467   0.0014976
   13  -0.0010945   0.0009232   0.0013635  -0.0049158  -0.0063152  -0.0042134
   14   0.0032969  -0.0012890  -0.0032200  -0.0010211  -0.0001633  -0.0009614
   15   0.0009187  -0.0000719  -0.0001711  -0.0010732  -0.0010953   0.0011983
   16  -0.0151126   0.0129914   0.0172084   0.0103236   0.0130404   0.0033787
   17  -0.0016789  -0.0149194  -0.0041116   0.0138795   0.0173619  -0.0022448
   18  -0.0092883   0.0012264   0.0086696  -0.0024489  -0.0069258  -0.0070696
   19   0.2208578  -0.0652737   0.1113557   0.0005177  -0.0006637  -0.0005397
   20  -0.0652737   0.0514059  -0.0487625  -0.0003811   0.0006322  -0.0011338
   21   0.1113557  -0.0487625   0.1276066   0.0013956   0.0002498   0.0008656
   22   0.0005177  -0.0003811   0.0013956   0.1640998  -0.1387654   0.0438621
   23  -0.0006637   0.0006322   0.0002498  -0.1387654   0.1965595  -0.0644792
   24  -0.0005397  -0.0011338   0.0008656   0.0438621  -0.0644792   0.0418929
   25  -0.0005712  -0.0008225  -0.0001323   0.0008422   0.0010790  -0.0005098
   26   0.0000205  -0.0003165  -0.0001771   0.0001197   0.0005494  -0.0012542
   27  -0.0001931  -0.0008149  -0.0004655   0.0010967   0.0003088  -0.0020557
   28  -0.0001223  -0.0000090   0.0001069   0.0000037   0.0002687   0.0004706
   29  -0.0002233  -0.0000410   0.0000823   0.0017550   0.0006103   0.0000381
   30  -0.0003468  -0.0002346   0.0002004  -0.0004328  -0.0000883   0.0007051
   31  -0.0008529   0.0010829   0.0008301   0.0004775   0.0004239   0.0000471
   32  -0.0001603  -0.0009496  -0.0000797  -0.0002543  -0.0001020   0.0007902
   33   0.0002119  -0.0005174   0.0005042  -0.0001939   0.0000311   0.0022889
   34   0.0032602   0.0049670  -0.0136793  -0.0017195  -0.0018297   0.0029730
   35  -0.0048055  -0.0182535   0.0078381   0.0041386   0.0051393  -0.0007702
   36   0.0040542   0.0262065  -0.0041736  -0.0027840  -0.0024884   0.0019020
   37  -0.0001306   0.0002163   0.0009255  -0.0005221  -0.0006318  -0.0003424
   38  -0.0000974  -0.0008154  -0.0006367   0.0007354   0.0008779   0.0000395
   39  -0.0000539   0.0002719  -0.0005785   0.0009452   0.0006645  -0.0007481
           25          26          27          28          29          30
    1   0.0050721   0.0041581   0.0089306  -0.0002139  -0.0009139  -0.0036934
    2   0.0065528   0.0047914   0.0093728  -0.0002189  -0.0005247   0.0002862
    3  -0.0069242  -0.0044677  -0.0103680  -0.0015560  -0.0009161   0.0017265
    4  -0.0135700  -0.0011719  -0.0031154  -0.0014764   0.0005247  -0.0020403
    5  -0.0200101   0.0059231   0.0120792   0.0016710  -0.0039926   0.0007254
    6   0.0123676   0.0020659   0.0061552   0.0000180   0.0024254   0.0023762
    7  -0.1174711  -0.0928334   0.0602922  -0.0040762   0.0252505  -0.0063522
    8  -0.0969236  -0.2030674   0.0968357  -0.0037204   0.0016149  -0.0034048
    9   0.0638101   0.0938903  -0.0895659   0.0014194  -0.0044282   0.0014149
   10   0.0121570  -0.0154450   0.0040916  -0.3221148   0.0523935   0.0346532
   11   0.0120735  -0.0119966   0.0025025   0.0512547  -0.0645192   0.0077805
   12  -0.0051115   0.0081445   0.0020351   0.0300806   0.0069143  -0.0390347
   13  -0.0029856   0.0026547   0.0024313  -0.0116898  -0.0201237   0.0084908
   14   0.0038280  -0.0040733   0.0009083   0.0068571   0.0075076  -0.0047841
   15  -0.0012321   0.0032628   0.0035306  -0.0024667  -0.0025767   0.0001892
   16  -0.0036981  -0.0011183  -0.0071165  -0.0022256  -0.0040370   0.0014785
   17  -0.0073595  -0.0029720  -0.0097085  -0.0009966  -0.0004829   0.0057810
   18   0.0022049   0.0023530   0.0069988   0.0039134   0.0051346   0.0066884
   19  -0.0005712   0.0000205  -0.0001931  -0.0001223  -0.0002233  -0.0003468
   20  -0.0008225  -0.0003165  -0.0008149  -0.0000090  -0.0000410  -0.0002346
   21  -0.0001323  -0.0001771  -0.0004655   0.0001069   0.0000823   0.0002004
   22   0.0008422   0.0001197   0.0010967   0.0000037   0.0017550  -0.0004328
   23   0.0010790   0.0005494   0.0003088   0.0002687   0.0006103  -0.0000883
   24  -0.0005098  -0.0012542  -0.0020557   0.0004706   0.0000381   0.0007051
   25   0.1194086   0.1043969  -0.0669957   0.0000266  -0.0010541  -0.0001266
   26   0.1043969   0.2138636  -0.1051155   0.0001473   0.0003985  -0.0010534
   27  -0.0669957  -0.1051155   0.0816839  -0.0005069  -0.0006157  -0.0011020
   28   0.0000266   0.0001473  -0.0005069   0.3412045  -0.0544312  -0.0308243
   29  -0.0010541   0.0003985  -0.0006157  -0.0544312   0.0595424  -0.0044197
   30  -0.0001266  -0.0010534  -0.0011020  -0.0308243  -0.0044197   0.0305202
   31   0.0009777  -0.0010608   0.0002205   0.0003209   0.0007679  -0.0004413
   32   0.0005638  -0.0003676   0.0003328  -0.0006340  -0.0000140  -0.0012195
   33  -0.0004335   0.0002576  -0.0000730  -0.0008146  -0.0015217  -0.0028729
   34  -0.0001032   0.0000987   0.0006773   0.0003965   0.0000264  -0.0004891
   35  -0.0026321  -0.0028302  -0.0062694  -0.0002656  -0.0000796   0.0005349
   36   0.0031771   0.0021431   0.0033598   0.0002158  -0.0001602  -0.0011046
   37  -0.0000850   0.0000335   0.0001874  -0.0000331   0.0000652   0.0001243
   38   0.0003080   0.0000975   0.0001838   0.0000770  -0.0000197   0.0000964
   39  -0.0000939  -0.0000493  -0.0001333  -0.0000563   0.0000436   0.0002933
           31          32          33          34          35          36
    1  -0.0030700   0.0018770   0.0048505  -0.0615403   0.0642455  -0.0736043
    2   0.0010889   0.0017493   0.0036801  -0.0342866  -0.1228139   0.1092588
    3  -0.0013131  -0.0001932  -0.0044277   0.0255165   0.0863101  -0.1161765
    4  -0.0034178  -0.0004930  -0.0010512   0.0145770  -0.0254750   0.0375986
    5  -0.0030285   0.0001325  -0.0005733  -0.0110631   0.0249025   0.0029919
    6  -0.0014838  -0.0001514  -0.0023631  -0.0028704   0.0274606  -0.0304573
    7  -0.0020475  -0.0022762   0.0019022  -0.0042617  -0.0000042  -0.0065093
    8  -0.0024128  -0.0009672   0.0017693   0.0061930  -0.0014583   0.0034682
    9   0.0015106   0.0033252   0.0071320  -0.0028920   0.0003479  -0.0031558
   10   0.0108353   0.0073267  -0.0033893  -0.0005354  -0.0010310   0.0009822
   11  -0.0185807  -0.0110309   0.0079093  -0.0051401  -0.0010300  -0.0038319
   12   0.0068268   0.0048155   0.0032690   0.0033006   0.0069658  -0.0017863
   13  -0.0616546   0.0488525  -0.0137745  -0.0044609   0.0078030   0.0072578
   14   0.0501825  -0.2988524   0.0935698   0.0037988  -0.0015086   0.0061453
   15  -0.0218590   0.0974247  -0.0629546  -0.0042280   0.0034159   0.0004639
   16  -0.0098718   0.0049089  -0.0116110   0.0032542  -0.0471904   0.0544619
   17   0.0283804  -0.0014814   0.0041707   0.0193742  -0.0301934  -0.0004203
   18  -0.0074166  -0.0009599  -0.0005705   0.0240021   0.0221982  -0.0393633
   19  -0.0008529  -0.0001603   0.0002119   0.0032602  -0.0048055   0.0040542
   20   0.0010829  -0.0009496  -0.0005174   0.0049670  -0.0182535   0.0262065
   21   0.0008301  -0.0000797   0.0005042  -0.0136793   0.0078381  -0.0041736
   22   0.0004775  -0.0002543  -0.0001939  -0.0017195   0.0041386  -0.0027840
   23   0.0004239  -0.0001020   0.0000311  -0.0018297   0.0051393  -0.0024884
   24   0.0000471   0.0007902   0.0022889   0.0029730  -0.0007702   0.0019020
   25   0.0009777   0.0005638  -0.0004335  -0.0001032  -0.0026321   0.0031771
   26  -0.0010608  -0.0003676   0.0002576   0.0000987  -0.0028302   0.0021431
   27   0.0002205   0.0003328  -0.0000730   0.0006773  -0.0062694   0.0033598
   28   0.0003209  -0.0006340  -0.0008146   0.0003965  -0.0002656   0.0002158
   29   0.0007679  -0.0000140  -0.0015217   0.0000264  -0.0000796  -0.0001602
   30  -0.0004413  -0.0012195  -0.0028729  -0.0004891   0.0005349  -0.0011046
   31   0.0678924  -0.0571002   0.0236467   0.0004627   0.0002313  -0.0005867
   32  -0.0571002   0.3118505  -0.1062993  -0.0026082  -0.0001163   0.0017471
   33   0.0236467  -0.1062993   0.0591410   0.0006800  -0.0026135   0.0007805
   34   0.0004627  -0.0026082   0.0006800   0.2753015   0.1340324  -0.1453066
   35   0.0002313  -0.0001163  -0.0026135   0.1340324   0.2510952  -0.2200813
   36  -0.0005867   0.0017471   0.0007805  -0.1453066  -0.2200813   0.2590282
   37  -0.0000518  -0.0000028  -0.0000234  -0.2246311  -0.1290469   0.1210433
   38   0.0000252   0.0001492   0.0001375  -0.1135629  -0.1028532   0.0750212
   39   0.0000187   0.0004675   0.0001462   0.1123158   0.0746627  -0.0693170
           37          38          39
    1  -0.0007690  -0.0114222   0.0143533
    2   0.0068999   0.0044797   0.0045947
    3  -0.0046964  -0.0007674  -0.0098021
    4  -0.0009106  -0.0008946  -0.0085374
    5  -0.0032071   0.0035898   0.0027325
    6   0.0009292  -0.0011480   0.0034187
    7   0.0013393   0.0007960   0.0034457
    8  -0.0011333   0.0012178  -0.0022048
    9   0.0005277  -0.0002199   0.0015889
   10   0.0002060  -0.0010360   0.0000584
   11   0.0015778   0.0002347   0.0031318
   12  -0.0008409  -0.0006789  -0.0017018
   13  -0.0011734   0.0005914  -0.0025649
   14  -0.0011893  -0.0008325  -0.0032112
   15  -0.0000845  -0.0003203  -0.0001733
   16   0.0035208  -0.0018272   0.0001682
   17   0.0001111  -0.0011095  -0.0027019
   18   0.0022491   0.0066949   0.0026602
   19  -0.0001306  -0.0000974  -0.0000539
   20   0.0002163  -0.0008154   0.0002719
   21   0.0009255  -0.0006367  -0.0005785
   22  -0.0005221   0.0007354   0.0009452
   23  -0.0006318   0.0008779   0.0006645
   24  -0.0003424   0.0000395  -0.0007481
   25  -0.0000850   0.0003080  -0.0000939
   26   0.0000335   0.0000975  -0.0000493
   27   0.0001874   0.0001838  -0.0001333
   28  -0.0000331   0.0000770  -0.0000563
   29   0.0000652  -0.0000197   0.0000436
   30   0.0001243   0.0000964   0.0002933
   31  -0.0000518   0.0000252   0.0000187
   32  -0.0000028   0.0001492   0.0004675
   33  -0.0000234   0.0001375   0.0001462
   34  -0.2246311  -0.1135629   0.1123158
   35  -0.1290469  -0.1028532   0.0746627
   36   0.1210433   0.0750212  -0.0693170
   37   0.2232407   0.1263073  -0.1199989
   38   0.1263073   0.0949836  -0.0784021
   39  -0.1199989  -0.0784021   0.0743468
 Gradient time:  CPU 250.83 s  wall 253.90 s
 **********************************************************************
 **                                                                  **
 **                       VIBRATIONAL ANALYSIS                       **
 **                       --------------------                       **
 **                                                                  **
 **        VIBRATIONAL FREQUENCIES (CM**-1) AND NORMAL MODES         **
 **     FORCE CONSTANTS (mDYN/ANGSTROM) AND REDUCED MASSES (AMU)     **
 **                  INFRARED INTENSITIES (KM/MOL)                   **
 **                                                                  **
 **********************************************************************
 

 Mode:                 1                      2                      3
 Frequency:     -1048.46                -407.45                 154.99
 Force Cnst:      4.1225                 0.5010                 0.0588
 Red. Mass:       6.3651                 5.1217                 4.1562
 IR Active:          YES                    YES                    YES
 IR Intens:       84.486                  2.325                  1.616
 Raman Active:       YES                    YES                    YES
               X      Y      Z        X      Y      Z        X      Y      Z
 C         -0.241 -0.242  0.217   -0.113 -0.234  0.022    0.038 -0.063 -0.046
 C          0.125 -0.277 -0.142    0.174  0.359 -0.141    0.005  0.081 -0.148
 C          0.069  0.023 -0.016    0.059  0.032 -0.161    0.018 -0.004  0.041
 C          0.031 -0.006 -0.024   -0.021 -0.054 -0.044   -0.096 -0.032  0.206
 C         -0.011  0.034 -0.015    0.016  0.030  0.094   -0.163 -0.011  0.040
 N          0.096  0.390 -0.077   -0.050  0.001  0.192   -0.131  0.058 -0.174
 H         -0.019  0.249  0.157    0.023  0.094 -0.001   -0.062 -0.009  0.133
 H         -0.216 -0.485  0.042    0.150  0.504  0.357    0.034  0.103 -0.150
 H          0.128  0.134  0.260    0.238 -0.082 -0.178    0.141 -0.057  0.085
 H          0.029 -0.016 -0.033   -0.029 -0.088 -0.058   -0.079 -0.051  0.414
 H         -0.124  0.027  0.036    0.040  0.060  0.156   -0.243 -0.026  0.037
 C         -0.070  0.016  0.013   -0.097 -0.158 -0.033    0.325 -0.029  0.036
 H          0.011  0.067  0.214    0.063 -0.211  0.186    0.521 -0.068  0.344
 TransDip   0.142  0.126 -0.225    0.009 -0.019  0.044    0.017  0.012  0.035

 Mode:                 4                      5                      6
 Frequency:       242.36                 343.24                 385.72
 Force Cnst:      0.0776                 0.1392                 0.2718
 Red. Mass:       2.2416                 2.0054                 3.1009
 IR Active:          YES                    YES                    YES
 IR Intens:        8.693                 83.860                  2.403
 Raman Active:       YES                    YES                    YES
               X      Y      Z        X      Y      Z        X      Y      Z
 C         -0.036 -0.157 -0.114   -0.036  0.129  0.114   -0.049 -0.003 -0.123
 C          0.015  0.050  0.038    0.012 -0.041 -0.069   -0.014 -0.003  0.275
 C         -0.002  0.042  0.075    0.011  0.022  0.012   -0.042 -0.086 -0.092
 C          0.013  0.008 -0.007    0.019  0.034  0.029    0.009 -0.057 -0.069
 C          0.035 -0.042 -0.095    0.027  0.007 -0.021   -0.014  0.063  0.162
 N          0.024 -0.066 -0.062   -0.021 -0.104  0.020    0.043  0.113 -0.053
 H         -0.006 -0.198 -0.178   -0.015  0.247  0.149   -0.050 -0.108 -0.174
 H         -0.006  0.077  0.172   -0.016 -0.050 -0.021    0.026 -0.039  0.062
 H          0.014  0.085  0.165    0.004  0.051  0.056   -0.130 -0.160 -0.318
 H          0.016  0.031 -0.015    0.019  0.038  0.025   -0.001 -0.072 -0.145
 H          0.074 -0.071 -0.189    0.078 -0.004 -0.080   -0.101  0.134  0.409
 C         -0.063  0.140  0.123   -0.035 -0.082 -0.166    0.060 -0.043 -0.122
 H          0.030  0.502  0.669    0.251  0.329  0.796    0.265  0.220  0.528
 TransDip  -0.026  0.000  0.091   -0.061  0.020  0.286    0.042  0.002  0.027

 Mode:                 7                      8                      9
 Frequency:       477.47                 598.52                 615.01
 Force Cnst:      0.4247                 0.4769                 0.8440
 Red. Mass:       3.1618                 2.2595                 3.7873
 IR Active:          YES                    YES                    YES
 IR Intens:        2.074                 32.519                  2.198
 Raman Active:       YES                    YES                    YES
               X      Y      Z        X      Y      Z        X      Y      Z
 C          0.235 -0.050  0.078    0.107 -0.052  0.041    0.229 -0.001 -0.087
 C          0.007  0.027  0.051    0.008 -0.001 -0.035   -0.128  0.014 -0.169
 C         -0.020 -0.029 -0.173    0.024  0.069  0.073   -0.108 -0.020  0.144
 C         -0.009  0.065  0.152   -0.048 -0.045 -0.177   -0.070 -0.079 -0.045
 C         -0.019  0.007 -0.040   -0.038  0.073  0.130    0.015 -0.067  0.092
 N          0.003  0.053 -0.127   -0.018 -0.089 -0.116    0.077  0.198  0.145
 H          0.180  0.087  0.222    0.091  0.210  0.198    0.196 -0.146 -0.116
 H         -0.037 -0.033 -0.017   -0.012 -0.019 -0.040   -0.060  0.136  0.018
 H         -0.067 -0.160 -0.453    0.102  0.205  0.403   -0.059 -0.025  0.194
 H          0.018  0.113  0.334   -0.020  0.006  0.004   -0.107 -0.097 -0.389
 H         -0.041 -0.005 -0.059   -0.012  0.257  0.623   -0.072 -0.256 -0.377
 C         -0.166 -0.113  0.069   -0.025 -0.015  0.010   -0.008 -0.079 -0.067
 H         -0.435  0.384  0.121   -0.236  0.255 -0.076   -0.132  0.405  0.234
 TransDip  -0.004  0.024  0.039    0.103  0.139  0.059   -0.037 -0.024 -0.017

 Mode:                10                     11                     12
 Frequency:       681.51                 738.82                 764.40
 Force Cnst:      0.3994                 0.7460                 0.5531
 Red. Mass:       1.4594                 2.3195                 1.6067
 IR Active:          YES                    YES                    YES
 IR Intens:       31.019                  7.013                154.003
 Raman Active:       YES                    YES                    YES
               X      Y      Z        X      Y      Z        X      Y      Z
 C         -0.004 -0.021  0.010   -0.040  0.020  0.076   -0.045 -0.083 -0.015
 C         -0.022 -0.030 -0.004   -0.082  0.161 -0.002    0.033  0.025  0.062
 C         -0.086 -0.044 -0.070   -0.099 -0.082  0.015    0.011  0.042 -0.002
 C         -0.030  0.004  0.040    0.014 -0.058 -0.007   -0.054  0.026  0.020
 C          0.041 -0.047  0.032    0.072 -0.146 -0.104   -0.020 -0.043 -0.029
 N          0.033 -0.019 -0.018    0.119  0.046 -0.018   -0.008 -0.026  0.090
 H          0.104  0.392  0.073   -0.003  0.053  0.042    0.037  0.356  0.106
 H         -0.011  0.245  0.771   -0.084 -0.003 -0.490   -0.131 -0.273 -0.390
 H         -0.028  0.071  0.196    0.063 -0.055  0.235    0.016 -0.039 -0.142
 H          0.003  0.132  0.145    0.113  0.284  0.359   -0.068 -0.012 -0.049
 H          0.048 -0.061 -0.013   -0.041  0.070  0.571    0.039 -0.041 -0.068
 C          0.054  0.087 -0.069   -0.014  0.028 -0.021    0.121  0.015 -0.073
 H         -0.016  0.100 -0.190    0.085 -0.076  0.040   -0.337  0.590 -0.257
 TransDip   0.026  0.169  0.051    0.070 -0.017  0.045    0.063  0.192 -0.342

 Mode:                13                     14                     15
 Frequency:       800.60                 817.41                 846.40
 Force Cnst:      0.9023                 0.7372                 0.7180
 Red. Mass:       2.3893                 1.8727                 1.7010
 IR Active:          YES                    YES                    YES
 IR Intens:       13.718                  7.815                 14.211
 Raman Active:       YES                    YES                    YES
               X      Y      Z        X      Y      Z        X      Y      Z
 C          0.114 -0.004 -0.085    0.027 -0.020  0.025    0.062 -0.092 -0.063
 C          0.068 -0.099  0.050    0.022  0.042  0.039   -0.032 -0.020 -0.007
 C          0.042  0.106 -0.062   -0.003  0.075 -0.018   -0.041 -0.059  0.087
 C         -0.144  0.019 -0.045   -0.120  0.010  0.008    0.102  0.005  0.019
 C         -0.084 -0.057 -0.095    0.035 -0.096  0.133   -0.005  0.080 -0.073
 N          0.004  0.022  0.149    0.062 -0.030 -0.085   -0.060  0.004  0.042
 H          0.214  0.002 -0.227    0.118  0.327  0.079    0.211  0.716  0.144
 H         -0.069 -0.204  0.093   -0.136 -0.202 -0.283    0.069  0.024 -0.120
 H          0.076  0.182  0.118    0.085 -0.043 -0.124   -0.217 -0.113 -0.204
 H         -0.066  0.133  0.592   -0.155 -0.025 -0.324    0.070 -0.069 -0.166
 H         -0.037  0.094  0.285    0.151 -0.245 -0.336   -0.089  0.151  0.160
 C         -0.034  0.017 -0.026   -0.065  0.078 -0.011   -0.038  0.046 -0.004
 H          0.290 -0.293  0.199    0.316 -0.450  0.073    0.233 -0.286  0.094
 TransDip   0.015 -0.042  0.110   -0.025 -0.070 -0.050    0.076  0.042 -0.084

 Mode:                16                     17                     18
 Frequency:       888.31                 908.39                1040.81
 Force Cnst:      0.6698                 0.6702                 2.2218
 Red. Mass:       1.4407                 1.3786                 3.4810
 IR Active:          YES                    YES                    YES
 IR Intens:        3.468                  5.053                  9.918
 Raman Active:       YES                    YES                    YES
               X      Y      Z        X      Y      Z        X      Y      Z
 C          0.017 -0.020 -0.026   -0.030  0.000 -0.007    0.021 -0.060  0.118
 C         -0.011  0.025  0.054   -0.001 -0.005 -0.011   -0.039  0.067 -0.010
 C         -0.021 -0.095 -0.100   -0.002  0.021  0.075    0.002 -0.086  0.065
 C          0.052 -0.005 -0.018    0.017 -0.053 -0.120   -0.052 -0.038 -0.026
 C         -0.010  0.087  0.038    0.047  0.006  0.069   -0.197  0.216 -0.057
 N         -0.037  0.001  0.026   -0.035  0.017 -0.012    0.241 -0.092  0.014
 H          0.023  0.107  0.035   -0.025  0.117  0.046    0.065 -0.235 -0.026
 H         -0.017 -0.110 -0.314    0.049  0.032 -0.025   -0.297 -0.099  0.153
 H          0.149  0.248  0.688   -0.147 -0.146 -0.383    0.120 -0.326 -0.214
 H          0.080  0.044  0.197    0.161  0.307  0.695   -0.102 -0.404  0.314
 H          0.030 -0.088 -0.469    0.079 -0.141 -0.356   -0.101  0.132 -0.347
 C         -0.009 -0.006  0.007    0.003 -0.004  0.010   -0.000  0.090 -0.091
 H          0.029 -0.045  0.033   -0.022  0.017 -0.009    0.113 -0.042 -0.063
 TransDip   0.054  0.025  0.002    0.036  0.062 -0.008   -0.077 -0.064  0.003

 Mode:                19                     20                     21
 Frequency:      1059.61                1122.48                1161.49
 Force Cnst:      1.2281                 0.8907                 1.0972
 Red. Mass:       1.8565                 1.1999                 1.3804
 IR Active:          YES                    YES                    YES
 IR Intens:        4.875                  2.167                  8.912
 Raman Active:       YES                    YES                    YES
               X      Y      Z        X      Y      Z        X      Y      Z
 C         -0.018  0.005 -0.011   -0.040  0.013  0.001    0.033 -0.020  0.013
 C          0.058 -0.041  0.001    0.022 -0.027 -0.000   -0.007  0.003  0.007
 C          0.014 -0.156  0.061   -0.031  0.013 -0.013   -0.015 -0.028  0.019
 C         -0.147  0.128 -0.034   -0.055 -0.008  0.009   -0.046 -0.031  0.018
 C         -0.006  0.040 -0.021   -0.009  0.005 -0.009    0.096  0.028 -0.029
 N          0.018  0.006 -0.003    0.078  0.002 -0.011   -0.092  0.044 -0.006
 H          0.038  0.066 -0.064    0.053  0.157 -0.059   -0.085 -0.184  0.102
 H          0.412  0.218 -0.092    0.529  0.330 -0.230   -0.118 -0.089  0.021
 H          0.355 -0.396  0.055   -0.423  0.283  0.023    0.108 -0.115  0.012
 H         -0.098  0.547 -0.175   -0.121 -0.416  0.153   -0.104 -0.386  0.134
 H          0.222  0.101 -0.017    0.184  0.038 -0.039    0.796  0.225  0.062
 C          0.002 -0.029  0.029    0.007 -0.034  0.037   -0.008  0.043 -0.048
 H         -0.031  0.018  0.032   -0.049  0.025  0.014    0.042 -0.007 -0.032
 TransDip   0.068 -0.002 -0.019   -0.045 -0.009 -0.009    0.081 -0.022  0.046

 Mode:                22                     23                     24
 Frequency:      1167.81                1235.68                1286.59
 Force Cnst:      1.4916                 1.1460                 1.4606
 Red. Mass:       1.8564                 1.2739                 1.4976
 IR Active:          YES                    YES                    YES
 IR Intens:        6.226                 32.130                 21.021
 Raman Active:       YES                    YES                    YES
               X      Y      Z        X      Y      Z        X      Y      Z
 C         -0.075  0.087 -0.092    0.015 -0.037 -0.041   -0.007  0.056 -0.112
 C         -0.110  0.001 -0.009   -0.087 -0.047  0.022    0.087  0.039 -0.029
 C          0.051  0.036 -0.015    0.038  0.052 -0.027    0.013 -0.068  0.022
 C         -0.004 -0.018 -0.004   -0.002  0.024 -0.010   -0.035 -0.007  0.004
 C          0.024  0.013 -0.016    0.029 -0.012 -0.004   -0.040  0.000 -0.009
 N          0.062  0.006 -0.014    0.026  0.004  0.029    0.069  0.006  0.008
 H          0.136  0.530 -0.182   -0.448 -0.061  0.628   -0.453  0.091  0.553
 H         -0.279 -0.070  0.165    0.279  0.250 -0.073   -0.309 -0.246  0.169
 H          0.506 -0.230  0.026    0.346 -0.127 -0.001   -0.388  0.182  0.024
 H         -0.050 -0.336  0.123   -0.025 -0.164  0.095   -0.018  0.153 -0.052
 H          0.124  0.046  0.010   -0.229 -0.066  0.005    0.183  0.059  0.014
 C          0.014 -0.122  0.134   -0.022  0.031 -0.030   -0.013 -0.043  0.052
 H         -0.124  0.011  0.085    0.042 -0.019  0.019   -0.034 -0.048  0.042
 TransDip   0.022  0.066 -0.040   -0.067 -0.128  0.110   -0.105  0.103  0.005

 Mode:                25                     26                     27
 Frequency:      1390.57                1447.17                1561.86
 Force Cnst:      2.6898                 4.0728                 5.8400
 Red. Mass:       2.3609                 3.3007                 4.0633
 IR Active:          YES                    YES                    YES
 IR Intens:        0.418                  3.934                  4.445
 Raman Active:       YES                    YES                    YES
               X      Y      Z        X      Y      Z        X      Y      Z
 C         -0.000 -0.037  0.021    0.003 -0.030  0.026   -0.014 -0.025  0.025
 C         -0.166 -0.001  0.007   -0.088  0.060 -0.013   -0.170  0.006  0.018
 C          0.162  0.020 -0.037    0.205 -0.187  0.037    0.269 -0.036 -0.029
 C          0.101 -0.013  0.003   -0.018  0.289 -0.107   -0.210 -0.208  0.093
 C         -0.211 -0.088  0.030    0.043 -0.115  0.053    0.212  0.162 -0.070
 N          0.028  0.020  0.013   -0.051  0.018 -0.008   -0.011 -0.004  0.005
 H          0.043  0.042  0.003    0.086 -0.010 -0.093    0.070  0.038 -0.069
 H          0.075  0.241 -0.010   -0.267 -0.032  0.099   -0.103  0.105 -0.033
 H         -0.065  0.174 -0.066   -0.380  0.160  0.008   -0.373  0.382 -0.060
 H          0.181  0.394 -0.151   -0.146 -0.556  0.270   -0.149  0.480 -0.165
 H          0.742  0.090 -0.016   -0.275 -0.185  0.092   -0.329  0.095 -0.047
 C         -0.002  0.015 -0.022   -0.004  0.014 -0.020   -0.000  0.013 -0.012
 H          0.034  0.013  0.023    0.033  0.007  0.024    0.009  0.014 -0.008
 TransDip  -0.008 -0.003 -0.019    0.041 -0.040 -0.027    0.016  0.065  0.007

 Mode:                28                     29                     30
 Frequency:      3007.11                3100.70                3122.77
 Force Cnst:      5.7815                 6.1416                 6.3185
 Red. Mass:       1.0852                 1.0842                 1.0997
 IR Active:          YES                    YES                    YES
 IR Intens:       12.865                  4.600                  3.511
 Raman Active:       YES                    YES                    YES
               X      Y      Z        X      Y      Z        X      Y      Z
 C         -0.065  0.025 -0.046   -0.003  0.001 -0.002    0.004  0.001  0.001
 C          0.004 -0.004  0.002   -0.036  0.039 -0.014    0.047 -0.047  0.016
 C          0.001 -0.000  0.000   -0.028 -0.049  0.027   -0.033 -0.043  0.026
 C          0.000 -0.000 -0.000    0.005  0.000 -0.001    0.007  0.001 -0.002
 C          0.000 -0.000 -0.000    0.000  0.001  0.000   -0.001  0.000 -0.000
 N         -0.000  0.000 -0.001    0.001  0.001 -0.001   -0.001 -0.001  0.000
 H          0.787 -0.282  0.537    0.038 -0.014  0.026   -0.036  0.011 -0.024
 H         -0.041  0.048 -0.013    0.407 -0.476  0.163   -0.477  0.552 -0.190
 H         -0.004 -0.006  0.004    0.366  0.571 -0.326    0.316  0.484 -0.279
 H         -0.001 -0.001  0.000   -0.076  0.012  0.008   -0.094  0.013  0.009
 H         -0.002  0.002  0.000    0.002 -0.008  0.005    0.000 -0.001 -0.000
 C          0.001  0.000  0.000   -0.000 -0.000  0.000    0.000  0.000  0.000
 H         -0.028 -0.016  0.014    0.001  0.001  0.001   -0.006 -0.004  0.002
 TransDip  -0.109  0.029  0.022   -0.033 -0.057  0.020    0.003 -0.057  0.018

 Mode:                31                     32                     33
 Frequency:      3171.33                3214.03                3245.98
 Force Cnst:      6.4732                 6.6630                 6.7683
 Red. Mass:       1.0924                 1.0948                 1.0903
 IR Active:          YES                    YES                    YES
 IR Intens:        7.450                  6.545                 11.873
 Raman Active:       YES                    YES                    YES
               X      Y      Z        X      Y      Z        X      Y      Z
 C          0.000  0.000 -0.000    0.000  0.000  0.001   -0.005  0.005 -0.003
 C          0.002 -0.001  0.000   -0.001  0.001 -0.000    0.001 -0.001 -0.001
 C         -0.004 -0.011  0.005   -0.000  0.003 -0.001   -0.000 -0.000 -0.000
 C         -0.084  0.015  0.007    0.023 -0.001 -0.003   -0.000  0.000 -0.000
 C          0.006 -0.014  0.005    0.013 -0.080  0.029    0.000 -0.001  0.000
 N          0.001 -0.000  0.000    0.001 -0.000 -0.001    0.001  0.000 -0.000
 H         -0.000 -0.000  0.000   -0.002 -0.002 -0.001    0.022 -0.005  0.018
 H         -0.013  0.014 -0.004    0.005 -0.007  0.002   -0.006  0.004 -0.001
 H          0.053  0.090 -0.050   -0.008 -0.014  0.009    0.003  0.003  0.000
 H          0.943 -0.175 -0.089   -0.212  0.036  0.021    0.002 -0.000 -0.000
 H         -0.050  0.205 -0.076   -0.196  0.894 -0.326   -0.002  0.008 -0.003
 C          0.000  0.000  0.000   -0.000  0.001 -0.000   -0.063 -0.044  0.039
 H         -0.004 -0.002  0.002   -0.006 -0.004  0.005    0.763  0.472 -0.432
 TransDip  -0.087  0.003  0.004    0.071 -0.039 -0.014   -0.044 -0.051  0.087

 STANDARD THERMODYNAMIC QUANTITIES AT   298.15 K  AND     1.00 ATM

   This Molecule has  2 Imaginary Frequencies
   Zero point vibrational energy:       58.039 kcal/mol

   Atom    1 Element C  Has Mass   12.00000
   Atom    2 Element C  Has Mass   12.00000
   Atom    3 Element C  Has Mass   12.00000
   Atom    4 Element C  Has Mass   12.00000
   Atom    5 Element C  Has Mass   12.00000
   Atom    6 Element N  Has Mass   14.00307
   Atom    7 Element H  Has Mass    1.00783
   Atom    8 Element H  Has Mass    1.00783
   Atom    9 Element H  Has Mass    1.00783
   Atom   10 Element H  Has Mass    1.00783
   Atom   11 Element H  Has Mass    1.00783
   Atom   12 Element C  Has Mass   12.00000
   Atom   13 Element H  Has Mass    1.00783
   Molecular Mass:    92.050050 amu
   Principal axes and moments of inertia in amu*Bohr^2:
                             1           2           3
    Eigenvalues --      302.51017   700.20563   924.75560
          X               0.83418    -0.47176     0.28564
          Y               0.34148     0.84854     0.40419
          Z              -0.43306    -0.23963     0.86893
   Rotational Symmetry Number is   1
   The Molecule is an Asymmetric Top
   Translational Enthalpy:        0.889 kcal/mol
   Rotational Enthalpy:           0.889 kcal/mol
   Vibrational Enthalpy:         60.034 kcal/mol
   gas constant (RT):             0.592 kcal/mol
   Translational Entropy:        39.471  cal/mol.K
   Rotational Entropy:           26.774  cal/mol.K
   Vibrational Entropy:          10.300  cal/mol.K

   Total Enthalpy:               62.404 kcal/mol
   Total Entropy:                76.544  cal/mol.K
Archival summary:
1\1\c8-68\FREQ\ProcedureUnspecified\6-31G*\166(2)\hpark21\ThuMar306:20:552022ThuMar306:20:552022\0\\#,FREQ,ProcedureUnspecified,6-31G*,\\0,2\N\C,1,1.39866\H,2,1.08589,1,118.061\C,2,1.37162,1,115.066,3,-164.863,0\H,4,1.09104,2,124.816,1,156.445,0\C,4,1.43076,2,110.353,1,-17.347,0\H,6,1.09643,4,122.583,2,171.252,0\C,6,1.37032,4,114.84,2,-5.07374,0\H,8,1.09729,6,124.149,4,177.3,0\C,1,1.50149,2,124.913,3,-102.918,0\H,10,1.10492,1,111.552,2,-167.588,0\C,10,1.40022,1,94.1627,2,68.4661,0\H,12,1.08137,10,133.242,1,129.914,0\\\@

 Total job time:  259.17s(wall), 254.22s(cpu) 
 Thu Mar  3 06:20:55 2022

        *************************************************************
        *                                                           *
        *  Thank you very much for using Q-Chem.  Have a nice day.  *
        *                                                           *
        *************************************************************


