
Running Job 1 of 1 qcts2.in
qchem qcts2.in_56056.0 ./qcts2.d/ 1
/home/leeping/opt/qchem/5.0.2-openmp/exe/qcprog.exe_s qcts2.in_56056.0 ./qcts2.d/
Check license passed

                  Welcome to Q-Chem
     A Quantum Leap Into The Future Of Chemistry


 Q-Chem 5.0, Q-Chem, Inc., Pleasanton, CA (2017)

 Yihan Shao,  Zhengting Gan,  E. Epifanovsky,  A. T. B. Gilbert,  M. Wormit,  
 J. Kussmann,  A. W. Lange,  A. Behn,  Jia Deng,  Xintian Feng,  D. Ghosh,  
 M. Goldey,  P. R. Horn,  L. D. Jacobson,  I. Kaliman,  T. Kus,  A. Landau,  
 Jie Liu,  E. I. Proynov,  R. M. Richard,  R. P. Steele,  E. J. Sundstrom,  
 H. L. Woodcock III,  P. M. Zimmerman,  D. Zuev,  B. Albrecht,  E. Alguire,  
 S. A. Baeppler,  D. Barton,  Z. Benda,  Y. A. Bernard,  E. J. Berquist,  
 K. B. Bravaya,  H. Burton,  D. Casanova,  Chun-Min Chang,  Yunqing Chen,  
 A. Chien,  K. D. Closser,  M. P. Coons,  S. Dasgupta,  A. L. Dempwolff,  
 M. Diedenhofen,  Hainam Do,  R. G. Edgar,  Po-Tung Fang,  S. Fatehi,  
 Qingguo Feng,  J. Fosso-Tande,  Qinghui Ge,  A. Ghysels,  G. Gidofalvi,  
 J. Gomes,  J. Gonthier,  A. Gunina,  M. W. D. Hanson-Heine,  
 P. H. P. Harbach,  A. W. Hauser,  J. E. Herr,  E. G. Hohenstein,  
 Z. C. Holden,  Kerwin Hui,  T.-C. Jagau,  Hyunjun Ji,  B. Kaduk,  
 K. Khistyaev,  Jaehoon Kim,  P. Klunzinger,  K. Koh,  D. Kosenkov,  
 L. Koulias,  T. Kowalczyk,  C. M. Krauter,  A. Kunitsa,  Ka Un Lao,  
 A. Laurent,  K. V. Lawler,  Joonho Lee,  D. Lefrancois,  S. Lehtola,  
 D. S. Levine,  Yi-Pei Li,  You-Sheng Lin,  Fenglai Liu,  E. Livshits,  
 A. Luenser,  P. Manohar,  E. Mansoor,  S. F. Manzer,  Shan-Ping Mao,  
 Yuezhi Mao,  N. Mardirossian,  A. V. Marenich,  T. Markovich,  
 L. A. Martinez-Martinez,  S. A. Maurer,  N. J. Mayhall,  S. C. McKenzie,  
 J.-M. Mewes,  A. F. Morrison,  J. W. Mullinax,  K. Nanda,  
 T. S. Nguyen-Beck,  R. Olivares-Amaya,  J. A. Parkhill,  T. M. Perrine,  
 F. Plasser,  S. Prager,  A. Prociuk,  E. Ramos,  D. R. Rehn,  F. Rob,  
 M. Schneider,  N. Sergueev,  S. M. Sharada,  S. Sharma,  D. W. Small,  
 T. Stauch,  T. Stein,  Yu-Chuan Su,  A. J. W. Thom,  A. Tkatchenko,  
 T. Tsuchimochi,  L. Vogt,  O. Vydrov,  M. A. Watson,  J. Wenzel,  
 M. de Wergifosse,  T. A. Wesolowski,  A. White,  J. Witte,  A. Yamada,  
 Jun Yang,  K. Yao,  S. Yeganeh,  S. R. Yost,  Zhi-Qiang You,  A. Zech,  
 Igor Ying Zhang,  Xing Zhang,  Yan Zhao,  Ying Zhu,  B. R. Brooks,  
 G. K. L. Chan,  C. J. Cramer,  M. S. Gordon,  W. J. Hehre,  A. Klamt,  
 M. W. Schmidt,  C. D. Sherrill,  D. G. Truhlar,  A. Aspuru-Guzik,  R. Baer,  
 A. T. Bell,  N. A. Besley,  Jeng-Da Chai,  R. A. DiStasio Jr.,  A. Dreuw,  
 B. D. Dunietz,  T. R. Furlani,  Chao-Ping Hsu,  Yousung Jung,  Jing Kong,  
 D. S. Lambrecht,  WanZhen Liang,  C. Ochsenfeld,  V. A. Rassolov,  
 L. V. Slipchenko,  J. E. Subotnik,  T. Van Voorhis,  J. M. Herbert,  
 A. I. Krylov,  P. M. W. Gill,  M. Head-Gordon

 Contributors to earlier versions of Q-Chem not listed above: 
 R. D. Adamson,  B. Austin,  J. Baker,  G. J. O. Beran,  K. Brandhorst,  
 S. T. Brown,  E. F. C. Byrd,  A. K. Chakraborty,  C.-L. Cheng,  
 Siu Hung Chien,  D. M. Chipman,  D. L. Crittenden,  H. Dachsel,  
 R. J. Doerksen,  A. D. Dutoi,  L. Fusti-Molnar,  W. A. Goddard III,  
 A. Golubeva-Zadorozhnaya,  S. R. Gwaltney,  G. Hawkins,  A. Heyden,  
 S. Hirata,  G. Kedziora,  F. J. Keil,  C. Kelley,  Jihan Kim,  R. A. King,  
 R. Z. Khaliullin,  P. P. Korambath,  W. Kurlancheek,  A. M. Lee,  M. S. Lee,  
 S. V. Levchenko,  Ching Yeh Lin,  D. Liotard,  R. C. Lochan,  I. Lotan,  
 P. E. Maslen,  N. Nair,  D. P. O'Neill,  D. Neuhauser,  E. Neuscamman,  
 C. M. Oana,  R. Olson,  B. Peters,  R. Peverati,  P. A. Pieniazek,  
 Y. M. Rhee,  J. Ritchie,  M. A. Rohrdanz,  E. Rosta,  N. J. Russ,  
 H. F. Schaefer III,  N. E. Schultz,  N. Shenvi,  A. C. Simmonett,  A. Sodt,  
 D. Stuck,  K. S. Thanthiriwatte,  V. Vanovschi,  Tao Wang,  A. Warshel,  
 C. F. Williams,  Q. Wu,  X. Xu,  W. Zhang

 Please cite Q-Chem as follows:
 Y. Shao et al., Mol. Phys. 113, 184-215 (2015)
 DOI: 10.1080/00268976.2014.952696

 Q-Chem 5.0.2 for Intel X86 EM64T Linux

 Parts of Q-Chem use Armadillo 5.200.1 (Boston Tea Smuggler).
 http://arma.sourceforge.net/

 Q-Chem begins on Thu Mar  3 06:35:24 2022  

Host: 
0

     Scratch files written to ./qcts2.d//
 Dec517 15110_ 26548  26544 5633   
Processing $rem in /home/leeping/opt/qchem/5.0.2-openmp/config/preferences.
 MEM_STATIC 2000
 MEM_TOTAL  8000
 SYMMETRY   OFF
 SYM_IGNORE TRUE 

Checking the input file for inconsistencies... 	...done.

--------------------------------------------------------------
User input:
--------------------------------------------------------------
$molecule
0 2
C        1.2536826845    0.2091140761   -0.1312055995
C        0.4334043103   -0.9904690268    0.4618146580
C       -0.9343261611   -1.0751027621    0.3150455837
C       -1.6306436286    0.1588744695    0.1492426968
C       -0.8238753246    1.2288111844    0.4365433708
N        0.4854759029    0.9772403678    0.8144878109
H        2.2888527114    0.1025273602    0.2240116564
H        1.0349891321   -1.7497053376    0.9525910805
H       -1.4494548886   -2.0227768737    0.4475540971
H       -2.6785481870    0.2461691350   -0.1124552676
H       -1.1483985459    2.2673144702    0.4616689685
C        1.2270958318    0.4597376542   -1.5576902527
H        1.9250026451    0.2215278828   -2.3530800501
$end

$rem
method                b3lyp
basis                 6-31+g(d,p)
unrestricted          true
symmetry              off
sym_ignore            true
incdft                false
incfock               0
scf_convergence       8
thresh                14
jobtype               sp
scf_guess             core
scf_guess_mix         5
scf_algorithm         diis
max_scf_cycles        100
$end

--------------------------------------------------------------
 ----------------------------------------------------------------
             Standard Nuclear Orientation (Angstroms)
    I     Atom           X                Y                Z
 ----------------------------------------------------------------
    1      C       1.2536826845     0.2091140761    -0.1312055995
    2      C       0.4334043103    -0.9904690268     0.4618146580
    3      C      -0.9343261611    -1.0751027621     0.3150455837
    4      C      -1.6306436286     0.1588744695     0.1492426968
    5      C      -0.8238753246     1.2288111844     0.4365433708
    6      N       0.4854759029     0.9772403678     0.8144878109
    7      H       2.2888527114     0.1025273602     0.2240116564
    8      H       1.0349891321    -1.7497053376     0.9525910805
    9      H      -1.4494548886    -2.0227768737     0.4475540971
   10      H      -2.6785481870     0.2461691350    -0.1124552676
   11      H      -1.1483985459     2.2673144702     0.4616689685
   12      C       1.2270958318     0.4597376542    -1.5576902527
   13      H       1.9250026451     0.2215278828    -2.3530800501
 ----------------------------------------------------------------
 Nuclear Repulsion Energy =   266.5308879529 hartrees
 There are       25 alpha and       24 beta electrons
 Requested basis set is 6-31+G(d,p)
 There are 53 shells and 163 basis functions

 Total QAlloc Memory Limit   8000 MB
 Mega-Array Size      1956 MB
 MEM_STATIC part      2000 MB

                       Distance Matrix (Angstroms)
             C (  1)   C (  2)   C (  3)   C (  4)   C (  5)   N (  6)
   C (  2)  1.569563
   C (  3)  2.575992  1.378184
   C (  4)  2.898364  2.383062  1.426551
   C (  5)  2.382933  2.550803  2.309758  1.370468
   N (  6)  1.440311  1.999742  2.545072  2.364368  1.385832
   H (  7)  1.099599  2.166536  3.432780  3.920614  3.317041  2.089486
   H (  8)  2.249314  1.085912  2.177098  3.375447  3.548696  2.785188
   H (  9)  3.552922  2.147329  1.086739  2.209394  3.311238  3.588691
   H ( 10)  3.932450  3.397544  2.229535  1.083610  2.169515  3.377090
   H ( 11)  3.218335  3.621499  3.352473  2.185335  1.088318  2.111473
   C ( 12)  1.448578  2.609875  3.245708  3.342277  2.962250  2.538708
   H ( 13)  2.321110  3.408436  4.120183  4.348352  4.043878  3.560453
             H (  7)   H (  8)   H (  9)   H ( 10)   H ( 11)   C ( 12)
   H (  8)  2.352396
   H (  9)  4.306023  2.549920
   H ( 10)  4.980855  4.348356  2.640530
   H ( 11)  4.069088  4.598330  4.300665  2.599232
   C ( 12)  2.104611  3.349635  4.165070  4.169937  3.603903
   H ( 13)  2.605369  3.950360  4.926197  5.119930  4.642612  1.084649

 
 A cutoff of  1.0D-14 yielded   1380 shell pairs
 There are     13448 function pairs
 
 -------------------------------------------------------
 OpenMP Integral Computing Module                       
 Release: version 1.0, May 2013, Q-Chem Inc. Pittsburgh 
 -------------------------------------------------------
 Integral Job Info:
 Integral job number is                      11
 Integral operator is                         1
 short-range coefficients                     0
 long-range coefficients              100000000
 Omega coefficients                           0
 if combine SR and LR in K                    0
 Integral screening is                        0
 Integral computing path is                   2
 max size of driver memory is            800000
 size of driver memory is                593474
 size of scratch memory is              2361544
 max col of scratch BK array               1296
 max len of scratch array in speh3          155
 max len of scratch index in speh4           18
 max int batch size is                      520
 min int batch size is                       52
 fixed nKL is                                52
 max L of basis functions is                  2
 order of int derivative is                   0
 number of shells is                         53
 number of basis is                         163
 number of cartesian basis is               163
 number of contracted shell pairs          1380
 number of primitive shell pairs           4649
 maxK2 (contraction) of shell pair           36
 max number of K2 of shell pair               1
 max number of CS2 of shell pair            130
 max number of PS2 of shell pair            672
 mem total for path MDJ                  535308
 -------------------------------------------------------
 Smallest overlap matrix eigenvalue = 2.19E-05

 Scale SEOQF with 1.000000e-01/1.000000e-01/1.000000e-01

 Standard Electronic Orientation quadrupole field applied
 Nucleus-field energy     =     0.0000000023 hartrees
 Guess MOs from core Hamiltonian diagonalization
 Mixing HOMO and LUMO in initial guess
 Adding  50% of the LUMO to the HOMO
 An unrestricted hybrid HF-DFT SCF calculation will be
 performed using Pulay DIIS extrapolation
 Exchange:     0.2000 Hartree-Fock + 0.0800 Slater + 0.7200 B88
 Correlation:  0.1900 VWN1RPA + 0.8100 LYP
 Using SG-1 standard quadrature grid
 SCF converges when DIIS error is below 1.0E-08
 using 4 threads for integral computing
 -------------------------------------------------------
 OpenMP Integral computing Module                
 Release: version 1.0, May 2013, Q-Chem Inc. Pittsburgh 
 -------------------------------------------------------
 -------------------------------------------------------
 OpenMP BLAS3 based DFT computing Module                
 Release: version 1.0, May 2013, Q-Chem Inc. Pittsburgh 
 -------------------------------------------------------
 ---------------------------------------
  Cycle       Energy         DIIS Error
 ---------------------------------------
    1    -230.4854474541      1.01E-01
    2    -210.2930046432      7.83E-02
    3    -266.2479419780      5.46E-02
    4    -263.1857502760      7.07E-02
    5    -284.4488733365      1.96E-02
    6    -282.9098841053      2.61E-02
    7    -286.5149889332      7.46E-03
    8    -286.5038951558      7.15E-03
    9    -286.7030041486      2.40E-03
   10    -286.7203847153      1.23E-03
   11    -286.7297629723      2.59E-04
   12    -286.7329209211      9.38E-05
   13    -286.7353644153      7.98E-05
   14    -286.7377467634      1.14E-04
   15    -286.7385895481      1.08E-04
   16    -286.7389258268      1.06E-04
   17    -286.7413247410      7.49E-05
   18    -286.7419897006      3.69E-05
   19    -286.7420407792      1.90E-05
   20    -286.7419445120      2.47E-05
   21    -286.7419861144      2.24E-05
   22    -286.7420369312      1.81E-05
   23    -286.7420877499      7.24E-06
   24    -286.7420961442      1.62E-06
   25    -286.7420963174      1.28E-06
   26    -286.7420964690      4.91E-07
   27    -286.7420965119      3.09E-07
   28    -286.7420965243      1.47E-07
   29    -286.7420965268      5.44E-08
   30    -286.7420965271      1.46E-08
   31    -286.7420965271      5.39E-09 Convergence criterion met
 ---------------------------------------
 <S^2> = 1.5101
 SCF time:  CPU 153.51 s  wall 42.00 s
 SCF   energy in the final basis set = -286.74209653
 Total energy in the final basis set = -286.74209653
 
 --------------------------------------------------------------
 
                    Orbital Energies (a.u.)
 --------------------------------------------------------------
 
 Alpha MOs
 -- Occupied --
-14.372 -10.262 -10.231 -10.229 -10.226 -10.212 -10.191  -0.966
 -0.801  -0.783  -0.698  -0.612  -0.604  -0.539  -0.504  -0.472
 -0.458  -0.432  -0.414  -0.388  -0.360  -0.313  -0.244  -0.237
 -0.208
 -- Virtual --
 -0.097  -0.024   0.003   0.019   0.027   0.031   0.037   0.051
  0.057   0.062   0.080   0.081   0.095   0.101   0.103   0.115
  0.116   0.134   0.140   0.151   0.160   0.171   0.179   0.181
  0.193   0.199   0.203   0.209   0.212   0.223   0.243   0.254
  0.262   0.272   0.279   0.280   0.295   0.314   0.336   0.345
  0.375   0.396   0.437   0.473   0.589   0.615   0.642   0.687
  0.702   0.716   0.729   0.734   0.746   0.755   0.767   0.789
  0.833   0.868   0.879   0.889   0.902   0.920   0.952   0.971
  1.002   1.024   1.035   1.065   1.074   1.095   1.104   1.139
  1.179   1.200   1.254   1.267   1.294   1.362   1.416   1.445
  1.466   1.533   1.576   1.615   1.656   1.712   1.751   1.803
  1.865   1.887   1.918   1.935   1.968   1.989   2.002   2.061
  2.071   2.096   2.112   2.150   2.253   2.315   2.320   2.373
  2.389   2.421   2.445   2.461   2.470   2.480   2.494   2.521
  2.534   2.559   2.596   2.609   2.683   2.702   2.721   2.818
  2.828   2.894   2.959   3.041   3.213   3.258   3.297   3.366
  3.457   3.505   3.765   4.160   4.274   4.346   4.383   4.548
  4.612   4.693
 
 Beta MOs
 -- Occupied --
-14.362 -10.260 -10.233 -10.226 -10.224 -10.208 -10.192  -0.949
 -0.794  -0.774  -0.695  -0.607  -0.597  -0.528  -0.500  -0.464
 -0.453  -0.427  -0.405  -0.382  -0.348  -0.290  -0.232  -0.218
 -- Virtual --
 -0.118  -0.090  -0.011   0.005   0.020   0.026   0.033   0.040
  0.052   0.060   0.065   0.077   0.087   0.098   0.101   0.102
  0.115   0.118   0.136   0.141   0.152   0.161   0.172   0.180
  0.182   0.194   0.202   0.204   0.210   0.214   0.226   0.248
  0.257   0.264   0.276   0.281   0.284   0.300   0.320   0.340
  0.352   0.381   0.401   0.439   0.479   0.592   0.620   0.664
  0.679   0.708   0.729   0.731   0.736   0.741   0.761   0.765
  0.789   0.838   0.869   0.885   0.893   0.902   0.930   0.955
  0.980   1.006   1.029   1.040   1.071   1.080   1.100   1.120
  1.141   1.185   1.203   1.259   1.278   1.299   1.366   1.421
  1.455   1.473   1.542   1.583   1.621   1.667   1.721   1.761
  1.806   1.867   1.894   1.922   1.942   1.973   2.002   2.005
  2.065   2.078   2.101   2.125   2.155   2.263   2.318   2.327
  2.377   2.392   2.427   2.449   2.465   2.476   2.489   2.501
  2.525   2.537   2.566   2.605   2.616   2.690   2.710   2.729
  2.825   2.836   2.898   2.963   3.047   3.216   3.259   3.300
  3.373   3.462   3.509   3.767   4.178   4.277   4.350   4.387
  4.550   4.617   4.696
 --------------------------------------------------------------
 
          Ground-State Mulliken Net Atomic Charges

     Atom                 Charge (a.u.)    Spin (a.u.)
  --------------------------------------------------------
      1 C                     0.088199       0.057600
      2 C                    -0.167054      -0.193447
      3 C                    -0.173327       0.361533
      4 C                    -0.030129      -0.059926
      5 C                    -0.259103       0.177174
      6 N                    -0.110037       0.496580
      7 H                     0.150682       0.050192
      8 H                     0.150873       0.024024
      9 H                     0.139715      -0.018310
     10 H                     0.127173       0.002984
     11 H                     0.147098       0.010981
     12 C                    -0.209609       0.066466
     13 H                     0.145519       0.024149
  --------------------------------------------------------
  Sum of atomic charges =     0.000000
  Sum of spin   charges =     1.000000

 -----------------------------------------------------------------
                    Cartesian Multipole Moments
 -----------------------------------------------------------------
    Charge (ESU x 10^10)
                 0.0000
    Dipole Moment (Debye)
         X       0.4420      Y      -1.3114      Z      -0.5469
       Tot       1.4881
    Quadrupole Moments (Debye-Ang)
        XX     -36.4491     XY      -1.8136     YY     -40.2123
        XZ      -1.7121     YZ      -0.8364     ZZ     -46.4884
    Octopole Moments (Debye-Ang^2)
       XXX       1.4740    XXY      -6.4268    XYY      -7.0816
       YYY     -15.7017    XXZ      -6.4410    XYZ      -1.8214
       YYZ       3.3715    XZZ       5.0246    YZZ     -10.3356
       ZZZ     -12.2755
    Hexadecapole Moments (Debye-Ang^3)
      XXXX    -349.6841   XXXY      -7.3621   XXYY    -102.2371
      XYYY     -15.3936   YYYY    -240.5597   XXXZ      46.1235
      XXYZ      -0.9309   XYYZ      15.8132   YYYZ       7.3174
      XXZZ     -94.6778   XYZZ      -5.8816   YYZZ     -86.5177
      XZZZ      34.6342   YZZZ      10.6601   ZZZZ    -214.1796
 -----------------------------------------------------------------
Archival summary:
1\1\c8-68\SP\ProcedureUnspecified\6-31+G**\166(2)\hpark21\ThuMar306:36:082022ThuMar306:36:082022\0\\#,ProcedureUnspecified,6-31+G**,\\0,2\N\C,1,1.38583\H,2,1.08832,1,116.658\C,2,1.37047,1,118.141,3,-175.741,0\H,4,1.08361,2,123.85,1,177.203,0\C,4,1.42655,2,111.322,1,0.565473,0\H,6,1.08674,4,122.488,2,160.129,0\C,6,1.37818,4,116.338,2,-12.2604,0\H,8,1.08591,6,123.71,4,156.084,0\C,1,1.44031,2,114.94,3,-127.553,0\H,10,1.0996,1,109.98,2,177.081,0\C,10,1.44858,1,122.992,2,44.018,0\H,12,1.08465,10,132.247,1,158.007,0\\\@

 Total job time:  44.11s(wall), 155.41s(cpu) 
 Thu Mar  3 06:36:08 2022

        *************************************************************
        *                                                           *
        *  Thank you very much for using Q-Chem.  Have a nice day.  *
        *                                                           *
        *************************************************************


