
Running Job 1 of 1 qcts1.in
qchem qcts1.in_54856.0 ./qcts1.d/ 1
/home/leeping/opt/qchem/5.0.2-openmp/exe/qcprog.exe_s qcts1.in_54856.0 ./qcts1.d/
Check license passed

                  Welcome to Q-Chem
     A Quantum Leap Into The Future Of Chemistry


 Q-Chem 5.0, Q-Chem, Inc., Pleasanton, CA (2017)

 Yihan Shao,  Zhengting Gan,  E. Epifanovsky,  A. T. B. Gilbert,  M. Wormit,  
 J. Kussmann,  A. W. Lange,  A. Behn,  Jia Deng,  Xintian Feng,  D. Ghosh,  
 M. Goldey,  P. R. Horn,  L. D. Jacobson,  I. Kaliman,  T. Kus,  A. Landau,  
 Jie Liu,  E. I. Proynov,  R. M. Richard,  R. P. Steele,  E. J. Sundstrom,  
 H. L. Woodcock III,  P. M. Zimmerman,  D. Zuev,  B. Albrecht,  E. Alguire,  
 S. A. Baeppler,  D. Barton,  Z. Benda,  Y. A. Bernard,  E. J. Berquist,  
 K. B. Bravaya,  H. Burton,  D. Casanova,  Chun-Min Chang,  Yunqing Chen,  
 A. Chien,  K. D. Closser,  M. P. Coons,  S. Dasgupta,  A. L. Dempwolff,  
 M. Diedenhofen,  Hainam Do,  R. G. Edgar,  Po-Tung Fang,  S. Fatehi,  
 Qingguo Feng,  J. Fosso-Tande,  Qinghui Ge,  A. Ghysels,  G. Gidofalvi,  
 J. Gomes,  J. Gonthier,  A. Gunina,  M. W. D. Hanson-Heine,  
 P. H. P. Harbach,  A. W. Hauser,  J. E. Herr,  E. G. Hohenstein,  
 Z. C. Holden,  Kerwin Hui,  T.-C. Jagau,  Hyunjun Ji,  B. Kaduk,  
 K. Khistyaev,  Jaehoon Kim,  P. Klunzinger,  K. Koh,  D. Kosenkov,  
 L. Koulias,  T. Kowalczyk,  C. M. Krauter,  A. Kunitsa,  Ka Un Lao,  
 A. Laurent,  K. V. Lawler,  Joonho Lee,  D. Lefrancois,  S. Lehtola,  
 D. S. Levine,  Yi-Pei Li,  You-Sheng Lin,  Fenglai Liu,  E. Livshits,  
 A. Luenser,  P. Manohar,  E. Mansoor,  S. F. Manzer,  Shan-Ping Mao,  
 Yuezhi Mao,  N. Mardirossian,  A. V. Marenich,  T. Markovich,  
 L. A. Martinez-Martinez,  S. A. Maurer,  N. J. Mayhall,  S. C. McKenzie,  
 J.-M. Mewes,  A. F. Morrison,  J. W. Mullinax,  K. Nanda,  
 T. S. Nguyen-Beck,  R. Olivares-Amaya,  J. A. Parkhill,  T. M. Perrine,  
 F. Plasser,  S. Prager,  A. Prociuk,  E. Ramos,  D. R. Rehn,  F. Rob,  
 M. Schneider,  N. Sergueev,  S. M. Sharada,  S. Sharma,  D. W. Small,  
 T. Stauch,  T. Stein,  Yu-Chuan Su,  A. J. W. Thom,  A. Tkatchenko,  
 T. Tsuchimochi,  L. Vogt,  O. Vydrov,  M. A. Watson,  J. Wenzel,  
 M. de Wergifosse,  T. A. Wesolowski,  A. White,  J. Witte,  A. Yamada,  
 Jun Yang,  K. Yao,  S. Yeganeh,  S. R. Yost,  Zhi-Qiang You,  A. Zech,  
 Igor Ying Zhang,  Xing Zhang,  Yan Zhao,  Ying Zhu,  B. R. Brooks,  
 G. K. L. Chan,  C. J. Cramer,  M. S. Gordon,  W. J. Hehre,  A. Klamt,  
 M. W. Schmidt,  C. D. Sherrill,  D. G. Truhlar,  A. Aspuru-Guzik,  R. Baer,  
 A. T. Bell,  N. A. Besley,  Jeng-Da Chai,  R. A. DiStasio Jr.,  A. Dreuw,  
 B. D. Dunietz,  T. R. Furlani,  Chao-Ping Hsu,  Yousung Jung,  Jing Kong,  
 D. S. Lambrecht,  WanZhen Liang,  C. Ochsenfeld,  V. A. Rassolov,  
 L. V. Slipchenko,  J. E. Subotnik,  T. Van Voorhis,  J. M. Herbert,  
 A. I. Krylov,  P. M. W. Gill,  M. Head-Gordon

 Contributors to earlier versions of Q-Chem not listed above: 
 R. D. Adamson,  B. Austin,  J. Baker,  G. J. O. Beran,  K. Brandhorst,  
 S. T. Brown,  E. F. C. Byrd,  A. K. Chakraborty,  C.-L. Cheng,  
 Siu Hung Chien,  D. M. Chipman,  D. L. Crittenden,  H. Dachsel,  
 R. J. Doerksen,  A. D. Dutoi,  L. Fusti-Molnar,  W. A. Goddard III,  
 A. Golubeva-Zadorozhnaya,  S. R. Gwaltney,  G. Hawkins,  A. Heyden,  
 S. Hirata,  G. Kedziora,  F. J. Keil,  C. Kelley,  Jihan Kim,  R. A. King,  
 R. Z. Khaliullin,  P. P. Korambath,  W. Kurlancheek,  A. M. Lee,  M. S. Lee,  
 S. V. Levchenko,  Ching Yeh Lin,  D. Liotard,  R. C. Lochan,  I. Lotan,  
 P. E. Maslen,  N. Nair,  D. P. O'Neill,  D. Neuhauser,  E. Neuscamman,  
 C. M. Oana,  R. Olson,  B. Peters,  R. Peverati,  P. A. Pieniazek,  
 Y. M. Rhee,  J. Ritchie,  M. A. Rohrdanz,  E. Rosta,  N. J. Russ,  
 H. F. Schaefer III,  N. E. Schultz,  N. Shenvi,  A. C. Simmonett,  A. Sodt,  
 D. Stuck,  K. S. Thanthiriwatte,  V. Vanovschi,  Tao Wang,  A. Warshel,  
 C. F. Williams,  Q. Wu,  X. Xu,  W. Zhang

 Please cite Q-Chem as follows:
 Y. Shao et al., Mol. Phys. 113, 184-215 (2015)
 DOI: 10.1080/00268976.2014.952696

 Q-Chem 5.0.2 for Intel X86 EM64T Linux

 Parts of Q-Chem use Armadillo 5.200.1 (Boston Tea Smuggler).
 http://arma.sourceforge.net/

 Q-Chem begins on Thu Mar  3 06:14:17 2022  

Host: 
0

     Scratch files written to ./qcts1.d//
 Dec517 15110_ 26548  26544 5633   
Processing $rem in /home/leeping/opt/qchem/5.0.2-openmp/config/preferences.
 MEM_STATIC 2000
 MEM_TOTAL  8000
 SYMMETRY   OFF
 SYM_IGNORE TRUE 

Checking the input file for inconsistencies... 	...done.

--------------------------------------------------------------
User input:
--------------------------------------------------------------
$molecule
0 2
C        1.4662243113   -0.0214065118   -0.4846542717
C        0.2148397207   -1.1572773826    0.5134859634
C       -1.1387178190   -1.1286635827    0.7252344848
C       -1.7824319724    0.0882527207    0.3356063768
C       -0.8523968556    1.0113060121   -0.0697928592
N        0.4613343870    0.7428897129    0.3280773883
H        2.3516862159   -0.2945626800    0.1171713129
H        0.8646799727   -1.9955811477    0.7945561064
H       -1.6756312825   -1.9505769172    1.2134434629
H       -2.8490714735    0.2873858775    0.4495750109
H       -1.0833506095    2.0095434078   -0.4294360540
C        1.5804865477    0.9717189357   -1.4650934200
H        2.4256053396    1.4702341554   -1.9196447486
$end

$rem
method                b3lyp
basis                 6-31g(d)
unrestricted          true
symmetry              off
sym_ignore            true
incdft                false
incfock               0
scf_convergence       8
thresh                14
jobtype               sp
scf_guess             core
scf_guess_mix         5
scf_algorithm         diis_gdm
max_scf_cycles        300
$end

--------------------------------------------------------------
 ----------------------------------------------------------------
             Standard Nuclear Orientation (Angstroms)
    I     Atom           X                Y                Z
 ----------------------------------------------------------------
    1      C       1.4662243113    -0.0214065118    -0.4846542717
    2      C       0.2148397207    -1.1572773826     0.5134859634
    3      C      -1.1387178190    -1.1286635827     0.7252344848
    4      C      -1.7824319724     0.0882527207     0.3356063768
    5      C      -0.8523968556     1.0113060121    -0.0697928592
    6      N       0.4613343870     0.7428897129     0.3280773883
    7      H       2.3516862159    -0.2945626800     0.1171713129
    8      H       0.8646799727    -1.9955811477     0.7945561064
    9      H      -1.6756312825    -1.9505769172     1.2134434629
   10      H      -2.8490714735     0.2873858775     0.4495750109
   11      H      -1.0833506095     2.0095434078    -0.4294360540
   12      C       1.5804865477     0.9717189357    -1.4650934200
   13      H       2.4256053396     1.4702341554    -1.9196447486
 ----------------------------------------------------------------
 Nuclear Repulsion Energy =   259.5727197568 hartrees
 There are       25 alpha and       24 beta electrons
 Requested basis set is 6-31G(d)
 There are 40 shells and 117 basis functions

 Total QAlloc Memory Limit   8000 MB
 Mega-Array Size      1956 MB
 MEM_STATIC part      2000 MB

                       Distance Matrix (Angstroms)
             C (  1)   C (  2)   C (  3)   C (  4)   C (  5)   N (  6)
   C (  2)  1.962766
   C (  3)  3.078242  1.370319
   C (  4)  3.352405  2.360525  1.430756
   C (  5)  2.571888  2.486355  2.300765  1.371620
   N (  6)  1.501494  1.925038  2.494116  2.337326  1.398656
   H (  7)  1.104921  2.338259  3.639833  4.157547  3.465025  2.166615
   H (  8)  2.428086  1.097290  2.184022  3.400029  3.568868  2.807047
   H (  9)  4.059124  2.166367  1.096433  2.222348  3.331240  3.550388
   H ( 10)  4.426050  3.388021  2.237520  1.091037  2.186438  3.343805
   H ( 11)  3.260083  3.550092  3.344349  2.182971  1.085892  2.136420
   C ( 12)  1.400220  3.211291  4.074704  3.915642  2.804880  2.126106
   H ( 13)  2.281360  4.208495  5.143351  4.970272  3.791816  3.072401
             H (  7)   H (  8)   H (  9)   H ( 10)   H ( 11)   C ( 12)
   H (  8)  2.358708
   H (  9)  4.490377  2.575009
   H ( 10)  5.243762  4.372974  2.639874
   H ( 11)  4.172189  4.618875  4.328095  2.618446
   C ( 12)  2.168359  3.797797  5.129978  4.873936  3.040673
   H ( 13)  2.696033  4.670680  6.191796  5.902080  3.850240  1.081370

 
 A cutoff of  1.0D-14 yielded    792 shell pairs
 There are      7034 function pairs
 
 -------------------------------------------------------
 OpenMP Integral Computing Module                       
 Release: version 1.0, May 2013, Q-Chem Inc. Pittsburgh 
 -------------------------------------------------------
 Integral Job Info:
 Integral job number is                      11
 Integral operator is                         1
 short-range coefficients                     0
 long-range coefficients              100000000
 Omega coefficients                           0
 if combine SR and LR in K                    0
 Integral screening is                        0
 Integral computing path is                   2
 max size of driver memory is            800000
 size of driver memory is                593474
 size of scratch memory is              2361544
 max col of scratch BK array               1296
 max len of scratch array in speh3          155
 max len of scratch index in speh4           18
 max int batch size is                      520
 min int batch size is                       52
 fixed nKL is                                52
 max L of basis functions is                  2
 order of int derivative is                   0
 number of shells is                         40
 number of basis is                         117
 number of cartesian basis is               117
 number of contracted shell pairs           792
 number of primitive shell pairs           3384
 maxK2 (contraction) of shell pair           36
 max number of K2 of shell pair               1
 max number of CS2 of shell pair             89
 max number of PS2 of shell pair            390
 mem total for path MDJ                  532812
 -------------------------------------------------------
 Smallest overlap matrix eigenvalue = 1.61E-03

 Scale SEOQF with 1.000000e-01/1.000000e-01/1.000000e-01

 Standard Electronic Orientation quadrupole field applied
 Nucleus-field energy     =     0.0000000034 hartrees
 Guess MOs from core Hamiltonian diagonalization
 Mixing HOMO and LUMO in initial guess
 Adding  50% of the LUMO to the HOMO
 An unrestricted hybrid HF-DFT SCF calculation will be
 performed using Pulay DIIS + Geometric Direct Minimization
 Exchange:     0.2000 Hartree-Fock + 0.0800 Slater + 0.7200 B88
 Correlation:  0.1900 VWN1RPA + 0.8100 LYP
 Using SG-1 standard quadrature grid
 SCF converges when RMS gradient is below 1.0E-08
 using 4 threads for integral computing
 -------------------------------------------------------
 OpenMP Integral computing Module                
 Release: version 1.0, May 2013, Q-Chem Inc. Pittsburgh 
 -------------------------------------------------------
 -------------------------------------------------------
 OpenMP BLAS3 based DFT computing Module                
 Release: version 1.0, May 2013, Q-Chem Inc. Pittsburgh 
 -------------------------------------------------------
 ---------------------------------------
  Cycle       Energy         DIIS Error
 ---------------------------------------
    1    -233.2187566147      1.35E-01
    2    -212.4384953564      1.09E-01
    3    -257.9416818052      8.66E-02
    4    -259.1768378575      9.61E-02
    5    -280.0649261588      4.16E-02
    6    -285.1345078923      2.44E-02
    7    -285.6381498041      1.96E-02
    8    -286.4145199869      1.02E-02
    9    -286.5584982575      6.31E-03 Done DIIS. Switching to GDM
   10    -286.6392043368      4.14E-02 Normal BFGS step
   11    -286.6153098983      6.58E-02 Line search: overstep
   12    -286.6446742615      2.83E-02 Normal BFGS step
   13    -286.6441469087      1.82E-02 Line search: overstep
   14    -286.6453729574      9.91E-03 Normal BFGS step
   15    -286.6459628825      1.38E-02 Normal BFGS step
   16    -286.6462630406      1.29E-02 Normal BFGS step
   17    -286.6467275370      1.14E-02 Normal BFGS step
   18    -286.6475566854      1.52E-02 Normal BFGS step
   19    -286.6468195124      1.10E-02 Line search: overstep
   20    -286.6483085398      1.67E-02 Normal BFGS step
   21    -286.6492449795      8.48E-03 Normal BFGS step
   22    -286.6496404965      5.51E-03 Normal BFGS step
   23    -286.6497841308      2.48E-03 Normal BFGS step
   24    -286.6498273279      1.21E-03 Normal BFGS step
   25    -286.6498304824      8.77E-04 Normal BFGS step
   26    -286.6498344160      3.23E-04 Normal BFGS step
   27    -286.6498350773      1.63E-04 Normal BFGS step
   28    -286.6498351933      1.22E-04 Normal BFGS step
   29    -286.6498352844      3.01E-05 Normal BFGS step
   30    -286.6498352889      1.19E-05 Normal BFGS step
   31    -286.6498352910      5.38E-06 Normal BFGS step
   32    -286.6498352913      3.47E-06 Normal BFGS step
   33    -286.6498352914      1.76E-06 Normal BFGS step
   34    -286.6498352914      1.46E-06 Normal BFGS step
   35    -286.6498352914      9.44E-07 Normal BFGS step
   GDM::WARNING energy changes are now smaller than effective accuracy.
   GDM::        calculation will continue, but THRESH should be increased
   GDM::        or SCF_CONVERGENCE decreased.
   GDM::        effective_thresh =   2.946793475899767E-009
   36    -286.6498352914      1.24E-06 Normal BFGS step
   37    -286.6498352914      1.99E-07 Normal BFGS step
   GDM::WARNING energy changes are now smaller than effective accuracy.
   GDM::        calculation will continue, but THRESH should be increased
   GDM::        or SCF_CONVERGENCE decreased.
   GDM::        effective_thresh =   2.946793475899767E-009
   38    -286.6498352914      2.32E-07 Normal BFGS step
   GDM::WARNING energy changes are now smaller than effective accuracy.
   GDM::        calculation will continue, but THRESH should be increased
   GDM::        or SCF_CONVERGENCE decreased.
   GDM::        effective_thresh =   3.247599598965589E-009
   39    -286.6498352914      6.31E-08 Normal BFGS step
   40    -286.6498352914      7.91E-08 Normal BFGS step
   41    -286.6498352914      1.00E-08 Normal BFGS step
   42    -286.6498352914      8.80E-09 Convergence criterion met
 ---------------------------------------
 <S^2> = 1.1770
 SCF time:  CPU 101.93 s  wall 28.89 s
 SCF   energy in the final basis set = -286.64983529
 Total energy in the final basis set = -286.64983529
 
 --------------------------------------------------------------
 
                    Orbital Energies (a.u.)
 --------------------------------------------------------------
 
 Alpha MOs
 -- Occupied --
-14.363 -10.241 -10.238 -10.223 -10.203 -10.200 -10.190  -0.926
 -0.801  -0.742  -0.688  -0.594  -0.583  -0.520  -0.490  -0.473
 -0.433  -0.403  -0.399  -0.367  -0.339  -0.272  -0.241  -0.224
 -0.184
 -- Virtual --
 -0.066  -0.016   0.014   0.086   0.099   0.127   0.146   0.155
  0.168   0.197   0.201   0.276   0.301   0.349   0.380   0.423
  0.494   0.522   0.533   0.548   0.561   0.571   0.579   0.593
  0.604   0.615   0.639   0.682   0.691   0.720   0.784   0.812
  0.818   0.835   0.842   0.864   0.887   0.901   0.920   0.938
  0.973   1.014   1.023   1.053   1.114   1.140   1.180   1.281
  1.303   1.346   1.397   1.461   1.495   1.516   1.571   1.653
  1.701   1.778   1.800   1.812   1.877   1.900   1.939   1.963
  2.019   2.057   2.102   2.126   2.145   2.201   2.258   2.269
  2.303   2.366   2.440   2.497   2.533   2.593   2.604   2.649
  2.698   2.740   2.856   2.897   3.050   4.004   4.079   4.088
  4.125   4.274   4.347   4.461
 
 Beta MOs
 -- Occupied --
-14.368 -10.244 -10.235 -10.224 -10.204 -10.190 -10.179  -0.931
 -0.798  -0.741  -0.674  -0.583  -0.576  -0.518  -0.485  -0.465
 -0.430  -0.403  -0.399  -0.372  -0.339  -0.274  -0.230  -0.184
 -- Virtual --
 -0.065  -0.052  -0.016   0.039   0.084   0.100   0.128   0.148
  0.157   0.170   0.202   0.205   0.275   0.303   0.363   0.385
  0.426   0.496   0.523   0.544   0.560   0.565   0.572   0.586
  0.594   0.615   0.637   0.644   0.684   0.695   0.724   0.784
  0.812   0.818   0.835   0.848   0.868   0.894   0.908   0.925
  0.942   0.978   1.018   1.037   1.058   1.118   1.140   1.180
  1.285   1.306   1.351   1.399   1.464   1.495   1.516   1.577
  1.695   1.705   1.777   1.807   1.852   1.902   1.918   1.942
  1.967   2.020   2.066   2.116   2.130   2.151   2.207   2.257
  2.279   2.310   2.362   2.443   2.500   2.536   2.591   2.610
  2.659   2.702   2.740   2.857   2.897   3.052   3.995   4.085
  4.122   4.128   4.277   4.345   4.461
 --------------------------------------------------------------
 
          Ground-State Mulliken Net Atomic Charges

     Atom                 Charge (a.u.)    Spin (a.u.)
  --------------------------------------------------------
      1 C                    -0.032279      -0.371512
      2 C                    -0.147883       0.359278
      3 C                    -0.091261      -0.131544
      4 C                    -0.127450       0.027683
      5 C                     0.026600      -0.049447
      6 N                    -0.365733      -0.304847
      7 H                     0.177251       0.048220
      8 H                     0.166419      -0.006780
      9 H                     0.152236       0.023800
     10 H                     0.139593      -0.001257
     11 H                     0.161865      -0.010780
     12 C                    -0.210961       1.411828
     13 H                     0.151603       0.005359
  --------------------------------------------------------
  Sum of atomic charges =    -0.000000
  Sum of spin   charges =     1.000000

 -----------------------------------------------------------------
                    Cartesian Multipole Moments
 -----------------------------------------------------------------
    Charge (ESU x 10^10)
                -0.0000
    Dipole Moment (Debye)
         X      -0.1284      Y      -0.9397      Z       0.4855
       Tot       1.0655
    Quadrupole Moments (Debye-Ang)
        XX     -34.7495     XY      -1.1389     YY     -37.9277
        XZ      -1.3151     YZ      -3.4538     ZZ     -44.5463
    Octopole Moments (Debye-Ang^2)
       XXX       0.8529    XXY      -1.5866    XYY      -2.0139
       YYY     -10.2889    XXZ       1.5304    XYZ      -0.9923
       YYZ       2.8994    XZZ       0.1064    YZZ      -4.2965
       ZZZ       3.7774
    Hexadecapole Moments (Debye-Ang^3)
      XXXX    -409.6277   XXXY     -28.5360   XXYY    -109.3326
      XYYY     -36.5744   YYYY    -243.9024   XXXZ      63.9838
      XXYZ       5.8521   XYYZ      22.0794   YYYZ      44.9312
      XXZZ    -100.6620   XYZZ      -4.7058   YYZZ     -71.2102
      XZZZ      78.3826   YZZZ      56.6128   ZZZZ    -192.6287
 -----------------------------------------------------------------
Archival summary:
1\1\c8-68\SP\ProcedureUnspecified\6-31G*\166(2)\hpark21\ThuMar306:14:472022ThuMar306:14:472022\0\\#,ProcedureUnspecified,6-31G*,\\0,2\N\C,1,1.39866\H,2,1.08589,1,118.061\C,2,1.37162,1,115.066,3,-164.863,0\H,4,1.09104,2,124.816,1,156.445,0\C,4,1.43076,2,110.353,1,-17.347,0\H,6,1.09643,4,122.583,2,171.252,0\C,6,1.37032,4,114.84,2,-5.07374,0\H,8,1.09729,6,124.149,4,177.3,0\C,1,1.50149,2,124.913,3,-102.918,0\H,10,1.10492,1,111.552,2,-167.588,0\C,10,1.40022,1,94.1627,2,68.4661,0\H,12,1.08137,10,133.242,1,129.914,0\\\@

 Total job time:  29.89s(wall), 103.67s(cpu) 
 Thu Mar  3 06:14:47 2022

        *************************************************************
        *                                                           *
        *  Thank you very much for using Q-Chem.  Have a nice day.  *
        *                                                           *
        *************************************************************


