13
image # 1 Energy = -286.84051
C 1.31278   -0.09752  0.04299   
C 0.44953   -1.22786  0.45044   
C -0.89318  -1.10322  0.48637   
C -1.53844  0.18294   0.26177   
C -0.82138  1.26823   -0.08408  
N 0.57264   1.20838   -0.33400  
H 2.22456   0.06240   0.62402   
H 0.93731   -2.15081  0.75616   
H -1.51084  -1.94684  0.78284   
H -2.59879  0.28716   0.47402   
H -1.24230  2.26962   -0.11351  
C 1.18718   0.43490   -1.31926  
H 1.92092   0.81261   -2.02777  
13
image # 2 Energy = -286.83835
C 1.32379   -0.11075  0.02311   
C 0.42528   -1.22951  0.44720   
C -0.90217  -1.10765  0.51588   
C -1.56219  0.17150   0.27299   
C -0.82447  1.24924   -0.09012  
N 0.57246   1.19274   -0.30588  
H 2.24123   0.03381   0.58279   
H 0.92368   -2.14417  0.76097   
H -1.53041  -1.94738  0.83315   
H -2.62820  0.28858   0.48164   
H -1.23935  2.24652   -0.15200  
C 1.22330   0.47855   -1.34349  
H 1.97257   0.88245   -2.01364  
13
image # 3 Energy = -286.83611
C 1.32058   -0.12479  -0.00403  
C 0.41838   -1.23446  0.44048   
C -0.92108  -1.10947  0.54573   
C -1.58385  0.16546   0.28245   
C -0.82968  1.22361   -0.09396  
N 0.58224   1.17703   -0.28571  
H 2.25969   0.00343   0.54433   
H 0.90835   -2.13679  0.76535   
H -1.54658  -1.94592  0.88245   
H -2.65487  0.28964   0.48861   
H -1.23640  2.22374   -0.19151  
C 1.25010   0.52069   -1.35115  
H 2.02445   0.95508   -1.99910  
13
image # 4 Energy = -286.83144
C 1.32347   -0.13344  -0.05229  
C 0.39266   -1.23028  0.42916   
C -0.93718  -1.11382  0.57627   
C -1.60071  0.16187   0.29425   
C -0.83596  1.20059   -0.10205  
N 0.58534   1.15798   -0.26253  
H 2.27200   -0.03768  0.50198   
H 0.89791   -2.14411  0.77363   
H -1.55613  -1.93828  0.94043   
H -2.67046  0.29054   0.49277   
H -1.23224  2.19552   -0.23978  
C 1.27789   0.56510   -1.34894  
H 2.07094   1.03658   -1.96781  
13
image # 5 Energy = -286.82632
C 1.31963   -0.15666  -0.08567  
C 0.39992   -1.25701  0.41496   
C -0.96707  -1.10481  0.60485   
C -1.60654  0.15698   0.30588   
C -0.83418  1.17702   -0.11313  
N 0.58356   1.15246   -0.24198  
H 2.27101   -0.08976  0.45421   
H 0.87702   -2.13926  0.77376   
H -1.55773  -1.92672  1.00909   
H -2.68034  0.29225   0.49417   
H -1.22918  2.16681   -0.29731  
C 1.30459   0.61899   -1.35866  
H 2.10459   1.12275   -1.91517  
13
image # 6 Energy = -286.81805
C 1.32887   -0.16957  -0.13335  
C 0.37019   -1.25725  0.41528   
C -0.96957  -1.10578  0.62430   
C -1.62639  0.15042   0.31566   
C -0.83847  1.15577   -0.12319  
N 0.58298   1.12813   -0.19561  
H 2.28126   -0.12459  0.41702   
H 0.86545   -2.13147  0.77320   
H -1.57008  -1.92459  1.06037   
H -2.69255  0.29522   0.49667   
H -1.22411  2.14413   -0.33846  
C 1.32887   0.66317   -1.36686  
H 2.14645   1.19300   -1.88982  
13
image # 7 Energy = -286.80819
C 1.32807   -0.18356  -0.17927  
C 0.34608   -1.25444  0.40084   
C -0.98552  -1.11918  0.65473   
C -1.62687  0.14868   0.31828   
C -0.84116  1.13557   -0.13208  
N 0.58666   1.10325   -0.15257  
H 2.28030   -0.17369  0.36790   
H 0.85518   -2.13362  0.77261   
H -1.56749  -1.90621  1.12186   
H -2.70729  0.29965   0.49639   
H -1.21488  2.11378   -0.39368  
C 1.34588   0.71310   -1.36568  
H 2.18247   1.27662   -1.84414  
13
image # 8 Energy = -286.79489
C 1.32972   -0.18601  -0.23113  
C 0.32609   -1.25870  0.39822   
C -1.00014  -1.11279  0.67257   
C -1.64986  0.13398   0.32632   
C -0.83406  1.12014   -0.13806  
N 0.58899   1.07226   -0.10480  
H 2.28211   -0.21732  0.32136   
H 0.84700   -2.12630  0.76678   
H -1.57109  -1.89921  1.17837   
H -2.71301  0.30356   0.49137   
H -1.19984  2.08581   -0.44156  
C 1.36521   0.76366   -1.35962  
H 2.20930   1.34403   -1.80505  
13
image # 9 Energy = -286.77729
C 1.33837   -0.19289  -0.27172  
C 0.30057   -1.25670  0.40300   
C -1.00973  -1.11106  0.68681   
C -1.66149  0.13856   0.32273   
C -0.83920  1.08256   -0.12789  
N 0.58658   1.04338   -0.04994  
H 2.28861   -0.24995  0.27703   
H 0.84386   -2.11054  0.75831   
H -1.57898  -1.89889  1.22023   
H -2.72860  0.30797   0.48418   
H -1.17672  2.06443   -0.47763  
C 1.38535   0.81483   -1.35910  
H 2.23137   1.39416   -1.78282  
13
image # 10 Energy = -286.74775
C 1.36368   -0.18669  -0.30436  
C 0.28141   -1.23770  0.42467   
C -1.04080  -1.12150  0.70124   
C -1.70020  0.12572   0.32398   
C -0.83975  1.07068   -0.12020  
N 0.58120   1.00865   0.03250   
H 2.31381   -0.25124  0.24399   
H 0.84956   -2.07447  0.75321   
H -1.59896  -1.91128  1.21377   
H -2.76238  0.31271   0.47468   
H -1.13411  2.03817   -0.46999  
C 1.40539   0.84491   -1.36474  
H 2.26070   1.41073   -1.81764  
13
image # 11 Energy = -286.70655
C 1.39002   -0.14888  -0.33489  
C 0.26059   -1.20828  0.45160   
C -1.07550  -1.11774  0.70271   
C -1.72853  0.10888   0.32474   
C -0.83860  1.04329   -0.09970  
N 0.57195   0.95564   0.12091   
H 2.34571   -0.23861  0.21931   
H 0.86112   -2.03478  0.75635   
H -1.62891  -1.93890  1.18652   
H -2.80448  0.31727   0.46422   
H -1.09150  2.03126   -0.44455  
C 1.43268   0.85839   -1.37297  
H 2.28541   1.40348   -1.87606  
13
image # 12 Energy = -286.66462
C 1.40559   -0.10596  -0.36056  
C 0.25311   -1.18647  0.47112   
C -1.09946  -1.12202  0.70463   
C -1.77614  0.12051   0.31867   
C -0.82758  1.01981   -0.07304  
N 0.56438   0.89221   0.23075   
H 2.37319   -0.25182  0.17077   
H 0.87418   -1.98511  0.77737   
H -1.65015  -1.95851  1.15490   
H -2.82997  0.31604   0.43267   
H -1.04244  2.02336   -0.42073  
C 1.44647   0.87625   -1.38163  
H 2.29037   1.39513   -1.92093  
13
image # 13 Energy = -286.71236
C 1.33714   -0.12372  -0.31810  
C 0.28362   -1.17942  0.43690   
C -1.07562  -1.09595  0.67786   
C -1.75540  0.13042   0.29466   
C -0.79258  1.04379   -0.02380  
N 0.60735   0.92539   0.32281   
H 2.36682   -0.33613  0.10830   
H 0.89996   -1.95727  0.82021   
H -1.61550  -1.94780  1.14275   
H -2.83549  0.30813   0.33874   
H -0.99954  2.01719   -0.42784  
C 1.34155   0.84952   -1.38893  
H 2.22045   1.40235   -1.87553  
13
image # 14 Energy = -286.78716
C 1.27056   -0.18758  -0.32105  
C 0.30195   -1.22921  0.37028   
C -1.04462  -1.09103  0.69045   
C -1.72157  0.13037   0.29442   
C -0.77405  1.05585   -0.03794  
N 0.63120   0.99615   0.27441   
H 2.32516   -0.41825  0.05832   
H 0.88983   -2.00641  0.82015   
H -1.57533  -1.89488  1.23578   
H -2.80759  0.30972   0.32707   
H -1.01386  2.00393   -0.51080  
C 1.29533   0.88594   -1.34612  
H 2.20600   1.48218   -1.74374  
13
image # 15 Energy = -286.81120
C 1.25742   -0.24561  -0.29439  
C 0.31263   -1.29141  0.33535   
C -0.99140  -1.10568  0.68418   
C -1.64493  0.13616   0.29770   
C -0.79905  1.10962   -0.10116  
N 0.63944   1.10936   0.05785   
H 2.26283   -0.40497  0.13408   
H 0.85493   -2.11449  0.77645   
H -1.52284  -1.84394  1.28574   
H -2.71997  0.29732   0.37260   
H -1.12494  2.04547   -0.53929  
C 1.28935   0.87149   -1.27737  
H 2.16813   1.47355   -1.61738  
13
image # 16 Energy = -286.79729
C 1.27944   -0.22548  -0.27693  
C 0.30500   -1.30671  0.33612   
C -0.98900  -1.11735  0.68468   
C -1.64249  0.13201   0.30412   
C -0.82449  1.11631   -0.12650  
N 0.61956   1.11360   -0.01012  
H 2.27269   -0.34720  0.18433   
H 0.84461   -2.15559  0.75363   
H -1.54548  -1.85111  1.27822   
H -2.71458  0.29509   0.43073   
H -1.17176  2.06665   -0.51534  
C 1.33450   0.87385   -1.28776  
H 2.21286   1.44335   -1.63880  
13
image # 17 Energy = -286.79047
C 1.27717   -0.20399  -0.27250  
C 0.29273   -1.32384  0.32891   
C -1.00137  -1.12242  0.69402   
C -1.65805  0.12992   0.31189   
C -0.82785  1.09959   -0.12885  
N 0.61595   1.10250   -0.03119  
H 2.27986   -0.32810  0.16289   
H 0.84350   -2.15740  0.75029   
H -1.57392  -1.85676  1.28959   
H -2.73675  0.29982   0.46743   
H -1.16222  2.04105   -0.51656  
C 1.36227   0.89500   -1.28537  
H 2.26931   1.46232   -1.65346  
13
image # 18 Energy = -286.76338
C 1.29463   -0.20056  -0.32383  
C 0.26080   -1.31602  0.33771   
C -1.03013  -1.13131  0.71562   
C -1.69752  0.11830   0.32710   
C -0.84034  1.05019   -0.13366  
N 0.61637   1.06468   -0.00497  
H 2.30124   -0.32213  0.12505   
H 0.84012   -2.13930  0.76485   
H -1.61148  -1.86608  1.31069   
H -2.77395  0.30911   0.51222   
H -1.14395  2.00669   -0.54032  
C 1.42033   0.94837   -1.29673  
H 2.34453   1.51569   -1.67643  
13
image # 19 Energy = -286.72684
C 1.32982   -0.16874  -0.37992  
C 0.24882   -1.31558  0.36296   
C -1.06041  -1.12699  0.73162   
C -1.73100  0.10850   0.33629   
C -0.85452  1.02990   -0.14081  
N 0.59320   0.99890   0.07093   
H 2.31897   -0.32511  0.10494   
H 0.83767   -2.11398  0.76684   
H -1.63382  -1.87538  1.32097   
H -2.79683  0.31655   0.52468   
H -1.12432  1.98785   -0.54633  
C 1.46428   0.97634   -1.32462  
H 2.38923   1.54498   -1.71042  
13
image # 20 Energy = -286.68189
C 1.36479   -0.14121  -0.44246  
C 0.23178   -1.29214  0.38689   
C -1.08215  -1.12447  0.74413   
C -1.75440  0.11026   0.34179   
C -0.85942  1.00309   -0.13934  
N 0.56157   0.91965   0.16143   
H 2.33437   -0.34395  0.07756   
H 0.84147   -2.08857  0.77394   
H -1.65264  -1.88537  1.33576   
H -2.81704  0.32417   0.52177   
H -1.09610  1.97190   -0.56020  
C 1.49349   1.00697   -1.35139  
H 2.41588   1.57587   -1.73477  
13
image # 21 Energy = -286.63547
C 1.41459   -0.12598  -0.48975  
C 0.22313   -1.26758  0.40804   
C -1.11717  -1.12654  0.75856   
C -1.76674  0.10151   0.35474   
C -0.86883  0.99445   -0.15677  
N 0.51262   0.84959   0.21134   
H 2.34721   -0.33476  0.07991   
H 0.84113   -2.08713  0.77132   
H -1.67474  -1.89585  1.34330   
H -2.82992  0.32953   0.54425   
H -1.09336  1.96337   -0.56214  
C 1.55133   1.04958   -1.39043  
H 2.44366   1.58479   -1.76065  
13
image # 22 Energy = -286.62917
C 1.49798   0.01703   -0.41157  
C 0.22711   -1.08686  0.54726   
C -1.12177  -1.11844  0.68322   
C -1.75978  0.11420   0.31741   
C -0.82153  1.02931   -0.07415  
N 0.47815   0.68339   0.36869   
H 2.36634   -0.27307  0.20704   
H 0.88036   -1.95084  0.76468   
H -1.63647  -1.97147  1.11739   
H -2.82336  0.29821   0.41204   
H -1.07268  2.03627   -0.42363  
C 1.48046   0.84709   -1.47980  
H 2.28809   1.40718   -1.91973  
13
image # 23 Energy = -286.74090
C 1.52304   0.06964   -0.39316  
C 0.21325   -1.05177  0.57565   
C -1.12112  -1.11926  0.67262   
C -1.75268  0.11764   0.31496   
C -0.81372  1.03558   -0.05921  
N 0.46518   0.60683   0.37625   
H 2.35794   -0.25825  0.22882   
H 0.88351   -1.92227  0.75441   
H -1.62397  -1.98169  1.07195   
H -2.81470  0.29318   0.38995   
H -1.07558  2.05621   -0.39825  
C 1.48460   0.80619   -1.48108  
H 2.25929   1.37770   -1.94962  
13
image # 24 Energy = -286.73383
C 1.54660   0.08234   -0.45217  
C 0.17373   -1.08077  0.57368   
C -1.15612  -1.13967  0.71088   
C -1.77137  0.10606   0.34158   
C -0.83902  1.00311   -0.07843  
N 0.43665   0.52993   0.31250   
H 2.36654   -0.23892  0.19980   
H 0.86055   -1.93308  0.73180   
H -1.66910  -1.98661  1.13729   
H -2.82600  0.31286   0.44619   
H -1.04996  2.02090   -0.41901  
C 1.56961   0.91545   -1.45761  
H 2.34596   1.43649   -1.95119  
13
image # 25 Energy = -286.78270
C 1.56626   0.14600   -0.45326  
C 0.13765   -1.07508  0.60009   
C -1.19347  -1.16155  0.72385   
C -1.79703  0.09750   0.35082   
C -0.84140  0.96880   -0.04074  
N 0.41300   0.43915   0.28396   
H 2.37510   -0.20717  0.19664   
H 0.85069   -1.90849  0.70780   
H -1.70822  -2.01059  1.14461   
H -2.83959  0.32376   0.46524   
H -1.00703  1.99948   -0.40092  
C 1.62678   0.95854   -1.48841  
H 2.40856   1.45508   -2.00345  
13
image # 26 Energy = -286.81904
C 1.57720   0.20268   -0.45304  
C 0.11436   -1.06965  0.62160   
C -1.22924  -1.16639  0.73443   
C -1.80921  0.07356   0.36195   
C -0.83556  0.96213   -0.02527  
N 0.39637   0.35509   0.26504   
H 2.37614   -0.19822  0.17609   
H 0.84204   -1.88608  0.69721   
H -1.73356  -2.02359  1.15386   
H -2.85632  0.33344   0.47665   
H -0.97483  1.96770   -0.39234  
C 1.67059   0.99360   -1.50933  
H 2.45630   1.47793   -2.03136  
13
image # 27 Energy = -286.83247
C 1.57751   0.21810   -0.48010  
C 0.08487   -1.08020  0.61797   
C -1.24586  -1.16956  0.75926   
C -1.80800  0.07067   0.36978   
C -0.84227  0.92233   -0.03619  
N 0.38488   0.30215   0.23170   
H 2.37223   -0.22106  0.11967   
H 0.82800   -1.88666  0.70218   
H -1.75428  -2.01555  1.20466   
H -2.86865  0.34330   0.50348   
H -0.95827  1.93170   -0.42291  
C 1.71146   1.06581   -1.49510  
H 2.51542   1.53712   -2.00955  
13
image # 28 Energy = -286.84517
C 1.56997   0.23786   -0.51216  
C 0.08084   -1.09713  0.61031   
C -1.26770  -1.17185  0.78882   
C -1.84305  0.07670   0.38454   
C -0.83296  0.89077   -0.06081  
N 0.37751   0.24433   0.19727   
H 2.36779   -0.25228  0.05750   
H 0.81152   -1.88233  0.71176   
H -1.77008  -2.00447  1.25537   
H -2.86182  0.34652   0.52191   
H -0.94665  1.89629   -0.45706  
C 1.75155   1.13538   -1.46880  
H 2.56143   1.59319   -1.97515  
13
image # 29 Energy = -286.85317
C 1.56543   0.25630   -0.54245  
C 0.06603   -1.11317  0.59863   
C -1.28491  -1.15566  0.81606   
C -1.83871  0.07522   0.39926   
C -0.83898  0.85367   -0.08767  
N 0.37121   0.18788   0.15780   
H 2.36103   -0.28683  -0.01130  
H 0.80231   -1.88329  0.72564   
H -1.78474  -1.99594  1.30835   
H -2.87241  0.35446   0.53871   
H -0.93471  1.86384   -0.49445  
C 1.78371   1.20167   -1.43188  
H 2.60411   1.64876   -1.93478  
13
image # 30 Energy = -286.85859
C 1.57984   0.27148   -0.56577  
C 0.04454   -1.12404  0.58727   
C -1.29629  -1.17757  0.86123   
C -1.83792  0.07626   0.41537   
C -0.84102  0.84036   -0.12097  
N 0.34995   0.14472   0.10871   
H 2.35248   -0.32178  -0.08307  
H 0.80145   -1.89478  0.74431   
H -1.78699  -1.96727  1.34465   
H -2.88463  0.36368   0.55117   
H -0.92382  1.83485   -0.53060  
C 1.79892   1.25656   -1.38836  
H 2.64345   1.69742   -1.89361  
13
image # 31 Energy = -286.86347
C 1.58198   0.29021   -0.56303  
C 0.02116   -1.14010  0.58831   
C -1.27216  -1.16230  0.88071   
C -1.85999  0.06785   0.43884   
C -0.84469  0.82813   -0.14331  
N 0.33353   0.09707   0.03789   
H 2.35080   -0.36445  -0.15548  
H 0.80169   -1.90436  0.76314   
H -1.80185  -1.95949  1.38961   
H -2.88307  0.37216   0.55666   
H -0.91222  1.81849   -0.57042  
C 1.81706   1.31388   -1.35864  
H 2.66792   1.73552   -1.84586  
13
image # 32 Energy = -286.86882
C 1.57678   0.31858   -0.56087  
C 0.04798   -1.15409  0.59127   
C -1.29502  -1.15363  0.90845   
C -1.85457  0.07175   0.44605   
C -0.86349  0.80454   -0.14815  
N 0.31354   0.05733   -0.03485  
H 2.34975   -0.40326  -0.23011  
H 0.79888   -1.90849  0.77990   
H -1.81048  -1.94870  1.42798   
H -2.88339  0.38172   0.55911   
H -0.89588  1.80029   -0.60948  
C 1.82653   1.35261   -1.32276  
H 2.68911   1.76946   -1.79831  
13
image # 33 Energy = -286.87098
C 1.56565   0.31203   -0.56581  
C 0.03936   -1.17605  0.61003   
C -1.30841  -1.15014  0.93710   
C -1.85665  0.07139   0.45302   
C -0.86019  0.77338   -0.15906  
N 0.30682   0.03767   -0.07463  
H 2.32927   -0.41532  -0.32246  
H 0.79200   -1.89661  0.78700   
H -1.81935  -1.93396  1.47062   
H -2.88837  0.39277   0.55950   
H -0.86972  1.75393   -0.64955  
C 1.84993   1.41065   -1.29304  
H 2.72014   1.81376   -1.75047  
13
image # 34 Energy = -286.87241
C 1.55974   0.33722   -0.59501  
C 0.01698   -1.16483  0.61392   
C -1.31066  -1.15018  0.95959   
C -1.86601  0.06920   0.46054   
C -0.85882  0.75559   -0.17131  
N 0.29819   0.00107   -0.08152  
H 2.31686   -0.42505  -0.39229  
H 0.79444   -1.89421  0.79220   
H -1.83109  -1.92433  1.50701   
H -2.89091  0.40120   0.55864   
H -0.84580  1.70839   -0.67902  
C 1.86666   1.43482   -1.25739  
H 2.75040   1.85112   -1.71535  
