13   
From optimize.out: Frame 1 / 2, Energy=    -286.8405101568
C        1.3124298484   -0.0975946439    0.0436157441
C        0.4498855437   -1.2273034426    0.4519224280
C       -0.8926964123   -1.1033291819    0.4848436928
C       -1.5382567658    0.1827420806    0.2616387570
C       -0.8211695858    1.2682934622   -0.0838731046
N        0.5722795659    1.2083535336   -0.3343067327
H        2.2232983203    0.0643887170    0.6254488622
H        0.9378922942   -2.1508412213    0.7558459933
H       -1.5110716912   -1.9466871404    0.7809235959
H       -2.5984363969    0.2871612308    0.4746464774
H       -1.2414452168    2.2700125292   -0.1119807278
C        1.1871675708    0.4342154903   -1.3192912543
H        1.9201229259    0.8105885861   -2.0294337316
