13   
From qcfsm.out: Frame 102 / 102, Energy=       0.0000000000
C        1.4662243113   -0.0214065118   -0.4846542717
C        0.2148397207   -1.1572773826    0.5134859634
C       -1.1387178190   -1.1286635827    0.7252344848
C       -1.7824319724    0.0882527207    0.3356063768
C       -0.8523968556    1.0113060121   -0.0697928592
N        0.4613343870    0.7428897129    0.3280773883
H        2.3516862159   -0.2945626800    0.1171713129
H        0.8646799727   -1.9955811477    0.7945561064
H       -1.6756312825   -1.9505769172    1.2134434629
H       -2.8490714735    0.2873858775    0.4495750109
H       -1.0833506095    2.0095434078   -0.4294360540
C        1.5804865477    0.9717189357   -1.4650934200
H        2.4256053396    1.4702341554   -1.9196447486
