13   
From optimize.out: Frame 1 / 2, Energy=    -286.8549095738
C       -0.0095380000   -0.0145090000   -0.0000000000
C       -0.0835730000    0.0407540000   -0.0000000000
C       -0.1759860000   -0.0168050000   -0.0000000000
C       -0.1941790000   -0.0173970000    0.0000000000
C        0.0886820000    0.0195600000   -0.0000000000
N       -0.3914890000    0.0022770000   -0.0000000000
H        0.1367480000    0.0007700000   -0.0000000000
H        0.1395530000    0.0036210000   -0.0000000000
H        0.1550850000    0.0171300000   -0.0000000000
H        0.1553360000    0.0226960000   -0.0000000000
H        0.1427880000    0.0058870000   -0.0000000000
C       -0.1212830000    0.9592680000    0.0000000000
H        0.1578570000   -0.0232510000    0.0000000000
