13   
From optimize.out: Frame 1 / 19, Energy=    -286.6872704480
C        0.0864220000   -0.0086840000   -0.0000000000
C       -0.2137380000    0.1089500000   -0.0000000000
C       -0.1385460000   -0.0247800000   -0.0000000000
C       -0.1825680000    0.7634340000   -0.0000000000
C       -0.0042160000    0.0428360000   -0.0000000000
N       -0.3459560000    0.0147070000   -0.0000000000
H        0.1646100000    0.0062330000   -0.0000000000
H        0.1433720000   -0.0012210000   -0.0000000000
H        0.1331130000    0.0434800000   -0.0000000000
H        0.1535640000   -0.0381770000   -0.0000000000
H        0.1689330000   -0.0052570000   -0.0000000000
C       -0.1528650000    0.1113650000   -0.0000000000
H        0.1878750000   -0.0128860000    0.0000000000
13   
From optimize.out: Frame 2 / 19, Energy=    -286.7353867425
C        0.0899810000   -0.0088090000   -0.0000000000
C       -0.2078050000    0.0700300000   -0.0000000000
C       -0.1382170000    0.0001740000   -0.0000000000
C       -0.1753480000    0.8180860000   -0.0000000000
C       -0.0193140000    0.0320810000   -0.0000000000
N       -0.3455590000    0.0131140000   -0.0000000000
H        0.1570180000    0.0050140000   -0.0000000000
H        0.1486130000   -0.0001750000   -0.0000000000
H        0.1383960000    0.0364580000   -0.0000000000
H        0.1500040000   -0.0389320000   -0.0000000000
H        0.1641890000   -0.0042200000   -0.0000000000
C       -0.1431670000    0.0880620000   -0.0000000000
H        0.1812100000   -0.0108820000    0.0000000000
13   
From optimize.out: Frame 3 / 19, Energy=    -286.7706426730
C        0.0946760000   -0.0120360000   -0.0000000000
C       -0.2050450000    0.0582540000   -0.0000000000
C       -0.1327090000    0.0251790000   -0.0000000000
C       -0.1617840000    0.8676850000   -0.0000000000
C       -0.0334710000    0.0172500000   -0.0000000000
N       -0.3482610000    0.0158020000   -0.0000000000
H        0.1521460000    0.0044300000   -0.0000000000
H        0.1492850000   -0.0000060000   -0.0000000000
H        0.1416120000    0.0315650000   -0.0000000000
H        0.1471460000   -0.0397890000   -0.0000000000
H        0.1590630000   -0.0027690000   -0.0000000000
C       -0.1365430000    0.0421580000   -0.0000000000
H        0.1738850000   -0.0077230000   -0.0000000000
13   
From optimize.out: Frame 4 / 19, Energy=    -286.7954532996
C        0.0977240000   -0.0140010000   -0.0000000000
C       -0.2029520000    0.0552640000   -0.0000000000
C       -0.1259050000    0.0470250000   -0.0000000000
C       -0.1423020000    0.9053620000   -0.0000000000
C       -0.0494850000    0.0011460000   -0.0000000000
N       -0.3490820000    0.0190440000   -0.0000000000
H        0.1484220000    0.0041300000   -0.0000000000
H        0.1495630000   -0.0000020000   -0.0000000000
H        0.1437790000    0.0266910000   -0.0000000000
H        0.1449950000   -0.0401120000   -0.0000000000
H        0.1541080000   -0.0010360000   -0.0000000000
C       -0.1359520000    0.0014410000   -0.0000000000
H        0.1670870000   -0.0049520000   -0.0000000000
13   
From optimize.out: Frame 5 / 19, Energy=    -286.8124941304
C        0.0994300000   -0.0127790000   -0.0000000000
C       -0.2007730000    0.0533550000   -0.0000000000
C       -0.1192340000    0.0643780000   -0.0000000000
C       -0.1208100000    0.9294680000   -0.0000000000
C       -0.0654830000   -0.0131020000   -0.0000000000
N       -0.3475610000    0.0201320000   -0.0000000000
H        0.1459030000    0.0039030000   -0.0000000000
H        0.1496020000    0.0000540000   -0.0000000000
H        0.1453570000    0.0223290000   -0.0000000000
H        0.1431740000   -0.0395930000   -0.0000000000
H        0.1496000000    0.0006410000   -0.0000000000
C       -0.1402790000   -0.0257800000   -0.0000000000
H        0.1610750000   -0.0030060000   -0.0000000000
13   
From optimize.out: Frame 6 / 19, Energy=    -286.8237701715
C        0.1003930000   -0.0091270000   -0.0000000000
C       -0.1988280000    0.0502270000   -0.0000000000
C       -0.1141950000    0.0779490000   -0.0000000000
C       -0.1018990000    0.9433330000   -0.0000000000
C       -0.0787120000   -0.0242100000   -0.0000000000
N       -0.3450110000    0.0188410000   -0.0000000000
H        0.1444570000    0.0037390000   -0.0000000000
H        0.1493140000    0.0002480000   -0.0000000000
H        0.1463730000    0.0188310000   -0.0000000000
H        0.1417650000   -0.0385080000   -0.0000000000
H        0.1460270000    0.0020430000   -0.0000000000
C       -0.1457750000   -0.0416350000   -0.0000000000
H        0.1560900000   -0.0017320000   -0.0000000000
13   
From optimize.out: Frame 7 / 19, Energy=    -286.8305294524
C        0.1004360000   -0.0048510000   -0.0000000000
C       -0.1972360000    0.0459640000   -0.0000000000
C       -0.1116960000    0.0883350000   -0.0000000000
C       -0.0884700000    0.9504470000   -0.0000000000
C       -0.0874920000   -0.0319020000   -0.0000000000
N       -0.3422790000    0.0164710000   -0.0000000000
H        0.1437740000    0.0036620000   -0.0000000000
H        0.1487490000    0.0005840000   -0.0000000000
H        0.1471340000    0.0160790000   -0.0000000000
H        0.1409190000   -0.0374080000   -0.0000000000
H        0.1436100000    0.0030970000   -0.0000000000
C       -0.1499280000   -0.0495530000   -0.0000000000
H        0.1524790000   -0.0009250000   -0.0000000000
13   
From optimize.out: Frame 8 / 19, Energy=    -286.8341495052
C        0.0992170000   -0.0011970000   -0.0000000000
C       -0.1953090000    0.0408710000   -0.0000000000
C       -0.1110210000    0.0966940000   -0.0000000000
C       -0.0800710000    0.9536840000   -0.0000000000
C       -0.0927780000   -0.0368420000   -0.0000000000
N       -0.3394650000    0.0142880000   -0.0000000000
H        0.1435400000    0.0036650000   -0.0000000000
H        0.1482740000    0.0009540000   -0.0000000000
H        0.1478810000    0.0137610000   -0.0000000000
H        0.1403940000   -0.0367550000   -0.0000000000
H        0.1422650000    0.0038150000   -0.0000000000
C       -0.1532790000   -0.0525420000   -0.0000000000
H        0.1503520000   -0.0003950000   -0.0000000000
13   
From optimize.out: Frame 9 / 19, Energy=    -286.8358303470
C        0.0976030000    0.0019960000   -0.0000000000
C       -0.1931500000    0.0358870000   -0.0000000000
C       -0.1111730000    0.1041210000   -0.0000000000
C       -0.0744260000    0.9542240000   -0.0000000000
C       -0.0961430000   -0.0401180000   -0.0000000000
N       -0.3371590000    0.0127780000   -0.0000000000
H        0.1436900000    0.0037400000   -0.0000000000
H        0.1481010000    0.0012190000   -0.0000000000
H        0.1486720000    0.0115950000   -0.0000000000
H        0.1397240000   -0.0366770000   -0.0000000000
H        0.1418060000    0.0043270000   -0.0000000000
C       -0.1569730000   -0.0531160000   -0.0000000000
H        0.1494260000    0.0000240000   -0.0000000000
13   
From optimize.out: Frame 10 / 19, Energy=    -286.8361417518
C        0.0949090000    0.0036890000   -0.0000000000
C       -0.1913900000    0.0340660000   -0.0000000000
C       -0.1103430000    0.1084710000   -0.0000000000
C       -0.0724580000    0.9526770000   -0.0000000000
C       -0.0975940000   -0.0413520000   -0.0000000000
N       -0.3350160000    0.0123360000   -0.0000000000
H        0.1434570000    0.0037280000   -0.0000000000
H        0.1488560000    0.0013850000   -0.0000000000
H        0.1492890000    0.0099800000   -0.0000000000
H        0.1398230000   -0.0374800000   -0.0000000000
H        0.1416460000    0.0045720000   -0.0000000000
C       -0.1608080000   -0.0522770000   -0.0000000000
H        0.1496310000    0.0002060000   -0.0000000000
13   
From optimize.out: Frame 12 / 19, Energy=    -286.8364411558
C        0.0964330000    0.0051640000   -0.0000000000
C       -0.1923160000    0.0338940000   -0.0000000000
C       -0.1092350000    0.1080740000   -0.0000000000
C       -0.0716500000    0.9510260000   -0.0000000000
C       -0.0982710000   -0.0415950000   -0.0000000000
N       -0.3366400000    0.0122350000   -0.0000000000
H        0.1439460000    0.0038970000   -0.0000000000
H        0.1484890000    0.0013750000   -0.0000000000
H        0.1494860000    0.0094200000   -0.0000000000
H        0.1388970000   -0.0378290000   -0.0000000000
H        0.1421800000    0.0048620000   -0.0000000000
C       -0.1612490000   -0.0507250000   -0.0000000000
H        0.1499300000    0.0002020000   -0.0000000000
13   
From optimize.out: Frame 14 / 19, Energy=    -286.8364832742
C        0.0961420000    0.0051000000   -0.0000000000
C       -0.1919820000    0.0334510000   -0.0000000000
C       -0.1081930000    0.1080870000   -0.0000000000
C       -0.0721170000    0.9513050000   -0.0000000000
C       -0.0988600000   -0.0416130000   -0.0000000000
N       -0.3368170000    0.0123320000   -0.0000000000
H        0.1438660000    0.0039370000   -0.0000000000
H        0.1485990000    0.0013940000   -0.0000000000
H        0.1495800000    0.0091730000   -0.0000000000
H        0.1390480000   -0.0382260000   -0.0000000000
H        0.1421010000    0.0048510000   -0.0000000000
C       -0.1611740000   -0.0499460000   -0.0000000000
H        0.1498060000    0.0001540000   -0.0000000000
13   
From optimize.out: Frame 16 / 19, Energy=    -286.8364974482
C        0.0963780000    0.0055210000   -0.0000000000
C       -0.1920360000    0.0343650000   -0.0000000000
C       -0.1075560000    0.1079510000   -0.0000000000
C       -0.0716480000    0.9509300000   -0.0000000000
C       -0.0993420000   -0.0418650000   -0.0000000000
N       -0.3370180000    0.0124150000   -0.0000000000
H        0.1438890000    0.0039260000   -0.0000000000
H        0.1487030000    0.0013790000   -0.0000000000
H        0.1496290000    0.0089810000   -0.0000000000
H        0.1390320000   -0.0384010000   -0.0000000000
H        0.1420840000    0.0049870000   -0.0000000000
C       -0.1619330000   -0.0503730000   -0.0000000000
H        0.1498180000    0.0001830000   -0.0000000000
13   
From optimize.out: Frame 17 / 19, Energy=    -286.8364998737
C        0.0963100000    0.0056240000   -0.0000000000
C       -0.1920460000    0.0345040000   -0.0000000000
C       -0.1073530000    0.1079440000   -0.0000000000
C       -0.0717100000    0.9510630000   -0.0000000000
C       -0.0994870000   -0.0419910000   -0.0000000000
N       -0.3369790000    0.0124140000   -0.0000000000
H        0.1438630000    0.0039310000   -0.0000000000
H        0.1487060000    0.0013940000   -0.0000000000
H        0.1496510000    0.0088940000   -0.0000000000
H        0.1390500000   -0.0385070000   -0.0000000000
H        0.1420480000    0.0050320000   -0.0000000000
C       -0.1618480000   -0.0504960000   -0.0000000000
H        0.1497940000    0.0001930000   -0.0000000000
13   
From optimize.out: Frame 18 / 19, Energy=    -286.8365030210
C        0.0962510000    0.0059720000   -0.0000000000
C       -0.1920340000    0.0351940000   -0.0000000000
C       -0.1070970000    0.1081760000   -0.0000000000
C       -0.0715730000    0.9512270000   -0.0000000000
C       -0.0997050000   -0.0424440000   -0.0000000000
N       -0.3371280000    0.0124890000   -0.0000000000
H        0.1438730000    0.0039590000   -0.0000000000
H        0.1487300000    0.0014140000   -0.0000000000
H        0.1496690000    0.0086660000   -0.0000000000
H        0.1392130000   -0.0388470000   -0.0000000000
H        0.1420190000    0.0051680000   -0.0000000000
C       -0.1619120000   -0.0512180000   -0.0000000000
H        0.1496950000    0.0002420000   -0.0000000000
