13   
From optimize.out: Frame 71 / 72, Energy=    -286.8723920417
C        1.3518348802    0.6300180924   -0.8207201120
C       -0.0469536888   -1.1294359329    0.2554017478
C       -1.2669836185   -1.1471279889    0.8845487930
C       -1.7778327050    0.1879828857    0.8733815310
C       -0.8505976165    0.9745854136    0.2378035297
N        0.2130458096    0.1704271542   -0.1427021702
H        1.3223076348    1.7056819527   -1.0164330487
H        0.6663571469   -1.9129104959    0.0475368735
H       -1.7438704792   -2.0201679127    1.3097119443
H       -2.7185409356    0.5247103126    1.2866645691
H       -0.8405711559    2.0331380075    0.0187636744
C        2.3793635754   -0.0974870051   -1.2112937241
H        3.3124411527    0.0805855165   -1.7226636078
13   
From optimize.out: Frame 70 / 72, Energy=    -286.8723891839
C        1.3528143388    0.6294634140   -0.8190110982
C       -0.0465348728   -1.1293592277    0.2569640259
C       -1.2672286089   -1.1470106765    0.8846598876
C       -1.7782347257    0.1881452103    0.8720029633
C       -0.8501007025    0.9745369433    0.2378883600
N        0.2144164471    0.1702499846   -0.1405065022
H        1.3257956509    1.7059371359   -1.0110329794
H        0.6679431519   -1.9119743846    0.0510907056
H       -1.7447220701   -2.0199157018    1.3095839208
H       -2.7203558263    0.5238940650    1.2829762632
H       -0.8418952572    2.0330554344    0.0185721372
C        2.3784484302   -0.0982380234   -1.2148678227
H        3.3096540447    0.0812158262   -1.7283198610
13   
From optimize.out: Frame 69 / 72, Energy=    -286.8723833652
C        1.3540800263    0.6294095106   -0.8169440776
C       -0.0457464266   -1.1291692455    0.2587171563
C       -1.2669717770   -1.1468774893    0.8852705399
C       -1.7786604423    0.1883104032    0.8709154234
C       -0.8494798367    0.9741712010    0.2381236856
N        0.2161117373    0.1702635517   -0.1383288558
H        1.3319679054    1.7070392769   -1.0016253710
H        0.6699774579   -1.9113920207    0.0568087113
H       -1.7458121899   -2.0198030697    1.3089589796
H       -2.7230542140    0.5233567709    1.2780576834
H       -0.8441052272    2.0321154961    0.0166166498
C        2.3761307447   -0.0992184442   -1.2207636404
H        3.3055622420    0.0817940590   -1.7358068845
13   
From optimize.out: Frame 68 / 72, Energy=    -286.8723755714
C        1.3551800232    0.6300472988   -0.8151328021
C       -0.0447314441   -1.1289555709    0.2602538785
C       -1.2663413031   -1.1467854261    0.8861587564
C       -1.7790885402    0.1882839521    0.8704026301
C       -0.8491369168    0.9736749146    0.2382321005
N        0.2173060210    0.1704776774   -0.1371030704
H        1.3387866077    1.7089381494   -0.9902091056
H        0.6720868592   -1.9114883696    0.0632667270
H       -1.7466304484   -2.0199683430    1.3079301517
H       -2.7256335425    0.5233403227    1.2736290827
H       -0.8460362351    2.0306760992    0.0129951948
C        2.3725563145   -0.1000219649   -1.2277150207
H        3.3016826045    0.0817812605   -1.7427085228
13   
From optimize.out: Frame 67 / 72, Energy=    -286.8723682620
C        1.3557616335    0.6309710524   -0.8140382884
C       -0.0438143858   -1.1287980398    0.2613517532
C       -1.2657472516   -1.1467482924    0.8868542548
C       -1.7794345939    0.1880788129    0.8703269158
C       -0.8491708248    0.9733499233    0.2381855498
N        0.2176534937    0.1707538936   -0.1368422443
H        1.3435817784    1.7109240712   -0.9808562980
H        0.6738731577   -1.9119482034    0.0684896175
H       -1.7469637520   -2.0203357260    1.3067485984
H       -2.7272541982    0.5235837755    1.2708830041
H       -0.8467650344    2.0295061650    0.0094270355
C        2.3690486420   -0.1003592064   -1.2334989620
H        3.2992313353    0.0810217741   -1.7470309362
13   
From optimize.out: Frame 66 / 72, Energy=    -286.8723627175
C        1.3560182472    0.6317464322   -0.8132998424
C       -0.0431123773   -1.1286954582    0.2622250421
C       -1.2654403876   -1.1467512504    0.8871819910
C       -1.7797433143    0.1877851548    0.8702403752
C       -0.8494657704    0.9732675484    0.2379886002
N        0.2175068529    0.1709962140   -0.1368563204
H        1.3463440119    1.7125654709   -0.9742128736
H        0.6753834807   -1.9123268073    0.0722757974
H       -1.7469897957   -2.0207508800    1.3056952008
H       -2.7280340659    0.5237590390    1.2693400001
H       -0.8465634755    2.0288855189    0.0067164187
C        2.3662525758   -0.1004582043   -1.2376328498
H        3.2978440181    0.0799772220   -1.7496615392
13   
From optimize.out: Frame 65 / 72, Energy=    -286.8723584140
C        1.3561876086    0.6323597516   -0.8125189400
C       -0.0424601806   -1.1285172681    0.2631878487
C       -1.2653917965   -1.1467899671    0.8871062751
C       -1.7801287631    0.1873953538    0.8697709359
C       -0.8499787947    0.9733883317    0.2376474738
N        0.2172507402    0.1713093306   -0.1365556616
H        1.3482661159    1.7140090945   -0.9687733023
H        0.6770408328   -1.9122437603    0.0755008271
H       -1.7468560846   -2.0211390622    1.3047488182
H       -2.7284204822    0.5235777920    1.2681607919
H       -0.8459645132    2.0287070104    0.0047148602
C        2.3638098324   -0.1005667322   -1.2410375859
H        3.2966454850    0.0785101251   -1.7519523410
13   
From optimize.out: Frame 64 / 72, Energy=    -286.8723538379
C        1.3565613356    0.6329253510   -0.8111118597
C       -0.0416343433   -1.1281058612    0.2646466521
C       -1.2655967731   -1.1468928291    0.8865515893
C       -1.7808011898    0.1867845343    0.8684042995
C       -0.8508342372    0.9736716555    0.2369850910
N        0.2171947439    0.1718669594   -0.1353763736
H        1.3509204990    1.7156339653   -0.9620151029
H        0.6794125516   -1.9113483365    0.0793941677
H       -1.7466338679   -2.0214799470    1.3039078975
H       -2.7287705584    0.5227683510    1.2665494337
H       -0.8454393545    2.0288205022    0.0027279400
C        2.3609878395   -0.1009895320   -1.2449817715
H        3.2946333547    0.0763451872   -1.7556819632
13   
From optimize.out: Frame 63 / 72, Energy=    -286.8723480179
C        1.3572511314    0.6335692781   -0.8090181129
C       -0.0405837465   -1.1273273187    0.2665704610
C       -1.2659718126   -1.1470825875    0.8854790488
C       -1.7818478335    0.1859239627    0.8658571034
C       -0.8520230580    0.9739996014    0.2359349160
N        0.2176229051    0.1727889032   -0.1330953218
H        1.3551178676    1.7175320253   -0.9531714422
H        0.6824982208   -1.9093290357    0.0839864558
H       -1.7463387431   -2.0216290519    1.3034511929
H       -2.7292283351    0.5211370561    1.2644537403
H       -0.8455964586    2.0290281286    0.0005456127
C        2.3576766171   -0.1018497836   -1.2497580007
H        3.2914232455    0.0732388222   -1.7612356533
13   
From optimize.out: Frame 62 / 72, Energy=    -286.8723415523
C        1.3581426541    0.6342401232   -0.8068691130
C       -0.0396294228   -1.1263811818    0.2683112754
C       -1.2663216498   -1.1472980414    0.8843351052
C       -1.7830552095    0.1850707641    0.8628127071
C       -0.8531761901    0.9741316262    0.2347097439
N        0.2184845213    0.1737985702   -0.1305900148
H        1.3602090504    1.7193214421   -0.9439710637
H        0.6852455033   -1.9068097471    0.0878621591
H       -1.7460016783   -2.0214831983    1.3038107745
H       -2.7297713969    0.5192533924    1.2626294009
H       -0.8468137667    2.0290050460   -0.0016544644
C        2.3547230298   -0.1029535840   -1.2542559691
H        3.2879645552    0.0701047883   -1.7671305412
13   
From optimize.out: Frame 61 / 72, Energy=    -286.8723355577
C        1.3589478346    0.6349132942   -0.8054205221
C       -0.0389727410   -1.1255178132    0.2693812085
C       -1.2664765916   -1.1474529140    0.8835223871
C       -1.7841615200    0.1844642101    0.8601980053
C       -0.8539890225    0.9739972893    0.2336442323
N        0.2193990360    0.1746120813   -0.1288853257
H        1.3647694601    1.7207506104   -0.9365230548
H        0.6869598106   -1.9045887526    0.0900227550
H       -1.7455719147   -2.0211647572    1.3048001130
H       -2.7303043779    0.5177826953    1.2618033789
H       -0.8487035238    2.0286326317   -0.0035413309
C        2.3526317474   -0.1039308617   -1.2576532469
H        3.2854718031    0.0675022864   -1.7713485997
13   
From optimize.out: Frame 60 / 72, Energy=    -286.8723302930
C        1.3595873083    0.6355602722   -0.8047463305
C       -0.0386082745   -1.1248660906    0.2698228891
C       -1.2664564635   -1.1475145779    0.8831363199
C       -1.7851231378    0.1841473221    0.8583140625
C       -0.8544210824    0.9736738133    0.2328296180
N        0.2201116677    0.1751243749   -0.1282939351
H        1.3682201202    1.7218649422   -0.9311910637
H        0.6876956184   -1.9030453418    0.0906213172
H       -1.7449964701   -2.0208742792    1.3060739457
H       -2.7308053760    0.5170179796    1.2620212638
H       -0.8507988666    2.0280023684   -0.0050953661
C        2.3512912126   -0.1046398386   -1.2599690745
H        3.2843037437    0.0655490553   -1.7735236463
13   
From optimize.out: Frame 59 / 72, Energy=    -286.8723253365
C        1.3600224851    0.6362286315   -0.8047316399
C       -0.0383847436   -1.1244155980    0.2698502615
C       -1.2663163353   -1.1474824190    0.8830374429
C       -1.7859923883    0.1840724264    0.8571046024
C       -0.8545627570    0.9733057031    0.2322898631
N        0.2205049020    0.1754148837   -0.1286727522
H        1.3703614757    1.7228177463   -0.9278147794
H        0.6879260806   -1.9021359060    0.0901936521
H       -1.7441749918   -2.0207923839    1.3072019412
H       -2.7312946951    0.5169310638    1.2630998094
H       -0.8527481428    2.0273193428   -0.0062201593
C        2.3502940224   -0.1050412373   -1.2616153722
H        3.2843650881    0.0637777465   -1.7737228696
13   
From optimize.out: Frame 58 / 72, Energy=    -286.8723200791
C        1.3603054190    0.6369076337   -0.8050127941
C       -0.0381519283   -1.1241276607    0.2696974520
C       -1.2661335441   -1.1473798838    0.8830357673
C       -1.7868513446    0.1841381244    0.8563892796
C       -0.8545919685    0.9730670035    0.2319614961
N        0.2205345644    0.1756306357   -0.1296865965
H        1.3714445719    1.7237326806   -0.9259650190
H        0.6882081393   -1.9017182257    0.0893699919
H       -1.7429891946   -2.0210621511    1.3079261134
H       -2.7318511894    0.5173949748    1.2645598733
H       -0.8544519308    2.0268844969   -0.0067277593
C        2.3492458361   -0.1052391155   -1.2629791640
H        3.2852825695    0.0617714872   -1.7725686405
13   
From optimize.out: Frame 57 / 72, Energy=    -286.8723134952
C        1.3604572755    0.6376401489   -0.8052284931
C       -0.0376842357   -1.1238405739    0.2694832143
C       -1.2658897257   -1.1472464282    0.8828454391
C       -1.7877561579    0.1841887988    0.8559612892
C       -0.8548365697    0.9731750204    0.2317682685
N        0.2201682163    0.1760937687   -0.1308656047
H        1.3719414954    1.7246713044   -0.9253157658
H        0.6892822578   -1.9013660466    0.0887188360
H       -1.7411918828   -2.0217502230    1.3080310219
H       -2.7325908501    0.5180849692    1.2657625433
H       -0.8560681345    2.0271291475   -0.0060930931
C        2.3476263893   -0.1054718242   -1.2645456186
H        3.2865419221    0.0586919382   -1.7705220369
13   
From optimize.out: Frame 56 / 72, Energy=    -286.8723037187
C        1.3605616313    0.6384393275   -0.8048459534
C       -0.0368212205   -1.1232984191    0.2691195193
C       -1.2654471948   -1.1471686392    0.8822175166
C       -1.7886902156    0.1839419614    0.8556087604
C       -0.8558340790    0.9738274260    0.2314547212
N        0.2193833406    0.1772290275   -0.1317295904
H        1.3730853648    1.7256603558   -0.9251476425
H        0.6917523106   -1.9004774466    0.0886460193
H       -1.7385056735   -2.0227218431    1.3077960151
H       -2.7336118700    0.5184689910    1.2657283925
H       -0.8582411952    2.0285146110   -0.0037095490
C        2.3449890413   -0.1061913701   -1.2666639594
H        3.2873797600    0.0537760178   -1.7684742497
13   
From optimize.out: Frame 55 / 72, Energy=    -286.8722901033
C        1.3606019974    0.6392504264   -0.8038367511
C       -0.0356958206   -1.1223268628    0.2683554601
C       -1.2646411205   -1.1472522209    0.8811901959
C       -1.7893330240    0.1832230718    0.8552797814
C       -0.8578015981    0.9748773543    0.2308354472
N        0.2183897339    0.1791155651   -0.1318712631
H        1.3757029346    1.7264514202   -0.9247757557
H        0.6952369347   -1.8985554216    0.0890637392
H       -1.7353682481   -2.0233866986    1.3078601553
H       -2.7346908393    0.5178739434    1.2638938740
H       -0.8611881963    2.0308672816    0.0002491187
C        2.3416655800   -0.1076260130   -1.2691101477
H        3.2871216663    0.0474881541   -1.7671338541
13   
From optimize.out: Frame 54 / 72, Energy=    -286.8722754097
C        1.3606262585    0.6399119531   -0.8027293701
C       -0.0348495433   -1.1211651240    0.2671379064
C       -1.2635659597   -1.1475008538    0.8803368079
C       -1.7894559707    0.1822180861    0.8550689889
C       -0.8601415422    0.9757576529    0.2298730556
N        0.2175122643    0.1810631853   -0.1317039659
H        1.3795439339    1.7269518997   -0.9234980641
H        0.6980674660   -1.8961141523    0.0892365635
H       -1.7327788184   -2.0232417867    1.3090303535
H       -2.7354613877    0.5164040998    1.2610675477
H       -0.8644123971    2.0330765253    0.0040685912
C        2.3388997461   -0.1093894815   -1.2710170219
H        3.2860159503    0.0420279961   -1.7668713928
13   
From optimize.out: Frame 53 / 72, Energy=    -286.8722624468
C        1.3605995093    0.6404401900   -0.8022312341
C       -0.0345432255   -1.1200909855    0.2655604224
C       -1.2623829208   -1.1477844331    0.8800536071
C       -1.7890992345    0.1813193785    0.8551558465
C       -0.8621841973    0.9761277178    0.2287562569
N        0.2167963053    0.1824875368   -0.1319600556
H        1.3831280116    1.7272422304   -0.9215736172
H        0.6993865591   -1.8937862760    0.0885500052
H       -1.7310365043   -2.0224144465    1.3111411636
H       -2.7357903728    0.5146919263    1.2586339491
H       -0.8671690163    2.0344097619    0.0066348549
C        2.3372355944   -0.1109652359   -1.2721005947
H        3.2850594918    0.0383226354   -1.7666206042
13   
From optimize.out: Frame 52 / 72, Energy=    -286.8722500241
C        1.3604989008    0.6409628327   -0.8025915804
C       -0.0349389243   -1.1191577748    0.2633261713
C       -1.2609898922   -1.1480067097    0.8805943022
C       -1.7882771422    0.1806663831    0.8558339465
C       -0.8639326921    0.9759660852    0.2272750802
N        0.2158499753    0.1832622912   -0.1336157087
H        1.3859461967    1.7277455958   -0.9190215635
H        0.6990197116   -1.8917567186    0.0863782175
H       -1.7295800066   -2.0212262900    1.3143071032
H       -2.7356098207    0.5131578828    1.2573076885
H       -0.8695890967    2.0348058978    0.0077652437
C        2.3365406597   -0.1122543882   -1.2722662976
H        3.2850621307    0.0358349128   -1.7652926029
13   
From optimize.out: Frame 51 / 72, Energy=    -286.8722336976
C        1.3600646932    0.6417854276   -0.8044319452
C       -0.0363074685   -1.1183725188    0.2597283912
C       -1.2591391370   -1.1479956353    0.8822588989
C       -1.7866686802    0.1805722474    0.8577620235
C       -0.8654782450    0.9752497229    0.2251569899
N        0.2140572626    0.1832889268   -0.1379344711
H        1.3864554976    1.7288819887   -0.9165597858
H        0.6969057298   -1.8898736252    0.0817564520
H       -1.7275480333   -2.0201387806    1.3182552433
H       -2.7345422332    0.5121555417    1.2581968345
H       -0.8715027346    2.0343024161    0.0074837509
C        2.3365425277   -0.1131283043   -1.2712651508
H        3.2871608208    0.0332725929   -1.7604072313
13   
From optimize.out: Frame 50 / 72, Energy=    -286.8722082370
C        1.3590870851    0.6429679811   -0.8076803741
C       -0.0388535024   -1.1180881752    0.2548666773
C       -1.2571455780   -1.1475289006    0.8850981584
C       -1.7842748805    0.1814227755    0.8613258954
C       -0.8665271779    0.9741594167    0.2223695664
N        0.2110134122    0.1823334895   -0.1455148539
H        1.3832652288    1.7312177986   -0.9154676346
H        0.6933243755   -1.8886559659    0.0747781209
H       -1.7244032716   -2.0202018016    1.3218330922
H       -2.7322933927    0.5124415874    1.2623292430
H       -0.8722623487    2.0330178493    0.0055692351
C        2.3371466322   -0.1132152002   -1.2685205792
H        3.2919234180    0.0301291455   -1.7509865467
13   
From optimize.out: Frame 49 / 72, Energy=    -286.8721756646
C        1.3576139332    0.6442184361   -0.8109700311
C       -0.0415205457   -1.1185078984    0.2506058199
C       -1.2560753891   -1.1466386791    0.8877431493
C       -1.7820247177    0.1831514040    0.8653998696
C       -0.8667152008    0.9733371791    0.2200955014
N        0.2077004824    0.1809354436   -0.1531635530
H        1.3767387161    1.7338924762   -0.9176918079
H        0.6906590047   -1.8882367534    0.0685577385
H       -1.7209983142   -2.0219578314    1.3224723245
H       -2.7297798919    0.5137937366    1.2684677628
H       -0.8707884642    2.0318230260    0.0033264195
C        2.3377162694   -0.1123943177   -1.2651020483
H        3.2974741177    0.0265837783   -1.7397411453
13   
From optimize.out: Frame 48 / 72, Energy=    -286.8721375790
C        1.3559913207    0.6449465544   -0.8125780396
C       -0.0438813739   -1.1195125010    0.2476997365
C       -1.2562139850   -1.1454862169    0.8897332637
C       -1.7804127638    0.1853267054    0.8693253630
C       -0.8665217584    0.9731276456    0.2182151117
N        0.2044903225    0.1795756583   -0.1593865081
H        1.3701986417    1.7360718700   -0.9221537128
H        0.6897482688   -1.8883537562    0.0640323389
H       -1.7179806741   -2.0249979967    1.3204053430
H       -2.7273824276    0.5156655505    1.2754156006
H       -0.8682919000    2.0311050680    0.0006787216
C        2.3382777792   -0.1114936540   -1.2612777326
H        3.3019785499    0.0240250726   -1.7301094860
13   
From optimize.out: Frame 47 / 72, Energy=    -286.8720861417
C        1.3538031939    0.6452380764   -0.8126631565
C       -0.0458295542   -1.1206115048    0.2451527059
C       -1.2570751978   -1.1440695451    0.8909353778
C       -1.7792126588    0.1878022719    0.8737018657
C       -0.8668295371    0.9736187886    0.2167462344
N        0.2010227572    0.1788829816   -0.1641500559
H        1.3645414171    1.7366315432   -0.9307829863
H        0.6909757038   -1.8876761737    0.0593014293
H       -1.7156912022   -2.0285540714    1.3157659413
H       -2.7247807876    0.5167805015    1.2847860601
H       -0.8653222453    2.0309827407   -0.0025330399
C        2.3390168570   -0.1105670515   -1.2566309789
H        3.3053812541    0.0215414425   -1.7196293971
13   
From optimize.out: Frame 46 / 72, Energy=    -286.8719899033
C        1.3514998096    0.6431793118   -0.8098632708
C       -0.0483363104   -1.1216495797    0.2408066591
C       -1.2569408714   -1.1423243188    0.8936080268
C       -1.7774512743    0.1906152853    0.8805237510
C       -0.8699020011    0.9747375560    0.2134117589
N        0.1950527539    0.1784655809   -0.1713438871
H        1.3655316927    1.7332254323   -0.9407616489
H        0.6920666757   -1.8856270880    0.0468682634
H       -1.7144913508   -2.0313109447    1.3114948610
H       -2.7186241799    0.5182785424    1.3018748247
H       -0.8685396967    2.0306462950   -0.0123313805
C        2.3412941370   -0.1126693379   -1.2485716038
H        3.3088406156    0.0244332655   -1.7057163539
13   
From optimize.out: Frame 45 / 72, Energy=    -286.8718662377
C        1.3486166966    0.6413783104   -0.8104210306
C       -0.0495633063   -1.1208686013    0.2344043090
C       -1.2535821324   -1.1411653890    0.8963940163
C       -1.7750457308    0.1917186588    0.8878307326
C       -0.8747431044    0.9758252982    0.2111452665
N        0.1884586762    0.1792289814   -0.1798921521
H        1.3672097246    1.7280508004   -0.9524846121
H        0.6907846541   -1.8823350884    0.0276763319
H       -1.7145991942   -2.0303342703    1.3102939797
H       -2.7109388912    0.5178094988    1.3221797587
H       -0.8755477948    2.0299599369   -0.0225127737
C        2.3446483480   -0.1130326342   -1.2407514731
H        3.3143020545    0.0237644981   -1.6838623532
13   
From optimize.out: Frame 44 / 72, Energy=    -286.8717421563
C        1.3472453736    0.6377575907   -0.8124137567
C       -0.0510285765   -1.1206533301    0.2271443249
C       -1.2475910482   -1.1411407940    0.9020275824
C       -1.7713632931    0.1918603837    0.8945706093
C       -0.8797893633    0.9758528304    0.2078112457
N        0.1810763031    0.1779776034   -0.1917576857
H        1.3729473094    1.7226376003   -0.9554951073
H        0.6836658680   -1.8824588967    0.0038981972
H       -1.7156384157   -2.0270276501    1.3143666930
H       -2.6989384998    0.5224004867    1.3427402720
H       -0.8917426235    2.0279637307   -0.0373616879
C        2.3483193989   -0.1166223560   -1.2329757019
H        3.3228375669    0.0314528012   -1.6625549850
13   
From optimize.out: Frame 43 / 72, Energy=    -286.8716327717
C        1.3452739985    0.6380895737   -0.8182498306
C       -0.0512547727   -1.1197035929    0.2206632973
C       -1.2417167285   -1.1417739099    0.9051180717
C       -1.7680355801    0.1906967928    0.8990598925
C       -0.8822240289    0.9756587096    0.2070486651
N        0.1763272878    0.1773298082   -0.2015100769
H        1.3682162110    1.7212579053   -0.9610341587
H        0.6757419798   -1.8842974220   -0.0142579013
H       -1.7161419055   -2.0232003431    1.3184117944
H       -2.6899489843    0.5247912877    1.3573775579
H       -0.9010814196    2.0263686293   -0.0443461821
C        2.3525773624   -0.1119463673   -1.2271574554
H        3.3322665800    0.0267289285   -1.6411236739
13   
From optimize.out: Frame 42 / 72, Energy=    -286.8715249725
C        1.3442837363    0.6386157727   -0.8239214823
C       -0.0529880544   -1.1207299442    0.2143641270
C       -1.2369808644   -1.1428644982    0.9089416035
C       -1.7642024739    0.1900299650    0.9027601947
C       -0.8826645847    0.9746146934    0.2062674761
N        0.1723451082    0.1746178452   -0.2112678022
H        1.3610718942    1.7218026623   -0.9652256090
H        0.6653942337   -1.8906141154   -0.0288779373
H       -1.7167782466   -2.0210012899    1.3222630219
H       -2.6791625788    0.5316942883    1.3703369831
H       -0.9113498290    2.0245576234   -0.0515468711
C        2.3570985215   -0.1073727653   -1.2203910590
H        3.3439331379    0.0266497627   -1.6237026455
13   
From optimize.out: Frame 41 / 72, Energy=    -286.8713973761
C        1.3421570289    0.6420931451   -0.8301721504
C       -0.0553075920   -1.1227191475    0.2083126809
C       -1.2343152209   -1.1441013078    0.9102677526
C       -1.7603585680    0.1896658484    0.9056028976
C       -0.8802297605    0.9734589122    0.2069415970
N        0.1706761371    0.1718372989   -0.2186636390
H        1.3436884753    1.7250652760   -0.9760797520
H        0.6556387274   -1.8993218996   -0.0368451907
H       -1.7173842861   -2.0204512477    1.3227367182
H       -2.6693505578    0.5380885719    1.3808911463
H       -0.9144237588    2.0232614281   -0.0531913037
C        2.3625689244   -0.0958619259   -1.2123793571
H        3.3566404509    0.0189850478   -1.6074213997
13   
From optimize.out: Frame 40 / 72, Energy=    -286.8711833572
C        1.3391808428    0.6479838375   -0.8350690127
C       -0.0609528574   -1.1281427271    0.2004608993
C       -1.2349063261   -1.1451575442    0.9099941468
C       -1.7555491233    0.1911292948    0.9090476117
C       -0.8751057873    0.9717965402    0.2086216426
N        0.1709772044    0.1673920090   -0.2234218312
H        1.3176098007    1.7296537690   -0.9985585244
H        0.6454372949   -1.9128557682   -0.0385194959
H       -1.7190631907   -2.0236596480    1.3178269236
H       -2.6569642503    0.5477517586    1.3936782993
H       -0.9132436921    2.0222079519   -0.0525623559
C        2.3702345658   -0.0800147021   -1.1990753121
H        3.3723455188    0.0119152286   -1.5924229910
13   
From optimize.out: Frame 39 / 72, Energy=    -286.8708508139
C        1.3349750398    0.6555566045   -0.8337429521
C       -0.0663606572   -1.1347329432    0.1933815950
C       -1.2383865014   -1.1456962601    0.9059011651
C       -1.7511054929    0.1945357914    0.9106980531
C       -0.8676936533    0.9712339846    0.2099634449
N        0.1756485137    0.1641462176   -0.2203151017
H        1.2868493073    1.7327808137   -1.0241335364
H        0.6404740376   -1.9245055615   -0.0311662737
H       -1.7194193026   -2.0300196281    1.3061140995
H       -2.6455464886    0.5560893227    1.4018239232
H       -0.9063353528    2.0225057025   -0.0491441164
C        2.3772053477   -0.0628018763   -1.1825675504
H        3.3796952026    0.0009078322   -1.5868127500
13   
From optimize.out: Frame 38 / 72, Energy=    -286.8705479877
C        1.3338110795    0.6627229765   -0.8287799187
C       -0.0688323432   -1.1388008716    0.1900030694
C       -1.2418208171   -1.1462476845    0.9019024858
C       -1.7486500385    0.1971887436    0.9093854770
C       -0.8639874635    0.9718875660    0.2127642192
N        0.1806090923    0.1639306829   -0.2121171495
H        1.2731441979    1.7366396811   -1.0432287406
H        0.6404379660   -1.9299068630   -0.0223244318
H       -1.7170388618   -2.0377491319    1.2951489711
H       -2.6402024351    0.5604841368    1.4021860314
H       -0.9036587219    2.0243316568   -0.0448655703
C        2.3819072708   -0.0541865267   -1.1692439720
H        3.3742810745   -0.0102943659   -1.5908304710
13   
From optimize.out: Frame 37 / 72, Energy=    -286.8702617445
C        1.3369237371    0.6668235795   -0.8154853199
C       -0.0677739297   -1.1381314837    0.1909421318
C       -1.2422782301   -1.1464981069    0.9006518631
C       -1.7487266976    0.1966844876    0.9048775208
C       -0.8630586781    0.9733610159    0.2089445941
N        0.1847696571    0.1660121513   -0.2081228434
H        1.2771640065    1.7404826736   -1.0282709147
H        0.6401465707   -1.9307374991   -0.0200829139
H       -1.7088847608   -2.0424047366    1.2972459208
H       -2.6395523955    0.5609912313    1.3906435116
H       -0.9095100772    2.0272497417   -0.0488202887
C        2.3857629804   -0.0505372084   -1.1585072452
H        3.3550178173   -0.0232958462   -1.6140160167
13   
From optimize.out: Frame 36 / 72, Energy=    -286.8694794708
C        1.3448358276    0.6755587583   -0.8081145441
C       -0.0613575770   -1.1356622341    0.1921880068
C       -1.2413373076   -1.1482914765    0.9044355112
C       -1.7513047776    0.1925711249    0.8972615594
C       -0.8663057434    0.9746519480    0.2123581637
N        0.1870080105    0.1710488266   -0.2035936155
H        1.3002517813    1.7556531636   -1.0103231667
H        0.6401154630   -1.9291283157   -0.0273945600
H       -1.6957618867   -2.0469835449    1.3080424295
H       -2.6421662188    0.5593387644    1.3688910045
H       -0.9259016864    2.0304290372   -0.0502554533
C        2.3883844612   -0.0512025709   -1.1509947709
H        3.3235396537   -0.0479834808   -1.6325005646
13   
From optimize.out: Frame 35 / 72, Energy=    -286.8694589751
C        1.3283572351    0.6696781407   -0.8200471173
C       -0.0801367861   -1.1463402785    0.1724055387
C       -1.2518988946   -1.1445149252    0.8924001774
C       -1.7490455659    0.2058640876    0.9167792602
C       -0.8625267323    0.9718268028    0.2131704017
N        0.1908441513    0.1629733942   -0.1957345763
H        1.2455490189    1.7289131486   -1.0906833278
H        0.6420697497   -1.9331675231   -0.0096157628
H       -1.7193382745   -2.0427139394    1.2809416122
H       -2.6420784863    0.5535114177    1.4179957663
H       -0.8772784626    2.0257625542   -0.0392339458
C        2.3954540957   -0.0351091009   -1.1465023838
H        3.3800289515   -0.0166837788   -1.5918756426
13   
From optimize.out: Frame 34 / 72, Energy=    -286.8688161228
C        1.3282381230    0.6815649567   -0.8345025649
C       -0.0760356710   -1.1402691021    0.1733576433
C       -1.2530879583   -1.1426118488    0.8833611458
C       -1.7543607622    0.2046469674    0.9189344200
C       -0.8642506051    0.9731614946    0.2185062454
N        0.1936348956    0.1687595424   -0.1914844184
H        1.2138735808    1.7303481853   -1.1060762414
H        0.6492733998   -1.9257743771   -0.0024843644
H       -1.7198051602   -2.0356135373    1.2790305809
H       -2.6620322627    0.5302477278    1.4151452716
H       -0.8458625026    2.0273782697   -0.0164745200
C        2.4025749305   -0.0087070819   -1.1627142366
H        3.3878399924   -0.0631311966   -1.5745989613
13   
From optimize.out: Frame 33 / 72, Energy=    -286.8679806019
C        1.3286956221    0.6896554468   -0.8484757317
C       -0.0747073020   -1.1385422273    0.1712083281
C       -1.2549584270   -1.1429431770    0.8817662841
C       -1.7590990896    0.2017224651    0.9227802357
C       -0.8644952555    0.9718953264    0.2217501777
N        0.1902064754    0.1677591461   -0.1974992191
H        1.1939566985    1.7360062223   -1.1188411541
H        0.6526015568   -1.9231102948   -0.0050527267
H       -1.7255189000   -2.0282171300    1.2872371972
H       -2.6754874837    0.5151283373    1.4181155872
H       -0.8172621377    2.0262465179   -0.0048310879
C        2.4018125433    0.0131332160   -1.1750104144
H        3.4042556994   -0.0887338488   -1.5531474760
13   