13   
From optimize.out: Frame 1 / 2, Energy=    -286.8723920416
C        1.3518348802    0.6300180924   -0.8207201120
C       -0.0469536888   -1.1294359329    0.2554017478
C       -1.2669836185   -1.1471279889    0.8845487930
C       -1.7778327050    0.1879828857    0.8733815310
C       -0.8505976165    0.9745854136    0.2378035297
N        0.2130458096    0.1704271542   -0.1427021702
H        1.3223076348    1.7056819527   -1.0164330487
H        0.6663571469   -1.9129104959    0.0475368735
H       -1.7438704792   -2.0201679127    1.3097119443
H       -2.7185409356    0.5247103126    1.2866645691
H       -0.8405711559    2.0331380075    0.0187636744
C        2.3793635754   -0.0974870051   -1.2112937241
H        3.3124411527    0.0805855165   -1.7226636078
13   
From optimize.out: Frame 71 / 72, Energy=    -286.8723920417
C        1.3518348802    0.6300180924   -0.8207201120
C       -0.0469536888   -1.1294359329    0.2554017478
C       -1.2669836185   -1.1471279889    0.8845487930
C       -1.7778327050    0.1879828857    0.8733815310
C       -0.8505976165    0.9745854136    0.2378035297
N        0.2130458096    0.1704271542   -0.1427021702
H        1.3223076348    1.7056819527   -1.0164330487
H        0.6663571469   -1.9129104959    0.0475368735
H       -1.7438704792   -2.0201679127    1.3097119443
H       -2.7185409356    0.5247103126    1.2866645691
H       -0.8405711559    2.0331380075    0.0187636744
C        2.3793635754   -0.0974870051   -1.2112937241
H        3.3124411527    0.0805855165   -1.7226636078
13   
From optimize.out: Frame 69 / 72, Energy=    -286.8723833652
C        1.3605731576    0.6386709313   -0.8045577824
C       -0.0364998701   -1.1230209977    0.2689013473
C       -1.2652170257   -1.1471925054    0.8819241720
C       -1.7888737653    0.1837366873    0.8555148227
C       -0.8563958908    0.9741272260    0.2312778916
N        0.2190996229    0.1777677157   -0.1317700441
H        1.3738327943    1.7258862389   -0.9250414527
H        0.6927473217   -1.8999286252    0.0887652964
H       -1.7376098028   -2.0229116882    1.3078143299
H       -2.7339199625    0.5182990792    1.2652045580
H       -0.8590826916    2.0291864003   -0.0025791780
C        2.3440400492   -0.1066010228   -1.2673624520
H        3.2873060631    0.0519805605   -1.7680915087
13   
From optimize.out: Frame 68 / 72, Energy=    -286.8723755714
C        1.3508440968    0.6427697060   -0.8099901233
C       -0.0486153689   -1.1214719600    0.2393505583
C       -1.2561769858   -1.1420607408    0.8942416506
C       -1.7769041762    0.1908662280    0.8821855942
C       -0.8710030241    0.9749849436    0.2128962855
N        0.1935530480    0.1786392028   -0.1732880382
H        1.3659133313    1.7320485542   -0.9434278287
H        0.6917751027   -1.8848783812    0.0425033995
H       -1.7145158779   -2.0310888174    1.3112217419
H       -2.7168762975    0.5181718667    1.3064928213
H       -0.8701335642    2.0304901951   -0.0146469575
C        2.3420569927   -0.1127519632   -1.2467930540
H        3.3100827229    0.0242811663   -1.7007460496
13   
From optimize.out: Frame 66 / 72, Energy=    -286.8723627175
C        1.3437735440    0.6394499865   -0.8254210034
C       -0.0535445062   -1.1212071495    0.2129123989
C       -1.2363413826   -1.1431612060    0.9092597437
C       -1.7632803296    0.1899426142    0.9034421527
C       -0.8820804759    0.9743374241    0.2064291962
N        0.1719447258    0.1739507985   -0.2130420466
H        1.3569016515    1.7225853559   -0.9678294933
H        0.6630539099   -1.8927030930   -0.0307892633
H       -1.7169236341   -2.0208693360    1.3223766605
H       -2.6768086972    0.5332282624    1.3728689029
H       -0.9120872578    2.0242466691   -0.0519413667
C        2.3584108587   -0.1046113410   -1.2184690699
H        3.3469815934    0.0248110150   -1.6197968116
13   
From optimize.out: Frame 65 / 72, Energy=    -286.8723584140
C        1.3339835892    0.6616608541   -0.8295154860
C       -0.0684660165   -1.1381979671    0.1905037981
C       -1.2413118198   -1.1461659583    0.9024951269
C       -1.7490139595    0.1967955516    0.9095800129
C       -0.8645367550    0.9717906992    0.2123491186
N        0.1798738888    0.1639626271   -0.2133321616
H        1.2751754215    1.7360677614   -1.0403986553
H        0.6404433122   -1.9291063403   -0.0236348743
H       -1.7173916651   -2.0366035482    1.2967741042
H       -2.6409944731    0.5598327848    1.4021323636
H       -0.9040554232    2.0240610335   -0.0454996903
C        2.3812104024   -0.0554634010   -1.1712186492
H        3.3750834982   -0.0086340968   -1.5902350077
13   
From optimize.out: Frame 63 / 72, Energy=    -286.8723480179
C        1.3381627206    0.6731773662   -0.8129467128
C       -0.0689623328   -1.1399863736    0.1841769751
C       -1.2456142870   -1.1467621389    0.8995617290
C       -1.7503898960    0.1979541917    0.9051653719
C       -0.8647754097    0.9735078881    0.2126870845
N        0.1885614792    0.1677786307   -0.2004110494
H        1.2780995624    1.7448246306   -1.0428655065
H        0.6409068634   -1.9307640175   -0.0201949271
H       -1.7053092894   -2.0452545420    1.2970677874
H       -2.6421306910    0.5569789447    1.3887762788
H       -0.9062114139    2.0285393163   -0.0457922263
C        2.3912473530   -0.0446854216   -1.1491755512
H        3.3464153411   -0.0353084747   -1.6160492534
13   
From optimize.out: Frame 62 / 72, Energy=    -286.8723415523
C        1.3282388848    0.6814889352   -0.8344101159
C       -0.0760618995   -1.1403079300    0.1733515542
C       -1.2530803537   -1.1426240198    0.8834189545
C       -1.7543267691    0.2046547514    0.9189206368
C       -0.8642395802    0.9731529586    0.2184721203
N        0.1936170476    0.1687225374   -0.1915116001
H        1.2140761593    1.7303390076   -1.1059777969
H        0.6492273293   -1.9258216596   -0.0025299729
H       -1.7198021743   -2.0356589476    1.2790428028
H       -2.6619046494    0.5303965095    1.4151635017
H       -0.8460634217    2.0273679365   -0.0166200766
C        2.4025293896   -0.0088759346   -1.1626105546
H        3.3877900374   -0.0628341447   -1.5747094533
13   
From optimize.out: Frame 60 / 72, Energy=    -286.8723302930
C        1.3126657428    0.7020147195   -0.8686396127
C       -0.0580445845   -1.1280503376    0.1882682794
C       -1.2483006589   -1.1449430633    0.8722670953
C       -1.7618851959    0.1923165275    0.9138386467
C       -0.8573981964    0.9735651938    0.2342965179
N        0.1861166972    0.1739365742   -0.2004520759
H        1.1783665220    1.7553689026   -1.1247054938
H        0.6617883959   -1.9148296621    0.0044494852
H       -1.7198736978   -2.0256560931    1.2837781321
H       -2.6876333935    0.4997529490    1.3957026537
H       -0.7905227703    2.0286069535    0.0246516418
C        2.3883775050    0.0332362190   -1.1928937637
H        3.3963436344   -0.1453188832   -1.5305615060
13   
From optimize.out: Frame 59 / 72, Energy=    -286.8723253365
C        1.2983160281    0.7226035711   -0.8748701355
C       -0.0296345778   -1.1136127250    0.2163074133
C       -1.2399223211   -1.1498177453    0.8663377229
C       -1.7679293532    0.1759461646    0.8908789696
C       -0.8515824853    0.9755512539    0.2503806677
N        0.1827608663    0.1808906561   -0.2068249932
H        1.1879054793    1.7930695362   -1.0917843844
H        0.6747631601   -1.9031956501    0.0082007566
H       -1.6992232496   -2.0252157760    1.2994233961
H       -2.7073219809    0.4822537523    1.3355356761
H       -0.7670881854    2.0340488424    0.0527381600
C        2.3683139131    0.0582261348   -1.2064208268
H        3.3506427066   -0.2307480150   -1.5399024224
13   
From optimize.out: Frame 57 / 72, Energy=    -286.8723134952
C        1.3137563897    0.7442924473   -0.8714761459
C        0.0010312524   -1.0950489125    0.2574834355
C       -1.2326530602   -1.1511432912    0.8595041659
C       -1.7752691059    0.1664103673    0.8675804553
C       -0.8527819582    0.9822423011    0.2570127349
N        0.1871605242    0.1901057140   -0.2074414829
H        1.1792118298    1.8158972254   -1.0157278068
H        0.6909012211   -1.8903357720    0.0236806695
H       -1.6704060282   -2.0290115455    1.3004302446
H       -2.7290196785    0.4709276497    1.2703614653
H       -0.7662283166    2.0435518546    0.0739405315
C        2.3569116631    0.0728656532   -1.2412100230
H        3.2973852673   -0.3207536912   -1.5741382439
13   
From optimize.out: Frame 56 / 72, Energy=    -286.8723037187
C        1.3450857744    0.7631504694   -0.8538278928
C        0.0245258761   -1.0784873104    0.2914501298
C       -1.2291610567   -1.1525724657    0.8536168579
C       -1.7846722875    0.1594840853    0.8473995146
C       -0.8567103656    0.9876266096    0.2506012373
N        0.1947357622    0.2026837835   -0.1899649162
H        1.1868675822    1.8301143853   -0.9331288538
H        0.7120492533   -1.8721225147    0.0400886949
H       -1.6514057305   -2.0316803358    1.3038434406
H       -2.7565277651    0.4538446640    1.2130530240
H       -0.7761907329    2.0529134857    0.0835407383
C        2.3570404852    0.0831700154   -1.2732393600
H        3.2343632049   -0.3981248716   -1.6334326145
13   
From optimize.out: Frame 54 / 72, Energy=    -286.8722754097
C        1.3894877146    0.7845030568   -0.8354778579
C        0.0433827383   -1.0596755972    0.3180760361
C       -1.2260695535   -1.1546072375    0.8501855370
C       -1.7984506495    0.1515948431    0.8329870501
C       -0.8620823814    0.9921653137    0.2358107016
N        0.1971226123    0.2176593425   -0.1674092679
H        1.2075293359    1.8488423599   -0.8525716723
H        0.7292736303   -1.8542142478    0.0504875664
H       -1.6333973372   -2.0377918937    1.3126559371
H       -2.7876177358    0.4330042138    1.1673223005
H       -0.7942615233    2.0624312927    0.0847469240
C        2.3644245085    0.0925942129   -1.3028206847
H        3.1706586410   -0.4765056591   -1.6939925699
13   
From optimize.out: Frame 53 / 72, Energy=    -286.8722624468
C        1.4123767497    0.8002917780   -0.8167053529
C        0.0649581133   -1.0416928197    0.3449454054
C       -1.2205231365   -1.1572539396    0.8393348628
C       -1.8084629767    0.1400808132    0.8117260513
C       -0.8656539317    0.9967893009    0.2347806470
N        0.2112141422    0.2374814309   -0.1342765722
H        1.2428946231    1.8677945252   -0.7999864640
H        0.7575753382   -1.8248722652    0.0632807441
H       -1.6189973140   -2.0387968729    1.3151638494
H       -2.8134689984    0.4064184971    1.1101244837
H       -0.8063570003    2.0699363980    0.0989245564
C        2.3602075135    0.0973706440   -1.3215159821
H        3.0842368777   -0.5535474899   -1.7457962289
13   
From optimize.out: Frame 51 / 72, Energy=    -286.8722336976
C        1.4184200943    0.8140745311   -0.8178389048
C        0.0917761781   -1.0186861424    0.3688683150
C       -1.2087628528   -1.1578798179    0.8209938324
C       -1.8151835233    0.1270180257    0.7912183975
C       -0.8711154661    1.0057413637    0.2454828945
N        0.2306842523    0.2686589440   -0.0953621793
H        1.2736958361    1.8832053680   -0.7772487205
H        0.7883844983   -1.7851056916    0.0703700640
H       -1.5960744088   -2.0406343364    1.3046682735
H       -2.8336211951    0.3742031693    1.0588849680
H       -0.8214651308    2.0815436897    0.1272437136
C        2.3445386838    0.0901155800   -1.3397972331
H        2.9987230341   -0.6422546832   -1.7574834207
13   
From optimize.out: Frame 50 / 72, Energy=    -286.8722082370
C        1.4205605505    0.8219023703   -0.8128053402
C        0.1149217903   -1.0016489558    0.3984585473
C       -1.2006067372   -1.1619775838    0.7987546682
C       -1.8192219874    0.1171067522    0.7665856373
C       -0.8674180274    1.0154288579    0.2610410040
N        0.2538015896    0.2927669880   -0.0429942009
H        1.2898842823    1.8907850589   -0.7798028044
H        0.8420788335   -1.7374160793    0.0941027781
H       -1.5944077726   -2.0462534175    1.2746375291
H       -2.8472091937    0.3485949110    1.0105998235
H       -0.8186190450    2.0933257153    0.1603755842
C        2.3100505793    0.0737158502   -1.3629646952
H        2.9161851377   -0.7063304672   -1.7659885309
13   
From optimize.out: Frame 48 / 72, Energy=    -286.8721375790
C        1.4162934120    0.8252264024   -0.8215391577
C        0.1365447060   -0.9774041575    0.4211031383
C       -1.1881761499   -1.1629666591    0.7733578605
C       -1.8223662752    0.1096543817    0.7465686414
C       -0.8645059051    1.0288229783    0.2882908550
N        0.2769683006    0.3227027083    0.0102463562
H        1.2844864329    1.8943186574   -0.8234480333
H        0.8856918670   -1.6935062571    0.1249754640
H       -1.5830442426   -2.0607379738    1.2194436827
H       -2.8558101544    0.3264294875    0.9808987491
H       -0.8166565272    2.1088555996    0.2053789066
C        2.2777431784    0.0505674988   -1.3812711515
H        2.8528313576   -0.7719626663   -1.7440053114
13   
From optimize.out: Frame 47 / 72, Energy=    -286.8720861417
C        1.4017565736    0.8296360367   -0.8471522447
C        0.1527964222   -0.9648148611    0.4284209335
C       -1.1737605667   -1.1641036692    0.7534853802
C       -1.8178895049    0.1056953201    0.7264994288
C       -0.8542680447    1.0426001841    0.3208156734
N        0.2996005513    0.3494300098    0.0595452071
H        1.2485388968    1.8904229275   -0.8854481396
H        0.9316005228   -1.6582087757    0.1518508400
H       -1.5834054496   -2.0720080367    1.1626414173
H       -2.8528178842    0.3114405841    0.9639870900
H       -0.8038796095    2.1242808501    0.2514541944
C        2.2457284997    0.0321194402   -1.3952200230
H        2.8059995932   -0.8264900099   -1.6908797573
13   
From optimize.out: Frame 45 / 72, Energy=    -286.8718662377
C        1.3920454715    0.8287976660   -0.8687686513
C        0.1662667401   -0.9443533120    0.4445639275
C       -1.1626950367   -1.1624661028    0.7267922673
C       -1.8128873545    0.1069041822    0.7158742249
C       -0.8469133433    1.0550430243    0.3467001924
N        0.3214642065    0.3741818892    0.1012314041
H        1.2063000119    1.8788455675   -0.9599489677
H        0.9598378653   -1.6349970920    0.2033643117
H       -1.5781015761   -2.0918851623    1.0765885629
H       -2.8453550390    0.3048176693    0.9705008512
H       -0.8005479462    2.1384988463    0.2967831082
C        2.2216662222    0.0126912411   -1.4100443994
H        2.7789197783   -0.8660784168   -1.6436368318
13   
From optimize.out: Frame 44 / 72, Energy=    -286.8717421563
C        1.3759813542    0.8298337359   -0.9057663481
C        0.1777096322   -0.9322653130    0.4374940927
C       -1.1476021891   -1.1594407472    0.7146794004
C       -1.8052890959    0.1095455985    0.7030648112
C       -0.8341161516    1.0646949205    0.3829283012
N        0.3433769069    0.3956778746    0.1404090362
H        1.1449538356    1.8642941636   -1.0324875718
H        0.9859814117   -1.6203397320    0.2350783326
H       -1.5710411114   -2.1030426295    1.0048525740
H       -2.8339298930    0.3064989092    0.9752040273
H       -0.7911239892    2.1486617989    0.3358373482
C        2.1977336693   -0.0051195074   -1.4234725765
H        2.7573656202   -0.8989990721   -1.5678214275
13   
From optimize.out: Frame 42 / 72, Energy=    -286.8715249725
C        1.3673744055    0.8306839533   -0.9429521985
C        0.1851022673   -0.9168642436    0.4304390971
C       -1.1359982535   -1.1567236120    0.6997109376
C       -1.7954848589    0.1127449409    0.6982763024
C       -0.8248772844    1.0739720509    0.4101862343
N        0.3628525199    0.4175685725    0.1730686135
H        1.0908040121    1.8447333869   -1.1047013762
H        1.0025781130   -1.6075713065    0.2747228364
H       -1.5628697519   -2.1175745070    0.9229580457
H       -2.8160310620    0.3108575705    1.0002156984
H       -0.7980505512    2.1581435021    0.3671899569
C        2.1795546147   -0.0246258641   -1.4376173904
H        2.7450458293   -0.9253444438   -1.4914967570
13   
From optimize.out: Frame 40 / 72, Energy=    -286.8711833572
C        1.3559894991    0.8199842412   -0.9806112833
C        0.1960366931   -0.9137623809    0.4281168204
C       -1.1294965629   -1.1477601641    0.6894239954
C       -1.7846357141    0.1195256408    0.6929110043
C       -0.8113883418    1.0787136852    0.4358340187
N        0.3845004835    0.4327851419    0.2030708384
H        1.0118754244    1.8204873550   -1.1455715020
H        1.0251963027   -1.6009439561    0.3156678549
H       -1.5693240711   -2.1187275894    0.8466919153
H       -2.7967131105    0.3231748682    1.0188056925
H       -0.8010382623    2.1614777832    0.3926102068
C        2.1667148762   -0.0422338184   -1.4708289819
H        2.7522827838   -0.9327208064   -1.4261205796
13   
From optimize.out: Frame 39 / 72, Energy=    -286.8708508139
C        1.3596179174    0.8310743469   -1.0319633365
C        0.1954926745   -0.9193457598    0.4020615504
C       -1.1249721253   -1.1506969759    0.6883350389
C       -1.7785230746    0.1200959215    0.7023166588
C       -0.8094554716    1.0842369296    0.4503285777
N        0.3922688759    0.4508655770    0.2260958822
H        0.9934862668    1.8271911664   -1.2169682680
H        1.0335706993   -1.6005340035    0.3294598773
H       -1.5772730182   -2.1251350573    0.7958088446
H       -2.7759957973    0.3232858608    1.0710554156
H       -0.8192486589    2.1660949488    0.3966878308
C        2.1607211091   -0.0619069186   -1.4781027422
H        2.7503106026   -0.9452260359   -1.3351153296
13   
From optimize.out: Frame 37 / 72, Energy=    -286.8702617445
C        1.3555607370    0.8242271922   -1.0585637131
C        0.1973024377   -0.9010686123    0.3586584602
C       -1.1102059430   -1.1454965621    0.6887604499
C       -1.7754733723    0.1231826292    0.7103902829
C       -0.7980580064    1.0866730721    0.4388803219
N        0.4052915527    0.4568900702    0.2581268409
H        0.9606502162    1.7978428221   -1.2243557434
H        1.0331939136   -1.5893665214    0.3260514982
H       -1.5577401324   -2.1231864919    0.7521720056
H       -2.7550651756    0.3259697148    1.1254542798
H       -0.8244908066    2.1678470854    0.3608731028
C        2.1368453674   -0.0828931783   -1.4759137210
H        2.7321892117   -0.9406212200   -1.2605340648
13   
From optimize.out: Frame 36 / 72, Energy=    -286.8694794708
C        1.3856326741    0.8492010896   -1.1133077460
C        0.1846248713   -0.9137242583    0.3416903425
C       -1.1160096129   -1.1559917634    0.6959431076
C       -1.7786705206    0.1194611818    0.7269551587
C       -0.8026294032    1.0796519340    0.4474310665
N        0.4061732753    0.4603387656    0.3010891691
H        1.0134699930    1.8254213627   -1.3248529575
H        1.0296245410   -1.5931670624    0.3342139336
H       -1.5863285905   -2.1269277089    0.7167071100
H       -2.7414073564    0.3222665550    1.1811587126
H       -0.8613384999    2.1588654966    0.3640779088
C        2.1407778811   -0.0917304195   -1.4839002506
H        2.7260807479   -0.9336651728   -1.1872055553
13   
From optimize.out: Frame 34 / 72, Energy=    -286.8688161228
C        1.4155668123    0.8736356346   -1.1673328894
C        0.1717773707   -0.9272997325    0.3284185730
C       -1.1231317554   -1.1671542191    0.7022187941
C       -1.7818165581    0.1156264874    0.7422225875
C       -0.8066169291    1.0714384574    0.4581127829
N        0.4067374829    0.4616849437    0.3454591763
H        1.0709993232    1.8520219036   -1.4289589323
H        1.0262409942   -1.5965471414    0.3446644377
H       -1.6165649759   -2.1291513890    0.6813783918
H       -2.7276992142    0.3190258328    1.2316442357
H       -0.8961980388    2.1478504141    0.3710700294
C        2.1432295282   -0.0995857519   -1.4902900117
H        2.7174759598   -0.9215454397   -1.1186071750
13   
From optimize.out: Frame 33 / 72, Energy=    -286.8679806019
C        1.4437206105    0.8960509330   -1.2212725639
C        0.1593472101   -0.9396643729    0.3151141206
C       -1.1299337331   -1.1781847241    0.7073320278
C       -1.7844002907    0.1120317260    0.7564920664
C       -0.8087738365    1.0624149500    0.4696868528
N        0.4079507009    0.4612680771    0.3924278058
H        1.1286998703    1.8736764749   -1.5342098548
H        1.0230476316   -1.5981090260    0.3566057611
H       -1.6456446224   -2.1292562732    0.6434970951
H       -2.7123267645    0.3163821654    1.2801227707
H       -0.9280178706    2.1352109396    0.3783131826
C        2.1417275517   -0.1078271183   -1.4939957230
H        2.7046035426   -0.9039937515   -1.0501135413
13   
From optimize.out: Frame 31 / 72, Energy=    -286.8665838020
C        1.4560888462    0.9171362446   -1.2583529572
C        0.1481310636   -0.9599789005    0.2936932813
C       -1.1342357089   -1.1886466133    0.7127017927
C       -1.7803534430    0.1119509537    0.7700105042
C       -0.8040235532    1.0489002752    0.4736406508
N        0.4167932986    0.4527685788    0.4369546301
H        1.1815835980    1.8907116878   -1.6344696283
H        1.0227706679   -1.6030695704    0.3648151621
H       -1.6791569240   -2.1226047902    0.6046636119
H       -2.6834352929    0.3230547842    1.3336534910
H       -0.9562700347    2.1158834551    0.3706969269
C        2.1278272008   -0.1128801220   -1.4915025419
H        2.6842802818   -0.8732259831   -0.9765049235
13   
From optimize.out: Frame 30 / 72, Energy=    -286.8658738314
C        1.4565203147    0.9410991714   -1.2706536585
C        0.1368362534   -0.9924092032    0.2646587686
C       -1.1361867907   -1.1993877811    0.7204995814
C       -1.7675774242    0.1156778869    0.7809207650
C       -0.7920826478    1.0291461137    0.4656430027
N        0.4356537521    0.4395264736    0.4804010286
H        1.2339960747    1.9100960214   -1.7152243109
H        1.0247318385   -1.6148051712    0.3638697955
H       -1.7206925656   -2.1097933318    0.5770131259
H       -2.6413107772    0.3424275366    1.3845939525
H       -0.9919350751    2.0853270847    0.3450581531
C        2.1035248081   -0.1115279594   -1.4859027551
H        2.6585222389   -0.8353768417   -0.9108774488
13   
From optimize.out: Frame 27 / 72, Energy=    -286.8617589672
C        1.4529072463    0.9686142680   -1.2606372810
C        0.1257136498   -1.0308671715    0.2332422778
C       -1.1354958527   -1.2104669497    0.7305704007
C       -1.7460604975    0.1226012402    0.7869887693
C       -0.7759596752    1.0058101023    0.4489643414
N        0.4615717520    0.4272701715    0.5245094313
H        1.2844318094    1.9357613371   -1.7715440611
H        1.0263662250   -1.6334539602    0.3522671112
H       -1.7675550870   -2.0952339009    0.5649553692
H       -2.5905554488    0.3736967300    1.4240624428
H       -1.0430581377    2.0421592657    0.3093145464
C        2.0745528448   -0.1045471072   -1.4799862033
H        2.6331411716   -0.8013440254   -0.8627071447
13   
From optimize.out: Frame 26 / 72, Energy=    -286.8588083332
C        1.4502603485    0.9942142713   -1.2343435151
C        0.1145904179   -1.0645281619    0.2042804422
C       -1.1329431923   -1.2208968083    0.7420979309
C       -1.7184239648    0.1307312087    0.7879625535
C       -0.7570262853    0.9792556349    0.4315229510
N        0.4902061108    0.4136615371    0.5694283075
H        1.3246798486    1.9852661119   -1.8152013836
H        1.0244627450   -1.6548907767    0.3338157169
H       -1.8153997910   -2.0836348470    0.5644599352
H       -2.5379622760    0.4125107254    1.4476668627
H       -1.1003225723    1.9849558983    0.2735111558
C        2.0456638421   -0.0967368668   -1.4737558968
H        2.6122147689   -0.7799079268   -0.8314450602
13   
From optimize.out: Frame 24 / 72, Energy=    -286.8545922910
C        1.4466171764    1.0136632805   -1.2040313733
C        0.1058413818   -1.0877188762    0.1798933491
C       -1.1296478585   -1.2275966023    0.7513618900
C       -1.6854949548    0.1403366576    0.7846935823
C       -0.7377801964    0.9490272396    0.4186414427
N        0.5154069363    0.3969714107    0.6090964419
H        1.3453004028    2.0560211591   -1.8528702340
H        1.0215455791   -1.6748581531    0.3148193118
H       -1.8627172310   -2.0757853293    0.5674070114
H       -2.4828275999    0.4576778124    1.4591084708
H       -1.1552604676    1.9140029777    0.2462871952
C        2.0201459278   -0.0906302514   -1.4655752132
H        2.5988709040   -0.7711113253   -0.8088318748
13   
From optimize.out: Frame 23 / 72, Energy=    -286.8539129180
C        1.4503922992    1.0264241333   -1.1788453447
C        0.0981873742   -1.0949030093    0.1650780762
C       -1.1273371584   -1.2303787419    0.7654636648
C       -1.6637315773    0.1414031502    0.7780839226
C       -0.7244829592    0.9132119256    0.4018678479
N        0.5343321628    0.3797096820    0.6381852348
H        1.3474353962    2.1062127231   -1.8561222151
H        1.0250625756   -1.6548688958    0.2834126696
H       -1.8938510757   -2.0690200852    0.5727671060
H       -2.4385226345    0.4958111906    1.4626280424
H       -1.1911705668    1.8539198528    0.2214344027
C        2.0076540781   -0.0868659567   -1.4558191888
H        2.5760320857   -0.7806559686   -0.7981342185
13   
From optimize.out: Frame 21 / 72, Energy=    -286.8524580063
C        1.4710157019    1.0256715117   -1.1749129758
C        0.1116625709   -1.1087144193    0.1914396635
C       -1.1317478720   -1.2482004741    0.7896543121
C       -1.6891993474    0.1233883419    0.7711050605
C       -0.7255219256    0.9038789341    0.3805081649
N        0.5493285901    0.3703212910    0.6548727686
H        1.3202449878    2.0988074517   -1.8215581972
H        1.0740862748   -1.5512064044    0.2308943380
H       -1.8874008446   -2.0791840268    0.5571380779
H       -2.4477168405    0.5006278466    1.4591148636
H       -1.1764571546    1.9017786067    0.2074133535
C        2.0194441404   -0.0997720441   -1.4409431835
H        2.5122617189   -0.8373966149   -0.8047262461
13   
From optimize.out: Frame 20 / 72, Energy=    -286.8515379450
C        1.4892512873    1.0295548844   -1.1737291933
C        0.1256085806   -1.1187985527    0.2201298132
C       -1.1371231705   -1.2648686138    0.8111926048
C       -1.7170195720    0.1040015812    0.7644245708
C       -0.7281357733    0.8995734552    0.3589337382
N        0.5609506578    0.3649806094    0.6685382310
H        1.2899662988    2.0719769035   -1.7708186583
H        1.1210166613   -1.4609071898    0.1758740509
H       -1.8687910693   -2.0843659324    0.5498432861
H       -2.4647053433    0.5031068721    1.4463695814
H       -1.1509912786    1.9535439571    0.1930062892
C        2.0306369497   -0.1076098390   -1.4257044171
H        2.4493357713   -0.8901881353   -0.8180598968
13   
From optimize.out: Frame 18 / 72, Energy=    -286.8487321026
C        1.5188718789    1.0324721126   -1.1805895850
C        0.1323695358   -1.1182931099    0.2405691547
C       -1.1413532173   -1.2747954696    0.8263920172
C       -1.7456220011    0.0878325802    0.7645616972
C       -0.7455909906    0.9044581648    0.3447921257
N        0.5551063596    0.3729083067    0.6676010032
H        1.2901912540    2.0411705949   -1.7284222816
H        1.1523888221   -1.3994649514    0.1327079733
H       -1.8451862097   -2.0891528266    0.5538116900
H       -2.4888399020    0.4956525062    1.4412221004
H       -1.1418529887    1.9928184630    0.1878700506
C        2.0501329606   -0.1137762793   -1.4186991508
H        2.4093844984   -0.9318300916   -0.8318167949
13   
From optimize.out: Frame 17 / 72, Energy=    -286.8464646048
C        1.5860306410    1.0223257140   -1.2032860466
C        0.1197572380   -1.0988175026    0.2334940592
C       -1.1414413792   -1.2707699968    0.8297220208
C       -1.7739207651    0.0798485688    0.7836982986
C       -0.7999007840    0.9229771478    0.3514172297
N        0.5085231097    0.4072560569    0.6327234174
H        1.3806272806    2.0321465747   -1.7379358605
H        1.1431910404   -1.3839801973    0.1264211107
H       -1.8278794679   -2.1011001318    0.5715609919
H       -2.5164662272    0.4637528673    1.4741327635
H       -1.2010014568    2.0042449660    0.2067132163
C        2.0959710321   -0.1288529755   -1.4337220086
H        2.4265097385   -0.9490310915   -0.8349391925
13   
From optimize.out: Frame 15 / 72, Energy=    -286.8396992454
C        1.6531894030    1.0121793154   -1.2259825082
C        0.1071449402   -1.0793418954    0.2264189636
C       -1.1415295411   -1.2667445241    0.8330520245
C       -1.8022195292    0.0718645574    0.8028348999
C       -0.8542105774    0.9414961308    0.3580423338
N        0.4619398598    0.4416038070    0.5978458316
H        1.4710633073    2.0231225546   -1.7474494394
H        1.1339932586   -1.3684954432    0.1201342482
H       -1.8105727261   -2.1130474369    0.5893102938
H       -2.5440925525    0.4318532284    1.5070434267
H       -1.2601499248    2.0156714691    0.2255563821
C        2.1418091036   -0.1439296717   -1.4487448664
H        2.4436349785   -0.9662320915   -0.8380615902
13   
From optimize.out: Frame 13 / 72, Energy=    -286.8302027895
C        1.7203481650    1.0020329168   -1.2486789699
C        0.0945326425   -1.0598662881    0.2193438681
C       -1.1416177030   -1.2627190513    0.8363820282
C       -1.8305182932    0.0638805461    0.8219715013
C       -0.9085203708    0.9600151139    0.3646674379
N        0.4153566099    0.4759515572    0.5629682458
H        1.5614993340    2.0140985344   -1.7569630184
H        1.1247954769   -1.3530106892    0.1138473856
H       -1.7932659843   -2.1249947421    0.6070595957
H       -2.5717188778    0.3999535895    1.5399540898
H       -1.3192983929    2.0270979722    0.2443995479
C        2.1876471751   -0.1590063679   -1.4637677242
H        2.4607602186   -0.9834330914   -0.8411839878
13   