13   
From optimize.out: Frame 1 / 2, Energy=    -286.8723920416
C        1.3518348802    0.6300180924   -0.8207201120
C       -0.0469536888   -1.1294359329    0.2554017478
C       -1.2669836185   -1.1471279889    0.8845487930
C       -1.7778327050    0.1879828857    0.8733815310
C       -0.8505976165    0.9745854136    0.2378035297
N        0.2130458096    0.1704271542   -0.1427021702
H        1.3223076348    1.7056819527   -1.0164330487
H        0.6663571469   -1.9129104959    0.0475368735
H       -1.7438704792   -2.0201679127    1.3097119443
H       -2.7185409356    0.5247103126    1.2866645691
H       -0.8405711559    2.0331380075    0.0187636744
C        2.3793635754   -0.0974870051   -1.2112937241
H        3.3124411527    0.0805855165   -1.7226636078
13   
From optimize.out: Frame 71 / 72, Energy=    -286.8723920417
C        1.3587078814    0.6394567571   -0.8055992823
C       -0.0388226792   -1.1227240129    0.2632358074
C       -1.2634838501   -1.1462086326    0.8842857051
C       -1.7865789303    0.1851035779    0.8606281995
C       -0.8591964014    0.9742916694    0.2277537312
N        0.2142017794    0.1779347990   -0.1397299619
H        1.3723144581    1.7270676911   -0.9285665277
H        0.6925609258   -1.8970431606    0.0798958675
H       -1.7331821865   -2.0244794247    1.3084676061
H       -2.7306523149    0.5182746897    1.2731204313
H       -0.8612013883    2.0294363666   -0.0048928382
C        2.3436598534   -0.1077802941   -1.2634188435
H        3.2916728526    0.0466699739   -1.7551798946
13   
From optimize.out: Frame 69 / 72, Energy=    -286.8723833652
C        1.3476965573    0.6412918939   -0.8168593605
C       -0.0508096321   -1.1213540765    0.2275813016
C       -1.2473469345   -1.1425506258    0.9009271308
C       -1.7708393611    0.1904550705    0.8916482004
C       -0.8759342816    0.9746966927    0.2100173849
N        0.1839338501    0.1765521047   -0.1909850011
H        1.3619016764    1.7278359005   -0.9542905157
H        0.6789895270   -1.8883616434    0.0098763113
H       -1.7155877188   -2.0265394955    1.3161874847
H       -2.6990397355    0.5248743978    1.3360409122
H       -0.8888097427    2.0277108163   -0.0312490010
C        2.3493371079   -0.1091280698   -1.2341843004
H        3.3265086877    0.0245170346   -1.6647105472
13   
From optimize.out: Frame 68 / 72, Energy=    -286.8723755714
C        1.3387118661    0.6509336205   -0.8275379644
C       -0.0612593405   -1.1299918731    0.2013265313
C       -1.2389112364   -1.1447147462    0.9057622494
C       -1.7559042209    0.1934857728    0.9066155965
C       -0.8730098860    0.9730206967    0.2094899601
N        0.1760443228    0.1687866371   -0.2131920441
H        1.3146469259    1.7295561331   -1.0053497610
H        0.6513636043   -1.9115245807   -0.0270902459
H       -1.7171656191   -2.0290043597    1.3091394294
H       -2.6582917509    0.5469835377    1.3879989230
H       -0.9079345767    2.0241506904   -0.0486108415
C        2.3701988546   -0.0792004941   -1.1940392930
H        3.3615110569    0.0075189654   -1.6045125398
13   
From optimize.out: Frame 66 / 72, Energy=    -286.8723627175
C        1.3357155860    0.6752269293   -0.8182394077
C       -0.0707130264   -1.1400656667    0.1815075172
C       -1.2474553563   -1.1457417135    0.8955810564
C       -1.7513606958    0.1996064934    0.9085573047
C       -0.8646432786    0.9734203655    0.2141136257
N        0.1898081399    0.1680113902   -0.1982165199
H        1.2623119289    1.7412525977   -1.0584284673
H        0.6429586204   -1.9295452735   -0.0158388977
H       -1.7088831131   -2.0428883490    1.2926229776
H       -2.6470067831    0.5504239394    1.3952831464
H       -0.8913794241    2.0282504639   -0.0385986192
C        2.3940294085   -0.0358551028   -1.1524885102
H        3.3566179937   -0.0420960737   -1.6058552059
13   
From optimize.out: Frame 65 / 72, Energy=    -286.8723584140
C        1.3213274935    0.6905983190   -0.8496012344
C       -0.0680657794   -1.1348679862    0.1799716264
C       -1.2509591157   -1.1436532159    0.8784697373
C       -1.7576812139    0.1991790232    0.9166652395
C       -0.8612033605    0.9733359094    0.2254950193
N        0.1902883772    0.1710365373   -0.1954794010
H        1.1982281515    1.7414473247   -1.1142891859
H        0.6548019555   -1.9209433893    0.0005675245
H       -1.7198339165   -2.0312196609    1.2811443513
H       -2.6733231170    0.5167968366    1.4065267388
H       -0.8214143705    2.0279178147    0.0016963938
C        2.3962487551    0.0098135227   -1.1760503028
H        3.3915861407   -0.0994410352   -1.5551165068
13   
From optimize.out: Frame 63 / 72, Energy=    -286.8723480179
C        1.3036902152    0.7148927320   -0.8725367096
C       -0.0402745589   -1.1190198312    0.2058063298
C       -1.2430601365   -1.1479921025    0.8685583634
C       -1.7656657241    0.1820771153    0.8994777190
C       -0.8537605579    0.9748074441    0.2443569081
N        0.1840176762    0.1782862463   -0.2044382384
H        1.1843329942    1.7789500736   -1.1041138422
H        0.6699039129   -1.9075527651    0.0067958482
H       -1.7069571576   -2.0253806815    1.2935640060
H       -2.6999483044    0.4888074685    1.3580691274
H       -0.7758647951    2.0320107720    0.0422193303
C        2.3758280344    0.0488670300   -1.2013547353
H        3.3677584014   -0.1987535015   -1.5364041066
13   
From optimize.out: Frame 60 / 72, Energy=    -286.8723302930
C        1.3092572090    0.7379725064   -0.8724651235
C       -0.0079044911   -1.1004582383    0.2454851178
C       -1.2347712566   -1.1507570392    0.8614954022
C       -1.7731303688    0.1691890117    0.8743694301
C       -0.8524324427    0.9802925909    0.2550802109
N        0.1858785040    0.1874205301   -0.2072618434
H        1.1817450800    1.8092454448   -1.0378900005
H        0.6861987372   -1.8940830233    0.0191699639
H       -1.6788031039   -2.0279054929    1.3001368582
H       -2.7226971671    0.4742279728    1.2893526365
H       -0.7664788745    2.0407827634    0.0677623536
C        2.3602341748    0.0685998309   -1.2310727683
H        3.3129039998   -0.2945268573   -1.5641622374
13   
From optimize.out: Frame 59 / 72, Energy=    -286.8723253365
C        1.3366927343    0.7580984667   -0.8585558023
C        0.0182317429   -1.0829241096    0.2823505630
C       -1.2300965530   -1.1521895945    0.8551940486
C       -1.7821532058    0.1613396137    0.8528059229
C       -0.8556579580    0.9861841709    0.2523188566
N        0.1927063806    0.1993141597   -0.1946468315
H        1.1848166310    1.8263056545   -0.9552568443
H        0.7063837644   -1.8770017870    0.0356930383
H       -1.6564958484   -2.0309653756    1.3029290565
H       -2.7491584383    0.4584211402    1.2284057687
H       -0.7735218340    2.0504055352    0.0809688742
C        2.3570059742    0.0804095103   -1.2646588049
H        3.2512466101   -0.3773973844   -1.6175478458
13   
From optimize.out: Frame 57 / 72, Energy=    -286.8723134952
C        1.3782881995    0.7791172871   -0.8401062929
C        0.0386264661   -1.0644204814    0.3113601755
C       -1.2268493243   -1.1540940064    0.8510510201
C       -1.7949753291    0.1535847491    0.8366223104
C       -0.8607273962    0.9910205150    0.2395413230
N        0.1965205763    0.2138820526   -0.1730984861
H        1.2023178154    1.8441185971   -0.8728906350
H        0.7249291204   -1.8587312555    0.0478646559
H       -1.6379395998   -2.0362503735    1.3104331584
H       -2.7797759029    0.4382608069    1.1788569750
H       -0.7897035223    2.0600306133    0.0844426874
C        2.3625620340    0.0902171447   -1.2953593781
H        3.1867268628   -0.4567356489   -1.6787175137
13   
From optimize.out: Frame 56 / 72, Energy=    -286.8723037187
C        1.4068672124    0.7964913317   -0.8212240151
C        0.0597647824   -1.0460213894    0.3384777761
C       -1.2218581946   -1.1566168615    0.8419466896
C       -1.8060529455    0.1428523139    0.8168437099
C       -0.8647942367    0.9956762776    0.2350285877
N        0.2078222207    0.2327101273   -0.1422518242
H        1.2343819720    1.8632326176   -0.8126440604
H        0.7507629359   -1.8319350683    0.0602013443
H       -1.6224634918   -2.0385549680    1.3145601788
H       -2.8072464340    0.4128178494    1.1238923645
H       -0.8034455415    2.0681298711    0.0955119095
C        2.3612225712    0.0962209265   -1.3170159043
H        3.1050391496   -0.5350030278   -1.7333267564
13   
From optimize.out: Frame 54 / 72, Energy=    -286.8722754097
C        1.4170759956    0.8110091126   -0.8175867919
C        0.0858115794   -1.0238030514    0.3635476270
C       -1.2113784544   -1.1577406165    0.8250730562
C       -1.8136888083    0.1299233168    0.7957794993
C       -0.8699007677    1.0037503378    0.2431026105
N        0.2263539103    0.2617247615   -0.1040171191
H        1.2668453464    1.8797778465   -0.7823058160
H        0.7815322411   -1.7939501647    0.0687933302
H       -1.6011726861   -2.0402256666    1.3070025917
H       -2.8291391504    0.3813681718    1.0702811351
H       -0.8181049355    2.0789621150    0.1209452573
C        2.3480235841    0.0917291769   -1.3357313049
H        3.0177421455   -0.6225253398   -1.7548840754
13   
From optimize.out: Frame 53 / 72, Energy=    -286.8722624468
C        1.4201471220    0.8203904256   -0.8137775716
C        0.1104512227   -1.0049396830    0.3927432033
C       -1.2021820883   -1.1611861016    0.8030501557
C       -1.8184419594    0.1190211115    0.7713434471
C       -0.8681321865    1.0135577215    0.2580359601
N        0.2493364832    0.2881105270   -0.0531090593
H        1.2867574891    1.8893210440   -0.7793094839
H        0.8317077897   -1.7466273128    0.0895188120
H       -1.5947296828   -2.0451680938    1.2804379578
H       -2.8445846761    0.3535411379    1.0199260838
H       -0.8191687656    2.0910500208    0.1539761739
C        2.3167119458    0.0768834528   -1.3584899073
H        2.9321273061   -0.6939542499   -1.7643457716
13   
From optimize.out: Frame 51 / 72, Energy=    -286.8722336976
C        1.4170388612    0.8246457095   -0.8200134005
C        0.1327672834   -0.9816396107    0.4171472339
C       -1.1903477155   -1.1627938723    0.7777945644
C       -1.8218169828    0.1109562761    0.7500655172
C       -0.8650146393    1.0264830879    0.2835304331
N        0.2729211842    0.3174730776    0.0009454792
H        1.2854294120    1.8937013542   -0.8158234153
H        0.8780728735   -1.7011770982    0.1195821497
H       -1.5850293983   -2.0582075894    1.2290857903
H       -2.8543076067    0.3303016836    0.9860873883
H       -0.8169993699    2.1061426013    0.1975170361
C        2.2833871307    0.0546114078   -1.3780730990
H        2.8638989675   -0.7604970272   -1.7478456773
13   
From optimize.out: Frame 50 / 72, Energy=    -286.8722082370
C        1.4040305579    0.8289462417   -0.8431456130
C        0.1502541811   -0.9667841932    0.4272762175
C       -1.1760155831   -1.1639258077    0.7565940141
C       -1.8185898020    0.1063146325    0.7296388373
C       -0.8558695438    1.0404450284    0.3157278458
N        0.2960602091    0.3452490826    0.0518334330
H        1.2541621369    1.8910323329   -0.8757495198
H        0.9244190738   -1.6637303284    0.1476467496
H       -1.5833489463   -2.0702450711    1.1715269436
H       -2.8532859623    0.3137852845    0.9666325653
H       -0.8058782910    2.1218678923    0.2442466794
C        2.2507365265    0.0350052531   -1.3930380138
H        2.8133254432   -0.8179603475   -1.6991901390
13   
From optimize.out: Frame 48 / 72, Energy=    -286.8721375790
C        1.3935019050    0.8289234016   -0.8655267062
C        0.1642465139   -0.9474220560    0.4421428637
C       -1.1643546021   -1.1627116987    0.7307955972
C       -1.8136375577    0.1067228817    0.7174677519
C       -0.8480163730    1.0531768953    0.3428181323
N        0.3181851800    0.3704696980    0.0949794694
H        1.2126348366    1.8805818952   -0.9487756215
H        0.9556029378   -1.6384782906    0.1956385203
H       -1.5788970305   -2.0889040678    1.0894944374
H       -2.8464742877    0.3058109485    0.9695239425
H       -0.8010476162    2.1363664862    0.2899848529
C        2.2252749896    0.0156050073   -1.4078210967
H        2.7829811042   -0.8601411006   -1.6507221431
13   
From optimize.out: Frame 47 / 72, Energy=    -286.8720861417
C        1.3782417508    0.8296879496   -0.9005603684
C        0.1760994924   -0.9339662264    0.4384888956
C       -1.1497259174   -1.1598664477    0.7163838130
C       -1.8063582538    0.1091739224    0.7048672355
C       -0.8359168562    1.0633367934    0.3778306110
N        0.3402935508    0.3926531549    0.1348963158
H        1.1535859121    1.8663417049   -1.0222805986
H        0.9823027295   -1.6224021825    0.2306158238
H       -1.5720345958   -2.1014726521    1.0149466105
H       -2.8355375357    0.3062623404    0.9745422391
H       -0.7924500428    2.1472317605    0.3303419905
C        2.2011012407   -0.0026133407   -1.4215830855
H        2.7603985255   -0.8943667767   -1.5784894822
13   
From optimize.out: Frame 45 / 72, Energy=    -286.8718662377
C        1.3683750163    0.8305851103   -0.9386291144
C        0.1842428280   -0.9186547128    0.4312592837
C       -1.1373472825   -1.1570394957    0.7014511136
C       -1.7966246618    0.1123729976    0.6988329960
C       -0.8259513596    1.0728935274    0.4070173317
N        0.3605883599    0.4150236441    0.1692717365
H        1.0970992625    1.8470074476   -1.0963060768
H        1.0006486443   -1.6090557146    0.2701139187
H       -1.5638197227   -2.1158850868    0.9324787888
H       -2.8181119113    0.3103508493    0.9973079376
H       -0.7972452957    2.1570411957    0.3635450231
C        2.1816680418   -0.0223581300   -1.4359729687
H        2.7464780808   -0.9222816321   -1.5003699699
13   
From optimize.out: Frame 44 / 72, Energy=    -286.8717421563
C        1.3564031840    0.8203730287   -0.9792428932
C        0.1956393770   -0.9138750910    0.4282012032
C       -1.1297328100   -1.1480858622    0.6897977843
C       -1.7850299314    0.1192792556    0.6931059592
C       -0.8118784795    1.0785413919    0.4349020743
N        0.3837138776    0.4322322287    0.2019806699
H        1.0147433937    1.8213683650   -1.1440864347
H        1.0243744424   -1.6011847692    0.3141800663
H       -1.5690895454   -2.1186856907    0.8494631409
H       -2.7974150525    0.3227273038    1.0181302018
H       -0.8009297001    2.1613566279    0.3916865301
C        2.1671814242   -0.0415940113   -1.4696221970
H        2.7520198200   -0.9324527770   -1.4284961050
13   
From optimize.out: Frame 40 / 72, Energy=    -286.8711833572
C        1.3590737128    0.8301559127   -1.0355313434
C        0.1957354248   -0.9168941784    0.3962397334
C       -1.1229914826   -1.1499994251    0.6883921008
C       -1.7781140067    0.1205099531    0.7033996039
C       -0.8079266874    1.0845636984    0.4487929808
N        0.3940156557    0.4516736646    0.2303923131
H        0.9890818459    1.8232545644   -1.2179591774
H        1.0335201596   -1.5990360678    0.3290026988
H       -1.5746530000   -2.1248736890    0.7899556741
H       -2.7731882956    0.3236458560    1.0783521364
H       -0.8199518075    2.1663299694    0.3918838689
C        2.1575185676   -0.0647218832   -1.4778091207
H        2.7478799134   -0.9446083749   -1.3251114687
13   
From optimize.out: Frame 39 / 72, Energy=    -286.8708508139
C        1.3654557109    0.8324446895   -1.0765768784
C        0.1931309675   -0.9052328697    0.3530752123
C       -1.1121156026   -1.1489499393    0.6911238564
C       -1.7765253730    0.1219581113    0.7158408467
C       -0.7995621946    1.0843628126    0.4416938884
N        0.4055816777    0.4580248408    0.2722633135
H        0.9780302177    1.8069173602   -1.2574236933
H        1.0320194349   -1.5906170645    0.3287372941
H       -1.5671469772   -2.1244175148    0.7405025141
H       -2.7505711597    0.3247512143    1.1437834585
H       -0.8366152987    2.1648917525    0.3619276232
C        2.1381393353   -0.0858010146   -1.4785416362
H        2.7301792617   -0.9383323782   -1.2364057992
13   
From optimize.out: Frame 37 / 72, Energy=    -286.8702617445
C        1.3955057295    0.8572602365   -1.1311266400
C        0.1803874323   -0.9182018020    0.3373129685
C       -1.1183586803   -1.1596734309    0.6980129918
C       -1.7797081654    0.1181964001    0.7319907528
C       -0.8039445927    1.0769429163    0.4509541737
N        0.4063593656    0.4607827700    0.3157235486
H        1.0324446587    1.8341949113   -1.3591898090
H        1.0285085595   -1.5942819001    0.3376607810
H       -1.5963013349   -2.1276611363    0.7050547821
H       -2.7368860554    0.3211976808    1.1978101480
H       -0.8728360803    2.1552324366    0.3663840916
C        2.1415864979   -0.0943213119   -1.4860077596
H        2.7232426655   -0.9296677703   -1.1645800296
13   
From optimize.out: Frame 36 / 72, Energy=    -286.8694794708
C        1.4248420542    0.8810203332   -1.1851032636
C        0.1676822662   -0.9313732515    0.3240354339
C       -1.1253726605   -1.1707882084    0.7039033440
C       -1.7826677663    0.1144421967    0.7469236537
C       -0.8073275202    1.0684656715    0.4619258492
N        0.4071371764    0.4615476074    0.3609329463
H        1.0900087133    1.8591559814   -1.4636337480
H        1.0251889440   -1.5970617028    0.3485984953
H       -1.6261452376   -2.1291859430    0.6688984348
H       -2.7226347753    0.3181548791    1.2476154427
H       -0.9066810519    2.1436863513    0.3734562793
C        2.1427347035   -0.1023008622   -1.4915108547
H        2.7132351542   -0.9157630528   -1.0960420129
13   
From optimize.out: Frame 34 / 72, Energy=    -286.8688161228
C        1.4478110019    0.9030242136   -1.2335356972
C        0.1556378347   -0.9463827417    0.3080298751
C       -1.1313564716   -1.1816446535    0.7091079028
C       -1.7830619275    0.1120050132    0.7609628498
C       -0.8072028349    1.0579454111    0.4709944428
N        0.4108751023    0.4584571447    0.4071536038
H        1.1461894421    1.8793103172   -1.5673675118
H        1.0229560349   -1.5997495646    0.3593207533
H       -1.6567277255   -2.1270565117    0.6306541844
H       -2.7027718506    0.3185889169    1.2978263143
H       -0.9373613544    2.1288190031    0.3757943539
C        2.1371304631   -0.1094982348   -1.4931711845
H        2.6978822855   -0.8938183135   -1.0257698866
13   
From optimize.out: Frame 33 / 72, Energy=    -286.8679806019
C        1.4562339840    0.9251969150   -1.2624906779
C        0.1443317054   -0.9708878342    0.2839266264
C       -1.1348920155   -1.1922597368    0.7153248197
C       -1.7760558346    0.1132046228    0.7736805073
C       -0.8000068609    1.0422553530    0.4709503949
N        0.4231375945    0.4483141878    0.4515691679
H        1.1992141530    1.8972322070   -1.6616339595
H        1.0234303682   -1.6070172021    0.3644971589
H       -1.6931287197   -2.1182952606    0.5953625171
H       -2.6692654113    0.3295714077    1.3507888882
H       -0.9682670724    2.1056048763    0.3620725336
C        2.1196523406   -0.1124252804   -1.4896188807
H        2.6756157687   -0.8604942556   -0.9544290958
13   
From optimize.out: Frame 31 / 72, Energy=    -286.8665838020
C        1.4552807988    0.9505386274   -1.2672173938
C        0.1330204817   -1.0056027712    0.2538808823
C       -1.1359497543   -1.2031886518    0.7239545231
C       -1.7601957281    0.1180530444    0.7830024825
C       -0.7865514264    1.0211403540    0.4599211442
N        0.4445453007    0.4353217700    0.4955330608
H        1.2512987906    1.9189008830   -1.7345456242
H        1.0252925387   -1.6212029108    0.3598893251
H       -1.7367694384   -2.1047985063    0.5728765362
H       -2.6238984201    0.3531548904    1.3981341949
H       -1.0094735888    2.0705177336    0.3327957865
C        2.0935855527   -0.1091330760   -1.4838729956
H        2.6498148929   -0.8237013867   -0.8943519220
13   
From optimize.out: Frame 30 / 72, Energy=    -286.8658738314
C        1.4519866887    0.9775176251   -1.2514926420
C        0.1218451306   -1.0425740379    0.2231697179
C       -1.1346080697   -1.2140943225    0.7345795298
C       -1.7364488612    0.1254287403    0.7873274391
C       -0.7693748818    0.9965747946    0.4428984466
N        0.4715304196    0.4225372607    0.5401316480
H        1.2984295681    1.9529784712   -1.7867275253
H        1.0257042188   -1.6409094137    0.3458499498
H       -1.7841948695   -2.0911998968    0.5647830635
H       -2.5722642089    0.3871957464    1.4322717613
H       -1.0629739833    2.0222646585    0.2968625803
C        2.0645056152   -0.1018308044   -1.4778193815
H        2.6258632336   -0.7938888216   -0.8518345873
13   
From optimize.out: Frame 27 / 72, Energy=    -286.8617589672
C        1.4489700529    1.0011024912   -1.2236079194
C        0.1114917878   -1.0727415746    0.1956433102
C       -1.1317760900   -1.2232696621    0.7453789303
C       -1.7067615577    0.1341331529    0.7868047880
C       -0.7502099333    0.9685496996    0.4269607308
N        0.4991314410    0.4077504256    0.5834774979
H        1.3319829924    2.0103252972   -1.8285424912
H        1.0234295777   -1.6619625858    0.3270877949
H       -1.8321581219   -2.0808547977    0.5655036958
H       -2.5184353289    0.4285074698    1.4517191161
H       -1.1197798259    1.9598266325    0.2638692956
C        2.0366262092   -0.0945740981   -1.4708585591
H        2.6074887967   -0.7767924506   -0.8234361898
13   
From optimize.out: Frame 26 / 72, Energy=    -286.8588083332
C        1.4483979085    1.0196825974   -1.1921510789
C        0.1022309728   -1.0911076445    0.1729049586
C       -1.1285578972   -1.2289089425    0.7580137222
C       -1.6752291310    0.1408397240    0.7815757941
C       -0.7315078661    0.9321330925    0.4107293083
N        0.5243339992    0.3888290227    0.6228176771
H        1.3463074830    2.0796966089   -1.8544041992
H        1.0232045526   -1.6654291850    0.3000047430
H       -1.8774031207   -2.0725941517    0.5699353775
H       -2.4619288692    0.4756653945    1.4607686589
H       -1.1721993251    1.8856616611    0.2345640889
C        2.0142535002   -0.0888546269   -1.4609732792
H        2.5880977929   -0.7756135505   -0.8037857714
13   
From optimize.out: Frame 24 / 72, Energy=    -286.8545922910
C        1.4626940873    1.0259751971   -1.1764997003
C        0.1062252822   -1.1031414674    0.1808026715
C       -1.1299681337   -1.2410093432    0.7798933019
C       -1.6789230137    0.1306573796    0.7739210556
C       -0.7251026991    0.9076448286    0.3891268712
N        0.5432774796    0.3741095394    0.6481392907
H        1.3312164121    2.1017955044   -1.8355048985
H        1.0543050419   -1.5930345798    0.2520856672
H       -1.8900035353   -2.0750828411    0.5634444450
H       -2.4440069465    0.4986843092    1.4605324435
H       -1.1823940675    1.8824674332    0.2130708955
C        2.0146868093   -0.0945643930   -1.4469457033
H        2.5379932834   -0.8145015670   -0.8020663401
13   
From optimize.out: Frame 23 / 72, Energy=    -286.8539129180
C        1.4819207648    1.0279938075   -1.1742050620
C        0.1200024245   -1.1147448322    0.2085966606
C       -1.1349623544   -1.2581681887    0.8025344270
C       -1.7058361206    0.1117948647    0.7671100607
C       -0.7270850327    0.9013042146    0.3676064415
N        0.5562787031    0.3671275099    0.6630448521
H        1.3021380283    2.0827625150   -1.7912154444
H        1.1021511163   -1.4972065690    0.1979916549
H       -1.8762720124   -2.0822828583    0.5527757192
H       -2.4578761355    0.5021103287    1.4514930571
H       -1.1612283055    1.9327348051    0.1987977846
C        2.0261375526   -0.1044591240   -1.4318302485
H        2.4746313716   -0.8689664732   -0.8126999029
13   
From optimize.out: Frame 21 / 72, Energy=    -286.8524580063
C        1.5124686822    1.0318414842   -1.1791065478
C        0.1309079942   -1.1184023734    0.2361507040
C       -1.1404387919   -1.2726495431    0.8231063020
C       -1.7394389044    0.0913278950    0.7645320541
C       -0.7418176294    0.9034022184    0.3478491722
N        0.5563697439    0.3711945460    0.6678036073
H        1.2901426245    2.0478301126   -1.7375872687
H        1.1456069819   -1.4127471554    0.1420393496
H       -1.8502889626   -2.0881180254    0.5529538249
H       -2.4836226420    0.4972639450    1.4423348511
H       -1.1438284478    1.9843283426    0.1889803710
C        2.0459184333   -0.1124432563   -1.4202135061
H        2.4180209181   -0.9228281904   -0.8288429135
13   
From optimize.out: Frame 18 / 72, Energy=    -286.8487321026
C        1.5749159523    1.0240049299   -1.1995298114
C        0.1218445570   -1.1020406905    0.2346649784
C       -1.1414267885   -1.2714362074    0.8291709095
C       -1.7692373561    0.0811699124    0.7805312157
C       -0.7909125830    0.9199122800    0.3503207835
N        0.5162325776    0.4015715484    0.6384956129
H        1.3656602346    2.0336400384   -1.7363613754
H        1.1447132614   -1.3865429042    0.1274615784
H       -1.8307437114   -2.0991228681    0.5686235053
H       -2.5118941060    0.4690322165    1.4686860911
H       -1.1912124614    2.0023538945    0.2035946967
C        2.0883848903   -0.1263578017   -1.4312357450
H        2.4236755333   -0.9461843482   -0.8344224397
13   
From optimize.out: Frame 17 / 72, Energy=    -286.8464646048
C        1.6420269497    1.0138657476   -1.2222101309
C        0.1092412294   -1.0825789347    0.2275949148
C       -1.1415148877   -1.2674135976    0.8324985448
C       -1.7975159935    0.0731915794    0.7996542067
C       -0.8451837503    0.9384180919    0.3569411757
N        0.4696824586    0.4358948698    0.6036428328
H        1.4560319414    2.0246224363   -1.7458681881
H        1.1355220213   -1.3710691632    0.1211791872
H       -1.8134492785   -2.1110616761    0.5863601835
H       -2.5395007828    0.4371552652    1.5015733476
H       -1.2503188619    2.0137722708    0.2224244608
C        2.1341903608   -0.1414237750   -1.4462479182
H        2.4407885935   -0.9633731144   -0.8375426167
13   
From optimize.out: Frame 15 / 72, Energy=    -286.8396992454
C        1.7091243379    1.0037286214   -1.2448858511
C        0.0966404575   -1.0631211255    0.2205262849
C       -1.1416029690   -1.2633918036    0.8358255053
C       -1.8257888964    0.0652148643    0.8187733199
C       -0.8994439121    0.9569201512    0.3635602254
N        0.4231417793    0.4702112309    0.5687971203
H        1.5463853221    2.0156066629   -1.7553730730
H        1.1263326451   -1.3555985600    0.1148980699
H       -1.7961583527   -2.1229980631    0.6040932651
H       -2.5671018615    0.4052847781    1.5344539349
H       -1.3094132765    2.0251883317    0.2412504065
C        2.1799865427   -0.1564866932   -1.4612570472
H        2.4578981835   -0.9805583950   -0.8406621609
13   
From optimize.out: Frame 13 / 72, Energy=    -286.8302027895
C        1.7017138624    0.9706902505   -1.2694586361
C        0.0867215089   -1.0338115228    0.2213845559
C       -1.1323567480   -1.2536432427    0.8219723756
C       -1.8285078162    0.0653266093    0.8240244206
C       -0.9178719458    0.9938574215    0.3658722039
N        0.3707663486    0.4974912154    0.5024436923
H        1.5124753149    1.9652190632   -1.7260640609
H        1.1164070295   -1.3476350600    0.1232255809
H       -1.7553224158   -2.1332176769    0.6108483722
H       -2.5793294218    0.3667730752    1.5481638619
H       -1.2687784869    2.0554521845    0.2576966517
C        2.2110712797   -0.1587809099   -1.4521576024
H        2.4830114905   -0.9877214074   -0.8279514157
13   
From optimize.out: Frame 12 / 72, Energy=    -286.8239312232
C        1.7507062217    0.9597436737   -1.3130493216
C        0.0713319228   -0.9940229800    0.2226401712
C       -1.1370519720   -1.2453558150    0.8159490620
C       -1.8521184854    0.0538738429    0.8412447823
C       -0.9563264061    1.0114215076    0.3828722347
N        0.3144421754    0.5245703447    0.4503388186
H        1.5634115241    1.9484959887   -1.7427693913
H        1.0967762484   -1.3305559121    0.1295055331
H       -1.7296741031   -2.1454127302    0.6257489158
H       -2.6098342659    0.3203028175    1.5725799652
H       -1.2772923612    2.0677201511    0.2895666637
C        2.2600051987   -0.1676949095   -1.4517887040
H        2.5056243026   -1.0030859794   -0.8228387297
13   
From optimize.out: Frame 10 / 72, Energy=    -286.8092061444
C        1.8117711849    0.9552544348   -1.3681612630
C        0.0557600506   -0.9592566742    0.2266102178
C       -1.1462813321   -1.2410122296    0.8121343263
C       -1.8786501863    0.0406666519    0.8596964268
C       -0.9944838641    1.0222127813    0.4096142946
N        0.2665421562    0.5472510322    0.4330263985
H        1.6389642583    1.9358030617   -1.7994274753
H        1.0784763779   -1.3098559952    0.1368375675
H       -1.7150829405   -2.1549974578    0.6283052063
H       -2.6422743098    0.2773625651    1.5952772711
H       -1.3016653836    2.0749615759    0.3322769576
C        2.3050278960   -0.1774268904   -1.4542059937
H        2.5218960925   -1.0109628559   -0.8119839345
13   
From optimize.out: Frame 9 / 72, Energy=    -286.7999440457
C        1.8698218976    0.9525944257   -1.4276790540
C        0.0416436825   -0.9316013832    0.2328561542
C       -1.1566236108   -1.2398249317    0.8087390268
C       -1.9026301552    0.0285055550    0.8761797539
C       -1.0266362156    1.0300854334    0.4410606980
N        0.2284400761    0.5649524740    0.4429173905
H        1.7158499184    1.9210884056   -1.8793319792
H        1.0635424444   -1.2886219906    0.1454289120
H       -1.7076519814   -2.1615873448    0.6188418971
H       -2.6717218218    0.2404034190    1.6133378343
H       -1.3282704584    2.0807431899    0.3798017562
C        2.3416038445   -0.1860575788   -1.4568963593
H        2.5326323799   -1.0106796735   -0.7952560305
13   