13   
From optimize.out: Frame 1 / 18, Energy=    -286.7157408857
C        1.2953570991    0.1373341083   -0.3008430373
C        0.5560373282   -1.1675232732   -0.8885361272
C       -0.7161438242   -0.7453921964   -1.3761394043
C       -1.3342208210   -0.0132060876   -0.2506619265
C       -0.6355915461    1.0936095575   -1.1672219178
N        0.6496943590    1.0868197062   -1.1917389382
H        2.4000636515    0.1282178279   -0.4084531386
H        1.0713286273   -2.1201373743   -0.7365249662
H       -0.9507070017   -0.8640962042   -2.4671351466
H       -2.2215201604    0.0365400411    0.3937524127
H       -1.2178538550    1.3808114817   -2.0273430161
C        0.1409173808   -0.4167737542    0.4747631111
H       -0.1471516742   -1.0355489886    1.3826691540
13   
From optimize.out: Frame 2 / 18, Energy=    -286.7447649577
C        1.2687218147    0.1451684285   -0.3070505006
C        0.5532015705   -1.1811874885   -0.8765795159
C       -0.7310555650   -0.7726331340   -1.3928569174
C       -1.3020012740   -0.0173254831   -0.2647918798
C       -0.6266413204    1.0938456716   -1.1742466008
N        0.6678492345    1.1281579184   -1.1937722003
H        2.3644903639    0.1439611429   -0.3679210335
H        1.0645111310   -2.1296358610   -0.7192015629
H       -0.9989683370   -0.8899854152   -2.4642337614
H       -2.1863345003    0.0351703260    0.3735786487
H       -1.2126306031    1.4202359299   -2.0237060858
C        0.1353910142   -0.4337314815    0.4714930443
H       -0.1063239657   -1.0413857100    1.3758754246
13   
From optimize.out: Frame 3 / 18, Energy=    -286.7671542306
C        1.2436803374    0.1487942132   -0.3167179910
C        0.5521880399   -1.1891522735   -0.8662933683
C       -0.7432176716   -0.8045033336   -1.4089974133
C       -1.2673470712   -0.0187488137   -0.2803680270
C       -0.6215793836    1.0944732413   -1.1732376536
N        0.6762538839    1.1607578520   -1.1913798942
H        2.3340961221    0.1472179510   -0.3289680972
H        1.0645238319   -2.1338726212   -0.7099218128
H       -1.0389967309   -0.9223026687   -2.4620878821
H       -2.1556694718    0.0398781866    0.3475362697
H       -1.2106032208    1.4592892398   -2.0078060786
C        0.1270105925   -0.4448479885    0.4636549924
H       -0.0701296945   -1.0363281405    1.3711740150
13   
From optimize.out: Frame 4 / 18, Energy=    -286.7844673248
C        1.2228396118    0.1500466546   -0.3281417537
C        0.5524828740   -1.1965859030   -0.8583030307
C       -0.7543930160   -0.8413903543   -1.4215985727
C       -1.2360461127   -0.0171893555   -0.2958206749
C       -0.6175507802    1.0997453298   -1.1696770087
N        0.6795169786    1.1895724703   -1.1852425431
H        2.3090199307    0.1480395656   -0.2928936656
H        1.0693575159   -2.1383608728   -0.7093619525
H       -1.0746423447   -0.9625540002   -2.4603537818
H       -2.1339960224    0.0502849590    0.3157428101
H       -1.2097881645    1.5020487519   -1.9871094484
C        0.1194254712   -0.4543771222    0.4562070856
H       -0.0360163785   -1.0286252792    1.3731395953
13   
From optimize.out: Frame 5 / 18, Energy=    -286.7982281352
C        1.2057949748    0.1498100160   -0.3404146506
C        0.5528796951   -1.2047173469   -0.8521362098
C       -0.7651331180   -0.8828996168   -1.4293110225
C       -1.2093114663   -0.0147839487   -0.3119669672
C       -0.6128614423    1.1105853301   -1.1638885686
N        0.6805361012    1.2147143736   -1.1771917158
H        2.2873695736    0.1479127359   -0.2602603223
H        1.0777632303   -2.1431727684   -0.7163921934
H       -1.1069736948   -1.0097799120   -2.4562430289
H       -2.1208708971    0.0622934843    0.2776082889
H       -1.2084519134    1.5500767000   -1.9615170207
C        0.1131383213   -0.4624863251    0.4497191148
H       -0.0036698012   -1.0168978778    1.3785813550
13   
From optimize.out: Frame 6 / 18, Energy=    -286.8093865500
C        1.1918869505    0.1487470079   -0.3527100343
C        0.5527039541   -1.2137021349   -0.8474478403
C       -0.7754713279   -0.9276239172   -1.4322211743
C       -1.1870699005   -0.0124316190   -0.3293272328
C       -0.6075674040    1.1265340200   -1.1565759952
N        0.6810186667    1.2363653348   -1.1684585008
H        2.2682945404    0.1465925531   -0.2309487471
H        1.0888818469   -2.1477791076   -0.7291755674
H       -1.1362571951   -1.0624158759   -2.4490546789
H       -2.1140866552    0.0733635132    0.2347980406
H       -1.2064125211    1.6032398332   -1.9317259025
C        0.1079744167   -0.4691009095    0.4438485115
H        0.0263141919   -1.0011338539    1.3855861804
13   
From optimize.out: Frame 7 / 18, Energy=    -286.8183866411
C        1.1808870911    0.1467595656   -0.3649076736
C        0.5516700505   -1.2235250238   -0.8439643226
C       -0.7850947897   -0.9733250580   -1.4308408933
C       -1.1693061202   -0.0105361411   -0.3479478258
C       -0.6023979796    1.1459578297   -1.1486112034
N        0.6821367711    1.2544247867   -1.1599143268
H        2.2516151655    0.1432115268   -0.2044647634
H        1.1022637094   -2.1516659069   -0.7465752071
H       -1.1621805233   -1.1181735724   -2.4389945031
H       -2.1122451684    0.0817080351    0.1891421058
H       -1.2041540135    1.6605004157   -1.8981375925
C        0.1036216385   -0.4741050669    0.4381004408
H        0.0533937317   -0.9805765464    1.3937028238
13   
From optimize.out: Frame 8 / 18, Energy=    -286.8254304260
C        1.1725752690    0.1433008209   -0.3773819952
C        0.5497563435   -1.2343755913   -0.8412536829
C       -0.7934681071   -1.0173483683   -1.4258252593
C       -1.1561535465   -0.0093175523   -0.3673659530
C       -0.5979354904    1.1669083740   -1.1409093759
N        0.6844514211    1.2685620898   -1.1524603485
H        2.2371281289    0.1371018033   -0.1806101664
H        1.1177418509   -2.1545731494   -0.7679933637
H       -1.1839436631   -1.1743059963   -2.4266230237
H       -2.1146413348    0.0859729666    0.1424874542
H       -1.2020076484    1.7204072771   -1.8609416921
C        0.0997772377   -0.4776604808    0.4322599681
H        0.0769291024   -0.9540173491    1.4032044973
13   
From optimize.out: Frame 9 / 18, Energy=    -286.8306879914
C        1.1663604546    0.1380752199   -0.3904311280
C        0.5470778904   -1.2465654274   -0.8387149800
C       -0.7999742333   -1.0573597099   -1.4183705194
C       -1.1474258043   -0.0088113125   -0.3868165146
C       -0.5941891925    1.1875517280   -1.1340424677
N        0.6878162551    1.2783900607   -1.1470580721
H        2.2243458989    0.1283944771   -0.1598728656
H        1.1348956188   -2.1565229199   -0.7926189223
H       -1.2005815054   -1.2283009219   -2.4130885721
H       -2.1202619820    0.0854626996    0.0971340888
H       -1.1998276046    1.7811051731   -1.8201158308
C        0.0961144295   -0.4801579430    0.4263388000
H        0.0958593382   -0.9206062795    1.4142440428
13   
From optimize.out: Frame 10 / 18, Energy=    -286.8343676791
C        1.1615216034    0.1312691935   -0.4039062913
C        0.5438017588   -1.2602589026   -0.8356774937
C       -0.8041025725   -1.0917828435   -1.4102630786
C       -1.1425344118   -0.0088189113   -0.4054880197
C       -0.5909139546    1.2063719351   -1.1281150487
N        0.6916173037    1.2837694754   -1.1443630990
H        2.2129356875    0.1177005303   -0.1432493774
H        1.1527719348   -2.1577772094   -0.8190625211
H       -1.2112957889   -1.2784013288   -2.4000868491
H       -2.1278123612    0.0804118549    0.0553629088
H       -1.1974340972    1.8404511510   -1.7755867291
C        0.0924364500   -0.4820425355    0.4204810709
H        0.1092180114   -0.8802375651    1.4265415868
13   
From optimize.out: Frame 11 / 18, Energy=    -286.8367089794
C        1.1575015565    0.1233563633   -0.4172885042
C        0.5400336493   -1.2753586542   -0.8315348976
C       -0.8055669493   -1.1197485792   -1.4032992004
C       -1.1407223636   -0.0089855775   -0.4226259466
C       -0.5879983840    1.2224321233   -1.1229425056
N        0.6951635293    1.2850721462   -1.1444348430
H        2.2030052138    0.1055570796   -0.1318193906
H        1.1701004386   -2.1587347509   -0.8455995178
H       -1.2156435128   -1.3236137828   -2.3892553994
H       -2.1362657642    0.0717685018    0.0186541312
H       -1.1949207216    1.8962501979   -1.7276640458
C        0.0887404706   -0.4837390527    0.4149304110
H        0.1167824008   -0.8336011705    1.4394667677
13   
From optimize.out: Frame 12 / 18, Energy=    -286.8379390902
C        1.1539486609    0.1148452422   -0.4298705523
C        0.5356791650   -1.2916156334   -0.8257952219
C       -0.8042831291   -1.1407199047   -1.3988088025
C       -1.1413775827   -0.0088934741   -0.4375439821
C       -0.5854814314    1.2353596520   -1.1182922165
N        0.6979178887    1.2829121528   -1.1468831192
H        2.1950202128    0.0922801515   -0.1265477533
H        1.1857976682   -2.1596971829   -0.8706444410
H       -1.2134593412   -1.3633938575   -2.3817068644
H       -2.1451075923    0.0606869605   -0.0123245774
H       -1.1925539301    1.9465417502   -1.6772997587
C        0.0850795596   -0.4855990140    0.4100362818
H        0.1190294150   -0.7820519983    1.4522680665
13   
From optimize.out: Frame 13 / 18, Energy=    -286.8382576413
C        1.1516427019    0.1085477497   -0.4375913384
C        0.5316171436   -1.3041341115   -0.8199736756
C       -0.8011014090   -1.1495943798   -1.3983884927
C       -1.1437636260   -0.0080529048   -0.4459794564
C       -0.5840166138    1.2421839838   -1.1153056253
N        0.6989945683    1.2788208937   -1.1501666025
H        2.1915677613    0.0817655852   -0.1288056638
H        1.1957151381   -2.1603697512   -0.8863193212
H       -1.2063663661   -1.3878041440   -2.3795199752
H       -2.1519165121    0.0517817390   -0.0296568315
H       -1.1915642944    1.9776947653   -1.6404897251
C        0.0823749187   -0.4871328624    0.4074014385
H        0.1170261528   -0.7430517188    1.4613823281
13   
From optimize.out: Frame 14 / 18, Energy=    -286.8382911901
C        1.1513222937    0.1078135009   -0.4376421098
C        0.5299722497   -1.3064807070   -0.8181154975
C       -0.7995750138   -1.1479610839   -1.3997397130
C       -1.1450962693   -0.0069777529   -0.4462377345
C       -0.5839359955    1.2425842287   -1.1150531926
N        0.6986317407    1.2770043749   -1.1512136020
H        2.1924266801    0.0795415509   -0.1325670557
H        1.1972787773   -2.1599548607   -0.8875506355
H       -1.2026645609   -1.3911197776   -2.3804653366
H       -2.1532921300    0.0505505096   -0.0299194676
H       -1.1918369046    1.9811483164   -1.6354426584
C        0.0817217320   -0.4874009562    0.4074373324
H        0.1152569637   -0.7380924990    1.4630967298
13   
From optimize.out: Frame 15 / 18, Energy=    -286.8383104645
C        1.1513624575    0.1082941883   -0.4362529395
C        0.5278416931   -1.3075778304   -0.8167657933
C       -0.7982795233   -1.1450799517   -1.4015232461
C       -1.1461855484   -0.0057925051   -0.4457397805
C       -0.5840106916    1.2427816318   -1.1145949234
N        0.6981654936    1.2757044744   -1.1514689494
H        2.1941321145    0.0781280733   -0.1369866081
H        1.1979340226   -2.1587140992   -0.8872675745
H       -1.1998497494   -1.3937659665   -2.3813342187
H       -2.1538512507    0.0497430718   -0.0281378697
H       -1.1915231675    1.9818767404   -1.6346479943
C        0.0813730600   -0.4870663598    0.4076714695
H        0.1131006527   -0.7378766232    1.4636354869
13   
From optimize.out: Frame 16 / 18, Energy=    -286.8383168131
C        1.1515999600    0.1093208210   -0.4349612913
C        0.5268145643   -1.3076352002   -0.8168990088
C       -0.7980692781   -1.1441448784   -1.4019353271
C       -1.1462481369   -0.0050909705   -0.4456466239
C       -0.5840523279    1.2434255112   -1.1142879897
N        0.6980895169    1.2759143884   -1.1507514574
H        2.1950339519    0.0781944930   -0.1381704611
H        1.1984574008   -2.1575532212   -0.8873249333
H       -1.2003217748   -1.3961593299   -2.3805269011
H       -2.1535513401    0.0501036193   -0.0271123591
H       -1.1908133004    1.9817019503   -1.6363292387
C        0.0815352154   -0.4869899742    0.4075283541
H        0.1117351124   -0.7404323647    1.4630042963
13   
From optimize.out: Frame 17 / 18, Energy=    -286.8383211213
C        1.1521430505    0.1106777584   -0.4339259613
C        0.5257715312   -1.3075929106   -0.8174602041
C       -0.7981503472   -1.1439855328   -1.4024391501
C       -1.1459977676   -0.0049738864   -0.4461071387
C       -0.5838468653    1.2443963010   -1.1132644803
N        0.6985612966    1.2768599804   -1.1494211712
H        2.1959656089    0.0782617387   -0.1388219489
H        1.1988941047   -2.1563584069   -0.8872726743
H       -1.2023590189   -1.3995651423   -2.3792396204
H       -2.1531810028    0.0499646243   -0.0271331401
H       -1.1898327159    1.9817086706   -1.6374787270
C        0.0820517925   -0.4860933785    0.4071746626
H        0.1101898967   -0.7426449716    1.4619766128
