13   
From optimize.out: Frame 1 / 18, Energy=    -286.7157408857
C       -0.0058920000    0.0034290000   -0.0000000000
C       -0.1391910000    0.0191240000   -0.0000000000
C       -0.1111100000    0.5955760000   -0.0000000000
C       -0.1817900000   -0.0219680000   -0.0000000000
C        0.0127540000   -0.1280160000   -0.0000000000
N       -0.3197270000    0.5071930000   -0.0000000000
H        0.1782100000   -0.0013710000   -0.0000000000
H        0.1533160000    0.0014210000   -0.0000000000
H        0.1354450000   -0.0289760000   -0.0000000000
H        0.1562940000    0.0190380000    0.0000000000
H        0.1557270000    0.0074880000   -0.0000000000
C       -0.1776130000    0.0272990000    0.0000000000
H        0.1435770000   -0.0002390000    0.0000000000
13   
From optimize.out: Frame 2 / 18, Energy=    -286.7447649577
C       -0.0154190000    0.0108530000   -0.0000000000
C       -0.1464630000    0.0026570000   -0.0000000000
C       -0.1034200000    0.6233840000   -0.0000000000
C       -0.1877960000   -0.0228910000   -0.0000000000
C        0.0105210000   -0.1278500000   -0.0000000000
N       -0.3186540000    0.4829330000   -0.0000000000
H        0.1716070000   -0.0016720000   -0.0000000000
H        0.1535710000    0.0022640000   -0.0000000000
H        0.1402580000   -0.0293640000   -0.0000000000
H        0.1551040000    0.0205220000    0.0000000000
H        0.1536540000    0.0079820000   -0.0000000000
C       -0.1582390000    0.0323290000    0.0000000000
H        0.1452760000   -0.0011490000    0.0000000000
13   
From optimize.out: Frame 3 / 18, Energy=    -286.7671542306
C       -0.0226990000    0.0211660000   -0.0000000000
C       -0.1539670000   -0.0165740000   -0.0000000000
C       -0.0949030000    0.6681530000   -0.0000000000
C       -0.1985600000   -0.0286700000   -0.0000000000
C        0.0149940000   -0.1244040000   -0.0000000000
N       -0.3202870000    0.4423280000   -0.0000000000
H        0.1659410000   -0.0018650000   -0.0000000000
H        0.1534130000    0.0033640000   -0.0000000000
H        0.1437930000   -0.0300790000   -0.0000000000
H        0.1540490000    0.0222890000    0.0000000000
H        0.1512470000    0.0081580000   -0.0000000000
C       -0.1385750000    0.0381700000    0.0000000000
H        0.1455540000   -0.0020360000    0.0000000000
13   
From optimize.out: Frame 4 / 18, Energy=    -286.7844673248
C       -0.0279550000    0.0337030000   -0.0000000000
C       -0.1605810000   -0.0360240000   -0.0000000000
C       -0.0875810000    0.7223500000   -0.0000000000
C       -0.2117730000   -0.0364780000   -0.0000000000
C        0.0246180000   -0.1132220000   -0.0000000000
N       -0.3238780000    0.3841880000   -0.0000000000
H        0.1614140000   -0.0018300000   -0.0000000000
H        0.1532530000    0.0044590000   -0.0000000000
H        0.1456650000   -0.0307510000   -0.0000000000
H        0.1534010000    0.0240960000    0.0000000000
H        0.1491190000    0.0079570000   -0.0000000000
C       -0.1214010000    0.0443250000    0.0000000000
H        0.1456990000   -0.0027740000    0.0000000000
13   
From optimize.out: Frame 5 / 18, Energy=    -286.7982281352
C       -0.0308280000    0.0469560000   -0.0000000000
C       -0.1662370000   -0.0530480000   -0.0000000000
C       -0.0816620000    0.7765820000   -0.0000000000
C       -0.2254290000   -0.0445880000   -0.0000000000
C        0.0374570000   -0.0915990000   -0.0000000000
N       -0.3281610000    0.3130460000   -0.0000000000
H        0.1579800000   -0.0014760000   -0.0000000000
H        0.1530460000    0.0053370000   -0.0000000000
H        0.1460240000   -0.0308170000   -0.0000000000
H        0.1528200000    0.0256160000    0.0000000000
H        0.1471290000    0.0072690000   -0.0000000000
C       -0.1082570000    0.0499540000    0.0000000000
H        0.1461170000   -0.0032310000    0.0000000000
13   
From optimize.out: Frame 6 / 18, Energy=    -286.8093865500
C       -0.0315550000    0.0589840000   -0.0000000000
C       -0.1707540000   -0.0660850000   -0.0000000000
C       -0.0771630000    0.8218680000   -0.0000000000
C       -0.2375860000   -0.0515950000   -0.0000000000
C        0.0510220000   -0.0625290000   -0.0000000000
N       -0.3318260000    0.2402430000   -0.0000000000
H        0.1555410000   -0.0008410000   -0.0000000000
H        0.1526690000    0.0058730000   -0.0000000000
H        0.1451730000   -0.0298790000   -0.0000000000
H        0.1519190000    0.0265320000    0.0000000000
H        0.1453500000    0.0061920000   -0.0000000000
C       -0.0996280000    0.0546010000    0.0000000000
H        0.1468370000   -0.0033630000    0.0000000000
13   
From optimize.out: Frame 7 / 18, Energy=    -286.8183866411
C       -0.0305360000    0.0684320000   -0.0000000000
C       -0.1738550000   -0.0750030000   -0.0000000000
C       -0.0738300000    0.8537320000   -0.0000000000
C       -0.2467900000   -0.0567130000   -0.0000000000
C        0.0629470000   -0.0329780000   -0.0000000000
N       -0.3343890000    0.1773770000   -0.0000000000
H        0.1539130000   -0.0000480000   -0.0000000000
H        0.1520340000    0.0060770000   -0.0000000000
H        0.1435660000   -0.0279170000   -0.0000000000
H        0.1505410000    0.0267650000    0.0000000000
H        0.1440000000    0.0050270000   -0.0000000000
C       -0.0952920000    0.0585010000    0.0000000000
H        0.1476900000   -0.0032520000    0.0000000000
13   
From optimize.out: Frame 8 / 18, Energy=    -286.8254304260
C       -0.0283410000    0.0750850000   -0.0000000000
C       -0.1752830000   -0.0806760000   -0.0000000000
C       -0.0713400000    0.8729050000   -0.0000000000
C       -0.2526010000   -0.0599450000   -0.0000000000
C        0.0720190000   -0.0082380000   -0.0000000000
N       -0.3361980000    0.1296450000   -0.0000000000
H        0.1528810000    0.0007890000   -0.0000000000
H        0.1511610000    0.0060500000   -0.0000000000
H        0.1416540000   -0.0252620000   -0.0000000000
H        0.1488140000    0.0264820000    0.0000000000
H        0.1432380000    0.0040220000   -0.0000000000
C       -0.0944810000    0.0621670000    0.0000000000
H        0.1484770000   -0.0030240000    0.0000000000
13   
From optimize.out: Frame 9 / 18, Energy=    -286.8306879914
C       -0.0256190000    0.0795850000   -0.0000000000
C       -0.1750310000   -0.0842910000   -0.0000000000
C       -0.0695040000    0.8828590000   -0.0000000000
C       -0.2555010000   -0.0618190000   -0.0000000000
C        0.0782900000    0.0103440000   -0.0000000000
N       -0.3376870000    0.0959580000   -0.0000000000
H        0.1522380000    0.0015840000   -0.0000000000
H        0.1501600000    0.0059020000   -0.0000000000
H        0.1397720000   -0.0224180000   -0.0000000000
H        0.1469940000    0.0258990000    0.0000000000
H        0.1429890000    0.0032490000   -0.0000000000
C       -0.0961510000    0.0658970000    0.0000000000
H        0.1490510000   -0.0027480000    0.0000000000
13   
From optimize.out: Frame 10 / 18, Energy=    -286.8343676791
C       -0.0229280000    0.0828510000   -0.0000000000
C       -0.1733810000   -0.0868660000   -0.0000000000
C       -0.0682090000    0.8873460000   -0.0000000000
C       -0.2564440000   -0.0629260000   -0.0000000000
C        0.0824310000    0.0236550000   -0.0000000000
N       -0.3390460000    0.0728700000   -0.0000000000
H        0.1518170000    0.0022660000   -0.0000000000
H        0.1491730000    0.0057080000   -0.0000000000
H        0.1381520000   -0.0199000000   -0.0000000000
H        0.1453130000    0.0251480000    0.0000000000
H        0.1430350000    0.0026720000   -0.0000000000
C       -0.0992350000    0.0696050000    0.0000000000
H        0.1493220000   -0.0024280000    0.0000000000
13   
From optimize.out: Frame 11 / 18, Energy=    -286.8367089794
C       -0.0207250000    0.0857220000   -0.0000000000
C       -0.1706880000   -0.0891200000   -0.0000000000
C       -0.0673450000    0.8892730000   -0.0000000000
C       -0.2564530000   -0.0636890000   -0.0000000000
C        0.0852050000    0.0330920000   -0.0000000000
N       -0.3403210000    0.0570940000   -0.0000000000
H        0.1515180000    0.0027790000   -0.0000000000
H        0.1483120000    0.0055180000   -0.0000000000
H        0.1369260000   -0.0181280000   -0.0000000000
H        0.1439280000    0.0243020000    0.0000000000
H        0.1431890000    0.0022230000   -0.0000000000
C       -0.1027960000    0.0729630000    0.0000000000
H        0.1492480000   -0.0020290000    0.0000000000
13   
From optimize.out: Frame 12 / 18, Energy=    -286.8379390902
C       -0.0193680000    0.0889030000   -0.0000000000
C       -0.1672060000   -0.0915270000   -0.0000000000
C       -0.0668350000    0.8904710000   -0.0000000000
C       -0.2563840000   -0.0643750000   -0.0000000000
C        0.0872620000    0.0399120000   -0.0000000000
N       -0.3415130000    0.0462040000   -0.0000000000
H        0.1512990000    0.0030890000   -0.0000000000
H        0.1476490000    0.0053630000   -0.0000000000
H        0.1361430000   -0.0173930000   -0.0000000000
H        0.1429240000    0.0234120000   -0.0000000000
H        0.1433300000    0.0018420000   -0.0000000000
C       -0.1061360000    0.0756130000    0.0000000000
H        0.1488360000   -0.0015140000    0.0000000000
13   
From optimize.out: Frame 13 / 18, Energy=    -286.8382576413
C       -0.0192290000    0.0920850000   -0.0000000000
C       -0.1641850000   -0.0936790000   -0.0000000000
C       -0.0666890000    0.8915210000   -0.0000000000
C       -0.2567980000   -0.0649690000   -0.0000000000
C        0.0886160000    0.0436360000   -0.0000000000
N       -0.3422950000    0.0408160000   -0.0000000000
H        0.1512060000    0.0031210000   -0.0000000000
H        0.1473380000    0.0053010000   -0.0000000000
H        0.1359290000   -0.0178710000   -0.0000000000
H        0.1425720000    0.0227730000   -0.0000000000
H        0.1433080000    0.0015700000   -0.0000000000
C       -0.1080560000    0.0767400000    0.0000000000
H        0.1482850000   -0.0010440000    0.0000000000
13   
From optimize.out: Frame 14 / 18, Energy=    -286.8382911901
C       -0.0195060000    0.0934970000   -0.0000000000
C       -0.1635430000   -0.0943560000   -0.0000000000
C       -0.0666870000    0.8916020000   -0.0000000000
C       -0.2572910000   -0.0651690000   -0.0000000000
C        0.0889240000    0.0442020000   -0.0000000000
N       -0.3423620000    0.0404860000   -0.0000000000
H        0.1512340000    0.0030200000   -0.0000000000
H        0.1473310000    0.0053110000   -0.0000000000
H        0.1360240000   -0.0184300000   -0.0000000000
H        0.1426980000    0.0226820000   -0.0000000000
H        0.1431930000    0.0014970000   -0.0000000000
C       -0.1081070000    0.0765930000    0.0000000000
H        0.1480920000   -0.0009340000    0.0000000000
13   
From optimize.out: Frame 15 / 18, Energy=    -286.8383104645
C       -0.0197090000    0.0953910000   -0.0000000000
C       -0.1632010000   -0.0951250000   -0.0000000000
C       -0.0666140000    0.8909020000   -0.0000000000
C       -0.2578900000   -0.0653920000   -0.0000000000
C        0.0890020000    0.0450180000   -0.0000000000
N       -0.3423050000    0.0403800000   -0.0000000000
H        0.1513160000    0.0028680000   -0.0000000000
H        0.1473030000    0.0053230000   -0.0000000000
H        0.1361870000   -0.0190340000   -0.0000000000
H        0.1428980000    0.0226750000   -0.0000000000
H        0.1430530000    0.0014230000   -0.0000000000
C       -0.1080000000    0.0764210000    0.0000000000
H        0.1479590000   -0.0008510000    0.0000000000
13   
From optimize.out: Frame 16 / 18, Energy=    -286.8383168131
C       -0.0196170000    0.0965460000   -0.0000000000
C       -0.1632490000   -0.0955380000   -0.0000000000
C       -0.0665420000    0.8898580000   -0.0000000000
C       -0.2581310000   -0.0655090000   -0.0000000000
C        0.0889050000    0.0458450000   -0.0000000000
N       -0.3422630000    0.0400450000   -0.0000000000
H        0.1513760000    0.0028080000   -0.0000000000
H        0.1472930000    0.0053120000   -0.0000000000
H        0.1362220000   -0.0191910000   -0.0000000000
H        0.1429460000    0.0227110000   -0.0000000000
H        0.1430460000    0.0013860000   -0.0000000000
C       -0.1079440000    0.0765430000    0.0000000000
H        0.1479580000   -0.0008150000    0.0000000000
13   
From optimize.out: Frame 17 / 18, Energy=    -286.8383211213
C       -0.0193560000    0.0978410000   -0.0000000000
C       -0.1634190000   -0.0960800000   -0.0000000000
C       -0.0663560000    0.8884110000   -0.0000000000
C       -0.2581940000   -0.0656590000   -0.0000000000
C        0.0886510000    0.0471230000   -0.0000000000
N       -0.3422380000    0.0393840000   -0.0000000000
H        0.1514510000    0.0027570000   -0.0000000000
H        0.1472380000    0.0052970000   -0.0000000000
H        0.1362950000   -0.0192850000   -0.0000000000
H        0.1429750000    0.0227700000   -0.0000000000
H        0.1430260000    0.0013480000   -0.0000000000
C       -0.1080700000    0.0768690000    0.0000000000
H        0.1479970000   -0.0007780000    0.0000000000
