13   
From optimize.out: Frame 1 / 2, Energy=    -286.8461971281
C        0.0072180000    0.0064940000   -0.0000000000
C       -0.1269070000   -0.0037430000   -0.0000000000
C       -0.2495720000    0.0736510000   -0.0000000000
C       -0.0932470000   -0.1627980000    0.0000000000
C        0.0817950000    0.0038900000   -0.0000000000
N       -0.3672290000    0.0035260000   -0.0000000000
H        0.1441890000    0.0002220000   -0.0000000000
H        0.1477900000    0.0000430000    0.0000000000
H        0.1739280000   -0.0033590000   -0.0000000000
H        0.1617960000    0.0363740000    0.0000000000
H        0.1534450000   -0.0005970000   -0.0000000000
C       -0.1943460000    1.0446520000    0.0000000000
H        0.1611390000    0.0016440000    0.0000000000
