13   
From optimize.out: Frame 2 / 3, Energy=    -286.8249551859
C        1.3118553965    0.3025645483    0.2420680501
C        0.6068016140   -1.0007437408   -0.1830377253
C       -0.6883432701   -0.4654887350   -0.8439833543
C       -1.0780816294    0.1914248105    0.4506992150
C       -0.5189778790    1.0592796455   -0.6927874810
N        0.8291126319    1.4230372465   -0.4714120611
H        2.3483758206    0.2894064774    0.5607696643
H        1.1233254710   -1.9344691093   -0.3753888304
H       -1.2958121827   -0.9367535784   -1.6085309573
H       -2.0520569287    0.3366788924    0.9044507954
H       -1.1651298397    1.7418607690   -1.2337022453
C        0.2167204484   -0.3451412793    1.1120381956
H        0.3622103476   -0.6616559464    2.1388167342
13   
From optimize.out: Frame 1 / 3, Energy=    -286.8249527070
C        1.3116773640    0.3021187270    0.2418766373
C        0.6063531284   -1.0013814904   -0.1826491112
C       -0.6883734871   -0.4653182003   -0.8441101648
C       -1.0783348807    0.1911144244    0.4506308062
C       -0.5190601940    1.0594221418   -0.6922625839
N        0.8285955266    1.4230484223   -0.4701668596
H        2.3487411746    0.2882882274    0.5586868318
H        1.1246429835   -1.9340476492   -0.3756521238
H       -1.2953207030   -0.9361550871   -1.6091301400
H       -2.0522388891    0.3363185858    0.9045795286
H       -1.1647864012    1.7417840695   -1.2338818909
C        0.2166845207   -0.3454429348    1.1122562639
H        0.3614198572   -0.6597492365    2.1398228063
13   
From optimize.out: Frame 18 / 19, Energy=    -286.8249527070
C        1.3116773640    0.3021187270    0.2418766373
C        0.6063531284   -1.0013814904   -0.1826491112
C       -0.6883734871   -0.4653182003   -0.8441101648
C       -1.0783348807    0.1911144244    0.4506308062
C       -0.5190601940    1.0594221418   -0.6922625839
N        0.8285955266    1.4230484223   -0.4701668596
H        2.3487411746    0.2882882274    0.5586868318
H        1.1246429835   -1.9340476492   -0.3756521238
H       -1.2953207030   -0.9361550871   -1.6091301400
H       -2.0522388891    0.3363185858    0.9045795286
H       -1.1647864012    1.7417840695   -1.2338818909
C        0.2166845207   -0.3454429348    1.1122562639
H        0.3614198572   -0.6597492365    2.1398228063
13   
From optimize.out: Frame 16 / 19, Energy=    -286.8249299358
C        1.3197934587    0.2952421906    0.2156673855
C        0.6108948282   -0.9941008703   -0.1758992559
C       -0.6820525443   -0.4545928651   -0.8345539263
C       -1.0803708914    0.2000907787    0.4556214522
C       -0.5182834536    1.0639560693   -0.6853749223
N        0.8248194951    1.4233367998   -0.4394963432
H        2.3506949327    0.3022152504    0.5511759553
H        1.1018154252   -1.9366907472   -0.3967143851
H       -1.2739430167   -0.9472151283   -1.5940547139
H       -2.0610896236    0.3389391533    0.8953013108
H       -1.1573426405    1.7327714313   -1.2498997692
C        0.1853976805   -0.3785627498    1.1140392165
H        0.3796663496   -0.6453893126    2.1441879957
13   
From optimize.out: Frame 14 / 19, Energy=    -286.8245969484
C        1.3640124663    0.2977109248    0.1327245354
C        0.6147432707   -0.9836927732   -0.1630760421
C       -0.6764719874   -0.4540228203   -0.8562947196
C       -1.0961710016    0.1813259187    0.4532229811
C       -0.5227558999    1.0517001862   -0.6749531823
N        0.8351115448    1.4190299497   -0.4446385034
H        2.3552277535    0.3120196864    0.5715848803
H        1.0615807322   -1.9581109125   -0.3451194046
H       -1.2529571812   -0.9545518633   -1.6248475454
H       -2.0894693942    0.3325919576    0.8593586930
H       -1.1691066796    1.7668480398   -1.1714302495
C        0.1436415881   -0.4054591975    1.1202509181
H        0.4326147882   -0.6053890965    2.1432176391
13   
From optimize.out: Frame 12 / 19, Energy=    -286.8222658817
C        1.3909908845    0.2944143438    0.0862244713
C        0.6177532542   -0.9795310345   -0.1605294018
C       -0.6715524253   -0.4555493711   -0.8913531219
C       -1.1036639548    0.1545916371    0.4466178990
C       -0.5294928068    1.0355980618   -0.6719969102
N        0.8453249958    1.4129731637   -0.4681940747
H        2.3333464341    0.3136859903    0.6219574809
H        1.0127965955   -1.9851055960   -0.2894598145
H       -1.2467344010   -0.9516248941   -1.6659747893
H       -2.1041779200    0.3143891492    0.8315471524
H       -1.1819744473    1.7985553569   -1.0834503644
C        0.1386032822   -0.3974948507    1.1185626712
H        0.4987805089   -0.5549019565    2.1260488019
13   
From optimize.out: Frame 9 / 19, Energy=    -286.8145446746
C        1.4133235135    0.2904130702    0.0608191012
C        0.6200226574   -0.9739861250   -0.1569895289
C       -0.6693654404   -0.4545322161   -0.9419700683
C       -1.1086090096    0.1267550693    0.4425305854
C       -0.5373448779    1.0163726796   -0.6720328143
N        0.8614942725    1.4068914944   -0.4992198843
H        2.3068652988    0.3009341789    0.6747570190
H        0.9698164477   -2.0015839097   -0.2318240420
H       -1.2586459601   -0.9376181765   -1.7189392257
H       -2.1138124105    0.2812401567    0.8184669618
H       -1.1924814692    1.8164801995   -1.0037764905
C        0.1467345761   -0.3660522990    1.1192589353
H        0.5620024016   -0.5053141224    2.1089194513
13   
From optimize.out: Frame 7 / 19, Energy=    -286.8033831382
C        1.4355547401    0.2858374395    0.0492954953
C        0.6239128472   -0.9687111254   -0.1535250817
C       -0.6760132550   -0.4537578373   -1.0061491051
C       -1.1145980047    0.1023113108    0.4469998237
C       -0.5462127120    0.9936618768   -0.6751366825
N        0.8878716406    1.4035138131   -0.5275558896
H        2.2818363603    0.2775421137    0.7273181862
H        0.9420928210   -2.0085630385   -0.1836642086
H       -1.2865897175   -0.9186037364   -1.7892802868
H       -2.1219572738    0.2452396434    0.8247755572
H       -1.2029221470    1.8199630458   -0.9399205781
C        0.1564169684   -0.3273608032    1.1266508777
H        0.6206077324   -0.4510727021    2.1001918922
13   
From optimize.out: Frame 5 / 19, Energy=    -286.7774195889
C        1.4623142917    0.2818638205    0.0518979831
C        0.6322199962   -0.9667657673   -0.1514341708
C       -0.6953764692   -0.4553723315   -1.0766110909
C       -1.1234265245    0.0848821909    0.4579124925
C       -0.5583549832    0.9729136168   -0.6838279957
N        0.9273147408    1.4064461805   -0.5485841700
H        2.2630952984    0.2508077607    0.7811197108
H        0.9327027500   -2.0119233383   -0.1497046099
H       -1.3318758959   -0.9034960841   -1.8734959130
H       -2.1304598096    0.2161683022    0.8465877994
H       -1.2191655508    1.8147258103   -0.8972506318
C        0.1667723947   -0.2908401387    1.1408306585
H        0.6742397615   -0.3994100219    2.1025599377
13   
From optimize.out: Frame 3 / 19, Energy=    -286.7271383926
C        1.4947058011    0.2799101350    0.0642202688
C        0.6434196648   -0.9683906073   -0.1498086035
C       -0.7224233857   -0.4598705730   -1.1441749649
C       -1.1356915823    0.0730632604    0.4694138832
C       -0.5719647285    0.9589521197   -0.6964147242
N        0.9720355105    1.4158966442   -0.5619949062
H        2.2525406948    0.2264779950    0.8341653916
H        0.9334789880   -2.0161255450   -0.1256157900
H       -1.3916362765   -0.8989626483   -1.9651795755
H       -2.1419435582    0.1950058987    0.8714859544
H       -1.2393182548    1.8099939077   -0.8705368517
C        0.1796057452   -0.2602924448    1.1599563345
H        0.7271913817   -0.3556581425    2.1144835835
13   
From optimize.out: Frame 1 / 19, Energy=    -286.6473065449
C        1.5313278470    0.2793220906    0.0813591955
C        0.6534678012   -0.9722140940   -0.1494856037
C       -0.7517684504   -0.4670431113   -1.2049625457
C       -1.1512249903    0.0615776969    0.4772411862
C       -0.5825903455    0.9519396717   -0.7098640988
N        1.0151785555    1.4268381070   -0.5693227755
H        2.2467633548    0.2069109790    0.8865503659
H        0.9352421764   -2.0220559030   -0.1077908203
H       -1.4609999651   -0.9039601476   -2.0581620636
H       -2.1584996149    0.1753492195    0.8911605819
H       -1.2572767126    1.8105813520   -0.8498476092
C        0.1961594509   -0.2334940469    1.1805739185
H        0.7842208933   -0.3137518139    2.1325502687
13   
C6H6N->C6H6N atoms 1-13 frame 194 charge +0.000 sz -1.000 sz^2 0.785
C        1.5365949326    0.2866092850    0.0731783464
C        0.6471199396   -0.9741794200   -0.1582539634
C       -0.7580869635   -0.4445637441   -1.2529088872
C       -1.1531979396    0.0658209092    0.4770911469
C       -0.5758441412    0.9762612262   -0.7282693884
N        1.0424439822    1.4445344146   -0.5593442362
H        2.2012809062    0.1805113831    0.9077312800
H        0.9622186734   -2.0094194126   -0.1066880170
H       -1.4868005247   -0.9619884948   -2.0693063077
H       -2.1507780521    0.1813641203    0.9242588586
H       -1.2615924208    1.8153137474   -0.8557815824
C        0.1882950982   -0.2466943949    1.1922959937
H        0.8083465097   -0.3135696194    2.1559967566
13   
C6H6N->C6H6N atoms 1-13 frame 197 charge -0.000 sz -1.000 sz^2 0.747
C        1.5172729262    0.2989845407    0.0472585512
C        0.6300015024   -0.9747742853   -0.1713184300
C       -0.7514189493   -0.4028845762   -1.2905130349
C       -1.1454463894    0.0812495077    0.4752272983
C       -0.5618000699    1.0184053907   -0.7481641587
N        1.0576316338    1.4660862523   -0.5387631630
H        2.1424051293    0.1529872976    0.9010144240
H        1.0079507608   -1.9859089132   -0.1172301346
H       -1.4707635810   -1.0464525951   -2.0128912780
H       -2.1225327433    0.2054318175    0.9697425626
H       -1.2580479794    1.8211261472   -0.8855752318
C        0.1624769018   -0.2882433576    1.1976532780
H        0.7922708581   -0.3460072263    2.1735593170
13   
C6H6N->C6H6N atoms 1-13 frame 199 charge -0.000 sz -1.000 sz^2 0.725
C        1.4941035886    0.3103462978    0.0205046170
C        0.6115512730   -0.9758432117   -0.1822914560
C       -0.7468995141   -0.3647333426   -1.3203435427
C       -1.1372213017    0.0955996582    0.4760626828
C       -0.5505660121    1.0569804887   -0.7646275374
N        1.0684112329    1.4841040625   -0.5177008353
H        2.1033154465    0.1334070220    0.8861106743
H        1.0541496124   -1.9662383587   -0.1307845269
H       -1.4394892909   -1.1195776472   -1.9369509947
H       -2.0906149687    0.2288581072    1.0141114011
H       -1.2563930969    1.8309474521   -0.9230438583
C        0.1359350788   -0.3330256478    1.2016750682
H        0.7537179521   -0.3808248805    2.1772783078
13   
C6H6N->C6H6N atoms 1-13 frame 201 charge +0.000 sz -1.000 sz^2 0.713
C        1.4688617906    0.3195593154   -0.0057580132
C        0.5931006922   -0.9778502075   -0.1899428074
C       -0.7440224327   -0.3333149043   -1.3411397027
C       -1.1284986466    0.1078623736    0.4800326687
C       -0.5420176730    1.0891742993   -0.7773582792
N        1.0747385641    1.4974681483   -0.4971324680
H        2.0848640428    0.1226407988    0.8643505074
H        1.0984716047   -1.9506018413   -0.1467081883
H       -1.3962821995   -1.1776922327   -1.8476138169
H       -2.0570753491    0.2508667574    1.0541247616
H       -1.2586637072    1.8469025977   -0.9664078081
C        0.1095162733   -0.3798420691    1.2048548491
H        0.6970070405   -0.4151730356    2.1686982971
13   
C6H6N->C6H6N atoms 1-13 frame 203 charge -0.000 sz -1.000 sz^2 0.715
C        1.4430056133    0.3260570561   -0.0304860681
C        0.5756445047   -0.9810214079   -0.1939093585
C       -0.7419082570   -0.3097647861   -1.3532642374
C       -1.1192770863    0.1176622321    0.4869099912
C       -0.5357625164    1.1142669799   -0.7867537487
N        1.0770445661    1.5062236503   -0.4773334767
H        2.0838576705    0.1204170186    0.8358021677
H        1.1390092067   -1.9369586299   -0.1647043495
H       -1.3451644420   -1.2202056943   -1.7514284088
H       -2.0242202910    0.2715756778    1.0878956565
H       -1.2638993711    1.8677819393   -1.0136001773
C        0.0831846050   -0.4281088892    1.2072794340
H        0.6284857975   -0.4479251467    2.1535925757
13   
C6H6N->C6H6N atoms 1-13 frame 205 charge -0.000 sz -1.000 sz^2 0.724
C        1.4172092061    0.3298091725   -0.0533056931
C        0.5596530420   -0.9852634144   -0.1944960882
C       -0.7396485001   -0.2936286674   -1.3578494233
C       -1.1095418561    0.1251442398    0.4961667644
C       -0.5315012890    1.1330657213   -0.7935710613
N        1.0756699469    1.5111954942   -0.4580017993
H        2.0961345204    0.1262079878    0.7994710318
H        1.1747303735   -1.9225866785   -0.1851477612
H       -1.2893917090   -1.2485682826   -1.6530322032
H       -1.9939657095    0.2918248371    1.1147391834
H       -1.2691604633    1.8905806411   -1.0631225413
C        0.0560300468   -0.4781758580    1.2084396770
H        0.5537823911   -0.4796051928    2.1397099144
13   
C6H6N->C6H6N atoms 1-13 frame 207 charge -0.000 sz -1.000 sz^2 0.739
C        1.3918258672    0.3309381381   -0.0740937786
C        0.5455162717   -0.9902355331   -0.1921879207
C       -0.7362639570   -0.2840674566   -1.3557933860
C       -1.0992534602    0.1305967963    0.5072305024
C       -0.5291418238    1.1466874759   -0.7985264222
N        1.0705379354    1.5134049282   -0.4386395255
H        2.1184511133    0.1399574672    0.7535044575
H        1.2048482880   -1.9048515586   -0.2090075185
H       -1.2317762952   -1.2646719352   -1.5559608282
H       -1.9682215351    0.3128255240    1.1340107311
H       -1.2706726902    1.9118687921   -1.1138030170
C        0.0267197371   -0.5309106474    1.2071836827
H        0.4774305489   -0.5115419910    2.1360830231
13   
C6H6N->C6H6N atoms 1-13 frame 210 charge -0.000 sz -1.000 sz^2 0.749
C        1.3676678762    0.3297750523   -0.0925221726
C        0.5340044359   -0.9952304396   -0.1874923884
C       -0.7306225267   -0.2800276149   -1.3477302831
C       -1.0883831073    0.1344285834    0.5195235989
C       -0.5285532270    1.1562334555   -0.8021124323
N        1.0614994781    1.5140684967   -0.4189128885
H        2.1479539127    0.1615260307    0.6966563722
H        1.2286733281   -1.8818133137   -0.2369876591
H       -1.1762527623   -1.2715171683   -1.4643599579
H       -1.9489522185    0.3358386469    1.1450882738
H       -1.2646847139    1.9282448205   -1.1636586250
C       -0.0054933487   -0.5865392763    1.2023160859
H        0.4031428734   -0.5449872732    2.1501920762
13   
C6H6N->C6H6N atoms 1-13 frame 212 charge +0.000 sz -1.000 sz^2 0.734
C        1.3462488290    0.3269770017   -0.1078459325
C        0.5263341335   -0.9992023770   -0.1805540090
C       -0.7216121351   -0.2803813878   -1.3338747905
C       -1.0768874386    0.1372599088    0.5328004011
C       -0.5293686667    1.1625987889   -0.8043785593
N        1.0486720756    1.5144829341   -0.3988038471
H        2.1821133169    0.1902537785    0.6295692820
H        1.2460301403   -1.8529565214   -0.2685651555
H       -1.1278831000   -1.2735281974   -1.3823973984
H       -1.9373882548    0.3619054869    1.1479407919
H       -1.2487089217    1.9370946317   -1.2097183785
C       -0.0399578921   -0.6438996324    1.1937969645
H        0.3324079138   -0.5806044146    2.1820306312
13   
C6H6N->C6H6N atoms 1-13 frame 214 charge +0.000 sz -1.000 sz^2 0.715
C        1.3291980426    0.3235152222   -0.1191835504
C        0.5237387668   -1.0009581826   -0.1709363241
C       -0.7082536701   -0.2841012612   -1.3139907455
C       -1.0647119397    0.1399935046    0.5473587723
C       -0.5309977253    1.1664772026   -0.8050728512
N        1.0323257871    1.5158459200   -0.3783679551
H        2.2191043424    0.2251044015    0.5542833704
H        1.2578071479   -1.8192491295   -0.3021029815
H       -1.0913588913   -1.2756419560   -1.3123243636
H       -1.9333325124    0.3919526327    1.1432402650
H       -1.2221396530    1.9372331740   -1.2493458706
C       -0.0753037411   -0.7011695658    1.1830659876
H        0.2639240461   -0.6190019627    2.2233762467
13   
C6H6N->C6H6N atoms 1-13 frame 216 charge +0.000 sz -1.000 sz^2 0.685
C        1.3177297161    0.3205234887   -0.1258296834
C        0.5270380578   -0.9993818930   -0.1578286288
C       -0.6898412734   -0.2905369715   -1.2876137791
C       -1.0519820996    0.1436601068    0.5637613119
C       -0.5327927201    1.1682557876   -0.8039549220
N        1.0126145787    1.5190123274   -0.3577005530
H        2.2578721661    0.2647157258    0.4734020287
H        1.2659728522   -1.7830888892   -0.3355120445
H       -1.0698823699   -1.2813519016   -1.2543132071
H       -1.9352251614    0.4265537157    1.1318224635
H       -1.1864720820    1.9291905540   -1.2814292097
C       -0.1103861718   -0.7566353954    1.1723432512
H        0.1953545073   -0.6609166553    2.2628529725
13   
C6H6N->C6H6N atoms 1-13 frame 218 charge +0.000 sz -1.000 sz^2 0.657
C        1.3126340278    0.3191325540   -0.1273079228
C        0.5365733120   -0.9935906887   -0.1403751583
C       -0.6660256168   -0.2997113490   -1.2542804110
C       -1.0391526643    0.1491385615    0.5824519760
C       -0.5341768782    1.1677771234   -0.8009679219
N        0.9894813817    1.5242961365   -0.3371835695
H        2.2977825662    0.3072775794    0.3896990849
H        1.2730451458   -1.7481092246   -0.3666575356
H       -1.0650953229   -1.2911005565   -1.2079456934
H       -1.9407465685    0.4654690031    1.1142417694
H       -1.1452348928    1.9150398317   -1.3066345932
C       -0.1445150646   -0.8087731767    1.1638636189
H        0.1254305745   -0.7068457942    2.2910963567
13   
C6H6N->C6H6N atoms 1-13 frame 220 charge -0.000 sz -1.000 sz^2 0.636
C        1.3143342580    0.3203631969   -0.1234366212
C        0.5522194248   -0.9830937535   -0.1179474148
C       -0.6368881932   -0.3122538505   -1.2136911552
C       -1.0269375043    0.1569775336    0.6035482080
C       -0.5346484389    1.1643401841   -0.7962492711
N        0.9628076022    1.5313967841   -0.3176084713
H        2.3382606105    0.3505092727    0.3058927371
H        1.2813881087   -1.7184466604   -0.3934609489
H       -1.0769246838   -1.3021470960   -1.1729813446
H       -1.9473172575    0.5074037313    1.0909619763
H       -1.1036095243    1.8980753890   -1.3273241204
C       -0.1772832443   -0.8562543975    1.1595338558
H        0.0545988421   -0.7568703339    2.3027625702
13   
C6H6N->C6H6N atoms 1-13 frame 223 charge +0.000 sz -1.000 sz^2 0.621
C        1.3228907567    0.3250656958   -0.1144876132
C        0.5734272375   -0.9679050614   -0.0905006081
C       -0.6029767291   -0.3289458194   -1.1659501800
C       -1.0161103413    0.1673330515    0.6267053091
C       -0.5337899278    1.1570234052   -0.7901158066
N        0.9326465864    1.5394952307   -0.3001216131
H        2.3784825787    0.3919144614    0.2243240563
H        1.2921762507   -1.6972978091   -0.4139021515
H       -1.1033295598   -1.3097431102   -1.1493834821
H       -1.9526594560    0.5501662487    1.0627655227
H       -1.0672076717    1.8818058576   -1.3468541446
C       -0.2083933251   -0.8980413153    1.1605894377
H       -0.0151563990   -0.8108708356    2.2969312733
13   
C6H6N->C6H6N atoms 1-13 frame 225 charge -0.000 sz -1.000 sz^2 0.627
C        1.3379592914    0.3339176561   -0.1014281127
C        0.5992606724   -0.9485070819   -0.0589494759
C       -0.5653219673   -0.3500787600   -1.1118257277
C       -1.0073198683    0.1800588574    0.6510053061
C       -0.5313710956    1.1452586888   -0.7831367710
N        0.8993396835    1.5475408586   -0.2860898977
H        2.4172541334    0.4292464608    0.1465270200
H        1.3046558942   -1.6855402524   -0.4261655698
H       -1.1403806479   -1.3088464254   -1.1371173798
H       -1.9554049292    0.5912665230    1.0308956936
H       -1.0401206656    1.8680709495   -1.3679805378
C       -0.2376531895   -0.9335118754    1.1670915046
H       -0.0808973115   -0.8688755992    2.2771739480
13   
C6H6N->C6H6N atoms 1-13 frame 227 charge +0.000 sz -1.000 sz^2 0.644
C        1.3588932862    0.3474864086   -0.0860124956
C        0.6285847573   -0.9255945535   -0.0251695706
C       -0.5252365628   -0.3751743269   -1.0526609751
C       -1.0009727581    0.1949440153    0.6750573456
C       -0.5274224422    1.1291755769   -0.7762246864
N        0.8633395175    1.5545860662   -0.2769639135
H        2.4533232005    0.4610469842    0.0726744374
H        1.3164898988   -1.6815265183   -0.4290382406
H       -1.1829821840   -1.2953086854   -1.1359832715
H       -1.9554853868    0.6288486432    0.9967329203
H       -1.0235746203    1.8555924875   -1.3914008749
C       -0.2651774662   -0.9625921628    1.1776038920
H       -0.1397792400   -0.9314839351    2.2513854330
13   
C6H6N->C6H6N atoms 1-13 frame 229 charge -0.000 sz -1.000 sz^2 0.671
C        1.3849611338    0.3662662020   -0.0706577215
C        0.6602592359   -0.8998766940    0.0083024173
C       -0.4842033832   -0.4031308821   -0.9901857233
C       -0.9972608105    0.2118810857    0.6971926903
C       -0.5221481845    1.1094550562   -0.7706009363
N        0.8250976489    1.5598959973   -0.2742893540
H        2.4857369376    0.4866819819    0.0017103906
H        1.3248189888   -1.6822275008   -0.4221276727
H       -1.2255420685   -1.2660943184   -1.1455700330
H       -1.9540548193    0.6621235685    0.9614906041
H       -1.0165566743    1.8405381333   -1.4156221570
C       -0.2913925761   -0.9855383330    1.1894096756
H       -0.1897154285   -0.9999742965    2.2309478197
13   
C6H6N->C6H6N atoms 1-13 frame 231 charge +0.000 sz -1.000 sz^2 0.695
C        1.4151293613    0.3903358167   -0.0582538620
C        0.6928795237   -0.8724024855    0.0384372587
C       -0.4443464835   -0.4321660890   -0.9270091242
C       -0.9962184232    0.2306890963    0.7155758963
C       -0.5158329441    1.0872091883   -0.7675793157
N        0.7856394694    1.5628408979   -0.2795653804
H        2.5138160935    0.5059042439   -0.0671416471
H        1.3271548039   -1.6844609199   -0.4057990951
H       -1.2619011078   -1.2198182018   -1.1648013299
H       -1.9531628472    0.6909536693    0.9267276858
H       -1.0172810418    1.8184784806   -1.4375793880
C       -0.3165711339   -1.0023750853    1.1992620863
H       -0.2293052703   -1.0751886114    2.2277262153
13   
C6H6N->C6H6N atoms 1-13 frame 233 charge -0.000 sz -1.000 sz^2 0.704
C        1.4476764242    0.4187275287   -0.0513035702
C        0.7246123152   -0.8448924999    0.0625964616
C       -0.4085703172   -0.4598710042   -0.8665436623
C       -0.9976515672    0.2508914328    0.7288673337
C       -0.5088030960    1.0638880332   -0.7678948526
N        0.7470624983    1.5629396597   -0.2932802121
H        2.5374500250    0.5188747256   -0.1330465445
H        1.3222963185   -1.6857494753   -0.3810576424
H       -1.2858675298   -1.1583126689   -1.1906777293
H       -1.9551915653    0.7155969830    0.8948516046
H       -1.0238390988    1.7865159462   -1.4535863306
C       -0.3406131840   -1.0128971781    1.2050374955
H       -0.2585612230   -1.1557114829    2.2460376486
13   
C6H6N->C6H6N atoms 1-13 frame 235 charge +0.000 sz -1.000 sz^2 0.692
C        1.4809957381    0.4497958595   -0.0505070348
C        0.7542387230   -0.8188888542    0.0802671489
C       -0.3790092991   -0.4843757028   -0.8106625351
C       -1.0011660911    0.2720880732    0.7373228223
C       -0.5012419764    1.0405014400   -0.7710082619
N        0.7113513353    1.5600877377   -0.3141322554
H        2.5580062829    0.5266505387   -0.1949236524
H        1.3109974963   -1.6851916089   -0.3490766692
H       -1.2937371694   -1.0861278518   -1.2187651890
H       -1.9618002531    0.7370864310    0.8679802040
H       -1.0345666779    1.7443042169   -1.4610734874
C       -0.3638398080   -1.0175774343    1.2071294150
H       -0.2802283005   -1.2383528450    2.2774494949
13   
C6H6N->C6H6N atoms 1-13 frame 238 charge -0.000 sz -1.000 sz^2 0.632
C        1.5144405684    0.4822547882   -0.0553688886
C        0.7815669489   -0.7951643684    0.0923691654
C       -0.3567066257   -0.5046867927   -0.7592401874
C       -1.0065446559    0.2943452792    0.7421148652
C       -0.4930702377    1.0172325990   -0.7756594293
N        0.6797238116    1.5543627740   -0.3403078430
H        2.5778450739    0.5305647955   -0.2525669792
H        1.2949822375   -1.6834777273   -0.3104218147
H       -1.2840766082   -1.0074018150   -1.2456316935
H       -1.9736149687    0.7566822573    0.8473640162
H       -1.0489590368    1.6927513818   -1.4587818242
C       -0.3873021517   -1.0173087405    1.2070809603
H       -0.2982843558   -1.3201544313    2.3090496529
13   
C6H6N->C6H6N atoms 1-13 frame 240 charge -0.000 sz -1.000 sz^2 0.577
C        1.5478835942    0.5150349410   -0.0652055069
C        0.8067437848   -0.7741666441    0.0998502052
C       -0.3426199573   -0.5198218653   -0.7117917089
C       -1.0138033353    0.3180166152    0.7444588905
C       -0.4840803147    0.9940330167   -0.7803330834
N        0.6535456197    1.5459899013   -0.3700619758
H        2.5994761529    0.5318518129   -0.3059018088
H        1.2765239577   -1.6826508034   -0.2655365058
H       -1.2562950367   -0.9261450881   -1.2691561479
H       -1.9903284129    0.7753596502    0.8340953454
H       -1.0679157951    1.6337681744   -1.4462215935
C       -0.4123982008   -1.0128331898    1.2061148025
H       -0.3167320564   -1.3984365210    2.3296890875
13   
C6H6N->C6H6N atoms 1-13 frame 242 charge +0.000 sz -1.000 sz^2 0.527
C        1.5813798702    0.5468813169   -0.0792590246
C        0.8299195999   -0.7563098791    0.1033132540
C       -0.3378539894   -0.5283575051   -0.6681701554
C       -1.0229762896    0.3435711728    0.7455674066
C       -0.4740173146    0.9710770217   -0.7831603835
N        0.6350837944    1.5355546957   -0.4014453113
H        2.6250462364    0.5318228127   -0.3542068840
H        1.2586605038   -1.6861160419   -0.2152661566
H       -1.2110637618   -0.8478858368   -1.2885985054
H       -2.0104840871    0.7937671962    0.8295267385
H       -1.0936984560    1.5709416525   -1.4237745135
C       -0.4405309270   -1.0046018500    1.2048470281
H       -0.3394651792   -1.4703447556    2.3306265070
13   
C6H6N->C6H6N atoms 1-13 frame 244 charge -0.000 sz -1.000 sz^2 0.587
C        1.6150572516    0.5761019275   -0.0964791704
C        0.8512701176   -0.7420974858    0.1030569836
C       -0.3430808257   -0.5285840468   -0.6285039360
C       -1.0337799349    0.3713696591    0.7468913628
C       -0.4626693158    0.9489892078   -0.7817942104
N        0.6277350415    1.5241527472   -0.4320029161
H        2.6557752276    0.5321784597   -0.3955307608
H        1.2449343652   -1.6978336547   -0.1610068789
H       -1.1521770151   -0.7809109655   -1.3055335125
H       -2.0313122497    0.8122091567    0.8351561768
H       -1.1291125596    1.5097034156   -1.3926477147
C       -0.4726598062   -0.9929189431    1.2034216259
H       -0.3699802965   -1.5323594777    2.3049729506
13   
C6H6N->C6H6N atoms 1-13 frame 246 charge +0.000 sz -1.000 sz^2 0.642
C        1.6486393049    0.6004291615   -0.1153386639
C        0.8709380772   -0.7322535486    0.0992380490
C       -0.3575280611   -0.5194012596   -0.5930631374
C       -1.0452941351    0.4011798615    0.7502110433
C       -0.4502795200    0.9290399597   -0.7738171221
N        0.6352455432    1.5132515484   -0.4588142357
H        2.6911498883    0.5351646140   -0.4264972340
H        1.2381175328   -1.7195864467   -0.1050585693
H       -1.0886865899   -0.7362961334   -1.3246579719
H       -2.0491422382    0.8303160818    0.8517011027
H       -1.1745235282    1.4562679982   -1.3541139197
C       -0.5085067056   -0.9783290523    1.2016565579
H       -0.4101295682   -1.5797827845    2.2485541012
13   
From optimize.out: Frame 1 / 24, Energy=    -286.6359586858
C        1.6805840647    0.6173746952   -0.1340395167
C        0.8887013013   -0.7275930675    0.0922396409
C       -0.3783991484   -0.5020028249   -0.5622211082
C       -1.0560353463    0.4317705772    0.7573350080
C       -0.4381910615    0.9131714334   -0.7579759747
N        0.6593155871    1.5040764013   -0.4794346771
H        2.7282712998    0.5431219951   -0.4437097489
H        1.2384881700   -1.7477133245   -0.0512853100
H       -1.0334522586   -0.7244406682   -1.3514193530
H       -2.0610973986    0.8467404588    0.8774363297
H       -1.2239409624    1.4154614256   -1.3090234389
C       -0.5458617192   -0.9618356051    1.1990308777
H       -0.4583825279   -1.6081314964    2.1630672711
13   
From optimize.out: Frame 4 / 24, Energy=    -286.7306690275
C        1.7089312865    0.6262638083   -0.1518891823
C        0.9041842050   -0.7279526327    0.0826631702
C       -0.4020631687   -0.4805203329   -0.5361221913
C       -1.0650112809    0.4616411258    0.7688056188
C       -0.4283064848    0.9029310027   -0.7357494480
N        0.6966631453    1.4967939997   -0.4943961513
H        2.7633115673    0.5570421569   -0.4480177154
H        1.2433372407   -1.7742828307   -0.0036893661
H       -0.9933503539   -0.7459983243   -1.3849842773
H       -2.0678587601    0.8604122515    0.9078957942
H       -1.2672089178    1.3875121340   -1.2588660519
C       -0.5818823173   -0.9439120726    1.1944665818
H       -0.5107461614   -1.6199302856    2.0598832185
13   
From optimize.out: Frame 6 / 24, Energy=    -286.7729725424
C        1.6846288438    0.5996438670   -0.1630803187
C        0.9006345329   -0.7357133883    0.0650442786
C       -0.4169595349   -0.4887725924   -0.5393814122
C       -1.0714084195    0.4626936615    0.7753578822
C       -0.4228869361    0.9207758663   -0.7148855014
N        0.7526997068    1.5079243635   -0.4988612473
H        2.7453115560    0.5570303763   -0.4157070940
H        1.2535920310   -1.7755526206    0.0100439524
H       -0.9970443172   -0.8091329475   -1.3989090366