13   
From optimize.out: Frame 1 / 2, Energy=    -286.8549095738
C        1.6801790246    0.3941026087   -0.1783820193
C        1.1262118113   -0.8348490310   -0.2685289378
C       -0.3162841307   -1.0621848678   -0.0823204238
C       -1.1557279371    0.3278757744    0.0469936080
C       -0.3269541053    1.5324844040   -0.1484785026
N        0.9598677316    1.5898455975   -0.1662576803
H        2.7570140642    0.5227856985   -0.2501939659
H        1.7478113132   -1.6980287218   -0.4937562742
H       -0.7575702086   -1.9017382680   -0.6224630194
H       -2.1622104709    0.3916870516   -0.3711500977
H       -0.8676481845    2.4600622154   -0.3521833492
C       -0.9589916683   -0.6131773555    1.1517287765
H       -1.7256972399   -1.1088651055    1.7349918851
13   
From optimize.out: Frame 23 / 24, Energy=    -286.8549095738
C        1.6801790246    0.3941026087   -0.1783820193
C        1.1262118113   -0.8348490310   -0.2685289378
C       -0.3162841307   -1.0621848678   -0.0823204238
C       -1.1557279371    0.3278757744    0.0469936080
C       -0.3269541053    1.5324844040   -0.1484785026
N        0.9598677316    1.5898455975   -0.1662576803
H        2.7570140642    0.5227856985   -0.2501939659
H        1.7478113132   -1.6980287218   -0.4937562742
H       -0.7575702086   -1.9017382680   -0.6224630194
H       -2.1622104709    0.3916870516   -0.3711500977
H       -0.8676481845    2.4600622154   -0.3521833492
C       -0.9589916683   -0.6131773555    1.1517287765
H       -1.7256972399   -1.1088651055    1.7349918851
13   
From optimize.out: Frame 22 / 24, Energy=    -286.8549035522
C        1.6847379717    0.3941204433   -0.2036819271
C        1.1343635743   -0.8389537393   -0.2599121306
C       -0.3091806955   -1.0607232145   -0.0613818009
C       -1.1530148533    0.3109027700    0.0129762581
C       -0.3245697030    1.5301034341   -0.1364950531
N        0.9619203322    1.5921973072   -0.1552337044
H        2.7583194756    0.5270882594   -0.3089418909
H        1.7517909655   -1.7037527575   -0.4899615203
H       -0.7379139941   -1.9177262500   -0.5841854466
H       -2.1493742531    0.3716570669   -0.4283932781
H       -0.8741837294    2.4667393971   -0.2601979667
C       -0.9770230106   -0.5946213731    1.1552320047
H       -1.7658720804   -1.0770313435    1.7201764560
13   
From optimize.out: Frame 21 / 24, Energy=    -286.8548897380
C        1.6955585291    0.3967613324   -0.2118838028
C        1.1408511342   -0.8358208475   -0.2388313124
C       -0.2954349117   -1.0535110473   -0.0202053877
C       -1.1575738839    0.3019471884   -0.0017845701
C       -0.3201585217    1.5268384251   -0.1342989562
N        0.9683468598    1.5936747040   -0.1560222759
H        2.7622191895    0.5286348349   -0.3730783920
H        1.7383757214   -1.7060030024   -0.4984540279
H       -0.7128243141   -1.9236331264   -0.5329313182
H       -2.1408796676    0.3690014395   -0.4713466187
H       -0.8768235114    2.4662471319   -0.1947204320
C       -0.9979051017   -0.5790354514    1.1565165206
H       -1.8037515220   -1.0851015812    1.6770405733
13   
From optimize.out: Frame 20 / 24, Energy=    -286.8548787835
C        1.6937586925    0.3977874154   -0.2489259092
C        1.1399874278   -0.8292013979   -0.2339201185
C       -0.3000909550   -1.0228931030   -0.0377734326
C       -1.1634937142    0.3082469768    0.0141047321
C       -0.3258956685    1.5145159555   -0.1403191525
N        0.9628185154    1.5858664882   -0.1678472808
H        2.7656314708    0.5190177632   -0.3802533956
H        1.7345884438   -1.7157388566   -0.4379786195
H       -0.7093064519   -1.9028129595   -0.5403844819
H       -2.1469245694    0.3543893263   -0.4587149983
H       -0.8665576939    2.4638080780   -0.1760480407
C       -0.9908122934   -0.5582583619    1.1726009267
H       -1.7937032039   -1.1147273245    1.6354597708
13   
From optimize.out: Frame 20 / 24, Energy=    -286.8548787835
C        1.6880823451    0.4016340429   -0.2654674053
C        1.1393105255   -0.8303191908   -0.2656101787
C       -0.2795317934   -1.0547568562    0.0146824620
C       -1.1736087882    0.3176627539   -0.0023337554
C       -0.3324939387    1.5052699159   -0.1326750687
N        0.9576333632    1.5771793479   -0.1523649330
H        2.7605115671    0.5278984707   -0.3902236565
H        1.7621352931   -1.7051043138   -0.4360534958
H       -0.7349084003   -1.9133669337   -0.4819893913
H       -2.1595510521    0.3748300087   -0.4670361923
H       -0.8385771789    2.4752101037   -0.1625647655
C       -0.9971255020   -0.5344052591    1.1613420685
H       -1.7918764404   -1.1417320901    1.5802943120
13   
From optimize.out: Frame 19 / 24, Energy=    -286.8548201052
C        1.6898907438    0.3924576295   -0.2904295047
C        1.1550025506   -0.8405068504   -0.2785370034
C       -0.2455138349   -1.0656699272    0.0137583254
C       -1.2153936522    0.3190992243   -0.0131315474
C       -0.3532142478    1.4832654329   -0.1394613798
N        0.9467561596    1.5531834987   -0.1655107049
H        2.7654298573    0.5219638256   -0.3843329588
H        1.8129737392   -1.7038770748   -0.3689110850
H       -0.7578471773   -1.8709145326   -0.5106129158
H       -2.2208547818    0.3937557661   -0.4222103514
H       -0.8113375492    2.4795209964   -0.1503419301
C       -0.9977588102   -0.5062903740    1.1462868305
H       -1.7681329972   -1.1559876144    1.5634342253
13   
From optimize.out: Frame 18 / 24, Energy=    -286.8547031652
C        1.6886918473    0.3888869555   -0.3130157472
C        1.1780673699   -0.8432967705   -0.2968421033
C       -0.1967102073   -1.0797593307    0.0305687605
C       -1.2556713565    0.3122400860   -0.0300246978
C       -0.3620263632    1.4503793727   -0.1488794609
N        0.9304863161    1.5217901621   -0.1739966523
H        2.7648389405    0.5324360125   -0.3732595393
H        1.8651258212   -1.6879479502   -0.3455403967
H       -0.8057902054   -1.7954073911   -0.4930476543
H       -2.2660308864    0.4080018493   -0.4041896714
H       -0.7624474809    2.4722951107   -0.1437312168
C       -1.0091051709   -0.5057997309    1.1280230681
H       -1.7694286245   -1.1738183753    1.5639353114
13   
From optimize.out: Frame 17 / 24, Energy=    -286.8545971168
C        1.6773091665    0.3912680164   -0.3049641559
C        1.1628643480   -0.8425816108   -0.2941619808
C       -0.2095136604   -1.0851803810    0.0178318895
C       -1.2542280237    0.3040652711   -0.0443621146
C       -0.3643377543    1.4418935398   -0.1581143412
N        0.9224904427    1.5171790015   -0.1745042862
H        2.7542557070    0.5330775341   -0.3404112807
H        1.8583034748   -1.6815375062   -0.3175165885
H       -0.8607271893   -1.7553494526   -0.5111720486
H       -2.2667855601    0.3881926288   -0.4068027836
H       -0.7488440528    2.4705545654   -0.1537820995
C       -0.9659782458   -0.4967358385    1.1178138699
H       -1.7048086526   -1.1848457680    1.5701459203
13   
From optimize.out: Frame 15 / 24, Energy=    -286.8541353348
C        1.6586366103    0.3949675692   -0.2832530651
C        1.1259349171   -0.8426507857   -0.2785767717
C       -0.2559675266   -1.0916367690   -0.0133912712
C       -1.2330675121    0.2982386905   -0.0545786179
C       -0.3654112468    1.4500269500   -0.1672800283
N        0.9190792976    1.5287301106   -0.1728989221
H        2.7374499876    0.5236093883   -0.2946504421
H        1.8208879394   -1.6823413193   -0.2809927181
H       -0.9055105783   -1.7448801235   -0.5654298086
H       -2.2487367735    0.3521829829   -0.4133686757
H       -0.7563737961    2.4761801957   -0.1706732885
C       -0.8940235204   -0.4756194383    1.1140184906
H       -1.6028977982   -1.1868074514    1.5810751187
13   
From optimize.out: Frame 13 / 24, Energy=    -286.8535224494
C        1.6399640542    0.3986671220   -0.2615419743
C        1.0890054862   -0.8427199606   -0.2629915626
C       -0.3024213929   -1.0980931571   -0.0446144318
C       -1.2119070006    0.2924121100   -0.0647951212
C       -0.3664847394    1.4581603601   -0.1764457153
N        0.9156681524    1.5402812198   -0.1712935580
H        2.7206442683    0.5141412424   -0.2488896036
H        1.7834724041   -1.6831451325   -0.2444688476
H       -0.9502939674   -1.7344107943   -0.6196875686
H       -2.2306879868    0.3161733371   -0.4199345678
H       -0.7639035394    2.4818058259   -0.1875644776
C       -0.8220687949   -0.4545030381    1.1102231113
H       -1.5009869438   -1.1887691348    1.5920043171
13   
From optimize.out: Frame 12 / 24, Energy=    -286.8518398403
C        1.6280757746    0.3945565494   -0.2444922621
C        1.0631926329   -0.8483682275   -0.2452042563
C       -0.3300186911   -1.0868726669   -0.0713845271
C       -1.2208031787    0.2828063508   -0.0729321527
C       -0.3731832070    1.4552586975   -0.1919043691
N        0.9098275064    1.5371767449   -0.1787268250
H        2.7081200012    0.5031365338   -0.2036734221
H        1.7522046531   -1.6916986119   -0.1948725045
H       -0.9742566105   -1.6970409067   -0.6799228857
H       -2.2476560593    0.2860972657   -0.4035701852
H       -0.7639034447    2.4803343323   -0.1957313405
C       -0.7525900417   -0.4327729721    1.0870933495
H       -1.3990093350   -1.1826130894    1.5953213806
13   
From optimize.out: Frame 11 / 24, Energy=    -286.8515276178
C        1.6185325011    0.3879387979   -0.2286343570
C        1.0414671117   -0.8560829309   -0.2273948857
C       -0.3509133301   -1.0709068980   -0.0979366348
C       -1.2390597928    0.2717566520   -0.0796140935
C       -0.3816832611    1.4486980675   -0.2088968973
N        0.9032611054    1.5293401744   -0.1884379122
H        2.6970962169    0.4919219123   -0.1585628789
H        1.7236624929   -1.7029246943   -0.1431133803
H       -0.9905344094   -1.6514813928   -0.7436946536
H       -2.2752546454    0.2574072738   -0.3801676022
H       -0.7619476304    2.4763040944   -0.2018463205
C       -0.6853677716   -0.4098161656    1.0600364924
H       -1.2992585874   -1.1721548906    1.5982631236
13   
From optimize.out: Frame 11 / 24, Energy=    -286.8515276178
C        1.6145307746    0.3795954515   -0.2064397583
C        1.0347440355   -0.8716926701   -0.2256631216
C       -0.3519351264   -1.0735120044   -0.1528075301
C       -1.2569852645    0.2542906184   -0.0667884538
C       -0.3913263930    1.4368808988   -0.2155185144
N        0.8974677504    1.5176025518   -0.1850600748
H        2.6900675156    0.4872210785   -0.1118988208
H        1.7146682685   -1.7203335045   -0.1376544160
H       -0.9780001011   -1.6107631301   -0.8479104734
H       -2.2958246017    0.2174827311   -0.3595060789
H       -0.7694898820    2.4639226174   -0.2241439790
C       -0.6540451654   -0.3618176784    1.0838428570
H       -1.2538718104   -1.1188769601    1.6495483641
13   
From optimize.out: Frame 10 / 24, Energy=    -286.8474564242
C        1.6105290481    0.3712521051   -0.1842451596
C        1.0280209593   -0.8873024093   -0.2239313576
C       -0.3529569227   -1.0761171107   -0.2076784255
C       -1.2749107362    0.2368245849   -0.0539628140
C       -0.4009695250    1.4250637302   -0.2221401315
N        0.8916743953    1.5058649292   -0.1816822374
H        2.6830388143    0.4825202448   -0.0652347628
H        1.7056740441   -1.7377423147   -0.1321954516
H       -0.9654657928   -1.5700448674   -0.9521262931
H       -2.3163945580    0.1775581884   -0.3388445557
H       -0.7770321337    2.4515411405   -0.2464416374
C       -0.6227225593   -0.3138191912    1.1076492216
H       -1.2084850334   -1.0655990296    1.7008336046
13   
From optimize.out: Frame 9 / 24, Energy=    -286.8397144737
C        1.6057299715    0.3621078427   -0.1629207187
C        1.0226921871   -0.9005385393   -0.2340089345
C       -0.3573797835   -1.0858206897   -0.2751291514
C       -1.2809759739    0.2288429590   -0.0333102199
C       -0.4115628889    1.4204008057   -0.2271424772
N        0.8856326805    1.5000904464   -0.1758382418
H        2.6734155337    0.4733026056   -0.0141142625
H        1.6970442639   -1.7519563457   -0.1287653562
H       -0.9464732879   -1.5598403479   -1.0552801101
H       -2.3229603913    0.1443608072   -0.3134915295
H       -0.7939111204    2.4424731139   -0.2722103196
C       -0.6011878872   -0.2665025763    1.1367539942
H       -1.1700633036   -1.0069200816    1.7554573273
13   
From optimize.out: Frame 8 / 24, Energy=    -286.8216786057
C        1.6008387269    0.3528710002   -0.1416968617
C        1.0175245864   -0.9135002973   -0.2454515857
C       -0.3621957826   -1.0963448006   -0.3440340145
C       -1.2856702544    0.2219576619   -0.0117528867
C       -0.4222660928    1.4165648601   -0.2319576469
N        0.8795622571    1.4950052593   -0.1697091762
H        2.6634923386    0.4635628565    0.0375213702
H        1.6884566107   -1.7658010834   -0.1255697834
H       -0.9267342622   -1.5531629959   -1.1583111672
H       -2.3279074495    0.1119410371   -0.2875961996
H       -0.8118693661    2.4337880983   -0.2983802270
C       -0.5807846293   -0.2192647810    1.1664712245
H       -1.1324466828   -0.9476168151    1.8104669542
13   
From optimize.out: Frame 7 / 24, Energy=    -286.8085551488
C        1.5959474823    0.3436341577   -0.1204730048
C        1.0123569857   -0.9264620553   -0.2568942369
C       -0.3670117817   -1.1068689115   -0.4129388776
C       -1.2903645349    0.2150723648    0.0098044466
C       -0.4329692966    1.4127289144   -0.2367728166
N        0.8734918337    1.4899200723   -0.1635801106
H        2.6535691434    0.4538231074    0.0891570029
H        1.6798689576   -1.7796458211   -0.1223742105
H       -0.9069952366   -1.5464856439   -1.2613422243
H       -2.3328545077    0.0795212669   -0.2617008697
H       -0.8298276117    2.4251030826   -0.3245501344
C       -0.5603813715   -0.1720269857    1.1961884548
H       -1.0948300620   -0.8883135486    1.8654765812
13   
From optimize.out: Frame 6 / 24, Energy=    -286.7740170881
C        1.5902844138    0.3361321408   -0.0986628987
C        0.9996939520   -0.9359856135   -0.2619393029
C       -0.3808007654   -1.1067335463   -0.4675500406
C       -1.2871331162    0.2041535424    0.0227719303
C       -0.4422294527    1.4101545485   -0.2427946869
N        0.8691274718    1.4885855346   -0.1563230188
H        2.6433132501    0.4424573256    0.1379560863
H        1.6596232047   -1.7929507882   -0.1131716218
H       -0.9042185312   -1.5291653822   -1.3448805027
H       -2.3287886890    0.0389629801   -0.2438193196
H       -0.8510189181    2.4158613693   -0.3456416128
C       -0.5282400808   -0.1306472137    1.2119507711
H       -1.0396127390   -0.8408248974    1.9021042171
13   
From optimize.out: Frame 5 / 24, Energy=    -286.7510879796
C        1.5827624421    0.3328083726   -0.0754408383
C        0.9689785062   -0.9372284228   -0.2515760741
C       -0.4162007769   -1.0809253143   -0.4877354726
C       -1.2648130089    0.1835201562    0.0150511494
C       -0.4480140932    1.4106186404   -0.2517228410
N        0.8688720821    1.4962842666   -0.1463491268
H        2.6322560682    0.4271753175    0.1799234690
H        1.6112994452   -1.8049557420   -0.0895014066
H       -0.9422948081   -1.4862121529   -1.3814713037
H       -2.3030157632   -0.0211965565   -0.2452385963
H       -0.8799969054    2.4052788751   -0.3545019241
C       -0.4678282684   -0.1033762264    1.1941033073
H       -0.9420049197   -0.8217912134    1.8944596578
13   
From optimize.out: Frame 4 / 24, Energy=    -286.7077971221
C        1.5752404704    0.3294846044   -0.0522187779
C        0.9382630604   -0.9384712322   -0.2412128452
C       -0.4516007884   -1.0551170823   -0.5079209046
C       -1.2424929016    0.1628867700    0.0073303685
C       -0.4537987337    1.4110827322   -0.2606509951
N        0.8686166924    1.5039829985   -0.1363752348
H        2.6211988863    0.4118933094    0.2218908517
H        1.5629756857   -1.8169606959   -0.0658311915
H       -0.9803710850   -1.4432589236   -1.4180621048
H       -2.2772428375   -0.0813560931   -0.2466578730
H       -0.9089748927    2.3946963810   -0.3633622355
C       -0.4074164559   -0.0761052390    1.1762558436
H       -0.8443971004   -0.8027575295    1.8868150985
13   
From optimize.out: Frame 4 / 24, Energy=    -286.7077971221
C        1.5686257775    0.3243009722   -0.0297172658
C        0.9143955307   -0.9460746682   -0.2327397166
C       -0.4812792578   -1.0461391922   -0.5232294670
C       -1.2273400953    0.1499077179   -0.0013271480
C       -0.4637186493    1.4174389295   -0.2662307688
N        0.8661266087    1.5101069769   -0.1223130859
H        2.6116195569    0.3980864385    0.2597190583
H        1.5283329043   -1.8313407971   -0.0486170013
H       -1.0170926299   -1.4163947057   -1.4486269899
H       -2.2583078503   -0.1337711859   -0.2491761383
H       -0.9394597398    2.3913234324   -0.3652482745
C       -0.3518504972   -0.0413729945    1.1539219504
H       -0.7500516582   -0.7760709237    1.8735848475
13   
From optimize.out: Frame 3 / 24, Energy=    -286.6756499965
C        1.5658441224    0.3112598547   -0.0102599001
C        0.9194588256   -0.9805502463   -0.2322518143
C       -0.4867855661   -1.1082655135   -0.5179344095
C       -1.2424674394    0.1692664151   -0.0139421510
C       -0.4911091234    1.4486878773   -0.2576644275
N        0.8541954716    1.5095779941   -0.0909790188
H        2.6082838044    0.3905116728    0.2800602255
H        1.5514890171   -1.8557553332   -0.0586779884
H       -1.0480907526   -1.4575027532   -1.4537338067
H       -2.2682615352   -0.1534678363   -0.2563373704
H       -0.9763107129    2.4184091075   -0.3376696640
C       -0.3167571240    0.0248812953    1.1126339543
H       -0.6694889876   -0.7170525344    1.8367563709
13   
From optimize.out: Frame 2 / 24, Energy=    -286.6254313898
C        1.5638165025    0.3023990474   -0.0058655323
C        0.9315033162   -1.0103805438   -0.2285348215
C       -0.4792886075   -1.1761954759   -0.5067837837
C       -1.2685492952    0.2017489928   -0.0220736360
C       -0.5109352178    1.4803088987   -0.2494269283
N        0.8446950816    1.5079233454   -0.0769267798
H        2.6067038960    0.3909015175    0.2798512610
H        1.5843425149   -1.8704476833   -0.0579269771
H       -1.0541334151   -1.5296232341   -1.4442295055
H       -2.2978888141   -0.1289454424   -0.2546228170
H       -0.9914581321    2.4524367139   -0.3059672583
C       -0.3011385204    0.0646800854    1.0753094428
H       -0.6276693089   -0.6848062216    1.7971973357
13   
From optimize.out: Frame 1 / 24, Energy=    -286.5524627724
C        1.5624114521    0.2969897155   -0.0139079374
C        0.9493118349   -1.0363754625   -0.2221517282
C       -0.4610554941   -1.2489172181   -0.4907985045
C       -1.3036757501    0.2450673098   -0.0265033018
C       -0.5245157777    1.5122371228   -0.2414609375
N        0.8372016394    1.5053392900   -0.0771432920
H        2.6065737012    0.3978673475    0.2626750682
H        1.6252026641   -1.8771129049   -0.0482490333
H       -1.0395715875   -1.6273491484   -1.4226615264
H       -2.3437596072   -0.0679135692   -0.2455799663
H       -0.9886859996    2.4921959298   -0.2708600386
C       -0.3015992716    0.0826358769    1.0412573847
H       -0.6178378039   -0.6746642892    1.7553838132
13   
C5H5N+CH->C6H6N atoms 1-13 frame 109 charge +0.000 sz -1.000 sz^2 0.500
C        1.5610064016    0.2915803836   -0.0219503425
C        0.9671203536   -1.0623703813   -0.2157686349
C       -0.4428223807   -1.3216389603   -0.4748132254
C       -1.3388022050    0.2883856269   -0.0309329675
C       -0.5380963376    1.5441653469   -0.2334949468
N        0.8297081972    1.5027552346   -0.0773598042
H        2.6064435065    0.4048331774    0.2454988754
H        1.6660628134   -1.8837781266   -0.0385710895
H       -1.0250097599   -1.7250750627   -1.4010935472
H       -2.3896304002   -0.0068816959   -0.2365371157
H       -0.9859138672    2.5319551457   -0.2357528189
C       -0.3020600228    0.1005916684    1.0072053266
H       -0.6080062989   -0.6645223568    1.7135702907
13   
C5H5N+CH->C6H6N atoms 1-13 frame 110 charge -0.000 sz -1.000 sz^2 0.501
C        1.5596013512    0.2861710517   -0.0299927477
C        0.9849288723   -1.0883653000   -0.2093855416
C       -0.4245892672   -1.3943607025   -0.4588279462
C       -1.3739286599    0.3317039439   -0.0353626332
C       -0.5516768975    1.5760935711   -0.2255289560
N        0.8222147549    1.5001711792   -0.0775763164
H        2.6063133117    0.4117990074    0.2283226826
H        1.7069229626   -1.8904433482   -0.0288931457
H       -1.0104479322   -1.8228009770   -1.3795255681
H       -2.4355011933    0.0541501774   -0.2274942650
H       -0.9831417347    2.5717143616   -0.2006455993
C       -0.3025207740    0.1185474599    0.9731532684
H       -0.5981747939   -0.6543804244    1.6717567682
13   
C5H5N+CH->C6H6N atoms 1-13 frame 111 charge +0.000 sz -1.000 sz^2 0.507
C        1.5534219388    0.2819858031   -0.0225449219
C        0.9784646732   -1.1144343631   -0.2327304467
C       -0.4053553892   -1.4294654993   -0.4980749805
C       -1.3782562341    0.3641756767   -0.0536077572
C       -0.5654209135    1.6105066072   -0.2517886437
N        0.8258061297    1.5019989583   -0.0747906698
H        2.5812700901    0.4072217907    0.2787417298
H        1.7162443487   -1.8926522263   -0.0599239777
H       -0.9886101343   -1.8506282779   -1.3425196243
H       -2.4444694572    0.0447399279   -0.1734450219
H       -0.9672379554    2.6103065619   -0.2184874538
C       -0.3103042650    0.1410107812    0.9795442561
H       -0.5955528319   -0.6747657401    1.6696275117
13   
C5H5N+CH->C6H6N atoms 1-13 frame 112 charge +0.000 sz -1.000 sz^2 0.520
C        1.5393804574    0.2781921130   -0.0082466703
C        0.9605607508   -1.1271828068   -0.2619705759
C       -0.3940957168   -1.4315200053   -0.5516802354
C       -1.3632465064    0.3778173931   -0.0716163713
C       -0.5726449192    1.6335188486   -0.2840448696
N        0.8278779293    1.5079439244   -0.0717765873
H        2.5501761690    0.3957026507    0.3466761045
H        1.7060075335   -1.8958381725   -0.1053970918
H       -0.9606598549   -1.8448202578   -1.3155127035
H       -2.4176000798    0.0157590394   -0.1173047184
H       -0.9553268128    2.6367859246   -0.2592189831
C       -0.3263602408    0.1521634904    1.0022818678
H       -0.5940687093   -0.6985221418    1.6978108343
13   
C5H5N+CH->C6H6N atoms 1-13 frame 112 charge +0.000 sz -1.000 sz^2 0.520
C        1.5296499491    0.2819576488    0.0071564721
C        0.9343858351   -1.1047231437   -0.2666863066
C       -0.4167223118   -1.3713024749   -0.5819173690
C       -1.3225954550    0.3371513667   -0.0633443169
C       -0.5601770359    1.6048774033   -0.2938391204
N        0.8311953687    1.5133069175   -0.0685336201
H        2.5355074522    0.3845598193    0.3784474290
H        1.6590319635   -1.8910136205   -0.1059239097
H       -0.9750888472   -1.7668158660   -1.3627762879
H       -2.3660160389   -0.0458534927   -0.1163320716
H       -0.9638697878    2.5983958615   -0.2960432643
C       -0.3100068834    0.1501402098    1.0313922370
H       -0.5752942085   -0.6906806291    1.7384001283
13   
C5H5N+CH->C6H6N atoms 1-13 frame 113 charge +0.000 sz -1.000 sz^2 0.537
C        1.5199194407    0.2857231846    0.0225596145
C        0.9082109194   -1.0822634806   -0.2714020372
C       -0.4393489069   -1.3110849444   -0.6121545025
C       -1.2819444037    0.2964853404   -0.0550722626
C       -0.5477091527    1.5762359579   -0.3036333712
N        0.8345128081    1.5186699106   -0.0652906528
H        2.5208387353    0.3734169879    0.4102187535
H        1.6120563936   -1.8861890685   -0.1064507276
H       -0.9895178395   -1.6888114742   -1.4100398722
H       -2.3144319979   -0.1074660248   -0.1153594248
H       -0.9724127629    2.5600057983   -0.3328675455
C       -0.2936535259    0.1481169291    1.0605026063
H       -0.5565197077   -0.6828391164    1.7789894224
13   
From optimize.out: Frame 1 / 24, Energy=    -286.5632287070
C        1.5101889324    0.2894887204    0.0379627569
C        0.8820360037   -1.0598038175   -0.2761177678
C       -0.4619755020   -1.2508674139   -0.6423916361
C       -1.2412933523    0.2558193140   -0.0468002082
C       -0.5352412694    1.5475945126   -0.3134276220
N        0.8378302475    1.5240329037   -0.0620476856
H        2.5061700185    0.3622741565    0.4419900780
H        1.5650808236   -1.8813645165   -0.1069775454
H       -1.0039468319   -1.6108070824   -1.4573034566
H       -2.2628479569   -0.1690785569   -0.1143867780
H       -0.9809557379    2.5216157351   -0.3696918268
C       -0.2773001685    0.1460936484    1.0896129755
H       -0.5377452069   -0.6749976037    1.8195787164
13   
From optimize.out: Frame 2 / 24, Energy=    -286.6491115880
C        1.5004584241    0.2932542562    0.0533658993
C        0.8558610880   -1.0373441544   -0.2808334985
C       -0.4846020970   -1.1906498835   -0.6726287697
C       -1.2006423010    0.2151532876   -0.0385281539
C       -0.5227733861    1.5189530673   -0.3232218729
N        0.8411476869    1.5293958969   -0.0588047184
H        2.4915013017    0.3511313251    0.4737614024
H        1.5181052536   -1.8765399644   -0.1075043633
H       -1.0183758242   -1.5328026906   -1.5045670410
H       -2.2112639160   -0.2306910889   -0.1134141313
H       -0.9894987129    2.4832256720   -0.4065161080
C       -0.2609468110    0.1440703677    1.1187233447
H       -0.5189707061   -0.6671560910    1.8601680104
13   
From optimize.out: Frame 3 / 24, Energy=    -286.6721216232
C        1.4902500541    0.2966910092    0.0688229347
C        0.8301043570   -1.0154648571   -0.2857670982
C       -0.5061752459   -1.1314680557   -0.7038998850
C       -1.1607914723    0.1752498797   -0.0295869528
C       -0.5105123319    1.4904470301   -0.3331025923
N        0.8441192565    1.5344233926   -0.0559317796
H        2.4760709577    0.3399061949    0.5059869573
H        1.4717337693   -1.8720010442   -0.1079244234
H       -1.0307608196   -1.4561761007   -1.5531690624
H       -2.1608404626   -0.2907470923   -0.1111974964
H       -0.9977726787    2.4450554912   -0.4435149674
C       -0.2448745996    0.1425341231    1.1480473457
H       -0.5005507839   -0.6584499706    1.9012370197
13   
From optimize.out: Frame 4 / 24, Energy=    -286.7013606847
C        1.4645933022    0.2894988201    0.0860222313
C        0.8178667642   -1.0123477102   -0.2977440012
C       -0.4936924269   -1.1057685808   -0.7685977181
C       -1.1468103642    0.1600005158    0.0009865255
C       -0.5049376794    1.4663184886   -0.3457786815
N        0.8359094935    1.5286048769   -0.0650211742
H        2.4360186120    0.3260204938    0.5528969399
H        1.4448912560   -1.8766960729   -0.1048931998
H       -0.9770671739   -1.4240913025   -1.6450402811
H       -2.1479366598   -0.3004833998   -0.0687650247
H       -0.9973500739    2.4139937006   -0.4861576192
C       -0.2378913200    0.1567428516    1.1842776681
H       -0.4935937298   -0.6217926811    1.9578143350
13   
From optimize.out: Frame 5 / 24, Energy=    -286.7106062759
C        1.4389365503    0.2823066310    0.1032215279
C        0.8056291714   -1.0092305634   -0.3097209043
C       -0.4812096078   -1.0800691060   -0.8332955513
C       -1.1328292561    0.1447511519    0.0315600039
C       -0.4993630269    1.4421899472   -0.3584547707
N        0.8276997306    1.5227863612   -0.0741105688
H        2.3959662663    0.3121347927    0.5998069225
H        1.4180487428   -1.8813911015   -0.1018619762
H       -0.9233735281   -1.3920065042   -1.7369114998
H       -2.1350328571   -0.3102197073   -0.0263325530
H       -0.9969274692    2.3829319100   -0.5288002710
C       -0.2309080404    0.1709515801    1.2205079904
H       -0.4866366758   -0.5851353916    2.0143916504
13   
From optimize.out: Frame 6 / 24, Energy=    -286.7440823765
C        1.4132797983    0.2751144419    0.1204208245
C        0.7933915786   -1.0061134166   -0.3216978074
C       -0.4687267887   -1.0543696312   -0.8979933844
C       -1.1188481480    0.1295017880    0.0621334823
C       -0.4937883745    1.4180614057   -0.3711308600
N        0.8194899677    1.5169678455   -0.0831999635
H        2.3559139206    0.2982490917    0.6467169051
H        1.3912062296   -1.8860861301   -0.0988307527
H       -0.8696798824   -1.3599217059   -1.8287827185
H       -2.1221290543   -0.3199560148    0.0160999187
H       -0.9965048644    2.3518701195   -0.5714429228
C       -0.2239247608    0.1851603086    1.2567383128
H       -0.4796796218   -0.5484781022    2.0709689657
13   
From optimize.out: Frame 6 / 24, Energy=    -286.7440823765
C        1.3844983498    0.2715809878    0.1331485915
C        0.7791014798   -0.9992578421   -0.3226254834
C       -0.4677142165   -1.0189229741   -0.9171138731
C       -1.0967052048    0.1158153467    0.0723580691
C       -0.4824908759    1.4007504161   -0.3844489735
N        0.8099519480    1.5148643659   -0.0947048713
H        2.3200821177    0.2895266643    0.6759070972
H        1.3667454071   -1.8874429312   -0.0963350459
H       -0.8491412153   -1.3194989092   -1.8669589349
H       -2.1026119533   -0.3201519622    0.0299021629
H       -0.9901509843    2.3309004282   -0.6018685527
C       -0.2083863142    0.1732764936    1.2758498438
H       -0.4631785381   -0.5514400838    2.0968899704
13   
From optimize.out: Frame 7 / 24, Energy=    -286.7734394401
C        1.3500942284    0.2746311715    0.1378301538
C        0.7611180400   -0.9856752284   -0.3036708483
C       -0.4873415517   -0.9659369439   -0.8542211179
C       -1.0598756101    0.1049412755    0.0459662488
C       -0.4608955161    1.3957071345   -0.3989223649
N        0.7980238231    1.5194458339   -0.1105563263
H        2.2918448864    0.2900951867    0.6732117654
H        1.3465702705   -1.8827928253   -0.0948029642
H       -0.8882626138   -1.2640724671   -1.8085147499
H       -2.0711946845   -0.3031806989   -0.0078136850
H       -0.9731241890    2.3280907639   -0.6103105062
C       -0.1774534427    0.1144409710    1.2641573070