13   
Frame   0 IRC: Energy =  -286.8952443538 ; +0.0000 kcal/mol
C       -0.0389880000   -0.1390570000   -0.0000000000
C       -0.2137790000    0.0218050000    0.0000000000
C       -0.0761630000   -0.0209280000    0.0000000000
C       -0.1440010000    0.0343430000    0.0000000000
C       -0.2021160000   -0.0365480000   -0.0000000000
N        0.0165110000    0.0369020000   -0.0000000000
H        0.1422910000    0.0384740000   -0.0000000000
H        0.1335440000    0.0002540000    0.0000000000
H        0.1265320000    0.0017090000    0.0000000000
H        0.1261130000    0.0010110000    0.0000000000
H        0.1344460000   -0.0002920000   -0.0000000000
C       -0.1580640000    1.0633480000   -0.0000000000
H        0.1536740000   -0.0010220000   -0.0000000000
13   
Frame   1 IRC: Energy =  -286.8952436679 ; +0.0004 kcal/mol
C       -0.0390200000   -0.1391880000   -0.0000000000
C       -0.2137530000    0.0218280000    0.0000000000
C       -0.0760320000   -0.0209660000    0.0000000000
C       -0.1438800000    0.0344150000    0.0000000000
C       -0.2022620000   -0.0365720000   -0.0000000000
N        0.0164780000    0.0368860000   -0.0000000000
H        0.1422780000    0.0385700000   -0.0000000000
H        0.1335190000    0.0002540000    0.0000000000
H        0.1265520000    0.0017090000    0.0000000000
H        0.1261250000    0.0010130000    0.0000000000
H        0.1344570000   -0.0002960000   -0.0000000000
C       -0.1582380000    1.0634880000   -0.0000000000
H        0.1537770000   -0.0011420000   -0.0000000000
13   
Frame   2 IRC: Energy =  -286.8952333424 ; +0.0069 kcal/mol
C       -0.0385720000   -0.1397830000   -0.0000000000
C       -0.2139930000    0.0218490000    0.0000000000
C       -0.0749390000   -0.0209790000    0.0000000000
C       -0.1439560000    0.0344450000    0.0000000000
C       -0.2019000000   -0.0366060000   -0.0000000000
N        0.0161180000    0.0366930000   -0.0000000000
H        0.1421000000    0.0387860000   -0.0000000000
H        0.1335400000    0.0002540000    0.0000000000
H        0.1266490000    0.0016940000    0.0000000000
H        0.1261490000    0.0010190000    0.0000000000
H        0.1346760000   -0.0003130000   -0.0000000000
C       -0.1598080000    1.0641960000   -0.0000000000
H        0.1539350000   -0.0012560000   -0.0000000000
13   
Frame   3 IRC: Energy =  -286.8952022461 ; +0.0264 kcal/mol
C       -0.0386070000   -0.1407170000   -0.0000000000
C       -0.2144020000    0.0217610000    0.0000000000
C       -0.0746240000   -0.0205650000    0.0000000000
C       -0.1438710000    0.0338420000    0.0000000000
C       -0.2015090000   -0.0362290000   -0.0000000000
N        0.0157500000    0.0365850000   -0.0000000000
H        0.1418270000    0.0389480000   -0.0000000000
H        0.1335720000    0.0002590000    0.0000000000
H        0.1267340000    0.0016560000    0.0000000000
H        0.1261970000    0.0010280000    0.0000000000
H        0.1350150000   -0.0003400000   -0.0000000000
C       -0.1601820000    1.0649410000   -0.0000000000
H        0.1541000000   -0.0011680000   -0.0000000000
13   
Frame   4 IRC: Energy =  -286.8951042061 ; +0.0879 kcal/mol
C       -0.0473070000   -0.1408750000   -0.0000000000
C       -0.2084830000    0.0208890000    0.0000000000
C       -0.0857410000   -0.0173850000    0.0000000000
C       -0.1408650000    0.0298110000    0.0000000000
C       -0.2057250000   -0.0327700000   -0.0000000000
N        0.0132060000    0.0371360000   -0.0000000000
H        0.1422210000    0.0381550000   -0.0000000000
H        0.1339190000    0.0002740000    0.0000000000
H        0.1265620000    0.0015620000    0.0000000000
H        0.1262250000    0.0010190000    0.0000000000
H        0.1354470000   -0.0003840000   -0.0000000000
C       -0.1434990000    1.0631940000   -0.0000000000
H        0.1540400000   -0.0006240000   -0.0000000000
13   
Frame   5 IRC: Energy =  -286.8948084260 ; +0.2735 kcal/mol
C       -0.0649780000   -0.1426180000   -0.0000000000
C       -0.1957930000    0.0191380000    0.0000000000
C       -0.1037970000   -0.0114330000    0.0000000000
C       -0.1413920000    0.0219160000    0.0000000000
C       -0.2096830000   -0.0255720000   -0.0000000000
N        0.0050050000    0.0392300000   -0.0000000000
H        0.1439400000    0.0369300000   -0.0000000000
H        0.1344530000    0.0002910000    0.0000000000
H        0.1262930000    0.0014120000    0.0000000000
H        0.1260870000    0.0009970000    0.0000000000
H        0.1362490000   -0.0004530000   -0.0000000000
C       -0.1112940000    1.0602300000   -0.0000000000
H        0.1549090000   -0.0000690000   -0.0000000000
13   
Frame   6 IRC: Energy =  -286.8942533938 ; +0.6218 kcal/mol
C       -0.0777180000   -0.1476400000   -0.0000000000
C       -0.1757190000    0.0151560000    0.0000000000
C       -0.1235770000   -0.0029000000    0.0000000000
C       -0.1302120000    0.0114560000    0.0000000000
C       -0.2260340000   -0.0155270000   -0.0000000000
N       -0.0069360000    0.0417160000    0.0000000000
H        0.1474420000    0.0335400000   -0.0000000000
H        0.1348690000    0.0003230000    0.0000000000
H        0.1257920000    0.0011540000    0.0000000000
H        0.1261330000    0.0009300000    0.0000000000
H        0.1369030000   -0.0005650000   -0.0000000000
C       -0.0867040000    1.0622410000   -0.0000000000
H        0.1557600000    0.0001180000   -0.0000000000
13   
Frame   7 IRC: Energy =  -286.8935107664 ; +1.0878 kcal/mol
C       -0.0859460000   -0.1557380000   -0.0000000000
C       -0.1652010000    0.0120160000    0.0000000000
C       -0.1292230000    0.0034370000    0.0000000000
C       -0.1317630000    0.0038840000    0.0000000000
C       -0.2275920000   -0.0079080000   -0.0000000000
N       -0.0203490000    0.0452290000    0.0000000000
H        0.1502010000    0.0319210000    0.0000000000
H        0.1353440000    0.0003580000    0.0000000000
H        0.1253700000    0.0009200000    0.0000000000
H        0.1257530000    0.0008730000    0.0000000000
H        0.1382530000   -0.0006020000   -0.0000000000
C       -0.0728650000    1.0652890000   -0.0000000000
H        0.1580170000    0.0003200000   -0.0000000000
13   
Frame   8 IRC: Energy =  -286.8924985817 ; +1.7230 kcal/mol
C       -0.0914290000   -0.1647290000   -0.0000000000
C       -0.1583230000    0.0077190000    0.0000000000
C       -0.1305230000    0.0105230000    0.0000000000
C       -0.1282200000   -0.0023860000    0.0000000000
C       -0.2324340000   -0.0006090000   -0.0000000000
N       -0.0332980000    0.0488960000    0.0000000000
H        0.1531600000    0.0293850000    0.0000000000
H        0.1356950000    0.0004080000    0.0000000000
H        0.1249750000    0.0005840000    0.0000000000
H        0.1254330000    0.0007830000    0.0000000000
H        0.1396100000   -0.0006160000   -0.0000000000
C       -0.0647290000    1.0696350000   -0.0000000000
H        0.1600830000    0.0004080000   -0.0000000000
13   
Frame   9 IRC: Energy =  -286.8914878420 ; +2.3572 kcal/mol
C       -0.0969120000   -0.1744990000   -0.0000000000
C       -0.1640340000    0.0051720000    0.0000000000
C       -0.1228660000    0.0143870000    0.0000000000
C       -0.1334530000   -0.0043460000    0.0000000000
C       -0.2260830000    0.0032160000    0.0000000000
N       -0.0438760000    0.0528220000    0.0000000000
H        0.1552460000    0.0279650000    0.0000000000
H        0.1359990000    0.0004500000    0.0000000000
H        0.1246490000    0.0003070000    0.0000000000
H        0.1250420000    0.0006840000    0.0000000000
H        0.1404050000   -0.0004960000   -0.0000000000
C       -0.0561140000    1.0735340000   -0.0000000000
H        0.1619980000    0.0008050000   -0.0000000000
13   
Frame  10 IRC: Energy =  -286.8905771233 ; +2.9287 kcal/mol
C       -0.1018590000   -0.1840300000   -0.0000000000
C       -0.1784140000    0.0049750000    0.0000000000
C       -0.1104380000    0.0143240000    0.0000000000
C       -0.1435770000   -0.0020960000    0.0000000000
C       -0.2120040000    0.0032460000    0.0000000000
N       -0.0530360000    0.0565890000    0.0000000000
H        0.1566640000    0.0276140000    0.0000000000
H        0.1362920000    0.0004650000    0.0000000000
H        0.1244170000    0.0001550000    0.0000000000
H        0.1246370000    0.0005930000    0.0000000000
H        0.1403580000   -0.0002830000   -0.0000000000
C       -0.0465650000    1.0772080000   -0.0000000000
H        0.1635240000    0.0012400000   -0.0000000000
13   
Frame  11 IRC: Energy =  -286.8896410744 ; +3.5161 kcal/mol
C       -0.1053490000   -0.1911190000   -0.0000000000
C       -0.1932650000    0.0025010000    0.0000000000
C       -0.1025730000    0.0164670000    0.0000000000
C       -0.1397150000   -0.0005970000    0.0000000000
C       -0.2071680000    0.0052130000    0.0000000000
N       -0.0594550000    0.0602280000    0.0000000000
H        0.1578680000    0.0258130000    0.0000000000
H        0.1368150000    0.0004690000    0.0000000000
H        0.1239750000    0.0000680000    0.0000000000
H        0.1242860000    0.0004370000    0.0000000000
H        0.1402140000   -0.0001060000   -0.0000000000
C       -0.0397150000    1.0785860000   -0.0000000000
H        0.1640820000    0.0020410000   -0.0000000000
13   
Frame  12 IRC: Energy =  -286.8891530356 ; +3.8224 kcal/mol
C       -0.1022160000   -0.1967660000   -0.0000000000
C       -0.2013410000    0.0032210000    0.0000000000
C       -0.1025860000    0.0140650000    0.0000000000
C       -0.1396390000    0.0033030000    0.0000000000
C       -0.1956740000    0.0041800000    0.0000000000
N       -0.0697340000    0.0626820000    0.0000000000
H        0.1586890000    0.0249720000    0.0000000000
H        0.1373790000    0.0004460000    0.0000000000
H        0.1238500000    0.0001640000    0.0000000000
H        0.1240390000    0.0003830000    0.0000000000
H        0.1398040000    0.0001160000   -0.0000000000
C       -0.0370100000    1.0809000000   -0.0000000000
H        0.1644400000    0.0023350000   -0.0000000000
13   
Frame  13 IRC: Energy =  -286.8889299897 ; +3.9623 kcal/mol
C       -0.1020610000   -0.1980790000   -0.0000000000
C       -0.2031080000    0.0028700000    0.0000000000
C       -0.1053090000    0.0129600000    0.0000000000
C       -0.1345490000    0.0048740000    0.0000000000
C       -0.1975010000    0.0040880000    0.0000000000
N       -0.0708860000    0.0634100000    0.0000000000
H        0.1586170000    0.0256430000    0.0000000000
H        0.1376420000    0.0004320000    0.0000000000
H        0.1236810000    0.0001850000    0.0000000000
H        0.1237930000    0.0003370000    0.0000000000
H        0.1394220000    0.0002090000   -0.0000000000
C       -0.0343320000    1.0791750000   -0.0000000000
H        0.1645900000    0.0038950000   -0.0000000000
13   
Frame  14 IRC: Energy =  -286.8887991332 ; +4.0444 kcal/mol
C       -0.0965920000   -0.1996050000   -0.0000000000
C       -0.2005810000    0.0035220000    0.0000000000
C       -0.1128070000    0.0109190000    0.0000000000
C       -0.1293960000    0.0072280000    0.0000000000
C       -0.1948070000    0.0036760000    0.0000000000
N       -0.0776620000    0.0643880000    0.0000000000
H        0.1590210000    0.0247290000    0.0000000000
H        0.1381550000    0.0004120000    0.0000000000
H        0.1237350000    0.0002680000    0.0000000000
H        0.1237870000    0.0003380000    0.0000000000
H        0.1391500000    0.0003110000   -0.0000000000
C       -0.0365960000    1.0801790000   -0.0000000000
H        0.1645930000    0.0036350000   -0.0000000000
13   
Frame  15 IRC: Energy =  -286.8887355093 ; +4.0844 kcal/mol
C       -0.0935990000   -0.2001710000   -0.0000000000
C       -0.1983840000    0.0037310000    0.0000000000
C       -0.1163260000    0.0101290000    0.0000000000
C       -0.1274740000    0.0076070000    0.0000000000
C       -0.1938720000    0.0038770000    0.0000000000
N       -0.0810010000    0.0646650000    0.0000000000
H        0.1593110000    0.0243860000    0.0000000000
H        0.1382270000    0.0004100000    0.0000000000
H        0.1238500000    0.0003320000    0.0000000000
H        0.1238760000    0.0003650000    0.0000000000
H        0.1389580000    0.0003510000   -0.0000000000
C       -0.0382190000    1.0811460000   -0.0000000000
H        0.1646530000    0.0031710000   -0.0000000000
13   
Frame  16 IRC: Energy =  -286.8885181076 ; +4.2208 kcal/mol
C       -0.0917020000   -0.2022290000   -0.0000000000
C       -0.1930270000    0.0043340000    0.0000000000
C       -0.1205060000    0.0084240000    0.0000000000
C       -0.1283340000    0.0070660000    0.0000000000
C       -0.1889450000    0.0040710000    0.0000000000
N       -0.0875010000    0.0652050000   -0.0000000000
H        0.1596160000    0.0253020000    0.0000000000
H        0.1386030000    0.0004370000    0.0000000000
H        0.1239730000    0.0004910000    0.0000000000
H        0.1239680000    0.0004990000    0.0000000000
H        0.1391470000    0.0004110000   -0.0000000000
C       -0.0401570000    1.0839780000   -0.0000000000
H        0.1648640000    0.0020110000   -0.0000000000
13   
Frame  17 IRC: Energy =  -286.8877967260 ; +4.6735 kcal/mol
C       -0.1091380000   -0.2070390000   -0.0000000000
C       -0.1872670000    0.0051590000    0.0000000000
C       -0.1201110000    0.0056600000    0.0000000000
C       -0.1261590000    0.0050280000    0.0000000000
C       -0.1824540000    0.0048230000    0.0000000000
N       -0.0920860000    0.0641880000   -0.0000000000
H        0.1596190000    0.0284100000    0.0000000000
H        0.1385630000    0.0004620000    0.0000000000
H        0.1242640000    0.0006600000    0.0000000000
H        0.1242260000    0.0006460000    0.0000000000
H        0.1389930000    0.0004640000   -0.0000000000
C       -0.0345270000    1.0907390000   -0.0000000000
H        0.1660760000    0.0008010000   -0.0000000000
13   
Frame  18 IRC: Energy =  -286.8869310000 ; +5.2167 kcal/mol
C       -0.1047650000   -0.2063450000   -0.0000000000
C       -0.1815820000    0.0043110000    0.0000000000
C       -0.1200990000    0.0044350000    0.0000000000
C       -0.1251430000    0.0041090000    0.0000000000
C       -0.1763730000    0.0039930000    0.0000000000
N       -0.1003030000    0.0648160000   -0.0000000000
H        0.1598070000    0.0298830000    0.0000000000
H        0.1385220000    0.0004990000    0.0000000000
H        0.1246350000    0.0007450000    0.0000000000
H        0.1245920000    0.0007250000    0.0000000000
H        0.1388560000    0.0005100000   -0.0000000000
C       -0.0447040000    1.0922840000   -0.0000000000
H        0.1665580000    0.0000350000   -0.0000000000
13   
Frame  19 IRC: Energy =  -286.8869010000 ; +5.2355 kcal/mol
C       -0.1055990000   -0.2065950000   -0.0000000000
C       -0.1813940000    0.0043700000    0.0000000000
C       -0.1201420000    0.0043630000    0.0000000000
C       -0.1252040000    0.0040460000    0.0000000000
C       -0.1761270000    0.0040480000    0.0000000000
N       -0.0999520000    0.0649430000   -0.0000000000
H        0.1600150000    0.0296350000    0.0000000000
H        0.1386380000    0.0005040000    0.0000000000
H        0.1245260000    0.0007510000    0.0000000000
H        0.1244850000    0.0007310000    0.0000000000
H        0.1389690000    0.0005150000   -0.0000000000
C       -0.0449090000    1.0925630000   -0.0000000000
H        0.1666950000    0.0001260000   -0.0000000000
13   
Frame  20 IRC: Energy =  -286.8867480000 ; +5.3315 kcal/mol
C       -0.1046990000   -0.2061160000   -0.0000000000
C       -0.1814250000    0.0042340000    0.0000000000
C       -0.1196220000    0.0042510000    0.0000000000
C       -0.1246610000    0.0039480000    0.0000000000
C       -0.1761310000    0.0039190000    0.0000000000
N       -0.1009770000    0.0648630000   -0.0000000000
H        0.1598550000    0.0301440000    0.0000000000
H        0.1384540000    0.0005030000    0.0000000000
H        0.1247690000    0.0007610000    0.0000000000
H        0.1247280000    0.0007390000    0.0000000000
H        0.1387830000    0.0005150000   -0.0000000000
C       -0.0457260000    1.0924050000   -0.0000000000
H        0.1666530000   -0.0001650000   -0.0000000000
13   
Frame  21 IRC: Energy =  -286.8867090000 ; +5.3560 kcal/mol
C       -0.1044710000   -0.2062240000   -0.0000000000
C       -0.1820340000    0.0041870000    0.0000000000
C       -0.1197670000    0.0042660000    0.0000000000
C       -0.1248010000    0.0039600000    0.0000000000
C       -0.1767540000    0.0038790000    0.0000000000
N       -0.1001840000    0.0647930000   -0.0000000000
H        0.1599660000    0.0300130000    0.0000000000
H        0.1384600000    0.0005120000    0.0000000000
H        0.1249240000    0.0007610000    0.0000000000
H        0.1248820000    0.0007400000    0.0000000000
H        0.1387900000    0.0005230000   -0.0000000000
C       -0.0457860000    1.0926040000   -0.0000000000
H        0.1667740000   -0.0000140000   -0.0000000000
13   
Frame  22 IRC: Energy =  -286.8862680000 ; +5.6328 kcal/mol
C       -0.1069420000   -0.2057350000   -0.0000000000
C       -0.1798380000    0.0043520000    0.0000000000
C       -0.1179920000    0.0036790000    0.0000000000
C       -0.1230950000    0.0034610000    0.0000000000
C       -0.1741310000    0.0040040000    0.0000000000
N       -0.1040630000    0.0646270000   -0.0000000000
H        0.1599130000    0.0306890000    0.0000000000
H        0.1385720000    0.0005080000    0.0000000000
H        0.1249150000    0.0007950000    0.0000000000
H        0.1248770000    0.0007720000    0.0000000000
H        0.1388740000    0.0005210000   -0.0000000000
C       -0.0479640000    1.0928010000   -0.0000000000
H        0.1668720000   -0.0004750000   -0.0000000000
13   
Frame  23 IRC: Energy =  -286.8862310000 ; +5.6560 kcal/mol
C       -0.1076830000   -0.2055280000   -0.0000000000
C       -0.1800780000    0.0043750000    0.0000000000
C       -0.1178430000    0.0036300000    0.0000000000
C       -0.1229630000    0.0034190000    0.0000000000
C       -0.1743130000    0.0040240000    0.0000000000
N       -0.1038380000    0.0652020000   -0.0000000000
H        0.1601850000    0.0306680000    0.0000000000
H        0.1385900000    0.0005140000    0.0000000000
H        0.1247830000    0.0008060000    0.0000000000
H        0.1247460000    0.0007830000    0.0000000000
H        0.1388890000    0.0005280000   -0.0000000000
C       -0.0474250000    1.0924110000   -0.0000000000
H        0.1669490000   -0.0008330000   -0.0000000000
13   
Frame  24 IRC: Energy =  -286.8860300000 ; +5.7821 kcal/mol
C       -0.1075060000   -0.2055510000   -0.0000000000
C       -0.1793210000    0.0043590000    0.0000000000
C       -0.1171860000    0.0034440000    0.0000000000
C       -0.1223110000    0.0032610000    0.0000000000
C       -0.1734630000    0.0039980000    0.0000000000
N       -0.1052890000    0.0643670000   -0.0000000000
H        0.1599070000    0.0308980000    0.0000000000
H        0.1385830000    0.0005090000    0.0000000000
H        0.1250580000    0.0008070000    0.0000000000
H        0.1250220000    0.0007830000    0.0000000000
H        0.1388730000    0.0005240000   -0.0000000000
C       -0.0493250000    1.0932040000   -0.0000000000
H        0.1669590000   -0.0006010000   -0.0000000000
13   
Frame  25 IRC: Energy =  -286.8859790000 ; +5.8141 kcal/mol
C       -0.1078690000   -0.2050990000   -0.0000000000
C       -0.1802980000    0.0043500000    0.0000000000
C       -0.1168040000    0.0034240000    0.0000000000
C       -0.1219270000    0.0032450000    0.0000000000
C       -0.1744090000    0.0039880000    0.0000000000
N       -0.1049710000    0.0649150000   -0.0000000000
H        0.1601530000    0.0309770000    0.0000000000
H        0.1384960000    0.0005160000    0.0000000000
H        0.1250970000    0.0008160000    0.0000000000
H        0.1250650000    0.0007920000    0.0000000000
H        0.1387910000    0.0005310000   -0.0000000000
C       -0.0482420000    1.0928530000   -0.0000000000
H        0.1669170000   -0.0013060000   -0.0000000000
13   
Frame  26 IRC: Energy =  -286.8858060000 ; +5.9227 kcal/mol
C       -0.1085400000   -0.2053910000   -0.0000000000
C       -0.1784280000    0.0044140000    0.0000000000
C       -0.1164640000    0.0032100000    0.0000000000
C       -0.1216180000    0.0030610000    0.0000000000
C       -0.1724050000    0.0040360000    0.0000000000
N       -0.1067180000    0.0641830000   -0.0000000000
H        0.1599100000    0.0311110000    0.0000000000
H        0.1386650000    0.0005080000    0.0000000000
H        0.1250830000    0.0008180000    0.0000000000
H        0.1250490000    0.0007940000    0.0000000000
H        0.1389400000    0.0005240000   -0.0000000000
C       -0.0505320000    1.0933800000   -0.0000000000
H        0.1670570000   -0.0006480000   -0.0000000000
13   
Frame  27 IRC: Energy =  -286.8857830000 ; +5.9371 kcal/mol
C       -0.1084190000   -0.2057050000   -0.0000000000
C       -0.1781170000    0.0044110000    0.0000000000
C       -0.1163640000    0.0031680000    0.0000000000
C       -0.1215180000    0.0030220000    0.0000000000
C       -0.1720880000    0.0040320000    0.0000000000
N       -0.1067690000    0.0637240000   -0.0000000000
H        0.1598330000    0.0308140000    0.0000000000
H        0.1387110000    0.0005040000    0.0000000000
H        0.1251050000    0.0008100000    0.0000000000
H        0.1250700000    0.0007850000    0.0000000000
H        0.1389840000    0.0005200000   -0.0000000000
C       -0.0513730000    1.0945120000   -0.0000000000
H        0.1669450000   -0.0005960000   -0.0000000000
13   
Frame  28 IRC: Energy =  -286.8852900000 ; +6.2465 kcal/mol
C       -0.1101000000   -0.2045470000   -0.0000000000
C       -0.1777270000    0.0044800000    0.0000000000
C       -0.1145470000    0.0027640000    0.0000000000
C       -0.1197590000    0.0026850000    0.0000000000
C       -0.1713810000    0.0040660000   -0.0000000000
N       -0.1094090000    0.0640770000   -0.0000000000
H        0.1600240000    0.0317470000    0.0000000000
H        0.1386600000    0.0005110000    0.0000000000
H        0.1253160000    0.0008440000    0.0000000000
H        0.1252890000    0.0008180000    0.0000000000
H        0.1389130000    0.0005290000   -0.0000000000
C       -0.0525560000    1.0931660000   -0.0000000000
H        0.1672790000   -0.0011420000   -0.0000000000
13   
Frame  29 IRC: Energy =  -286.8852600000 ; +6.2653 kcal/mol
C       -0.1100560000   -0.2046550000   -0.0000000000
C       -0.1778100000    0.0044830000    0.0000000000
C       -0.1142550000    0.0027120000    0.0000000000
C       -0.1194540000    0.0026360000    0.0000000000
C       -0.1714510000    0.0040680000   -0.0000000000
N       -0.1093760000    0.0637320000   -0.0000000000
H        0.1600040000    0.0314910000    0.0000000000
H        0.1386740000    0.0005080000    0.0000000000
H        0.1253610000    0.0008370000    0.0000000000
H        0.1253340000    0.0008110000    0.0000000000
H        0.1389270000    0.0005250000   -0.0000000000
C       -0.0530710000    1.0941270000   -0.0000000000
H        0.1671740000   -0.0012740000   -0.0000000000
13   
Frame  30 IRC: Energy =  -286.8846570000 ; +6.6437 kcal/mol
C       -0.1120390000   -0.2037740000   -0.0000000000
C       -0.1763260000    0.0045990000    0.0000000000
C       -0.1123320000    0.0022480000    0.0000000000
C       -0.1175980000    0.0022480000    0.0000000000
C       -0.1696150000    0.0041390000   -0.0000000000
N       -0.1128420000    0.0635580000   -0.0000000000
H        0.1600660000    0.0323210000    0.0000000000
H        0.1387490000    0.0005090000    0.0000000000
H        0.1255370000    0.0008640000    0.0000000000
H        0.1255190000    0.0008370000    0.0000000000
H        0.1389720000    0.0005270000   -0.0000000000
C       -0.0555860000    1.0934750000   -0.0000000000
H        0.1674950000   -0.0015510000   -0.0000000000
13   
Frame  31 IRC: Energy =  -286.8846050000 ; +6.6763 kcal/mol
C       -0.1117400000   -0.2039740000   -0.0000000000
C       -0.1753940000    0.0045680000    0.0000000000
C       -0.1125040000    0.0022280000    0.0000000000
C       -0.1177670000    0.0022330000    0.0000000000
C       -0.1686680000    0.0041070000   -0.0000000000
N       -0.1136810000    0.0635480000   -0.0000000000
H        0.1599430000    0.0324560000    0.0000000000
H        0.1387180000    0.0005060000    0.0000000000
H        0.1255440000    0.0008730000    0.0000000000
H        0.1255260000    0.0008460000    0.0000000000
H        0.1389400000    0.0005250000   -0.0000000000
C       -0.0561400000    1.0938160000   -0.0000000000
H        0.1672240000   -0.0017340000   -0.0000000000
13   
Frame  32 IRC: Energy =  -286.8843520000 ; +6.8351 kcal/mol
C       -0.1130240000   -0.2033810000   -0.0000000000
C       -0.1759870000    0.0046670000    0.0000000000
C       -0.1111700000    0.0020090000    0.0000000000
C       -0.1164450000    0.0020420000    0.0000000000
C       -0.1691240000    0.0041880000   -0.0000000000
N       -0.1141400000    0.0632270000   -0.0000000000
H        0.1601340000    0.0324710000    0.0000000000
H        0.1388010000    0.0005070000    0.0000000000
H        0.1256470000    0.0008670000    0.0000000000
H        0.1256340000    0.0008400000    0.0000000000
H        0.1390100000    0.0005270000   -0.0000000000
C       -0.0569800000    1.0937870000   -0.0000000000
H        0.1676430000   -0.0017530000   -0.0000000000
13   
Frame  33 IRC: Energy =  -286.8842800000 ; +6.8802 kcal/mol
C       -0.1127660000   -0.2034050000   -0.0000000000
C       -0.1752120000    0.0046410000    0.0000000000
C       -0.1112300000    0.0019940000    0.0000000000
C       -0.1165030000    0.0020360000    0.0000000000
C       -0.1683220000    0.0041590000   -0.0000000000
N       -0.1152150000    0.0632740000   -0.0000000000
H        0.1599860000    0.0328150000    0.0000000000
H        0.1387300000    0.0005060000    0.0000000000
H        0.1257240000    0.0008790000    0.0000000000
H        0.1257110000    0.0008520000    0.0000000000
H        0.1389370000    0.0005250000   -0.0000000000
C       -0.0572530000    1.0936840000   -0.0000000000
H        0.1674140000   -0.0019620000   -0.0000000000
13   
Frame  34 IRC: Energy =  -286.8841250000 ; +6.9775 kcal/mol
C       -0.1137800000   -0.2031330000   -0.0000000000
C       -0.1754250000    0.0047260000    0.0000000000
C       -0.1104010000    0.0018340000    0.0000000000
C       -0.1156760000    0.0018920000    0.0000000000
C       -0.1684580000    0.0042310000   -0.0000000000
N       -0.1152900000    0.0630570000   -0.0000000000
H        0.1601790000    0.0326210000    0.0000000000
H        0.1388550000    0.0005050000    0.0000000000
H        0.1256730000    0.0008710000    0.0000000000
H        0.1256630000    0.0008440000    0.0000000000
H        0.1390550000    0.0005250000   -0.0000000000
C       -0.0581510000    1.0938900000   -0.0000000000
H        0.1677570000   -0.0018630000   -0.0000000000
13   
Frame  35 IRC: Energy =  -286.8839840000 ; +7.0660 kcal/mol
C       -0.1136940000   -0.2029190000   -0.0000000000
C       -0.1749120000    0.0047040000    0.0000000000
C       -0.1100820000    0.0017880000    0.0000000000
C       -0.1153490000    0.0018590000    0.0000000000
C       -0.1678980000    0.0042030000   -0.0000000000
N       -0.1165820000    0.0629970000   -0.0000000000
H        0.1600100000    0.0331220000    0.0000000000
H        0.1387350000    0.0005040000    0.0000000000
H        0.1258330000    0.0008830000    0.0000000000
H        0.1258240000    0.0008550000    0.0000000000
H        0.1389290000    0.0005240000   -0.0000000000
C       -0.0584130000    1.0936050000   -0.0000000000
H        0.1675980000   -0.0021250000   -0.0000000000
13   
Frame  36 IRC: Energy =  -286.8838540000 ; +7.1476 kcal/mol
C       -0.1146350000   -0.2027480000   -0.0000000000
C       -0.1749500000    0.0048740000    0.0000000000
C       -0.1094940000    0.0016170000    0.0000000000
C       -0.1147650000    0.0017110000    0.0000000000
C       -0.1678540000    0.0043530000   -0.0000000000
N       -0.1171520000    0.0631830000   -0.0000000000
H        0.1602990000    0.0329140000    0.0000000000
H        0.1390660000    0.0005010000    0.0000000000
H        0.1258710000    0.0008870000    0.0000000000
H        0.1258660000    0.0008600000    0.0000000000
H        0.1392550000    0.0005210000   -0.0000000000
C       -0.0595420000    1.0934260000   -0.0000000000
H        0.1680340000   -0.0020970000   -0.0000000000
13   
Frame  37 IRC: Energy =  -286.8835960000 ; +7.3095 kcal/mol
C       -0.1151730000   -0.2024090000   -0.0000000000
C       -0.1738820000    0.0047410000    0.0000000000
C       -0.1088960000    0.0015650000    0.0000000000
C       -0.1141600000    0.0016680000    0.0000000000
C       -0.1667310000    0.0042240000   -0.0000000000
N       -0.1182460000    0.0624370000   -0.0000000000
H        0.1599470000    0.0335460000    0.0000000000
H        0.1386470000    0.0005030000    0.0000000000
H        0.1257810000    0.0008780000    0.0000000000
H        0.1257770000    0.0008500000    0.0000000000
H        0.1388250000    0.0005230000   -0.0000000000
C       -0.0595460000    1.0936300000   -0.0000000000
H        0.1676590000   -0.0021560000   -0.0000000000
13   
Frame  38 IRC: Energy =  -286.8828730000 ; +7.7631 kcal/mol
C       -0.1173770000   -0.2016190000   -0.0000000000
C       -0.1730610000    0.0050400000    0.0000000000
C       -0.1063280000    0.0010350000    0.0000000000
C       -0.1115250000    0.0012110000    0.0000000000
C       -0.1656660000    0.0044760000   -0.0000000000
N       -0.1217870000    0.0622230000   -0.0000000000
H        0.1602850000    0.0339960000    0.0000000000
H        0.1389520000    0.0004940000    0.0000000000
H        0.1261550000    0.0008960000    0.0000000000
H        0.1261640000    0.0008680000    0.0000000000
H        0.1391030000    0.0005150000   -0.0000000000
C       -0.0631710000    1.0937680000   -0.0000000000
H        0.1682550000   -0.0029010000   -0.0000000000
13   