13   
Frame   0 IRC: Energy =  -286.8952443538 ; +0.0000 kcal/mol
C        1.6670035813    0.1680809530   -0.6383855582
C        0.0729444216   -1.1302822646    0.7307753285
C       -1.2523213940   -1.0321219540    1.0826775744
C       -1.7695968865    0.1476088470    0.4618863918
C       -0.7426568644    0.7281526013   -0.2464450435
N        0.3883101959   -0.0525371459   -0.0841127908
H        2.3845399130   -0.5986604941   -0.3498900400
H        0.8247019537   -1.8641464098    0.9816296278
H       -1.7927911590   -1.7242593069    1.7129517347
H       -2.7803065930    0.5253991712    0.5302703858
H       -0.7164922720    1.6231826450   -0.8487616877
C        2.0404484667    1.1590767698   -1.4237870040
H        1.6762166367    2.0505065885   -1.9088089188
13   
Frame   1 IRC: Energy =  -286.8952436679 ; +0.0004 kcal/mol
C        1.6670271163    0.1690074901   -0.6375737532
C        0.0727114336   -1.1304867576    0.7309913436
C       -1.2527884864   -1.0330716455    1.0818110653
C       -1.7698336588    0.1475163487    0.4620157221
C       -0.7426510916    0.7284054669   -0.2455255353
N        0.3886064165   -0.0518456236   -0.0828263829
H        2.3848129775   -0.5975182143   -0.3489784221
H        0.8247367550   -1.8641709847    0.9815189079
H       -1.7934286264   -1.7252058522    1.7119456907
H       -2.7805192275    0.5253242781    0.5305805852
H       -0.7161618901    1.6240429351   -0.8469210854
C        2.0399958586    1.1584835065   -1.4250629784
H        1.6774924233    2.0495190526   -1.9119751576
13   
Frame   2 IRC: Energy =  -286.8952333424 ; +0.0069 kcal/mol
C        1.6673001462    0.1736125879   -0.6325841695
C        0.0719419410   -1.1314501485    0.7302022305
C       -1.2549425247   -1.0385112848    1.0754515669
C       -1.7704501307    0.1469739450    0.4623947322
C       -0.7420797206    0.7323628730   -0.2390808250
N        0.3902022456   -0.0468068889   -0.0761402713
H        2.3893782818   -0.5832139138   -0.3292497571
H        0.8234263369   -1.8671161418    0.9763806160
H       -1.7968228075   -1.7338196294    1.7010545258
H       -2.7804060582    0.5262239534    0.5340208395
H       -0.7128878360    1.6355988102   -0.8289469029
C        2.0381733645    1.1514400429   -1.4359310506
H        1.6771667616    2.0347057946   -1.9375715345
13   
Frame   3 IRC: Energy =  -286.8952022461 ; +0.0264 kcal/mol
C        1.6689845561    0.1824870084   -0.6219512499
C        0.0709677674   -1.1325274328    0.7264433403
C       -1.2576642267   -1.0456281682    1.0659157884
C       -1.7710131151    0.1473004033    0.4651483434
C       -0.7407851946    0.7404582709   -0.2270064970
N        0.3917682626   -0.0395014076   -0.0682464932
H        2.3972635044   -0.5566320944   -0.2913375390
H        0.8205816658   -1.8731008917    0.9632738764
H       -1.8017458707   -1.7486083707    1.6809699822
H       -2.7804135350    0.5273778290    0.5408666506
H       -0.7079854929    1.6546260137   -0.7996012327
C        2.0367936362    1.1388939768   -1.4526969861
H        1.6732480423    2.0048548634   -1.9817779834
13   
Frame   4 IRC: Energy =  -286.8951042061 ; +0.0879 kcal/mol
C        1.6774651785    0.1976620526   -0.5975889372
C        0.0698942941   -1.1372614733    0.7143130684
C       -1.2629960269   -1.0570872142    1.0409923383
C       -1.7687165589    0.1502121623    0.4654141293
C       -0.7284285159    0.7637812190   -0.1937244281
N        0.4008613121   -0.0221370393   -0.0420522117
H        2.4244355290   -0.4920764753   -0.2072246363
H        0.8131290142   -1.8895158507    0.9342234402
H       -1.8143291308   -1.7760962542    1.6305123090
H       -2.7770818581    0.5322312913    0.5447118186
H       -0.6832358595    1.6997137283   -0.7289866852
C        2.0221848528    1.1069488677   -1.4890075783
H        1.6268177693    1.9236249860   -2.0715826271
13   
Frame   5 IRC: Energy =  -286.8948084260 ; +0.2735 kcal/mol
C        1.6905913903    0.2260709852   -0.5614676902
C        0.0649188461   -1.1500784856    0.6885086655
C       -1.2696291224   -1.0691994616    1.0127483658
C       -1.7633781140    0.1602201298    0.4763626374
C       -0.7131160005    0.7896378430   -0.1526294707
N        0.4065205831   -0.0139926221   -0.0269277137
H        2.4621428391   -0.3793185231   -0.0874873803
H        0.7986789159   -1.9192994753    0.8798796010
H       -1.8306477998   -1.8063055417    1.5697903182
H       -2.7695823265    0.5460036410    0.5626539606
H       -0.6526644769    1.7441391921   -0.6525597833
C        2.0065526437    1.0695270569   -1.5243730694
H        1.5696126217    1.8025952615   -2.1844984409
13   
Frame   6 IRC: Energy =  -286.8942533938 ; +0.6218 kcal/mol
C        1.7123448876    0.2469610340   -0.5247818716
C        0.0629880668   -1.1594850202    0.6687470463
C       -1.2769685788   -1.0778048525    0.9723442509
C       -1.7539356754    0.1714716953    0.4720344660
C       -0.6857988282    0.8199598065   -0.1037463412
N        0.4280581238    0.0040988998    0.0140276914
H        2.5164259287   -0.2695691391   -0.0023233401
H        0.7865714746   -1.9422005987    0.8446247576
H       -1.8526824897   -1.8293721487    1.4941685954
H       -2.7583215649    0.5621687439    0.5581126746
H       -0.6042247382    1.7936646411   -0.5622125999
C        1.9659266139    1.0205195381   -1.5620505114
H        1.4596167799    1.6595874006   -2.2689448181
13   
Frame   7 IRC: Energy =  -286.8935107664 ; +1.0878 kcal/mol
C        1.7232487655    0.2804791764   -0.4928287385
C        0.0578603489   -1.1709677682    0.6356833346
C       -1.2816783077   -1.0877020600    0.9436448089
C       -1.7503774864    0.1799326878    0.4829726522
C       -0.6750077555    0.8420926449   -0.0632415876
N        0.4317062605    0.0125378257    0.0256359588
H        2.5395882422   -0.1324146540    0.0983741987
H        0.7753046883   -1.9648829177    0.7845459791
H       -1.8630277283   -1.8519943521    1.4400644604
H       -2.7524171077    0.5739594260    0.5798074608
H       -0.5828693820    1.8293355364   -0.4899561940
C        1.9557104104    0.9760192446   -1.5876623273
H        1.4219590516    1.5136052103   -2.3570400061
13   
Frame   8 IRC: Energy =  -286.8924985817 ; +1.7230 kcal/mol
C        1.7379417100    0.3137473062   -0.4602217585
C        0.0552895690   -1.1770704816    0.6050672034
C       -1.2865963842   -1.0971249020    0.9043943810
C       -1.7452558450    0.1888340173    0.4876953790
C       -0.6614268537    0.8669850996   -0.0196273865
N        0.4427436603    0.0303937622    0.0523705295
H        2.5673017952    0.0092605289    0.1766021282
H        0.7681280016   -1.9784950894    0.7350400679
H       -1.8746275233   -1.8740399373    1.3729917797
H       -2.7450287519    0.5863113267    0.5947355425
H       -0.5602818419    1.8693624299   -0.4077152844
C        1.9358618004    0.9189313734   -1.6141653859
H        1.3659506635    1.3429045660   -2.4271671959
13   
Frame   9 IRC: Energy =  -286.8914878420 ; +2.3572 kcal/mol
C        1.7441236787    0.3566261961   -0.4319251309
C        0.0534688381   -1.1774059522    0.5713665165
C       -1.2900937635   -1.1082921403    0.8682421225
C       -1.7446685737    0.1950286436    0.5048790335
C       -0.6597282891    0.8888536267    0.0203481227
N        0.4437667727    0.0496794380    0.0657423352
H        2.5685464648    0.1649842683    0.2534091750
H        0.7662924049   -1.9822643091    0.6770173814
H       -1.8794357519   -1.9012102888    1.3077545188
H       -2.7432180076    0.5912220751    0.6274664965
H       -0.5576522844    1.9036686884   -0.3337858316
C        1.9383034550    0.8580753710   -1.6350317211
H        1.3602950560    1.1610343832   -2.4954830186
13   
Frame  10 IRC: Energy =  -286.8905771233 ; +2.9287 kcal/mol
C        1.7411316747    0.4050052106   -0.4114152124
C        0.0513223781   -1.1748799841    0.5373407077
C       -1.2928808883   -1.1214293616    0.8382933710
C       -1.7480984790    0.1972227954    0.5332641075
C       -0.6695406862    0.9044533145    0.0510278977
N        0.4348447072    0.0664393264    0.0624853746
H        2.5407578816    0.3289514399    0.3241173567
H        0.7674350611   -1.9796361332    0.6153540410
H       -1.8783618356   -1.9304046713    1.2532469157
H       -2.7449488313    0.5895570025    0.6796054129
H       -0.5724665511    1.9278684611   -0.2788187339
C        1.9629688661    0.8020528734   -1.6478316726
H        1.4078367028    0.9847997263   -2.5566695659
13   
Frame  11 IRC: Energy =  -286.8896410744 ; +3.5161 kcal/mol
C        1.7418316087    0.4504659015   -0.3894551168
C        0.0531449363   -1.1675669382    0.4998553455
C       -1.2893157638   -1.1245056497    0.8113221676
C       -1.7490742084    0.1997938803    0.5464511341
C       -0.6722135948    0.9259377406    0.0880679102
N        0.4326684391    0.0898584931    0.0675686237
H        2.5224574826    0.4912249942    0.3691705921
H        0.7719725863   -1.9720296132    0.5520273200
H       -1.8721311552   -1.9480337367    1.2005326327
H       -2.7480402961    0.5837213143    0.7007940571
H       -0.5797918120    1.9598399265   -0.2090304922
C        1.9718004418    0.7307501498   -1.6555864904
H        1.4166913355    0.7805435373   -2.5817176833
13   
Frame  12 IRC: Energy =  -286.8891530356 ; +3.8224 kcal/mol
C        1.7306929446    0.4967459228   -0.3769997463
C        0.0529133678   -1.1605443556    0.4659396347
C       -1.2838328540   -1.1304393178    0.8023272944
C       -1.7529963203    0.1979508981    0.5764203086
C       -0.6893302584    0.9369238955    0.1067677475
N        0.4157669683    0.1043428554    0.0398065142
H        2.4686051816    0.6408525604    0.4109397847
H        0.7767725621   -1.9617951719    0.4873015628
H       -1.8596297492   -1.9673269484    1.1730034463
H       -2.7541155742    0.5702875168    0.7447651629
H       -0.6088884615    1.9751939862   -0.1785507195
C        2.0091448167    0.6796719731   -1.6513902358
H        1.4948973765    0.6181361854   -2.6003307544
13   
Frame  13 IRC: Energy =  -286.8889299897 ; +3.9623 kcal/mol
C        1.7212860187    0.5225286981   -0.3788682441
C        0.0537841099   -1.1535488218    0.4469532219
C       -1.2820312348   -1.1348810524    0.7926671446
C       -1.7587705163    0.1932609241    0.5845620929
C       -0.6986694066    0.9439252617    0.1197371773
N        0.4073982864    0.1181764702    0.0397407440
H        2.4314346137    0.7228160656    0.4225204773
H        0.7832621720   -1.9496618444    0.4580262474
H       -1.8493934912   -1.9790247859    1.1591084283
H       -2.7596702025    0.5604536255    0.7636718313
H       -0.6246309099    1.9864327471   -0.1513597289
C        2.0352846864    0.6479422373   -1.6509519730
H        1.5407158743    0.5215804751   -2.6058074191
13   
Frame  14 IRC: Energy =  -286.8887991332 ; +4.0444 kcal/mol
C        1.7116131705    0.5538002222   -0.3727134742
C        0.0547217337   -1.1468271403    0.4249397822
C       -1.2756898190   -1.1371127940    0.7893800365
C       -1.7601497143    0.1914959341    0.6031358930
C       -0.7111253537    0.9506764331    0.1281803403
N        0.3956684702    0.1289632792    0.0167775340
H        2.3889455707    0.8243618114    0.4360626961
H        0.7876132944   -1.9398285786    0.4161109049
H       -1.8377175162   -1.9890219282    1.1460968227
H       -2.7629142445    0.5495273042    0.7906849084
H       -0.6467988026    1.9950630399   -0.1384252647
C        2.0591867823    0.6106047395   -1.6413844197
H        1.5966464285    0.4082976777   -2.5988457595
13   
Frame  15 IRC: Energy =  -286.8887355093 ; +4.0844 kcal/mol
C        1.7071050455    0.5652386347   -0.3702520769
C        0.0541669226   -1.1445919823    0.4164478594
C       -1.2723444312   -1.1372909048    0.7942705871
C       -1.7607104037    0.1902780433    0.6126645585
C       -0.7169931198    0.9514603525    0.1297716909
N        0.3892110827    0.1309538829    0.0008052154
H        2.3709834808    0.8586652583    0.4419278215
H        0.7872457467   -1.9371248748    0.3964704892
H       -1.8324743185   -1.9918153000    1.1479779189
H       -2.7650533650    0.5438194152    0.8009444217
H       -0.6579420734    1.9952532433   -0.1402084048
C        2.0704781398    0.6004394669   -1.6351610281
H        1.6263272935    0.3747147649   -2.5956590528
13   
Frame  16 IRC: Energy =  -286.8885181076 ; +4.2208 kcal/mol
C        1.6937491570    0.5752573797   -0.3694436593
C        0.0515999633   -1.1469867423    0.4077074220
C       -1.2651619142   -1.1388416955    0.8161316582
C       -1.7614310267    0.1872714844    0.6348316958
C       -0.7326074910    0.9468182467    0.1202875640
N        0.3709302139    0.1252181456   -0.0343967002
H        2.3327293779    0.8849855621    0.4585707317
H        0.7816386013   -1.9415506663    0.3640034552
H       -1.8205288629   -1.9958993455    1.1718398712
H       -2.7677940238    0.5346686590    0.8248695057
H       -0.6877787148    1.9848017305   -0.1742362799
C        2.0977374792    0.6082038534   -1.6194608430
H        1.7069172407    0.3760533882   -2.6007044215
13   
Frame  17 IRC: Energy =  -286.8877967260 ; +4.6735 kcal/mol
C        1.6586700254    0.5844341513   -0.3860093764
C        0.0454476153   -1.1511630053    0.3935163934
C       -1.2589322800   -1.1490915572    0.8381136815
C       -1.7726320449    0.1699367518    0.6490212800
C       -0.7647510978    0.9296880675    0.0960655612
N        0.3300615071    0.1066234613   -0.1120266819
H        2.2328901348    0.9022764228    0.4860096913
H        0.7831138875   -1.9385902335    0.3483376475
H       -1.7907067965   -2.0014189445    1.2382069704
H       -2.7715269272    0.5158806267    0.8765911792
H       -0.7360283889    1.9653725105   -0.2084732971
C        2.1597021702    0.6426594615   -1.5987859865
H        1.8846921950    0.4233922871   -2.6205670626
13   
Frame  18 IRC: Energy =  -286.8869310000 ; +5.2167 kcal/mol
C        1.6302209240    0.5945068998   -0.3860483618
C        0.0318254619   -1.1635544181    0.3520938666
C       -1.2472887645   -1.1532518131    0.8643161397
C       -1.7768700005    0.1572386440    0.6635788618
C       -0.8035158188    0.9034767753    0.0356400492
N        0.2991016090    0.0902074586   -0.1739994967
H        2.1418601147    0.9159801901    0.5227765202
H        0.7738215703   -1.9465511718    0.3018938854
H       -1.7477635764   -1.9911146563    1.3294566090
H       -2.7590238065    0.5100259147    0.9458898948
H       -0.7929571232    1.9330077230   -0.2901209253
C        2.2142910239    0.6781386447   -1.5601379850
H        2.0362983861    0.4718898092   -2.6053390580
13   
Frame  19 IRC: Energy =  -286.8869010000 ; +5.2355 kcal/mol
C        1.6297455257    0.5946532116   -0.3851813668
C        0.0319762218   -1.1634811979    0.3524321689
C       -1.2474167137   -1.1530556665    0.8643487023
C       -1.7768705727    0.1565933179    0.6637038986
C       -0.8036755526    0.9034314311    0.0358818875
N        0.2969139336    0.0891269780   -0.1757604223
H        2.1409898329    0.9161108233    0.5231347355
H        0.7737536317   -1.9467799374    0.3011484675
H       -1.7469414832   -1.9906841070    1.3302351269
H       -2.7583654852    0.5098791801    0.9466189555
H       -0.7935916423    1.9327158365   -0.2910676984
C        2.2153247799    0.6788495483   -1.5595863517
H        2.0381575241    0.4726405820   -2.6059081037
13   
Frame  20 IRC: Energy =  -286.8867480000 ; +5.3315 kcal/mol
C        1.6267528996    0.5955610872   -0.3869876986
C        0.0304527619   -1.1650364268    0.3473031669
C       -1.2450394408   -1.1534543507    0.8689330771
C       -1.7767831364    0.1563042987    0.6663241141
C       -0.8078824657    0.9000190436    0.0281871561
N        0.2956102998    0.0879866627   -0.1817438800
H        2.1289096357    0.9166766021    0.5266844272
H        0.7731839097   -1.9473235064    0.2977380181
H       -1.7428925229   -1.9904626729    1.3394790259
H       -2.7582934039    0.5091791499    0.9524927088
H       -0.7996176348    1.9289314726   -0.2994213034
C        2.2205371098    0.6827355017   -1.5558567334
H        2.0550619880    0.4788831382   -2.6031320787
13   
Frame  21 IRC: Energy =  -286.8867090000 ; +5.3560 kcal/mol
C        1.6259442349    0.5956925176   -0.3863253085
C        0.0310080069   -1.1645347783    0.3454604145
C       -1.2440864456   -1.1535175096    0.8695641251
C       -1.7763194694    0.1566520222    0.6665857704
C       -0.8073091737    0.8992558612    0.0261327011
N        0.2951478249    0.0878595318   -0.1817014673
H        2.1267102356    0.9165265182    0.5265915829
H        0.7727918276   -1.9473206509    0.2973588364
H       -1.7429145792   -1.9912663395    1.3413014707
H       -2.7593558644    0.5092808735    0.9536783130
H       -0.8007265052    1.9281038880   -0.3004442040
C        2.2216501252    0.6835598746   -1.5547140028
H        2.0574597824    0.4797081913   -2.6034882313
13   
Frame  22 IRC: Energy =  -286.8862680000 ; +5.6328 kcal/mol
C        1.6161847956    0.5971343424   -0.3886785730
C        0.0284641081   -1.1678234491    0.3406681556
C       -1.2398516640   -1.1538563810    0.8780842196
C       -1.7765664407    0.1533341881    0.6710414158
C       -0.8176324540    0.8930700200    0.0145936423
N        0.2840930244    0.0803077814   -0.2062890747
H        2.0990341348    0.9186625928    0.5355556512
H        0.7715769280   -1.9496375829    0.2873747693
H       -1.7294116236   -1.9870453050    1.3632400499
H       -2.7541635219    0.5074088091    0.9678437001
H       -0.8159004384    1.9188865374   -0.3229916613
C        2.2341945739    0.6935857864   -1.5437233229
H        2.0999785778    0.4959726604   -2.5967189719
13   
Frame  23 IRC: Energy =  -286.8862310000 ; +5.6560 kcal/mol
C        1.6170805684    0.5978503350   -0.3886538201
C        0.0282324468   -1.1678835891    0.3406008103
C       -1.2402983672   -1.1534107919    0.8787465945
C       -1.7768098959    0.1523819864    0.6715641782
C       -0.8182718044    0.8925786132    0.0140112001
N        0.2826603710    0.0795071110   -0.2078958304
H        2.0970597012    0.9186641938    0.5355170220
H        0.7718192048   -1.9499467715    0.2868685260
H       -1.7283362516   -1.9864454387    1.3644317187
H       -2.7534798273    0.5072333414    0.9684601253
H       -0.8167664710    1.9186074631   -0.3245948237
C        2.2344873075    0.6939141089   -1.5433355642
H        2.1026230176    0.4969494384   -2.5957201367
13   
Frame  24 IRC: Energy =  -286.8860300000 ; +5.7821 kcal/mol
C        1.6111719112    0.5977950334   -0.3894022925
C        0.0274663348   -1.1692126452    0.3367617825
C       -1.2370704453   -1.1540622202    0.8825246610
C       -1.7762579351    0.1523510500    0.6732916826
C       -0.8221250180    0.8895447232    0.0074288723
N        0.2794934171    0.0771058974   -0.2165959158
H        2.0849318718    0.9193918790    0.5395668396
H        0.7707846039   -1.9506116313    0.2827943213
H       -1.7233538061   -1.9856761925    1.3743086854
H       -2.7525951840    0.5067481989    0.9748975129
H       -0.8234028838    1.9140303674   -0.3337635933
C        2.2404839722    0.6986443880   -1.5382959331
H        2.1204731612    0.5039511520   -2.5935166229
13   
Frame  25 IRC: Energy =  -286.8859790000 ; +5.8141 kcal/mol
C        1.6123950486    0.5987653769   -0.3897026151
C        0.0274987159   -1.1688310430    0.3358653336
C       -1.2370993794   -1.1537480088    0.8836156307
C       -1.7764688312    0.1517250418    0.6738347661
C       -0.8223683345    0.8885021943    0.0056723676
N        0.2793713728    0.0767838719   -0.2182977407
H        2.0817113529    0.9192663462    0.5390490492
H        0.7709118039   -1.9508246652    0.2825654820
H       -1.7225963301   -1.9856396476    1.3765356129
H       -2.7529160565    0.5067378431    0.9758330330
H       -0.8247639502    1.9133580541   -0.3359623223
C        2.2401750762    0.6986748203   -1.5379333165
H        2.1241495116    0.5052298161   -2.5910752805
13   
Frame  26 IRC: Energy =  -286.8858060000 ; +5.9227 kcal/mol
C        1.6064036015    0.5982439954   -0.3901202376
C        0.0266348422   -1.1705616629    0.3342496005
C       -1.2348058663   -1.1541039339    0.8862058291
C       -1.7760372066    0.1511306618    0.6750670949
C       -0.8263278410    0.8866900338    0.0018421096
N        0.2745058643    0.0737053517   -0.2266492229
H        2.0725040263    0.9201174763    0.5430616841
H        0.7702147269   -1.9516614643    0.2785883982
H       -1.7174017237   -1.9837878174    1.3840028275
H       -2.7503860580    0.5060726251    0.9810243619
H       -0.8301395522    1.9097485244   -0.3437065493
C        2.2459954042    0.7032179869   -1.5330731838
H        2.1388397826    0.5111882231   -2.5904927123
13   
Frame  27 IRC: Energy =  -286.8857830000 ; +5.9371 kcal/mol
C        1.6052432446    0.5980197387   -0.3894572228
C        0.0265975660   -1.1708560135    0.3341618929
C       -1.2345937144   -1.1542594359    0.8863900946
C       -1.7760551356    0.1511658183    0.6751515366
C       -0.8267273849    0.8866882432    0.0015944169
N        0.2743322584    0.0735471945   -0.2273677735
H        2.0718744014    0.9202108015    0.5434642416
H        0.7701143336   -1.9516777173    0.2782240192
H       -1.7169613284   -1.9836251962    1.3845019757
H       -2.7501172473    0.5059754226    0.9814281990
H       -0.8305482272    1.9094043762   -0.3442331623
C        2.2468730762    0.7036808884   -1.5334647019
H        2.1399681575    0.5117258796   -2.5903935161
13   
Frame  28 IRC: Energy =  -286.8852900000 ; +6.2465 kcal/mol
C        1.5974798078    0.5997271954   -0.3921788336
C        0.0247978611   -1.1731457537    0.3272169580
C       -1.2294854670   -1.1540510780    0.8948505183
C       -1.7753735239    0.1489277299    0.6791707564
C       -0.8350431080    0.8795072331   -0.0121628321
N        0.2653280574    0.0668970380   -0.2475026190
H        2.0443181097    0.9211907596    0.5500733206
H        0.7689611073   -1.9537538966    0.2699861740
H       -1.7048992923   -1.9803012437    1.4057987988
H       -2.7466725311    0.5051745927    0.9943313625
H       -0.8448256685    1.8999523321   -0.3656409257
C        2.2569002126    0.7127756487   -1.5217241108
H        2.1785144348    0.5270994423   -2.5822185675
13   
Frame  29 IRC: Energy =  -286.8852600000 ; +6.2653 kcal/mol
C        1.5966982458    0.5997812694   -0.3916430998
C        0.0246658743   -1.1732940165    0.3268624114
C       -1.2294165101   -1.1540262066    0.8954013396
C       -1.7755046954    0.1486681827    0.6794913290
C       -0.8355634845    0.8790893567   -0.0129070988
N        0.2654166600    0.0667277242   -0.2487803466
H        2.0427301803    0.9212090244    0.5502736712
H        0.7689780978   -1.9538857377    0.2695626093
H       -1.7042226503   -1.9800920452    1.4069116254
H       -2.7464557106    0.5050892073    0.9949633859
H       -0.8455921469    1.8994864352   -0.3668427286
C        2.2576369250    0.7132524970   -1.5218454115
H        2.1806292146    0.5279943094   -2.5814476866
13   
Frame  30 IRC: Energy =  -286.8846570000 ; +6.6437 kcal/mol
C        1.5860235256    0.6007950691   -0.3941558661
C        0.0229423344   -1.1763315293    0.3199799323
C       -1.2230724218   -1.1538670764    0.9041623579
C       -1.7743079479    0.1465960943    0.6831681469
C       -0.8449945843    0.8715180180   -0.0276912980
N        0.2545231773    0.0586678015   -0.2712197255
H        2.0124967942    0.9222733328    0.5576489739
H        0.7675750535   -1.9563399863    0.2605602552
H       -1.6898379760   -1.9755606468    1.4301277806
H       -2.7414475499    0.5045811601    1.0088356360
H       -0.8615379396    1.8885265013   -0.3906917484
C        2.2687995186    0.7236700177   -1.5086668909
H        2.2228380159    0.5454712440   -2.5720575538
13   
Frame  31 IRC: Energy =  -286.8846050000 ; +6.6763 kcal/mol
C        1.5851198596    0.6006226817   -0.3950645427
C        0.0229302258   -1.1771580686    0.3198029508
C       -1.2216890105   -1.1544899612    0.9044387096
C       -1.7739575489    0.1475397057    0.6828419337
C       -0.8459754232    0.8715992927   -0.0285500879
N        0.2532239997    0.0579630911   -0.2721425261
H        2.0110534318    0.9226130852    0.5589420713
H        0.7671093616   -1.9560867686    0.2601065312
H       -1.6890625722   -1.9753386807    1.4315856186
H       -2.7412560575    0.5045719961    1.0097001605
H       -0.8624777751    1.8873593249   -0.3919121915
C        2.2696903009    0.7241471938   -1.5094412076
H        2.2252912079    0.5466571079   -2.5703074200
13   
Frame  32 IRC: Energy =  -286.8843520000 ; +6.8351 kcal/mol
C        1.5807889773    0.6012920650   -0.3946950497
C        0.0221148027   -1.1775738185    0.3166574372
C       -1.2204048846   -1.1535062075    0.9084675859
C       -1.7738559754    0.1452568882    0.6850712635
C       -0.8493421729    0.8676254941   -0.0348411116
N        0.2499858055    0.0549756872   -0.2819208063
H        1.9979067527    0.9226018884    0.5604560901
H        0.7671080727   -1.9576457134    0.2564545646
H       -1.6829218423   -1.9732196914    1.4410778390
H       -2.7389835005    0.5043705074    1.0151943584
H       -0.8691094461    1.8833701672   -0.4021729102
C        2.2738957499    0.7285726512   -1.5025011606
H        2.2428176611    0.5538800823   -2.5672481002
13   
Frame  33 IRC: Energy =  -286.8842800000 ; +6.8802 kcal/mol
C        1.5795921600    0.6011636702   -0.3960701559
C        0.0222316600   -1.1783282554    0.3160112359
C       -1.2185007730   -1.1542074681    0.9090712745
C       -1.7733655025    0.1463703419    0.6847237707
C       -0.8504267564    0.8673058977   -0.0365681563
N        0.2486116589    0.0540814520   -0.2836681611
H        1.9950584317    0.9229372967    0.5618393681
H        0.7664726130   -1.9574250238    0.2557922045
H       -1.6817753098   -1.9730378426    1.4437522353
H       -2.7389896086    0.5044525168    1.0166897940
H       -0.8707789427    1.8815785812   -0.4043921639
C        2.2748555451    0.7293478434   -1.5022958490
H        2.2470148244    0.5557609900   -2.5648853967
13   
Frame  34 IRC: Energy =  -286.8841250000 ; +6.9775 kcal/mol
C        1.5770038367    0.6015870004   -0.3952757732
C        0.0213935311   -1.1787527357    0.3145563242
C       -1.2184904638   -1.1532438343    0.9115106243
C       -1.7735191192    0.1442949466    0.6864200810
C       -0.8527622722    0.8649815400   -0.0397252219
N        0.2462719376    0.0520746669   -0.2896837950
H        1.9876379009    0.9229019755    0.5627434973
H        0.7668065170   -1.9586032610    0.2534400907
H       -1.6777438946   -1.9712616774    1.4487438228
H       -2.7368467695    0.5041982263    1.0196700102
H       -0.8744774429    1.8796612826   -0.4104107654
C        2.2776363940    0.7321596974   -1.4981783728
H        2.2570898448    0.5600021726   -2.5638105222
13   
Frame  35 IRC: Energy =  -286.8839840000 ; +7.0660 kcal/mol
C        1.5747117169    0.6015827726   -0.3969777199
C        0.0213459893   -1.1796166948    0.3127205821
C       -1.2158550171   -1.1538033741    0.9132050939
C       -1.7728522881    0.1451998765    0.6865196909
C       -0.8546651670    0.8634812893   -0.0435700196
N        0.2446460771    0.0506859498   -0.2935189761
H        1.9811483093    0.9231789454    0.5643803469
H        0.7659960753   -1.9586143821    0.2520374322
H       -1.6751739242   -1.9706875501    1.4541010799
H       -2.7365942685    0.5043069533    1.0226051296
H       -0.8779369000    1.8765254765   -0.4152587433
C        2.2793812431    0.7339560563   -1.4960938531
H        2.2658481540    0.5638046813   -2.5601500433
13   
Frame  36 IRC: Energy =  -286.8838540000 ; +7.1476 kcal/mol
C        1.5734790145    0.6021447692   -0.3961410867
C        0.0210797487   -1.1803774239    0.3129278727
C       -1.2162841325   -1.1535249799    0.9148565707
C       -1.7735118210    0.1437069906    0.6876617418
C       -0.8564906181    0.8627812704   -0.0446529335
N        0.2414580109    0.0481513714   -0.3003152472
H        1.9766993342    0.9235704185    0.5665080553
H        0.7671332072   -1.9605052382    0.2499362944
H       -1.6724653033   -1.9698715871    1.4580065815
H       -2.7354687315    0.5045367445    1.0251344139
H       -0.8804834887    1.8764664404   -0.4200811864
C        2.2815334990    0.7360206986   -1.4933279916
H        2.2733212806    0.5669005254   -2.5605130849
13   
Frame  37 IRC: Energy =  -286.8835960000 ; +7.3095 kcal/mol
C        1.5677316361    0.6016525922   -0.3985220046
C        0.0201188928   -1.1807975159    0.3089898539
C       -1.2124131519   -1.1528544106    0.9178578648
C       -1.7717842590    0.1433863082    0.6882942541
C       -0.8598268810    0.8582781607   -0.0519971787
N        0.2395865569    0.0465866201   -0.3041864205
H        1.9634147821    0.9231811733    0.5660753867
H        0.7647803581   -1.9593631665    0.2476427991
H       -1.6662379492   -1.9666027568    1.4663323007
H       -2.7323588001    0.5037076174    1.0293364414
H       -0.8869037990    1.8691222146   -0.4285906251
C        2.2850248000    0.7398119478   -1.4881735873
H        2.2888678142    0.5738912156   -2.5530590844
13   
Frame  38 IRC: Energy =  -286.8828730000 ; +7.7631 kcal/mol
C        1.5575225344    0.6027547656   -0.4001856112
C        0.0187840076   -1.1844531403    0.3031492489
C       -1.2064270547   -1.1525182124    0.9269591517
C       -1.7710607416    0.1414119728    0.6918480673
C       -0.8693803624    0.8507670315   -0.0665985308
N        0.2285772415    0.0372058126   -0.3285463011
H        1.9338754315    0.9242150739    0.5729598531
H        0.7647108891   -1.9633256111    0.2396552501
H       -1.6517481478   -1.9618541347    1.4897737456
H       -2.7278019565    0.5043610442    1.0424780236
H       -0.9028158329    1.8589465207   -0.4531672914
C        2.2945276991    0.7498102927   -1.4758931733
H        2.3312362927    0.5926785844   -2.5424324325
13   