
Running Job 1 of 1 irc_reactant.in
qchem irc_reactant.in_50532.0 ./irc_reactant.d/ 1
/home/leeping/opt/qchem/5.0.2-openmp/exe/qcprog.exe_s irc_reactant.in_50532.0 ./irc_reactant.d/
Check license passed

                  Welcome to Q-Chem
     A Quantum Leap Into The Future Of Chemistry


 Q-Chem 5.0, Q-Chem, Inc., Pleasanton, CA (2017)

 Yihan Shao,  Zhengting Gan,  E. Epifanovsky,  A. T. B. Gilbert,  M. Wormit,  
 J. Kussmann,  A. W. Lange,  A. Behn,  Jia Deng,  Xintian Feng,  D. Ghosh,  
 M. Goldey,  P. R. Horn,  L. D. Jacobson,  I. Kaliman,  T. Kus,  A. Landau,  
 Jie Liu,  E. I. Proynov,  R. M. Richard,  R. P. Steele,  E. J. Sundstrom,  
 H. L. Woodcock III,  P. M. Zimmerman,  D. Zuev,  B. Albrecht,  E. Alguire,  
 S. A. Baeppler,  D. Barton,  Z. Benda,  Y. A. Bernard,  E. J. Berquist,  
 K. B. Bravaya,  H. Burton,  D. Casanova,  Chun-Min Chang,  Yunqing Chen,  
 A. Chien,  K. D. Closser,  M. P. Coons,  S. Dasgupta,  A. L. Dempwolff,  
 M. Diedenhofen,  Hainam Do,  R. G. Edgar,  Po-Tung Fang,  S. Fatehi,  
 Qingguo Feng,  J. Fosso-Tande,  Qinghui Ge,  A. Ghysels,  G. Gidofalvi,  
 J. Gomes,  J. Gonthier,  A. Gunina,  M. W. D. Hanson-Heine,  
 P. H. P. Harbach,  A. W. Hauser,  J. E. Herr,  E. G. Hohenstein,  
 Z. C. Holden,  Kerwin Hui,  T.-C. Jagau,  Hyunjun Ji,  B. Kaduk,  
 K. Khistyaev,  Jaehoon Kim,  P. Klunzinger,  K. Koh,  D. Kosenkov,  
 L. Koulias,  T. Kowalczyk,  C. M. Krauter,  A. Kunitsa,  Ka Un Lao,  
 A. Laurent,  K. V. Lawler,  Joonho Lee,  D. Lefrancois,  S. Lehtola,  
 D. S. Levine,  Yi-Pei Li,  You-Sheng Lin,  Fenglai Liu,  E. Livshits,  
 A. Luenser,  P. Manohar,  E. Mansoor,  S. F. Manzer,  Shan-Ping Mao,  
 Yuezhi Mao,  N. Mardirossian,  A. V. Marenich,  T. Markovich,  
 L. A. Martinez-Martinez,  S. A. Maurer,  N. J. Mayhall,  S. C. McKenzie,  
 J.-M. Mewes,  A. F. Morrison,  J. W. Mullinax,  K. Nanda,  
 T. S. Nguyen-Beck,  R. Olivares-Amaya,  J. A. Parkhill,  T. M. Perrine,  
 F. Plasser,  S. Prager,  A. Prociuk,  E. Ramos,  D. R. Rehn,  F. Rob,  
 M. Schneider,  N. Sergueev,  S. M. Sharada,  S. Sharma,  D. W. Small,  
 T. Stauch,  T. Stein,  Yu-Chuan Su,  A. J. W. Thom,  A. Tkatchenko,  
 T. Tsuchimochi,  L. Vogt,  O. Vydrov,  M. A. Watson,  J. Wenzel,  
 M. de Wergifosse,  T. A. Wesolowski,  A. White,  J. Witte,  A. Yamada,  
 Jun Yang,  K. Yao,  S. Yeganeh,  S. R. Yost,  Zhi-Qiang You,  A. Zech,  
 Igor Ying Zhang,  Xing Zhang,  Yan Zhao,  Ying Zhu,  B. R. Brooks,  
 G. K. L. Chan,  C. J. Cramer,  M. S. Gordon,  W. J. Hehre,  A. Klamt,  
 M. W. Schmidt,  C. D. Sherrill,  D. G. Truhlar,  A. Aspuru-Guzik,  R. Baer,  
 A. T. Bell,  N. A. Besley,  Jeng-Da Chai,  R. A. DiStasio Jr.,  A. Dreuw,  
 B. D. Dunietz,  T. R. Furlani,  Chao-Ping Hsu,  Yousung Jung,  Jing Kong,  
 D. S. Lambrecht,  WanZhen Liang,  C. Ochsenfeld,  V. A. Rassolov,  
 L. V. Slipchenko,  J. E. Subotnik,  T. Van Voorhis,  J. M. Herbert,  
 A. I. Krylov,  P. M. W. Gill,  M. Head-Gordon

 Contributors to earlier versions of Q-Chem not listed above: 
 R. D. Adamson,  B. Austin,  J. Baker,  G. J. O. Beran,  K. Brandhorst,  
 S. T. Brown,  E. F. C. Byrd,  A. K. Chakraborty,  C.-L. Cheng,  
 Siu Hung Chien,  D. M. Chipman,  D. L. Crittenden,  H. Dachsel,  
 R. J. Doerksen,  A. D. Dutoi,  L. Fusti-Molnar,  W. A. Goddard III,  
 A. Golubeva-Zadorozhnaya,  S. R. Gwaltney,  G. Hawkins,  A. Heyden,  
 S. Hirata,  G. Kedziora,  F. J. Keil,  C. Kelley,  Jihan Kim,  R. A. King,  
 R. Z. Khaliullin,  P. P. Korambath,  W. Kurlancheek,  A. M. Lee,  M. S. Lee,  
 S. V. Levchenko,  Ching Yeh Lin,  D. Liotard,  R. C. Lochan,  I. Lotan,  
 P. E. Maslen,  N. Nair,  D. P. O'Neill,  D. Neuhauser,  E. Neuscamman,  
 C. M. Oana,  R. Olson,  B. Peters,  R. Peverati,  P. A. Pieniazek,  
 Y. M. Rhee,  J. Ritchie,  M. A. Rohrdanz,  E. Rosta,  N. J. Russ,  
 H. F. Schaefer III,  N. E. Schultz,  N. Shenvi,  A. C. Simmonett,  A. Sodt,  
 D. Stuck,  K. S. Thanthiriwatte,  V. Vanovschi,  Tao Wang,  A. Warshel,  
 C. F. Williams,  Q. Wu,  X. Xu,  W. Zhang

 Please cite Q-Chem as follows:
 Y. Shao et al., Mol. Phys. 113, 184-215 (2015)
 DOI: 10.1080/00268976.2014.952696

 Q-Chem 5.0.2 for Intel X86 EM64T Linux

 Parts of Q-Chem use Armadillo 5.200.1 (Boston Tea Smuggler).
 http://arma.sourceforge.net/

 Q-Chem begins on Wed Mar  2 11:34:50 2022  

Host: 
0

     Scratch files written to ./irc_reactant.d//
 Dec517 15110_ 26548  26544 5633   
Processing $rem in /home/leeping/opt/qchem/5.0.2-openmp/config/preferences.
 MEM_STATIC 2000
 MEM_TOTAL  8000
 SYMMETRY   OFF
 SYM_IGNORE TRUE 

Checking the input file for inconsistencies... 	...done.

--------------------------------------------------------------
User input:
--------------------------------------------------------------
$molecule
0 2
C        1.6670035813    0.1680809530   -0.6383855582
C        0.0729444216   -1.1302822646    0.7307753285
C       -1.2523213940   -1.0321219540    1.0826775744
C       -1.7695968865    0.1476088470    0.4618863918
C       -0.7426568644    0.7281526013   -0.2464450435
N        0.3883101959   -0.0525371459   -0.0841127908
H        2.3845399130   -0.5986604941   -0.3498900400
H        0.8247019537   -1.8641464098    0.9816296278
H       -1.7927911590   -1.7242593069    1.7129517347
H       -2.7803065930    0.5253991712    0.5302703858
H       -0.7164922720    1.6231826450   -0.8487616877
C        2.0404484667    1.1590767698   -1.4237870040
H        1.6762166367    2.0505065885   -1.9088089188
$end

$rem
method                b3lyp
basis                 6-31+g(d,p)
unrestricted          true
symmetry              off
sym_ignore            true
incdft                false
incfock               0
scf_convergence       6
thresh                14
jobtype               sp
scf_guess             read
scf_algorithm         diis
max_scf_cycles        100
stability_analysis    true
max_cis_cycles        100
cis_n_roots           4
$end

--------------------------------------------------------------
 ----------------------------------------------------------------
             Standard Nuclear Orientation (Angstroms)
    I     Atom           X                Y                Z
 ----------------------------------------------------------------
    1      C       1.6670035813     0.1680809530    -0.6383855582
    2      C       0.0729444216    -1.1302822646     0.7307753285
    3      C      -1.2523213940    -1.0321219540     1.0826775744
    4      C      -1.7695968865     0.1476088470     0.4618863918
    5      C      -0.7426568644     0.7281526013    -0.2464450435
    6      N       0.3883101959    -0.0525371459    -0.0841127908
    7      H       2.3845399130    -0.5986604941    -0.3498900400
    8      H       0.8247019537    -1.8641464098     0.9816296278
    9      H      -1.7927911590    -1.7242593069     1.7129517347
   10      H      -2.7803065930     0.5253991712     0.5302703858
   11      H      -0.7164922720     1.6231826450    -0.8487616877
   12      C       2.0404484667     1.1590767698    -1.4237870040
   13      H       1.6762166367     2.0505065885    -1.9088089188
 ----------------------------------------------------------------
 Nuclear Repulsion Energy =   262.4314126546 hartrees
 There are       25 alpha and       24 beta electrons
 Requested basis set is 6-31+G(d,p)
 There are 53 shells and 163 basis functions

 Total QAlloc Memory Limit   8000 MB
 Mega-Array Size      1956 MB
 MEM_STATIC part      2000 MB

                       Distance Matrix (Angstroms)
             C (  1)   C (  2)   C (  3)   C (  4)   C (  5)   N (  6)
   C (  2)  2.470096
   C (  3)  3.595136  1.374700
   C (  4)  3.608496  2.258377  1.429937
   C (  5)  2.504748  2.252542  2.263822  1.375998
   N (  6)  1.411009  1.387455  2.238897  2.234891  1.383804
   H (  7)  1.089027  2.606517  3.932798  4.297994  3.398602  2.086581
   H (  8)  2.732008  1.080104  2.239755  3.323805  3.268761  2.146666
   H (  9)  4.591287  2.190536  1.080929  2.251576  3.310037  3.283489
   H ( 10)  4.612158  3.304924  2.250725  1.081173  2.190071  3.278965
   H ( 11)  2.800470  3.271042  3.326892  2.236995  1.079143  2.147862
   C ( 12)  1.318480  3.708689  4.682526  4.369814  3.052459  2.447917
   H ( 13)  2.271032  4.433430  5.198839  4.595089  3.219165  3.067737
             H (  7)   H (  8)   H (  9)   H ( 10)   H ( 11)   C ( 12)
   H (  8)  2.409874
   H (  9)  4.792951  2.721336
   H ( 10)  5.358529  4.348533  2.726699
   H ( 11)  3.847319  4.229312  4.350421  2.714072
   C ( 12)  2.088371  4.050179  5.731185  5.240188  2.854255
   H ( 13)  3.154368  4.940063  6.276944  5.304306  2.651672  1.078220

 
 A cutoff of  1.0D-14 yielded   1355 shell pairs
 There are     13242 function pairs
 Smallest overlap matrix eigenvalue = 1.29E-05

 Scale SEOQF with 1.000000e-01/1.000000e-01/1.000000e-01

 Standard Electronic Orientation quadrupole field applied
 Nucleus-field energy     =     0.0000000024 hartrees
 Guess MOs from SCF MO coefficient file
 Reading MOs from coefficient file
 Reading MOs from coefficient file
 An unrestricted hybrid HF-DFT SCF calculation will be
 performed using Pulay DIIS extrapolation
 Exchange:     0.2000 Hartree-Fock + 0.0800 Slater + 0.7200 B88
 Correlation:  0.1900 VWN1RPA + 0.8100 LYP
 Using SG-1 standard quadrature grid
 SCF converges when DIIS error is below 1.0E-06
Using Q-Chem read-in guess as SCF_GUESS READ specified.

 -------------------------------------------------------
 OpenMP BLAS3 based DFT computing Module                
 -------------------------------------------------------
 ---------------------------------------
  Cycle       Energy         DIIS Error
 ---------------------------------------
    1    -286.8952443538      1.12E-09
    2    -286.8952443538      1.07E-09 Convergence criterion met
 ---------------------------------------
 <S^2> = 0.7615
 SCF time:  CPU 6.49 s  wall 20.11 s
 SCF   energy in the final basis set = -286.89524435
 Total energy in the final basis set = -286.89524435
 
 Direct TDDFT/TDA calculation will be performed
 Exchange:     0.2000 Hartree-Fock + 0.0800 Slater + 0.7200 B88
 Correlation:  0.1900 VWN1RPA + 0.8100 LYP
 Using SG-1 standard quadrature grid
 CIS energy converged when residual is below 10e- 6
 ---------------------------------------------------
 Iter    Rts Conv    Rts Left    Ttl Dev     Max Dev
 ---------------------------------------------------
   1         0           4      0.003010    0.001841
   2         0           4      0.001422    0.000856
   3         0           4      0.000813    0.000659
   4         0           4      0.000313    0.000257
   5         1           3      0.000152    0.000131
   6         2           2      0.000072    0.000065
   7         2           2      0.000027    0.000025
   8         3           1      0.000009    0.000008
   9         3           1      0.000003    0.000002
  10         4           0      0.000001    0.000001    Roots Converged
 ---------------------------------------------------
 
 ---------------------------------------------------
         TDDFT/TDA Excitation Energies              
 ---------------------------------------------------

 Excited state   1: excitation energy (eV) =    1.9079
 Total energy for state  1:                  -286.82512931 au
    <S**2>     :  0.7713
    Trans. Mom.: -0.0289 X  -0.0643 Y  -0.0980 Z
    Strength   :     0.0006815747
    D( 22) --> S(  1) amplitude = -0.2417 beta
    D( 23) --> S(  1) amplitude =  0.9157 beta
    D( 24) --> S(  1) amplitude =  0.3015 beta

 Excited state   2: excitation energy (eV) =    2.5668
 Total energy for state  2:                  -286.80091529 au
    <S**2>     :  0.7978
    Trans. Mom.:  0.0032 X   0.0023 Y   0.0006 Z
    Strength   :     0.0000010248
    D( 23) --> S(  1) amplitude = -0.3101 beta
    D( 24) --> S(  1) amplitude =  0.9500 beta

 Excited state   3: excitation energy (eV) =    3.7192
 Total energy for state  3:                  -286.75856790 au
    <S**2>     :  2.7424
    Trans. Mom.: -0.0000 X  -0.0255 Y   0.0173 Z
    Strength   :     0.0000865833
    S(  1) --> V(  1) amplitude =  0.7098 alpha
    D( 24) --> V(  1) amplitude = -0.6111 beta

 Excited state   4: excitation energy (eV) =    3.8535
 Total energy for state  4:                  -286.75363039 au
    <S**2>     :  2.7342
    Trans. Mom.:  0.0426 X   0.0237 Y  -0.0295 Z
    Strength   :     0.0003065167
    D( 22) --> V(  1) amplitude =  0.1566 alpha
    D( 24) --> V(  1) amplitude = -0.6520 alpha
    D( 23) --> V(  1) amplitude =  0.6824 beta
 
 ---------------------------------------------------

 Stability analysis will be performed
 ---------------------------------------------------
 Iter    Rts Conv    Rts Left    Ttl Dev     Max Dev
 ---------------------------------------------------
   1         0           8      0.003325    0.000572
   2         0           8      0.001124    0.000367
   3         1           7      0.000655    0.000212
   4         2           6      0.000223    0.000074
   5         2           6      0.000097    0.000045
   6         5           3      0.000032    0.000017
   7         5           3      0.000015    0.000006
   8         7           1      0.000006    0.000002
   9         8           0      0.000005    0.000001    Roots Converged
 UKS-> UKS   stable,    smallest eigenvalue:      0.0625794
 UKS->CUKS   stable,    smallest eigenvalue:      0.0740178
 ---------------------------------------------------
  SETman timing summary (seconds)
  CPU time               162.34s
  System time              0.00s
  Wall time              243.50s
 
 --------------------------------------------------------------
 
                    Orbital Energies (a.u.)
 --------------------------------------------------------------
 
 Alpha MOs
 -- Occupied --
-14.408 -10.253 -10.227 -10.220 -10.217 -10.186 -10.185  -1.002
 -0.830  -0.749  -0.734  -0.629  -0.585  -0.557  -0.543  -0.469
 -0.447  -0.437  -0.426  -0.397  -0.387  -0.317  -0.265  -0.239
 -0.226
 -- Virtual --
 -0.030   0.009   0.014   0.026   0.029   0.038   0.049   0.056
  0.058   0.064   0.071   0.087   0.089   0.095   0.105   0.115
  0.126   0.139   0.141   0.142   0.153   0.174   0.176   0.192
  0.208   0.209   0.213   0.219   0.235   0.237   0.238   0.245
  0.267   0.269   0.271   0.283   0.295   0.309   0.323   0.340
  0.403   0.441   0.455   0.526   0.630   0.666   0.672   0.694
  0.700   0.710   0.715   0.718   0.739   0.750   0.768   0.818
  0.823   0.875   0.886   0.895   0.906   0.931   0.951   0.963
  0.978   1.022   1.046   1.090   1.141   1.165   1.187   1.215
  1.227   1.230   1.260   1.304   1.336   1.377   1.400   1.429
  1.466   1.520   1.544   1.575   1.586   1.688   1.781   1.831
  1.859   1.912   1.919   1.939   1.967   2.014   2.029   2.058
  2.099   2.143   2.144   2.174   2.232   2.278   2.331   2.347
  2.392   2.412   2.427   2.469   2.482   2.507   2.515   2.555
  2.557   2.644   2.652   2.681   2.750   2.757   2.768   2.804
  2.885   2.909   3.011   3.108   3.257   3.263   3.319   3.377
  3.586   3.712   3.806   4.144   4.348   4.364   4.440   4.512
  4.737   4.778
 
 Beta MOs
 -- Occupied --
-14.406 -10.255 -10.220 -10.217 -10.212 -10.187 -10.185  -1.000
 -0.824  -0.738  -0.730  -0.616  -0.582  -0.555  -0.534  -0.462
 -0.443  -0.437  -0.423  -0.395  -0.387  -0.313  -0.231  -0.226
 -- Virtual --
 -0.103  -0.024   0.010   0.016   0.027   0.031   0.038   0.052
  0.056   0.058   0.063   0.071   0.090   0.095   0.096   0.105
  0.116   0.128   0.139   0.143   0.143   0.158   0.175   0.178
  0.194   0.208   0.211   0.215   0.220   0.238   0.238   0.239
  0.247   0.268   0.269   0.274   0.285   0.296   0.310   0.327
  0.342   0.411   0.447   0.456   0.536   0.635   0.669   0.683
  0.694   0.704   0.715   0.720   0.740   0.748   0.749   0.768
  0.821   0.835   0.880   0.887   0.897   0.907   0.934   0.954
  0.963   0.980   1.029   1.060   1.093   1.142   1.167   1.188
  1.215   1.230   1.230   1.266   1.306   1.336   1.379   1.401
  1.430   1.470   1.523   1.546   1.595   1.626   1.734   1.790
  1.844   1.866   1.919   1.919   1.941   1.969   2.014   2.033
  2.070   2.107   2.144   2.145   2.175   2.236   2.279   2.337
  2.354   2.393   2.412   2.430   2.473   2.485   2.508   2.515
  2.558   2.558   2.648   2.653   2.695   2.752   2.759   2.776
  2.812   2.886   2.913   3.012   3.112   3.257   3.266   3.323
  3.383   3.596   3.720   3.807   4.148   4.354   4.367   4.459
  4.516   4.742   4.778
 --------------------------------------------------------------
 
          Ground-State Mulliken Net Atomic Charges

     Atom                 Charge (a.u.)    Spin (a.u.)
  --------------------------------------------------------
      1 C                    -0.038988      -0.139054
      2 C                    -0.213779       0.021809
      3 C                    -0.076163      -0.020932
      4 C                    -0.144001       0.034346
      5 C                    -0.202117      -0.036550
      6 N                     0.016511       0.036900
      7 H                     0.142291       0.038474
      8 H                     0.133544       0.000254
      9 H                     0.126532       0.001709
     10 H                     0.126113       0.001011
     11 H                     0.134446      -0.000292
     12 C                    -0.158064       1.063345
     13 H                     0.153674      -0.001022
  --------------------------------------------------------
  Sum of atomic charges =     0.000000
  Sum of spin   charges =     1.000000

 -----------------------------------------------------------------
                    Cartesian Multipole Moments
 -----------------------------------------------------------------
    Charge (ESU x 10^10)
                 0.0000
    Dipole Moment (Debye)
         X       0.3201      Y       0.0884      Z      -0.1592
       Tot       0.3683
    Quadrupole Moments (Debye-Ang)
        XX     -41.2901     XY      -2.6653     YY     -39.0151
        XZ      -0.0471     YZ      -4.5439     ZZ     -44.0360
    Octopole Moments (Debye-Ang^2)
       XXX     -17.8548    XXY      -5.7977    XYY      -0.2867
       YYY       2.7127    XXZ       8.2583    XYZ       0.5573
       YYZ      -2.1060    XZZ      -4.7152    YZZ       1.5471
       ZZZ       2.0249
    Hexadecapole Moments (Debye-Ang^3)
      XXXX    -542.7278   XXXY     -78.6390   XXYY    -130.1950
      XYYY     -53.6085   YYYY    -236.4696   XXXZ     115.9186
      XXYZ      22.2860   XYYZ      30.8955   YYYZ      58.8297
      XXZZ    -138.3150   XYZZ      -9.3351   YYZZ     -64.8480
      XZZZ     119.7540   YZZZ      72.2555   ZZZZ    -252.1993
 -----------------------------------------------------------------
Archival summary:
1\1\c8-73\SP\ProcedureUnspecified\6-31+G**\166(2)\hpark21\WedMar211:39:202022WedMar211:39:202022\0\\#,ProcedureUnspecified,6-31+G**,\\0,2\N\C,1,1.3838\H,2,1.07914,1,120.902\C,2,1.376,1,108.153,3,179.995,0\H,4,1.08117,2,125.649,1,179.939,0\C,1,1.38746,2,108.745,3,179.99,0\H,6,1.0801,1,120.396,2,-179.988,0\C,6,1.3747,1,108.301,2,0.00434396,0\H,8,1.08093,6,125.843,1,-179.969,0\C,1,1.41101,2,127.327,3,-0.2262,0\H,10,1.08903,1,112.516,2,179.818,0\C,10,1.31848,1,127.459,2,-0.171327,0\H,12,1.07822,10,142.532,1,-0.0514165,0\\\@

 Total job time:  270.42s(wall), 169.07s(cpu) 
 Wed Mar  2 11:39:20 2022

        *************************************************************
        *                                                           *
        *  Thank you very much for using Q-Chem.  Have a nice day.  *
        *                                                           *
        *************************************************************


