13   
Frame   0 IRC: Energy =  -286.8952443538 ; +0.0000 kcal/mol
C        1.6670035813    0.1680809530   -0.6383855582
C        0.0729444216   -1.1302822646    0.7307753285
C       -1.2523213940   -1.0321219540    1.0826775744
C       -1.7695968865    0.1476088470    0.4618863918
C       -0.7426568644    0.7281526013   -0.2464450435
N        0.3883101959   -0.0525371459   -0.0841127908
H        2.3845399130   -0.5986604941   -0.3498900400
H        0.8247019537   -1.8641464098    0.9816296278
H       -1.7927911590   -1.7242593069    1.7129517347
H       -2.7803065930    0.5253991712    0.5302703858
H       -0.7164922720    1.6231826450   -0.8487616877
C        2.0404484667    1.1590767698   -1.4237870040
H        1.6762166367    2.0505065885   -1.9088089188
13   
Frame   1 IRC: Energy =  -286.8951867588 ; +0.0361 kcal/mol
C        1.6703242353    0.1848842016   -0.6181027490
C        0.0707981914   -1.1332752666    0.7245271281
C       -1.2585064882   -1.0474383473    1.0619786449
C       -1.7706503294    0.1477603722    0.4651903294
C       -0.7388332169    0.7441425840   -0.2217489472
N        0.3932046866   -0.0367583681   -0.0641085971
H        2.4015558540   -0.5464342793   -0.2780502707
H        0.8194043746   -1.8756939536    0.9586847952
H       -1.8037336412   -1.7529506163    1.6729992117
H       -2.7798872319    0.5281445277    0.5414740696
H       -0.7040758071    1.6617484948   -0.7884462920
C        2.0344858949    1.1338476257   -1.4584329501
H        1.6659134780    1.9920230250   -1.9959643728
13   
Frame   2 IRC: Energy =  -286.8951051767 ; +0.0873 kcal/mol
C        1.6773812233    0.1975118249   -0.5978301156
C        0.0699049211   -1.1372146080    0.7144331539
C       -1.2629432439   -1.0569737737    1.0412390717
C       -1.7687392940    0.1501833369    0.4654114982
C       -0.7285508427    0.7635503300   -0.1940539090
N        0.4007712940   -0.0223089405   -0.0423115260
H        2.4241665354   -0.4927155534   -0.2080573247
H        0.8132027929   -1.8893533484    0.9345110294
H       -1.8142045610   -1.7758241337    1.6310118223
H       -2.7771148405    0.5321832437    0.5446737528
H       -0.6834808722    1.6992673757   -0.7296857445
C        2.0223294747    1.1072651131   -1.4886481161
H        1.6272774128    1.9244291335   -2.0706935925
13   
Frame   3 IRC: Energy =  -286.8949234012 ; +0.2014 kcal/mol
C        1.6854889870    0.2150279033   -0.5755086925
C        0.0668528955   -1.1450962739    0.6985393181
C       -1.2670507145   -1.0644912052    1.0237273246
C       -1.7654532671    0.1563298462    0.4721067481
C       -0.7190682608    0.7795868911   -0.1686038470
N        0.4043207189   -0.0171585089   -0.0328068881
H        2.4474853045   -0.4231496418   -0.1340314845
H        0.8042959386   -1.9077220251    0.9010040646
H       -1.8243044288   -1.7945626283    1.5933940883
H       -2.7724975343    0.5406500718    0.5556795155
H       -0.6645481434    1.7268701859   -0.6822683452
C        2.0126291749    1.0840736126   -1.5106258435
H        1.5918493293    1.8496417723   -2.1406059585
13   
Frame   4 IRC: Energy =  -286.8946893742 ; +0.3483 kcal/mol
C        1.6952574145    0.2305518037   -0.5535987524
C        0.0645047029   -1.1520961436    0.6842698899
C       -1.2712034017   -1.0710452780    1.0040818707
C       -1.7613527547    0.1626335384    0.4754342647
C       -0.7072565939    0.7961417634   -0.1421442664
N        0.4111402856   -0.0101120746   -0.0181429694
H        2.4737863098   -0.3557777897   -0.0692200890
H        0.7960819260   -1.9242116600    0.8723176007
H       -1.8353741385   -1.8112532218    1.5535698097
H       -2.7671669454    0.5494709805    0.5616798759
H       -0.6422743778    1.7547621710   -0.6331807319
C        1.9978385489    1.0590151716   -1.5324547058
H        1.5460190243    1.7719207392   -2.2026117968
13   
Frame   5 IRC: Energy =  -286.8943690473 ; +0.5493 kcal/mol
C        1.7078120552    0.2426081205   -0.5324261903
C        0.0633903883   -1.1575249563    0.6728648259
C       -1.2754392373   -1.0760117249    0.9807633607
C       -1.7559032207    0.1691271775    0.4729363383
C       -0.6914909780    0.8136415406   -0.1139322451
N        0.4235702908    0.0003291226    0.0054937079
H        2.5051148211   -0.2924379017   -0.0200691911
H        0.7890943334   -1.9374286324    0.8519709004
H       -1.8480910645   -1.8245657002    1.5099260891
H       -2.7606679989    0.5588003796    0.5590589541
H       -0.6143182517    1.7833448953   -0.5810384759
C        1.9743919647    1.0307313614   -1.5541995655
H        1.4825368976    1.6893863180   -2.2513485083
13   
Frame   6 IRC: Energy =  -286.8939556937 ; +0.8086 kcal/mol
C        1.7167159706    0.2603975913   -0.5119726860
C        0.0609324972   -1.1640881572    0.6554926584
C       -1.2788565875   -1.0817723873    0.9608393860
C       -1.7525092893    0.1748634886    0.4764193023
C       -0.6814729659    0.8288322896   -0.0875090319
N        0.4295205675    0.0074818472    0.0186811459
H        2.5257111018   -0.2145874493    0.0380437018
H        0.7820549111   -1.9512933544    0.8205407274
H       -1.8568296286   -1.8384408056    1.4724796454
H       -2.7559546205    0.5668953237    0.5668095539
H       -0.5956639276    1.8079641815   -0.5332468734
C        1.9618312019    1.0026805200   -1.5723176267
H        1.4445207695    1.6010669118   -2.3042599031
13   
Frame   7 IRC: Energy =  -286.8934835998 ; +1.1049 kcal/mol
C        1.7236431175    0.2813720780   -0.4919535818
C        0.0577913503   -1.1711315623    0.6348616114
C       -1.2818103067   -1.0879549648    0.9425913451
C       -1.7502400238    0.1801715955    0.4830994081
C       -0.6746432502    0.8427607472   -0.0620710021
N        0.4320024994    0.0130170710    0.0263535026
H        2.5403320615   -0.1286121558    0.1004738012
H        0.7751120693   -1.9652482623    0.7832172627
H       -1.8633390615   -1.8525860457    1.4382642598
H       -2.7522188076    0.5742909455    0.5802081238
H       -0.5822631425    1.8304098403   -0.4877488850
C        1.9551776826    0.9744870318   -1.5883736574
H        1.4204558117    1.5090236817   -2.3589221884
13   
Frame   8 IRC: Energy =  -286.8928806465 ; +1.4832 kcal/mol
C        1.7323956305    0.3011897352   -0.4725297683
C        0.0562599497   -1.1747669179    0.6166237365
C       -1.2847399800   -1.0935681043    0.9192100631
C       -1.7471890879    0.1854740726    0.4859127126
C       -0.6665531755    0.8575890569   -0.0360902424
N        0.4385774227    0.0236537623    0.0422791515
H        2.5568408852   -0.0442169639    0.1470737842
H        0.7708369532   -1.9733569643    0.7537268411
H       -1.8702490009   -1.8657184896    1.3983094023
H       -2.7478176013    0.5816489104    0.5891007068
H       -0.5688078588    1.8542536588   -0.4387583900
C        1.9433539658    0.9404800748   -1.6041613958
H        1.3870918973    1.4073381690   -2.4006966016
13   
Frame   9 IRC: Energy =  -286.8922793653 ; +1.8606 kcal/mol
C        1.7392824992    0.3230471838   -0.4540845853
C        0.0548946760   -1.1771432409    0.5977579595
C       -1.2873549206   -1.0995469318    0.8965534229
C       -1.7451284735    0.1901775518    0.4914222918
C       -0.6610584570    0.8717281007   -0.0109572147
N        0.4429655602    0.0345765762    0.0552707015
H        2.5675717479    0.0430349973    0.1932605849
H        0.7677298844   -1.9793125844    0.7224556964
H       -1.8756703660   -1.8799328357    1.3588426602
H       -2.7446360248    0.5873764047    0.6018344638
H       -0.5597115248    1.8768030144   -0.3916809407
C        1.9363913637    0.9057324922   -1.6186910245
H        1.3647240352    1.3034592717   -2.4419840158
13   
Frame  10 IRC: Energy =  -286.8916809764 ; +2.2361 kcal/mol
C        1.7429424145    0.3484328035   -0.4373321127
C        0.0538167474   -1.1773418497    0.5778061178
C       -1.2894254765   -1.1061582799    0.8751501756
C       -1.7447807908    0.1938449608    0.5015955430
C       -0.6600528546    0.8846749404    0.0127095145
N        0.4435712741    0.0459942887    0.0631872211
H        2.5683086306    0.1352282337    0.2387327156
H        0.7666431547   -1.9815440783    0.6881044840
H       -1.8785169850   -1.8960185183    1.3202201981
H       -2.7435640086    0.5902837185    0.6212121939
H       -0.5581547460    1.8971133731   -0.3479124341
C        1.9378368983    0.8697038697   -1.6310445359
H        1.3613757419    1.1957865377   -2.4824290810
13   
Frame  11 IRC: Energy =  -286.8911177356 ; +2.5895 kcal/mol
C        1.7429077601    0.3762869122   -0.4235901185
C        0.0525965396   -1.1763794257    0.5575387903
C       -1.2912264213   -1.1136309671    0.8560712690
C       -1.7460624507    0.1959203235    0.5164144252
C       -0.6637159428    0.8951931736    0.0328160564
N        0.4401409403    0.0564904781    0.0644187411
H        2.5572534806    0.2316187800    0.2821442268
H        0.7667567682   -1.9811962464    0.6519580568
H       -1.8789993238   -1.9130745748    1.2856032096
H       -2.7439213959    0.5905454073    0.6486551967
H       -0.5636726446    1.9135032182   -0.3114477887
C        1.9483272153    0.8353084248   -1.6402334850
H        1.3796154748    1.0894144961   -2.5203485796
13   
Frame  12 IRC: Energy =  -286.8905711443 ; +2.9325 kcal/mol
C        1.7411361455    0.4052955915   -0.4112749420
C        0.0513340197   -1.1748332719    0.5371012693
C       -1.2928581160   -1.1214490114    0.8381210920
C       -1.7481047115    0.1972392182    0.5333483399
C       -0.6695577595    0.9045905466    0.0512644914
N        0.4348308062    0.0665889168    0.0625178440
H        2.5406409875    0.3299879649    0.3244051350
H        0.7674640446   -1.9795875464    0.6149495406
H       -1.8783220370   -1.9305172772    1.2529102024
H       -2.7449685781    0.5895197269    0.6797407557
H       -0.5725133413    1.9280726794   -0.2783729604
C        1.9630252779    0.8015974261   -1.6478812066
H        1.4078932619    0.9834950365   -2.5568295612
13   
Frame  13 IRC: Energy =  -286.8900152285 ; +3.2813 kcal/mol
C        1.7415518336    0.4322945189   -0.3982329267
C        0.0524164299   -1.1704900824    0.5148388586
C       -1.2907408024   -1.1232760070    0.8221029993
C       -1.7486841934    0.1987661756    0.5411800636
C       -0.6711451895    0.9173500637    0.0732624106
N        0.4335383291    0.0804974687    0.0655367658
H        2.5297724517    0.4263615972    0.3511620761
H        0.7701588632   -1.9750700638    0.5773400474
H       -1.8746216602   -1.9409871106    1.2216033948
H       -2.7468045870    0.5860539344    0.6923246090
H       -0.5768637853    1.9470604083   -0.2369259953
C        1.9682703164    0.7592510161   -1.6524867628
H        1.4131519938    0.8621880808   -2.5717055406
13   
Frame  14 IRC: Energy =  -286.8895347163 ; +3.5829 kcal/mol
C        1.7394041648    0.4605516851   -0.3867407237
C        0.0530944707   -1.1660365100    0.4924641103
C       -1.2881208758   -1.1257987713    0.8093619190
C       -1.7499289524    0.1993922400    0.5529823024
C       -0.6759438214    0.9283319483    0.0921431571
N        0.4289851094    0.0930150635    0.0615184400
H        2.5107214755    0.5238332605    0.3782733329
H        0.7730186428   -1.9697992262    0.5379216656
H       -1.8694067295   -1.9522382974    1.1945332098
H       -2.7493642786    0.5807936930    0.7103766599
H       -0.5861328314    1.9631860297   -0.2023880495
C        1.9799388841    0.7196187064   -1.6546720026
H        1.4337347419    0.7451501782   -2.5857740213
13   
Frame  15 IRC: Energy =  -286.8892094216 ; +3.7870 kcal/mol
C        1.7319798601    0.4913989191   -0.3784387887
C        0.0529401223   -1.1613557159    0.4698581167
C       -1.2844663269   -1.1297537661    0.8033665251
C       -1.7525431756    0.1981638287    0.5729577932
C       -0.6873526694    0.9356546002    0.1046072451
N        0.4177196949    0.1026693917    0.0430140343
H        2.4748270554    0.6235652057    0.4061139437
H        0.7762179926   -1.9629776173    0.4947797111
H       -1.8610741103   -1.9650978899    1.1761840555
H       -2.7534136615    0.5718396026    0.7396849218
H       -0.6055267541    1.9734200412   -0.1820722274
C        2.0048302009    0.6855733360   -1.6518750539
H        1.4858617716    0.6369000641   -2.5981802766
13   
Frame  16 IRC: Energy =  -286.8889368753 ; +3.9580 kcal/mol
C        1.7215764190    0.5217327605   -0.3788105619
C        0.0537572293   -1.1537647803    0.4475393496
C       -1.2820868524   -1.1347439320    0.7929653622
C       -1.7585922617    0.1934057078    0.5843107487
C       -0.6983810987    0.9437091231    0.1193367993
N        0.4076566352    0.1177494140    0.0397427743
H        2.4325821028    0.7202857779    0.4221629709
H        0.7830618318   -1.9500364113    0.4589300029
H       -1.8497094938   -1.9786636630    1.1595373801
H       -2.7594987261    0.5607572066    0.7630881653
H       -0.6241449262    1.9860857964   -0.1521991394
C        2.0344777249    0.6489217630   -1.6509655026
H        1.5393014157    0.5245612373   -2.6056383495
13   
Frame  17 IRC: Energy =  -286.8888034673 ; +4.0417 kcal/mol
C        1.7119335453    0.5527644766   -0.3729173266
C        0.0546906786   -1.1470497694    0.4256688902
C       -1.2758998533   -1.1370388764    0.7894889089
C       -1.7601040338    0.1915543924    0.6025207094
C       -0.7107127998    0.9504528272    0.1279006939
N        0.3960569740    0.1286060088    0.0175380994
H        2.3903528522    0.8209985103    0.4356141637
H        0.7874691807   -1.9401542666    0.4174991848
H       -1.8381042366   -1.9886908124    1.1465277806
H       -2.7628067985    0.5498891954    0.7897902071
H       -0.6460645789    1.9947771956   -0.1388536676
C        2.0583951199    0.6118413964   -1.6417013070
H        1.5947939501    0.4120497221   -2.5990763369
13   
Frame  18 IRC: Energy =  -286.8885487616 ; +4.2016 kcal/mol
C        1.6956323624    0.5738447178   -0.3695576477
C        0.0519619094   -1.1466490766    0.4089398401
C       -1.2661746626   -1.1386230311    0.8130492061
C       -1.7613294175    0.1876954149    0.6317060878
C       -0.7304058353    0.9474727924    0.1216248437
N        0.3735078507    0.1260268953   -0.0294331640
H        2.3381232782    0.8812743498    0.4562240502
H        0.7824292193   -1.9409266214    0.3685813680
H       -1.8222131945   -1.9953234874    1.1684752911
H       -2.7674075858    0.5359589328    0.8214960239
H       -0.6835716924    1.9862754134   -0.1694382856
C        2.0938938612    0.6071090603   -1.6216745986
H        1.6955539069    0.3758646398   -2.5999930151
13   
Frame  19 IRC: Energy =  -286.8880575514 ; +4.5098 kcal/mol
C        1.6713533667    0.5811161636   -0.3800198141
C        0.0476720812   -1.1496530201    0.3986473545
C       -1.2611846897   -1.1453855791    0.8301657793
C       -1.7685821631    0.1762043622    0.6438908411
C       -0.7531291357    0.9358817188    0.1048233586
N        0.3448381488    0.1133466246   -0.0839584969
H        2.2689883830    0.8960246748    0.4760887590
H        0.7825804775   -1.9396606186    0.3540018352
H       -1.8014893737   -1.9994232578    1.2142110351
H       -2.7701772447    0.5226736975    0.8578904985
H       -0.7185830572    1.9723974116   -0.1960944338
C        2.1372979860    0.6302015636   -1.6062612645
H        1.8204152211    0.4062762587   -2.6133854522
13   
Frame  20 IRC: Energy =  -286.8875161177 ; +4.8495 kcal/mol
C        1.6494488023    0.5876990369   -0.3860220127
C        0.0410322591   -1.1551794408    0.3800900867
C       -1.2551582608   -1.1504400232    0.8466066988
C       -1.7740056958    0.1658209071    0.6537398371
C       -0.7773159284    0.9211921867    0.0764798063
N        0.3200264581    0.1013025332   -0.1321139649
H        2.2033845237    0.9067182325    0.4979269441
H        0.7801019636   -1.9411706169    0.3332838050
H       -1.7767875866   -1.9980790098    1.2677837666
H       -2.7674742837    0.5139829356    0.8990530105
H       -0.7544807313    1.9548820939   -0.2349377883
C        2.1773960858    0.6541593489   -1.5862589883
H        1.9338323941    0.4391118160   -2.6156312009
13   
Frame  21 IRC: Energy =  -286.8869421562 ; +5.2097 kcal/mol
C        1.6305875350    0.5943770967   -0.3860478594
C        0.0320010046   -1.1633947355    0.3526276604
C       -1.2474388093   -1.1531982017    0.8639784802
C       -1.7768153879    0.1574022789    0.6633912647
C       -0.8030162749    0.9038145486    0.0364187261
N        0.2995005756    0.0904190043   -0.1732008805
H        2.1430331783    0.9158035957    0.5223027224
H        0.7739413163   -1.9464485827    0.3024923856
H       -1.7483169667   -1.9912474432    1.3282807152
H       -2.7591849287    0.5101013618    0.9449968729
H       -0.7922235078    1.9334247937   -0.2890687684
C        2.2135875615    0.6776814401   -1.5606360247
H        2.0343447041    0.4712648431   -2.6055352945
13   
Frame  22 IRC: Energy =  -286.8858652629 ; +5.8855 kcal/mol
C        1.6084560312    0.5984225998   -0.3899771769
C        0.0269307707   -1.1699688219    0.3348030859
C       -1.2355915320   -1.1539820082    0.8853185309
C       -1.7761850639    0.1513342726    0.6746449484
C       -0.8249714727    0.8873108074    0.0031542025
N        0.2761725926    0.0747599294   -0.2237883397
H        2.0756580875    0.9198259132    0.5416871162
H        0.7704535176   -1.9513748105    0.2799507878
H       -1.7191811877   -1.9844221802    1.3814448590
H       -2.7512527341    0.5063005021    0.9792460206
H       -0.8282980864    1.9109850047   -0.3410536874
C        2.2440015930    0.7016616800   -1.5347380705
H        2.1338074843    0.5091471116   -2.5906922768
13   
Frame  23 IRC: Energy =  -286.8845031578 ; +6.7402 kcal/mol
C        1.5833765137    0.6008921341   -0.3949158076
C        0.0226019868   -1.1773254239    0.3185367612
C       -1.2211721007   -1.1540939627    0.9060604865
C       -1.7739166617    0.1466207843    0.6837393243
C       -0.8473306688    0.8699996867   -0.0310824657
N        0.2519205026    0.0567605467   -0.2760786582
H        2.0057613903    0.9226085780    0.5595515218
H        0.7671088428   -1.9567143035    0.2586364749
H       -1.6865906934   -1.9744857064    1.4354066006
H       -2.7403412663    0.5044908891    1.0119117854
H       -0.8651472765    1.8857535362   -0.3960425235
C        2.2713831551    0.7259286098   -1.5066475730
H        2.2323462762    0.5495646316   -2.5690759267
13   
Frame  24 IRC: Energy =  -286.8829162233 ; +7.7360 kcal/mol
C        1.5581328676    0.6026888741   -0.4000861554
C        0.0188638114   -1.1842345952    0.3034984193
C       -1.2067849231   -1.1525383114    0.9264150472
C       -1.7711039958    0.1415300050    0.6916356088
C       -0.8688092243    0.8512160712   -0.0657256145
N        0.2292354142    0.0377666278   -0.3270899883
H        1.9356413899    0.9241532639    0.5725482773
H        0.7647150422   -1.9630887232    0.2401327718
H       -1.6526143952   -1.9621380228    1.4883723399
H       -2.7280743794    0.5043219802    1.0416923771
H       -0.9018645597    1.8595548568   -0.4516980184
C        2.2939595849    0.7492125592   -1.4766273363
H        2.3287033673    0.5915554144   -2.5430677283
13   
Frame  25 IRC: Energy =  -286.8810233398 ; +8.9238 kcal/mol
C        1.5316323072    0.6033113350   -0.4082698792
C        0.0156713490   -1.1912452842    0.2906110461
C       -1.1912365020   -1.1499954416    0.9468728709
C       -1.7677151527    0.1368219020    0.6980821393
C       -0.8904358141    0.8308467790   -0.1005908719
N        0.2056250337    0.0169002159   -0.3749060929
H        1.8658952932    0.9256344658    0.5794989905
H        0.7617152894   -1.9700620562    0.2251881257
H       -1.6173116127   -1.9471690883    1.5414303603
H       -2.7152096758    0.5048774884    1.0687241563
H       -0.9404016009    1.8301554539   -0.5081862496
C        2.3127006822    0.7717886476   -1.4472944643
H        2.4290704034    0.6381355826   -2.5111601311
13   
Frame  26 IRC: Energy =  -286.8788427983 ; +10.2921 kcal/mol
C        1.5046322521    0.6026172178   -0.4198861326
C        0.0122677540   -1.1989791902    0.2826866779
C       -1.1756249807   -1.1468582620    0.9689600624
C       -1.7650047364    0.1329504721    0.7045847329
C       -0.9131978210    0.8098522262   -0.1327707776
N        0.1849798510   -0.0037387599   -0.4173527772
H        1.8025829646    0.9288684030    0.5786114274
H        0.7558011111   -1.9793027025    0.2128135767
H       -1.5833374846   -1.9304370219    1.5934397216
H       -2.7039796473    0.5051301674    1.0920086681
H       -0.9825824057    1.7967194099   -0.5660811536
C        2.3272232263    0.7925336384   -1.4230466591
H        2.5362399167    0.6906444017   -2.4739673668
13   
Frame  27 IRC: Energy =  -286.8763469859 ; +11.8583 kcal/mol
C        1.4826283587    0.6022736171   -0.4340283854
C        0.0094447371   -1.2053811228    0.2800990828
C       -1.1609577639   -1.1415802717    0.9932218893
C       -1.7622407425    0.1299770490    0.7129649227
C       -0.9341173916    0.7892283451   -0.1601019327
N        0.1666584440   -0.0231413763   -0.4499729613
H        1.7540348295    0.9359306913    0.5705562165
H        0.7421410184   -1.9950023574    0.1988889345
H       -1.5536146999   -1.9126207450    1.6427538521
H       -2.6955485994    0.5049072000    1.1117337731
H       -1.0316423772    1.7582930964   -0.6272597261
C        2.3367145571    0.8096159430   -1.4053920760
H        2.6464996296    0.7474999313   -2.4334635894
13   
Frame  28 IRC: Energy =  -286.8731834127 ; +13.8435 kcal/mol
C        1.4816162528    0.6073769262   -0.4526806838
C        0.0047461834   -1.2106045516    0.2821275767
C       -1.1528831066   -1.1361991778    1.0141419571
C       -1.7624125948    0.1265861499    0.7206290172
C       -0.9522645996    0.7712866863   -0.1791452252
N        0.1618170500   -0.0338720663   -0.4690708205
H        1.7394538326    0.9506038604    0.5532611162
H        0.7021231360   -2.0294195417    0.1856064790
H       -1.5366921768   -1.8899005528    1.6899075743
H       -2.6894427379    0.5012450729    1.1357219711
H       -1.1032153611    1.7139970957   -0.6835291334
C        2.3660216747    0.8325522456   -1.3942339310
H        2.7411324473    0.7963478534   -2.4027358976
13   
Frame  29 IRC: Energy =  -286.8644884714 ; +19.2996 kcal/mol
C        1.5560387677    0.6457860658   -0.4542818774
C       -0.0259844111   -1.2251783942    0.2646213504
C       -1.1618588518   -1.1416589924    1.0371545850
C       -1.7741401841    0.1252776043    0.7470633607
C       -0.9806427327    0.7497982626   -0.1880123243
N        0.1399030609   -0.0527115663   -0.5115691997
H        1.7378804728    0.9574415493    0.5898673805
H        0.6704178422   -2.0436850665    0.1685340459
H       -1.5430848317   -1.8984024285    1.7201091056
H       -2.7023059702    0.5030187243    1.1716227659
H       -1.1346569699    1.6940967175   -0.6866103465
C        2.4315181902    0.8665563885   -1.4146243125
H        2.7869156178    0.8196611356   -2.4438745336
13   
Frame  30 IRC: Energy =  -286.8455328993 ; +31.1944 kcal/mol
C        1.6749524385    0.7058094052   -0.4408481297
C       -0.0486904706   -1.2375376603    0.2579267895
C       -1.1682334797   -1.1450318257    1.0536183667
C       -1.7810276681    0.1271572162    0.7680254754
C       -1.0016714380    0.7409621008   -0.1864345130
N        0.0672567569   -0.0951169181   -0.5530298467
H        1.7319154293    0.9555151763    0.6198324092
H        0.6582295779   -2.0474275255    0.1564197295
H       -1.5467279219   -1.9054232061    1.7308206699
H       -2.7071491020    0.5062036347    1.1908054803
H       -1.1409771771    1.6901903095   -0.6819202451
C        2.4601272734    0.8764110816   -1.4463386757
H        2.8019957815    0.8282882113   -2.4688775104
13   
Frame  31 IRC: Energy =  -286.8316484321 ; +39.9071 kcal/mol
C        1.8046589405    0.7712150971   -0.4226625908
C       -0.0647972791   -1.2462644690    0.2545507423
C       -1.1705615657   -1.1487230892    1.0661900872
C       -1.7858722173    0.1321523917    0.7821107617
C       -1.0165928174    0.7354274157   -0.1850465299
N       -0.0123518194   -0.1396865072   -0.5875902150
H        1.7211873499    0.9493421315    0.6338641921
H        0.6496796906   -2.0500489108    0.1483938320
H       -1.5489358231   -1.9092460536    1.7389377218
H       -2.7098388226    0.5098650796    1.2038255399
H       -1.1446319220    1.6875917868   -0.6798081371
C        2.4687506603    0.8764685405   -1.4697248689
H        2.8093056254    0.8319065869   -2.4830405354
13   
Frame  32 IRC: Energy =  -286.8312068097 ; +40.1842 kcal/mol (Transition State)
C        1.9366583993    0.8389121966   -0.3964102410
C       -0.0851310855   -1.2575440026    0.2470125476
C       -1.1727799311   -1.1531356731    1.0791227881
C       -1.7915136412    0.1384988636    0.7956735242
C       -1.0356371347    0.7268105035   -0.1882548538
N       -0.0826251669   -0.1799234064   -0.6224708603
H        1.7146471503    0.9438192300    0.6413525028
H        0.6377101419   -2.0542498628    0.1392340215
H       -1.5510340403   -1.9123497561    1.7510721103
H       -2.7127749718    0.5156696196    1.2199493164
H       -1.1508557170    1.6828239121   -0.6797980771
C        2.4783031596    0.8773402092   -1.4874066781
H        2.8150328376    0.8333281663   -2.4990761006
13   
Frame  33 IRC: Energy =  -286.8340522809 ; +38.3986 kcal/mol
C        2.0566514582    0.9003750922   -0.3710248130
C       -0.1106779067   -1.2708918147    0.2308289624
C       -1.1787796035   -1.1547589468    1.0922381853
C       -1.8014385666    0.1443693921    0.8069403497
C       -1.0654210464    0.7111018515   -0.1979368657
N       -0.1367484528   -0.2187600019   -0.6532671635
H        1.7318075235    0.9496443424    0.6447323820
H        0.6136537064   -2.0659332220    0.1247269835
H       -1.5512636497   -1.9104055785    1.7729558341
H       -2.7130108364    0.5273062858    1.2462198370
H       -1.1669305716    1.6703578125   -0.6864416146
C        2.5020769492    0.8853357169   -1.4974339081
H        2.8200809962    0.8322590705   -2.5125381691
13   
Frame  34 IRC: Energy =  -286.8412685166 ; +33.8704 kcal/mol
C        2.1147580614    0.9366679053   -0.3582019396
C       -0.1141297507   -1.2520147155    0.1824632963
C       -1.2188033319   -1.1137708117    1.1212265544
C       -1.8310554045    0.1182598031    0.8317440038
C       -1.0944506365    0.6625926769   -0.2198809487
N       -0.1168011509   -0.2582036659   -0.6720027493
H        1.7577596239    0.9657067219    0.6418164060
H        0.5908423957   -2.0816084620    0.1082230757
H       -1.5545380024   -1.9001533402    1.7844318454
H       -2.7152785227    0.5417418623    1.2771750311
H       -1.1759548965    1.6468866435   -0.6876437380
C        2.5287858929    0.9010556711   -1.4917985509
H        2.8288657222    0.8328397113   -2.5175522861
13   
Frame  35 IRC: Energy =  -286.8488226550 ; +29.1301 kcal/mol
C        2.1821477362    0.9682034340   -0.3534311618
C       -0.1742185360   -1.2623234172    0.1523562907
C       -1.2553841396   -1.1231645862    1.1308135805
C       -1.8389004023    0.0832445157    0.8613756473
C       -1.0840947698    0.6240004703   -0.2585760417
N       -0.1327710103   -0.2293183293   -0.6953851631
H        1.7882348810    0.9745381532    0.6370491710
H        0.5542994214   -2.0684535913    0.0916047400
H       -1.5602402897   -1.8894621202    1.8272024524
H       -2.7072275630    0.5442356129    1.3122987745
H       -1.1803376566    1.6175141748   -0.6869568432
C        2.5731888388    0.9231033315   -1.4950338628
H        2.8353034899    0.8378823517   -2.5233175838
13   
Frame  36 IRC: Energy =  -286.8528431221 ; +26.6072 kcal/mol
C        2.2574585260    1.0002457071   -0.3525642599
C       -0.2225198637   -1.2852655724    0.1358387003
C       -1.2842319899   -1.1389185662    1.1317100886
C       -1.8547422072    0.0732820922    0.8712866460
C       -1.1100688834    0.6072465045   -0.2706492296
N       -0.1727630592   -0.2423303536   -0.7127032334
H        1.8500173313    1.0015581913    0.6339223754
H        0.5130800212   -2.0831573497    0.0740385486
H       -1.5571309622   -1.8720177582    1.8762256608
H       -2.6962921994    0.5486092184    1.3567016652
H       -1.2121479047    1.5965594999   -0.7085458664
C        2.6270114576    0.9457617371   -1.5005098116
H        2.8623297335    0.8484266496   -2.5347512837
13   
Frame  37 IRC: Energy =  -286.8556808391 ; +24.8265 kcal/mol
C        2.3135894567    1.0238989919   -0.3583596135
C       -0.2571385933   -1.3031651230    0.1289121791
C       -1.2979597206   -1.1425943607    1.1431086529
C       -1.8672981914    0.0712218827    0.8826022507
C       -1.1451931293    0.5924278665   -0.2765237755
N       -0.2116516581   -0.2658996184   -0.7252866115
H        1.9286760612    1.0385529965    0.6352387110
H        0.4615209331   -2.1135934164    0.0530739087
H       -1.5535117500   -1.8590603672    1.9116970241
H       -2.6871712051    0.5576162087    1.3930750481
H       -1.2620911654    1.5708538618   -0.7326500658
C        2.6706181741    0.9626906393   -1.5104073613
H        2.9076107882    0.8670504385   -2.5444803468
13   
Frame  38 IRC: Energy =  -286.8578175163 ; +23.4857 kcal/mol
C        2.3678725852    1.0473305583   -0.3659657282
C       -0.2916769374   -1.3206351966    0.1233935341
C       -1.3088478385   -1.1436900012    1.1587844262
C       -1.8772690996    0.0703188543    0.8981609940
C       -1.1785701105    0.5751628374   -0.2826591221
N       -0.2530372669   -0.2887059195   -0.7386303301
H        2.0069328722    1.0759720356    0.6366160456
H        0.4079484642   -2.1456741143    0.0317576553
H       -1.5487539607   -1.8476899029    1.9440120978
H       -2.6798013152    0.5678127831    1.4256147640
H       -1.3154929153    1.5421952880   -0.7566601458
C        2.7136474255    0.9799704063   -1.5205181189
H        2.9570480970    0.8876323716   -2.5539060718
13   