
Running Job 1 of 1 irc_product.in
qchem irc_product.in_50981.0 ./irc_product.d/ 1
/home/leeping/opt/qchem/5.0.2-openmp/exe/qcprog.exe_s irc_product.in_50981.0 ./irc_product.d/
Check license passed

                  Welcome to Q-Chem
     A Quantum Leap Into The Future Of Chemistry


 Q-Chem 5.0, Q-Chem, Inc., Pleasanton, CA (2017)

 Yihan Shao,  Zhengting Gan,  E. Epifanovsky,  A. T. B. Gilbert,  M. Wormit,  
 J. Kussmann,  A. W. Lange,  A. Behn,  Jia Deng,  Xintian Feng,  D. Ghosh,  
 M. Goldey,  P. R. Horn,  L. D. Jacobson,  I. Kaliman,  T. Kus,  A. Landau,  
 Jie Liu,  E. I. Proynov,  R. M. Richard,  R. P. Steele,  E. J. Sundstrom,  
 H. L. Woodcock III,  P. M. Zimmerman,  D. Zuev,  B. Albrecht,  E. Alguire,  
 S. A. Baeppler,  D. Barton,  Z. Benda,  Y. A. Bernard,  E. J. Berquist,  
 K. B. Bravaya,  H. Burton,  D. Casanova,  Chun-Min Chang,  Yunqing Chen,  
 A. Chien,  K. D. Closser,  M. P. Coons,  S. Dasgupta,  A. L. Dempwolff,  
 M. Diedenhofen,  Hainam Do,  R. G. Edgar,  Po-Tung Fang,  S. Fatehi,  
 Qingguo Feng,  J. Fosso-Tande,  Qinghui Ge,  A. Ghysels,  G. Gidofalvi,  
 J. Gomes,  J. Gonthier,  A. Gunina,  M. W. D. Hanson-Heine,  
 P. H. P. Harbach,  A. W. Hauser,  J. E. Herr,  E. G. Hohenstein,  
 Z. C. Holden,  Kerwin Hui,  T.-C. Jagau,  Hyunjun Ji,  B. Kaduk,  
 K. Khistyaev,  Jaehoon Kim,  P. Klunzinger,  K. Koh,  D. Kosenkov,  
 L. Koulias,  T. Kowalczyk,  C. M. Krauter,  A. Kunitsa,  Ka Un Lao,  
 A. Laurent,  K. V. Lawler,  Joonho Lee,  D. Lefrancois,  S. Lehtola,  
 D. S. Levine,  Yi-Pei Li,  You-Sheng Lin,  Fenglai Liu,  E. Livshits,  
 A. Luenser,  P. Manohar,  E. Mansoor,  S. F. Manzer,  Shan-Ping Mao,  
 Yuezhi Mao,  N. Mardirossian,  A. V. Marenich,  T. Markovich,  
 L. A. Martinez-Martinez,  S. A. Maurer,  N. J. Mayhall,  S. C. McKenzie,  
 J.-M. Mewes,  A. F. Morrison,  J. W. Mullinax,  K. Nanda,  
 T. S. Nguyen-Beck,  R. Olivares-Amaya,  J. A. Parkhill,  T. M. Perrine,  
 F. Plasser,  S. Prager,  A. Prociuk,  E. Ramos,  D. R. Rehn,  F. Rob,  
 M. Schneider,  N. Sergueev,  S. M. Sharada,  S. Sharma,  D. W. Small,  
 T. Stauch,  T. Stein,  Yu-Chuan Su,  A. J. W. Thom,  A. Tkatchenko,  
 T. Tsuchimochi,  L. Vogt,  O. Vydrov,  M. A. Watson,  J. Wenzel,  
 M. de Wergifosse,  T. A. Wesolowski,  A. White,  J. Witte,  A. Yamada,  
 Jun Yang,  K. Yao,  S. Yeganeh,  S. R. Yost,  Zhi-Qiang You,  A. Zech,  
 Igor Ying Zhang,  Xing Zhang,  Yan Zhao,  Ying Zhu,  B. R. Brooks,  
 G. K. L. Chan,  C. J. Cramer,  M. S. Gordon,  W. J. Hehre,  A. Klamt,  
 M. W. Schmidt,  C. D. Sherrill,  D. G. Truhlar,  A. Aspuru-Guzik,  R. Baer,  
 A. T. Bell,  N. A. Besley,  Jeng-Da Chai,  R. A. DiStasio Jr.,  A. Dreuw,  
 B. D. Dunietz,  T. R. Furlani,  Chao-Ping Hsu,  Yousung Jung,  Jing Kong,  
 D. S. Lambrecht,  WanZhen Liang,  C. Ochsenfeld,  V. A. Rassolov,  
 L. V. Slipchenko,  J. E. Subotnik,  T. Van Voorhis,  J. M. Herbert,  
 A. I. Krylov,  P. M. W. Gill,  M. Head-Gordon

 Contributors to earlier versions of Q-Chem not listed above: 
 R. D. Adamson,  B. Austin,  J. Baker,  G. J. O. Beran,  K. Brandhorst,  
 S. T. Brown,  E. F. C. Byrd,  A. K. Chakraborty,  C.-L. Cheng,  
 Siu Hung Chien,  D. M. Chipman,  D. L. Crittenden,  H. Dachsel,  
 R. J. Doerksen,  A. D. Dutoi,  L. Fusti-Molnar,  W. A. Goddard III,  
 A. Golubeva-Zadorozhnaya,  S. R. Gwaltney,  G. Hawkins,  A. Heyden,  
 S. Hirata,  G. Kedziora,  F. J. Keil,  C. Kelley,  Jihan Kim,  R. A. King,  
 R. Z. Khaliullin,  P. P. Korambath,  W. Kurlancheek,  A. M. Lee,  M. S. Lee,  
 S. V. Levchenko,  Ching Yeh Lin,  D. Liotard,  R. C. Lochan,  I. Lotan,  
 P. E. Maslen,  N. Nair,  D. P. O'Neill,  D. Neuhauser,  E. Neuscamman,  
 C. M. Oana,  R. Olson,  B. Peters,  R. Peverati,  P. A. Pieniazek,  
 Y. M. Rhee,  J. Ritchie,  M. A. Rohrdanz,  E. Rosta,  N. J. Russ,  
 H. F. Schaefer III,  N. E. Schultz,  N. Shenvi,  A. C. Simmonett,  A. Sodt,  
 D. Stuck,  K. S. Thanthiriwatte,  V. Vanovschi,  Tao Wang,  A. Warshel,  
 C. F. Williams,  Q. Wu,  X. Xu,  W. Zhang

 Please cite Q-Chem as follows:
 Y. Shao et al., Mol. Phys. 113, 184-215 (2015)
 DOI: 10.1080/00268976.2014.952696

 Q-Chem 5.0.2 for Intel X86 EM64T Linux

 Parts of Q-Chem use Armadillo 5.200.1 (Boston Tea Smuggler).
 http://arma.sourceforge.net/

 Q-Chem begins on Wed Mar  2 11:42:58 2022  

Host: 
0

     Scratch files written to ./irc_product.d//
 Dec517 15110_ 26548  26544 5633   
Processing $rem in /home/leeping/opt/qchem/5.0.2-openmp/config/preferences.
 MEM_STATIC 2000
 MEM_TOTAL  8000
 SYMMETRY   OFF
 SYM_IGNORE TRUE 

Checking the input file for inconsistencies... 	...done.

--------------------------------------------------------------
User input:
--------------------------------------------------------------
$molecule
0 2
C        2.5636731014    0.9837525550   -1.4626770075
C       -0.3002502833   -1.1703393763    0.8551944122
C       -1.6458419785   -1.2888227764    1.4067695627
C       -2.3381652478   -0.2261914172    0.9007435852
C       -1.3836107387    0.4913787832    0.0615206148
N       -0.1693516175   -0.0949747082    0.0515078083
H        1.6738818986    0.6226978552   -0.9749848267
H        0.5361101716   -1.8372951414    1.0360792719
H       -1.9962936392   -2.0633939495    2.0755478301
H       -3.3713419866    0.0474641618    1.0690258356
H       -1.5719337150    1.3937110091   -0.5108408481
C        3.5616313030    1.3907552131   -2.0124775136
H        4.4414927320    1.7512577916   -2.4954087250
$end

$rem
method                b3lyp
basis                 6-31+g(d,p)
unrestricted          true
symmetry              off
sym_ignore            true
incdft                false
incfock               0
scf_convergence       6
thresh                14
jobtype               sp
scf_guess             read
scf_algorithm         diis
max_scf_cycles        100
stability_analysis    true
max_cis_cycles        100
cis_n_roots           4
$end

--------------------------------------------------------------
 ----------------------------------------------------------------
             Standard Nuclear Orientation (Angstroms)
    I     Atom           X                Y                Z
 ----------------------------------------------------------------
    1      C       2.5636731014     0.9837525550    -1.4626770075
    2      C      -0.3002502833    -1.1703393763     0.8551944122
    3      C      -1.6458419785    -1.2888227764     1.4067695627
    4      C      -2.3381652478    -0.2261914172     0.9007435852
    5      C      -1.3836107387     0.4913787832     0.0615206148
    6      N      -0.1693516175    -0.0949747082     0.0515078083
    7      H       1.6738818986     0.6226978552    -0.9749848267
    8      H       0.5361101716    -1.8372951414     1.0360792719
    9      H      -1.9962936392    -2.0633939495     2.0755478301
   10      H      -3.3713419866     0.0474641618     1.0690258356
   11      H      -1.5719337150     1.3937110091    -0.5108408481
   12      C       3.5616313030     1.3907552131    -2.0124775136
   13      H       4.4414927320     1.7512577916    -2.4954087250
 ----------------------------------------------------------------
 Nuclear Repulsion Energy =   228.0144410223 hartrees
 There are       25 alpha and       24 beta electrons
 Requested basis set is 6-31+G(d,p)
 There are 53 shells and 163 basis functions

 Total QAlloc Memory Limit   8000 MB
 Mega-Array Size      1956 MB
 MEM_STATIC part      2000 MB

                       Distance Matrix (Angstroms)
             C (  1)   C (  2)   C (  3)   C (  4)   C (  5)   N (  6)
   C (  2)  4.267868
   C (  3)  5.578381  1.459072
   C (  4)  5.574741  2.246461  1.365489
   C (  5)  4.259890  2.136562  2.246681  1.459581
   N (  6)  3.305425  1.348872  2.332816  2.332846  1.348457
   H (  7)  1.077002  3.234461  4.510791  4.509489  3.231076  2.228509
   H (  8)  4.279381  1.084918  2.280164  3.297792  3.171406  2.121966
   H (  9)  6.526671  2.272305  1.081684  2.207341  3.310370  3.362905
   H ( 10)  6.520012  3.310645  2.208412  1.081971  2.272268  3.362793
   H ( 11)  4.263485  3.171370  3.298284  2.281176  1.085019  2.121240
   C ( 12)  1.209898  5.449484  6.781531  6.775616  5.437441  4.515270
   H ( 13)  2.276358  6.499723  7.843770  7.836320  6.485138  5.581688
             H (  7)   H (  8)   H (  9)   H ( 10)   H ( 11)   C ( 12)
   H (  8)  3.374977
   H (  9)  5.476406  2.746759
   H ( 10)  5.473861  4.338385  2.712852
   H ( 11)  3.368265  4.156466  4.338325  2.747040
   C ( 12)  2.286898  5.372875  7.715804  7.704947  5.348683
   H ( 13)  3.353357  6.371902  8.768712  8.754912  6.342527  1.066462

 
 A cutoff of  1.0D-14 yielded   1248 shell pairs
 There are     12178 function pairs
 Smallest overlap matrix eigenvalue = 1.68E-05

 Scale SEOQF with 1.000000e-01/1.000000e-01/1.000000e-01

 Standard Electronic Orientation quadrupole field applied
 Nucleus-field energy     =     0.0000000036 hartrees
 Guess MOs from SCF MO coefficient file
 Reading MOs from coefficient file
 Reading MOs from coefficient file
 An unrestricted hybrid HF-DFT SCF calculation will be
 performed using Pulay DIIS extrapolation
 Exchange:     0.2000 Hartree-Fock + 0.0800 Slater + 0.7200 B88
 Correlation:  0.1900 VWN1RPA + 0.8100 LYP
 Using SG-1 standard quadrature grid
 SCF converges when DIIS error is below 1.0E-06
Using Q-Chem read-in guess as SCF_GUESS READ specified.

 -------------------------------------------------------
 OpenMP BLAS3 based DFT computing Module                
 -------------------------------------------------------
 ---------------------------------------
  Cycle       Energy         DIIS Error
 ---------------------------------------
    1    -286.8705906283      1.13E-09
    2    -286.8705906283      1.48E-09 Convergence criterion met
 ---------------------------------------
 <S^2> = 0.7647
 SCF time:  CPU 5.52 s  wall 10.85 s
 SCF   energy in the final basis set = -286.87059063
 Total energy in the final basis set = -286.87059063
 
 Direct TDDFT/TDA calculation will be performed
 Exchange:     0.2000 Hartree-Fock + 0.0800 Slater + 0.7200 B88
 Correlation:  0.1900 VWN1RPA + 0.8100 LYP
 Using SG-1 standard quadrature grid
 CIS energy converged when residual is below 10e- 6
 ---------------------------------------------------
 Iter    Rts Conv    Rts Left    Ttl Dev     Max Dev
 ---------------------------------------------------
   1         0           4      0.001676    0.001239
   2         0           4      0.000336    0.000260
   3         0           4      0.000086    0.000070
   4         1           3      0.000019    0.000013
   5         3           1      0.000003    0.000001
   6         4           0      0.000002    0.000001    Roots Converged
 ---------------------------------------------------
 
 ---------------------------------------------------
         TDDFT/TDA Excitation Energies              
 ---------------------------------------------------

 Excited state   1: excitation energy (eV) =    1.5636
 Total energy for state  1:                  -286.81313026 au
    <S**2>     :  0.8111
    Trans. Mom.: -0.0965 X   0.1475 Y  -0.0698 Z
    Strength   :     0.0013762818
    D( 22) --> S(  1) amplitude =  0.2840 beta
    D( 24) --> S(  1) amplitude =  0.9464 beta

 Excited state   2: excitation energy (eV) =    2.2400
 Total energy for state  2:                  -286.78827047 au
    <S**2>     :  0.7707
    Trans. Mom.:  0.0006 X   0.0011 Y  -0.0007 Z
    Strength   :     0.0000001132
    D( 21) --> S(  1) amplitude =  0.9980 beta

 Excited state   3: excitation energy (eV) =    2.5909
 Total energy for state  3:                  -286.77537634 au
    <S**2>     :  0.7758
    Trans. Mom.: -0.0054 X   0.0089 Y  -0.0044 Z
    Strength   :     0.0000080865
    D( 22) --> S(  1) amplitude =  0.9574 beta
    D( 24) --> S(  1) amplitude = -0.2884 beta

 Excited state   4: excitation energy (eV) =    2.5966
 Total energy for state  4:                  -286.77516588 au
    <S**2>     :  0.7757
    Trans. Mom.:  0.0033 X  -0.0014 Y  -0.0072 Z
    Strength   :     0.0000041253
    D( 23) --> S(  1) amplitude =  0.9999 beta
 
 ---------------------------------------------------

 Stability analysis will be performed
 ---------------------------------------------------
 Iter    Rts Conv    Rts Left    Ttl Dev     Max Dev
 ---------------------------------------------------
   1         0           8      0.001997    0.000703
   2         1           7      0.000549    0.000421
   3         3           5      0.000208    0.000174
   4         4           4      0.000054    0.000039
   5         6           2      0.000014    0.000010
   6         7           1      0.000005    0.000002
   7         8           0      0.000004    0.000001    Roots Converged
 UKS-> UKS   stable,    smallest eigenvalue:      0.0458394
 UKS->CUKS   stable,    smallest eigenvalue:      0.0571584
 ---------------------------------------------------
  SETman timing summary (seconds)
  CPU time                93.04s
  System time              0.00s
  Wall time              138.50s
 
 --------------------------------------------------------------
 
                    Orbital Energies (a.u.)
 --------------------------------------------------------------
 
 Alpha MOs
 -- Occupied --
-14.344 -10.262 -10.262 -10.221 -10.220 -10.183 -10.179  -0.981
 -0.790  -0.743  -0.734  -0.590  -0.584  -0.550  -0.538  -0.475
 -0.438  -0.431  -0.424  -0.411  -0.296  -0.275  -0.274  -0.273
 -0.262
 -- Virtual --
  0.005   0.007   0.015   0.019   0.027   0.030   0.031   0.033
  0.047   0.052   0.053   0.064   0.077   0.085   0.088   0.094
  0.112   0.118   0.122   0.141   0.146   0.158   0.176   0.176
  0.178   0.192   0.195   0.216   0.217   0.220   0.227   0.232
  0.240   0.252   0.258   0.279   0.279   0.297   0.337   0.357
  0.414   0.424   0.474   0.581   0.641   0.655   0.670   0.678
  0.680   0.695   0.696   0.709   0.723   0.750   0.760   0.763
  0.846   0.855   0.864   0.872   0.885   0.918   0.941   0.964
  0.990   0.996   1.045   1.074   1.119   1.158   1.186   1.187
  1.238   1.250   1.294   1.313   1.336   1.392   1.402   1.418
  1.446   1.460   1.470   1.553   1.559   1.560   1.617   1.721
  1.773   1.868   1.881   1.927   1.950   1.950   1.958   1.961
  1.975   2.009   2.025   2.120   2.172   2.227   2.237   2.366
  2.373   2.395   2.400   2.411   2.420   2.439   2.450   2.509
  2.522   2.586   2.603   2.628   2.711   2.717   2.796   2.834
  2.902   3.009   3.034   3.047   3.182   3.217   3.303   3.474
  3.536   3.749   3.882   4.126   4.288   4.356   4.532   4.628
  4.733   5.360
 
 Beta MOs
 -- Occupied --
-14.347 -10.255 -10.255 -10.220 -10.219 -10.183 -10.179  -0.975
 -0.787  -0.734  -0.722  -0.584  -0.573  -0.550  -0.536  -0.475
 -0.434  -0.421  -0.405  -0.402  -0.298  -0.274  -0.274  -0.270
 -- Virtual --
 -0.159   0.005   0.019   0.028   0.028   0.030   0.032   0.034
  0.039   0.048   0.053   0.059   0.065   0.078   0.085   0.094
  0.094   0.117   0.119   0.122   0.145   0.153   0.159   0.176
  0.177   0.179   0.193   0.196   0.217   0.221   0.221   0.226
  0.237   0.246   0.256   0.261   0.281   0.282   0.301   0.338
  0.358   0.417   0.428   0.483   0.581   0.646   0.672   0.681
  0.681   0.695   0.699   0.714   0.714   0.736   0.750   0.761
  0.763   0.849   0.858   0.869   0.873   0.887   0.918   0.941
  0.969   0.984   1.000   1.046   1.082   1.121   1.158   1.192
  1.193   1.254   1.257   1.294   1.331   1.347   1.392   1.402
  1.439   1.449   1.466   1.476   1.552   1.559   1.560   1.619
  1.732   1.785   1.874   1.885   1.930   1.950   1.950   1.959
  1.961   1.984   2.013   2.039   2.127   2.179   2.240   2.262
  2.370   2.374   2.396   2.400   2.411   2.431   2.447   2.458
  2.525   2.530   2.587   2.617   2.630   2.719   2.722   2.800
  2.835   2.904   3.012   3.034   3.047   3.184   3.217   3.306
  3.474   3.540   3.752   3.882   4.123   4.303   4.359   4.548
  4.629   4.741   5.360
 --------------------------------------------------------------
 
          Ground-State Mulliken Net Atomic Charges

     Atom                 Charge (a.u.)    Spin (a.u.)
  --------------------------------------------------------
      1 C                    -0.082895       0.000312
      2 C                    -0.035869       0.530957
      3 C                    -0.135340       0.079879
      4 C                    -0.133589       0.082454
      5 C                    -0.037894       0.529789
      6 N                    -0.180437      -0.160320
      7 H                     0.210537       0.001404
      8 H                     0.145974      -0.026355
      9 H                     0.143132      -0.005801
     10 H                     0.143092      -0.005900
     11 H                     0.146017      -0.026317
     12 C                    -0.365654      -0.000115
     13 H                     0.182925       0.000013
  --------------------------------------------------------
  Sum of atomic charges =    -0.000000
  Sum of spin   charges =     1.000000

 -----------------------------------------------------------------
                    Cartesian Multipole Moments
 -----------------------------------------------------------------
    Charge (ESU x 10^10)
                -0.0000
    Dipole Moment (Debye)
         X      -2.6002      Y      -0.9614      Z       1.5383
       Tot       3.1705
    Quadrupole Moments (Debye-Ang)
        XX     -37.1695     XY      -0.9105     YY     -39.4717
        XZ      -1.9251     YZ      -3.8994     ZZ     -42.4722
    Octopole Moments (Debye-Ang^2)
       XXX      -4.4262    XXY      12.3945    XYY      -4.2789
       YYY     -10.5544    XXZ      -8.1969    XYZ      -3.9226
       YYZ       6.5765    XZZ       0.5373    YZZ      -3.3294
       ZZZ       8.3496
    Hexadecapole Moments (Debye-Ang^3)
      XXXX    -995.6383   XXXY    -113.7395   XXYY    -224.7032
      XYYY    -185.9400   YYYY    -304.2849   XXXZ     172.9940
      XXYZ     -10.1427   XYYZ      81.9364   YYYZ     129.8108
      XXZZ    -210.3485   XYZZ     -29.9478   YYZZ    -107.3714
      XZZZ     282.4048   YZZZ     127.2063   ZZZZ    -441.5132
 -----------------------------------------------------------------
Archival summary:
1\1\c8-73\SP\ProcedureUnspecified\6-31+G**\166(2)\hpark21\WedMar211:45:352022WedMar211:45:352022\0\\#,ProcedureUnspecified,6-31+G**,\\0,2\N\C,1,1.34846\H,2,1.08502,1,120.93\C,1,1.34887,2,104.765,3,-179.906,0\H,4,1.08492,1,120.973,2,-179.887,0\C,4,1.45907,1,112.301,2,0.0360978,0\H,6,1.08168,4,126.204,1,-179.959,0\C,6,1.36549,4,105.325,1,-0.0800098,0\H,8,1.08197,6,128.56,4,-179.942,0\H,1,2.22851,2,127.459,3,3.2029,0\C,10,1.077,1,179.12,2,57.3727,0\C,11,1.2099,10,179.863,1,-83.6331,0\H,12,1.06646,11,179.869,10,99.5025,0\\\@

 Total job time:  156.74s(wall), 98.79s(cpu) 
 Wed Mar  2 11:45:35 2022

        *************************************************************
        *                                                           *
        *  Thank you very much for using Q-Chem.  Have a nice day.  *
        *                                                           *
        *************************************************************


