
Running Job 1 of 1 qcirc.in
qchem qcirc.in_39008.0 ./qcirc.d/ 1
/home/leeping/opt/qchem/5.0.2-openmp/exe/qcprog.exe_s qcirc.in_39008.0 ./qcirc.d/
Check license passed

                  Welcome to Q-Chem
     A Quantum Leap Into The Future Of Chemistry


 Q-Chem 5.0, Q-Chem, Inc., Pleasanton, CA (2017)

 Yihan Shao,  Zhengting Gan,  E. Epifanovsky,  A. T. B. Gilbert,  M. Wormit,  
 J. Kussmann,  A. W. Lange,  A. Behn,  Jia Deng,  Xintian Feng,  D. Ghosh,  
 M. Goldey,  P. R. Horn,  L. D. Jacobson,  I. Kaliman,  T. Kus,  A. Landau,  
 Jie Liu,  E. I. Proynov,  R. M. Richard,  R. P. Steele,  E. J. Sundstrom,  
 H. L. Woodcock III,  P. M. Zimmerman,  D. Zuev,  B. Albrecht,  E. Alguire,  
 S. A. Baeppler,  D. Barton,  Z. Benda,  Y. A. Bernard,  E. J. Berquist,  
 K. B. Bravaya,  H. Burton,  D. Casanova,  Chun-Min Chang,  Yunqing Chen,  
 A. Chien,  K. D. Closser,  M. P. Coons,  S. Dasgupta,  A. L. Dempwolff,  
 M. Diedenhofen,  Hainam Do,  R. G. Edgar,  Po-Tung Fang,  S. Fatehi,  
 Qingguo Feng,  J. Fosso-Tande,  Qinghui Ge,  A. Ghysels,  G. Gidofalvi,  
 J. Gomes,  J. Gonthier,  A. Gunina,  M. W. D. Hanson-Heine,  
 P. H. P. Harbach,  A. W. Hauser,  J. E. Herr,  E. G. Hohenstein,  
 Z. C. Holden,  Kerwin Hui,  T.-C. Jagau,  Hyunjun Ji,  B. Kaduk,  
 K. Khistyaev,  Jaehoon Kim,  P. Klunzinger,  K. Koh,  D. Kosenkov,  
 L. Koulias,  T. Kowalczyk,  C. M. Krauter,  A. Kunitsa,  Ka Un Lao,  
 A. Laurent,  K. V. Lawler,  Joonho Lee,  D. Lefrancois,  S. Lehtola,  
 D. S. Levine,  Yi-Pei Li,  You-Sheng Lin,  Fenglai Liu,  E. Livshits,  
 A. Luenser,  P. Manohar,  E. Mansoor,  S. F. Manzer,  Shan-Ping Mao,  
 Yuezhi Mao,  N. Mardirossian,  A. V. Marenich,  T. Markovich,  
 L. A. Martinez-Martinez,  S. A. Maurer,  N. J. Mayhall,  S. C. McKenzie,  
 J.-M. Mewes,  A. F. Morrison,  J. W. Mullinax,  K. Nanda,  
 T. S. Nguyen-Beck,  R. Olivares-Amaya,  J. A. Parkhill,  T. M. Perrine,  
 F. Plasser,  S. Prager,  A. Prociuk,  E. Ramos,  D. R. Rehn,  F. Rob,  
 M. Schneider,  N. Sergueev,  S. M. Sharada,  S. Sharma,  D. W. Small,  
 T. Stauch,  T. Stein,  Yu-Chuan Su,  A. J. W. Thom,  A. Tkatchenko,  
 T. Tsuchimochi,  L. Vogt,  O. Vydrov,  M. A. Watson,  J. Wenzel,  
 M. de Wergifosse,  T. A. Wesolowski,  A. White,  J. Witte,  A. Yamada,  
 Jun Yang,  K. Yao,  S. Yeganeh,  S. R. Yost,  Zhi-Qiang You,  A. Zech,  
 Igor Ying Zhang,  Xing Zhang,  Yan Zhao,  Ying Zhu,  B. R. Brooks,  
 G. K. L. Chan,  C. J. Cramer,  M. S. Gordon,  W. J. Hehre,  A. Klamt,  
 M. W. Schmidt,  C. D. Sherrill,  D. G. Truhlar,  A. Aspuru-Guzik,  R. Baer,  
 A. T. Bell,  N. A. Besley,  Jeng-Da Chai,  R. A. DiStasio Jr.,  A. Dreuw,  
 B. D. Dunietz,  T. R. Furlani,  Chao-Ping Hsu,  Yousung Jung,  Jing Kong,  
 D. S. Lambrecht,  WanZhen Liang,  C. Ochsenfeld,  V. A. Rassolov,  
 L. V. Slipchenko,  J. E. Subotnik,  T. Van Voorhis,  J. M. Herbert,  
 A. I. Krylov,  P. M. W. Gill,  M. Head-Gordon

 Contributors to earlier versions of Q-Chem not listed above: 
 R. D. Adamson,  B. Austin,  J. Baker,  G. J. O. Beran,  K. Brandhorst,  
 S. T. Brown,  E. F. C. Byrd,  A. K. Chakraborty,  C.-L. Cheng,  
 Siu Hung Chien,  D. M. Chipman,  D. L. Crittenden,  H. Dachsel,  
 R. J. Doerksen,  A. D. Dutoi,  L. Fusti-Molnar,  W. A. Goddard III,  
 A. Golubeva-Zadorozhnaya,  S. R. Gwaltney,  G. Hawkins,  A. Heyden,  
 S. Hirata,  G. Kedziora,  F. J. Keil,  C. Kelley,  Jihan Kim,  R. A. King,  
 R. Z. Khaliullin,  P. P. Korambath,  W. Kurlancheek,  A. M. Lee,  M. S. Lee,  
 S. V. Levchenko,  Ching Yeh Lin,  D. Liotard,  R. C. Lochan,  I. Lotan,  
 P. E. Maslen,  N. Nair,  D. P. O'Neill,  D. Neuhauser,  E. Neuscamman,  
 C. M. Oana,  R. Olson,  B. Peters,  R. Peverati,  P. A. Pieniazek,  
 Y. M. Rhee,  J. Ritchie,  M. A. Rohrdanz,  E. Rosta,  N. J. Russ,  
 H. F. Schaefer III,  N. E. Schultz,  N. Shenvi,  A. C. Simmonett,  A. Sodt,  
 D. Stuck,  K. S. Thanthiriwatte,  V. Vanovschi,  Tao Wang,  A. Warshel,  
 C. F. Williams,  Q. Wu,  X. Xu,  W. Zhang

 Please cite Q-Chem as follows:
 Y. Shao et al., Mol. Phys. 113, 184-215 (2015)
 DOI: 10.1080/00268976.2014.952696

 Q-Chem 5.0.2 for Intel X86 EM64T Linux

 Parts of Q-Chem use Armadillo 5.200.1 (Boston Tea Smuggler).
 http://arma.sourceforge.net/

 Q-Chem begins on Wed Mar  2 09:32:16 2022  

Host: 
0

     Scratch files written to ./qcirc.d//
 Dec517 15110_ 26548  26544 5633   
Processing $rem in /home/leeping/opt/qchem/5.0.2-openmp/config/preferences.
 MEM_STATIC 2000
 MEM_TOTAL  8000
 SYMMETRY   OFF
 SYM_IGNORE TRUE 

Checking the input file for inconsistencies... 	...done.

--------------------------------------------------------------
User input:
--------------------------------------------------------------
$molecule
0 2
C        2.4722227332    0.7652582724   -0.4558391821
C       -0.4583338743   -1.2924773541   -0.0124886146
C       -1.3660881255   -1.1118900273    1.1194993895
C       -1.7809978075    0.1867976097    1.0417294345
C       -1.1054832850    0.7353408805   -0.1331164356
N       -0.3397611955   -0.1784857641   -0.7572426928
H        2.1903738398    0.7202840861    0.5704752708
H        0.1121908757   -2.1839517774   -0.2539223186
H       -1.6431448052   -1.8677187909    1.8418396796
H       -2.4686808832    0.7161126332    1.6872877038
H       -1.1450211845    1.7607475034   -0.4873835085
C        2.7259204166    0.7929956688   -1.6368727871
H        2.8853938488    0.7954504155   -2.6898603367
$end

$rem
method                b3lyp
basis                 6-31+g(d,p)
unrestricted          true
symmetry              off
sym_ignore            true
incdft                false
incfock               0
scf_convergence       8
thresh                14
jobtype               opt
scf_guess             read
scf_algorithm         diis
max_scf_cycles        100
geom_opt_max_cycles   300
$end

--------------------------------------------------------------
 ----------------------------------------------------------------
             Standard Nuclear Orientation (Angstroms)
    I     Atom           X                Y                Z
 ----------------------------------------------------------------
    1      C       2.4722227332     0.7652582724    -0.4558391821
    2      C      -0.4583338743    -1.2924773541    -0.0124886146
    3      C      -1.3660881255    -1.1118900273     1.1194993895
    4      C      -1.7809978075     0.1867976097     1.0417294345
    5      C      -1.1054832850     0.7353408805    -0.1331164356
    6      N      -0.3397611955    -0.1784857641    -0.7572426928
    7      H       2.1903738398     0.7202840861     0.5704752708
    8      H       0.1121908757    -2.1839517774    -0.2539223186
    9      H      -1.6431448052    -1.8677187909     1.8418396796
   10      H      -2.4686808832     0.7161126332     1.6872877038
   11      H      -1.1450211845     1.7607475034    -0.4873835085
   12      C       2.7259204166     0.7929956688    -1.6368727871
   13      H       2.8853938488     0.7954504155    -2.6898603367
 ----------------------------------------------------------------
 Nuclear Repulsion Energy =   239.1928112694 hartrees
 There are       25 alpha and       24 beta electrons
 Requested basis set is 6-31+G(d,p)
 There are 53 shells and 163 basis functions

 Total QAlloc Memory Limit   8000 MB
 Mega-Array Size      1956 MB
 MEM_STATIC part      2000 MB
 A cutoff of  1.0D-14 yielded   1317 shell pairs
 There are     12881 function pairs
 
 -------------------------------------------------------
 OpenMP Integral Computing Module                       
 Release: version 1.0, May 2013, Q-Chem Inc. Pittsburgh 
 -------------------------------------------------------
 Integral Job Info:
 Integral job number is                      11
 Integral operator is                         1
 short-range coefficients                     0
 long-range coefficients              100000000
 Omega coefficients                           0
 if combine SR and LR in K                    0
 Integral screening is                        0
 Integral computing path is                   2
 max size of driver memory is            800000
 size of driver memory is                593474
 size of scratch memory is              2361544
 max col of scratch BK array               1296
 max len of scratch array in speh3          155
 max len of scratch index in speh4           18
 max int batch size is                      520
 min int batch size is                       52
 fixed nKL is                                52
 max L of basis functions is                  2
 order of int derivative is                   0
 number of shells is                         53
 number of basis is                         163
 number of cartesian basis is               163
 number of contracted shell pairs          1317
 number of primitive shell pairs           4275
 maxK2 (contraction) of shell pair           36
 max number of K2 of shell pair               1
 max number of CS2 of shell pair            130
 max number of PS2 of shell pair            684
 mem total for path MDJ                  526780
 -------------------------------------------------------
 Smallest overlap matrix eigenvalue = 2.34E-05

 Scale SEOQF with 1.000000e-01/1.000000e-01/1.000000e-01

 Standard Electronic Orientation quadrupole field applied
 Nucleus-field energy     =     0.0000000028 hartrees
 Guess MOs from SCF MO coefficient file
 Reading MOs from coefficient file
 Reading MOs from coefficient file
 An unrestricted hybrid HF-DFT SCF calculation will be
 performed using Pulay DIIS extrapolation
 Exchange:     0.2000 Hartree-Fock + 0.0800 Slater + 0.7200 B88
 Correlation:  0.1900 VWN1RPA + 0.8100 LYP
 Using SG-1 standard quadrature grid
 SCF converges when DIIS error is below 1.0E-08
Using Q-Chem read-in guess as SCF_GUESS READ specified.

 using 4 threads for integral computing
 -------------------------------------------------------
 OpenMP Integral computing Module                
 Release: version 1.0, May 2013, Q-Chem Inc. Pittsburgh 
 -------------------------------------------------------
 -------------------------------------------------------
 OpenMP BLAS3 based DFT computing Module                
 Release: version 1.0, May 2013, Q-Chem Inc. Pittsburgh 
 -------------------------------------------------------
 ---------------------------------------
  Cycle       Energy         DIIS Error
 ---------------------------------------
    1    -286.0620528092      1.83E-02
    2    -286.4027985361      8.26E-03
    3    -281.8506829885      2.58E-02
    4    -286.7808451299      4.44E-03
    5    -286.8206329297      3.26E-03
    6    -286.8528728900      1.04E-03
    7    -286.8567560642      3.88E-04
    8    -286.8577359884      2.43E-04
    9    -286.8579986838      8.70E-05
   10    -286.8580576505      2.42E-05
   11    -286.8580711839      7.45E-06
   12    -286.8580767696      2.74E-06
   13    -286.8580791777      1.58E-06
   14    -286.8580800952      8.58E-07
   15    -286.8580804072      2.16E-07
   16    -286.8580805089      1.04E-07
   17    -286.8580805435      6.12E-08
   18    -286.8580805774      4.42E-08
   19    -286.8580805881      1.02E-08
   20    -286.8580805880      2.65E-09 Convergence criterion met
 ---------------------------------------
 <S^2> = 0.7651
 SCF time:  CPU 90.91 s  wall 53.94 s
 SCF   energy in the final basis set = -286.85808059
 Total energy in the final basis set = -286.85808059
 
 --------------------------------------------------------------
 
                    Orbital Energies (a.u.)
 --------------------------------------------------------------
 
 Alpha MOs
 -- Occupied --
-14.327 -10.251 -10.251 -10.212 -10.211 -10.191 -10.188  -0.970
 -0.780  -0.741  -0.732  -0.580  -0.573  -0.561  -0.529  -0.488
 -0.426  -0.422  -0.414  -0.401  -0.293  -0.282  -0.271  -0.255
 -0.252
 -- Virtual --
  0.006   0.016   0.020   0.022   0.024   0.029   0.030   0.032
  0.043   0.046   0.056   0.069   0.078   0.084   0.101   0.106
  0.116   0.118   0.120   0.144   0.150   0.156   0.164   0.170
  0.177   0.183   0.186   0.204   0.209   0.213   0.234   0.237
  0.253   0.261   0.261   0.273   0.287   0.294   0.303   0.305
  0.404   0.430   0.490   0.561   0.649   0.673   0.676   0.687
  0.694   0.694   0.720   0.723   0.730   0.734   0.761   0.789
  0.814   0.841   0.863   0.869   0.892   0.893   0.939   0.966
  1.012   1.024   1.053   1.069   1.072   1.114   1.141   1.193
  1.224   1.261   1.262   1.300   1.326   1.361   1.380   1.406
  1.416   1.442   1.481   1.497   1.536   1.574   1.607   1.672
  1.762   1.873   1.888   1.923   1.936   1.942   1.967   1.984
  2.005   2.027   2.038   2.123   2.184   2.249   2.252   2.359
  2.381   2.388   2.405   2.420   2.431   2.440   2.456   2.513
  2.535   2.596   2.612   2.645   2.719   2.722   2.787   2.808
  2.918   3.023   3.031   3.040   3.190   3.224   3.313   3.467
  3.544   3.756   3.875   4.143   4.297   4.347   4.534   4.640
  4.742   5.370
 
 Beta MOs
 -- Occupied --
-14.330 -10.243 -10.243 -10.211 -10.210 -10.191 -10.188  -0.964
 -0.777  -0.741  -0.711  -0.574  -0.562  -0.561  -0.526  -0.488
 -0.423  -0.413  -0.395  -0.391  -0.293  -0.282  -0.270  -0.253
 -- Virtual --
 -0.149   0.007   0.021   0.023   0.027   0.027   0.031   0.039
  0.046   0.047   0.047   0.060   0.070   0.078   0.087   0.102
  0.109   0.117   0.120   0.124   0.147   0.151   0.157   0.170
  0.171   0.180   0.184   0.187   0.204   0.210   0.214   0.237
  0.241   0.259   0.264   0.265   0.275   0.290   0.294   0.304
  0.309   0.407   0.435   0.499   0.561   0.656   0.680   0.681
  0.690   0.699   0.710   0.728   0.731   0.738   0.742   0.770
  0.790   0.822   0.843   0.864   0.875   0.892   0.895   0.939
  0.969   1.016   1.026   1.051   1.071   1.078   1.113   1.142
  1.197   1.232   1.267   1.277   1.302   1.344   1.370   1.380
  1.407   1.431   1.443   1.488   1.507   1.538   1.574   1.608
  1.676   1.780   1.879   1.892   1.923   1.936   1.944   1.968
  1.992   2.006   2.031   2.052   2.128   2.190   2.264   2.275
  2.360   2.385   2.389   2.406   2.421   2.442   2.448   2.464
  2.526   2.546   2.598   2.625   2.649   2.727   2.728   2.787
  2.812   2.920   3.026   3.031   3.040   3.192   3.224   3.316
  3.467   3.548   3.760   3.875   4.141   4.311   4.350   4.550
  4.641   4.750   5.370
 --------------------------------------------------------------
 
          Ground-State Mulliken Net Atomic Charges

     Atom                 Charge (a.u.)    Spin (a.u.)
  --------------------------------------------------------
      1 C                    -0.122090      -0.001903
      2 C                    -0.126751       0.533240
      3 C                    -0.072032       0.082642
      4 C                    -0.074268       0.080021
      5 C                    -0.126226       0.535157
      6 N                    -0.182088      -0.164880
      7 H                     0.170530      -0.000427
      8 H                     0.139744      -0.026744
      9 H                     0.138600      -0.006011
     10 H                     0.138667      -0.005916
     11 H                     0.139893      -0.026824
     12 C                    -0.202057       0.001671
     13 H                     0.178077      -0.000026
  --------------------------------------------------------
  Sum of atomic charges =    -0.000000
  Sum of spin   charges =     1.000000

 -----------------------------------------------------------------
                    Cartesian Multipole Moments
 -----------------------------------------------------------------
    Charge (ESU x 10^10)
                -0.0000
    Dipole Moment (Debye)
         X      -1.4655      Y      -0.3782      Z       1.5730
       Tot       2.1828
    Quadrupole Moments (Debye-Ang)
        XX     -44.3915     XY      -2.3518     YY     -38.2846
        XZ      -2.8253     YZ      -1.1156     ZZ     -38.8823
    Octopole Moments (Debye-Ang^2)
       XXX     -22.9360    XXY       0.5241    XYY      -9.8019
       YYY      -7.6374    XXZ       5.1708    XYZ       0.5809
       YYZ       6.9766    XZZ       9.3499    YZZ       3.2162
       ZZZ       2.3501
    Hexadecapole Moments (Debye-Ang^3)
      XXXX    -898.4320   XXXY    -114.9019   XXYY    -188.2647
      XYYY    -103.8823   YYYY    -242.5700   XXXZ     147.7572
      XXYZ      14.9939   XYYZ      54.0115   YYYZ      49.6643
      XXZZ    -132.5198   XYZZ     -16.9908   YYZZ     -85.0556
      XZZZ     111.5477   YZZZ      35.2714   ZZZZ    -253.0351
 -----------------------------------------------------------------
 Calculating analytic gradient of the SCF energy
 Gradient of SCF Energy
            1           2           3           4           5           6
    1  -0.0022539   0.0010318   0.0002989   0.0002896   0.0010233   0.0012877
    2  -0.0006115   0.0003565   0.0000820   0.0000793   0.0003525   0.0004525
    3   0.0029157   0.0001848  -0.0003564  -0.0003539   0.0001970   0.0003990
            7           8           9          10          11          12
    1  -0.0020456   0.0015982  -0.0001673  -0.0001991   0.0016146  -0.0007988
    2  -0.0007172   0.0005986  -0.0001143  -0.0000856   0.0005350  -0.0003973
    3  -0.0006020   0.0005818  -0.0007419  -0.0007410   0.0006242  -0.0027299
           13
    1  -0.0016795
    2  -0.0005305
    3   0.0006225
 Max gradient component =       2.916E-03
 RMS gradient           =       1.055E-03
 Gradient time:  CPU 14.62 s  wall 7.91 s
 Geometry Optimization Parameters
   NAtoms,    NIC,     NZ,  NCons,   NDum,   NFix, NCnnct, MaxDiis
       13      97       0       0       0       0       0       0


** GEOMETRY OPTIMIZATION IN DELOCALIZED INTERNAL COORDINATES **
   Searching for a Minimum

   Optimization Cycle:   1

                       Coordinates (Angstroms)
     ATOM                X               Y               Z
      1  C         2.4722227332    0.7652582724   -0.4558391821
      2  C        -0.4583338743   -1.2924773541   -0.0124886146
      3  C        -1.3660881255   -1.1118900273    1.1194993895
      4  C        -1.7809978075    0.1867976097    1.0417294345
      5  C        -1.1054832850    0.7353408805   -0.1331164356
      6  N        -0.3397611955   -0.1784857641   -0.7572426928
      7  H         2.1903738398    0.7202840861    0.5704752708
      8  H         0.1121908757   -2.1839517774   -0.2539223186
      9  H        -1.6431448052   -1.8677187909    1.8418396796
     10  H        -2.4686808832    0.7161126332    1.6872877038
     11  H        -1.1450211845    1.7607475034   -0.4873835085
     12  C         2.7259204166    0.7929956688   -1.6368727871
     13  H         2.8853938488    0.7954504155   -2.6898603367
   Point Group: c1    Number of degrees of freedom:    33


   Energy is   -286.858080588


 Attempting to Generate Delocalized Internal Coordinates

 33 Hessian modes will be used to form the next step
  Hessian Eigenvalues:
     0.004881    0.015616    0.017822    0.018451    0.019429    0.020006
     0.022291    0.022904    0.061188    0.075468    0.100529    0.119733
     0.159801    0.159846    0.159973    0.159984    0.170153    0.200000
     0.200000    0.219980    0.225530    0.336924    0.352037    0.353261
     0.353268    0.358034    0.358042    0.362957    0.378695    0.460959
     0.538461    0.541174    1.007640

 Minimum Search - Taking Simple RFO Step
 Searching for Lamda that Minimizes Along All modes
 Value Taken    Lamda =  -0.00220955
 Calculated Step too Large.  Step scaled by  0.970612
 Step Taken.  Stepsize is  0.300000

                             Maximum     Tolerance    Cnvgd?
         Gradient           0.009954      0.000300      NO
         Displacement       0.180190      0.001200      NO
         Energy change     *********      0.000001      NO


 New Cartesian Coordinates Obtained by Inverse Iteration

 Displacement from previous Coordinates is:  0.443469
 ----------------------------------------------------------------
             Standard Nuclear Orientation (Angstroms)
    I     Atom           X                Y                Z
 ----------------------------------------------------------------
    1      C       2.5300157906     0.7832801173    -0.4736807818
    2      C      -0.5072902845    -1.3083563066    -0.0182180732
    3      C      -1.3803157804    -1.1151995052     1.1401454343
    4      C      -1.7947276945     0.1831296293     1.0621847228
    5      C      -1.1539649085     0.7181054721    -0.1394573808
    6      N      -0.3863303150    -0.1946874840    -0.7656540463
    7      H       2.2470135140     0.7376495606     0.5529792093
    8      H       0.0370623494    -2.2114562258    -0.2749558240
    9      H      -1.6352927488    -1.8614450231     1.8811351982
   10      H      -2.4592210800     0.7200441862     1.7263425995
   11      H      -1.2208317534     1.7358751602    -0.5101906572
   12      C       2.8042279708     0.8184970373    -1.6491284916
   13      H       2.9982454936     0.8330267374    -2.6973963069
 ----------------------------------------------------------------
 Nuclear Repulsion Energy =   237.3880337205 hartrees
 There are       25 alpha and       24 beta electrons
 Applying Cartesian multipole field
    Component          Value
    ---------          -----
     (2,0,0)        1.00000E-11
     (0,2,0)        2.00000E-11
     (0,0,2)       -3.00000E-11
 Nucleus-field energy     =     0.0000000030 hartrees
 Requested basis set is 6-31+G(d,p)
 There are 53 shells and 163 basis functions
 A cutoff of  1.0D-14 yielded   1312 shell pairs
 There are     12866 function pairs
 Smallest overlap matrix eigenvalue = 2.37E-05
 Guess MOs from SCF MO coefficient file
 Reading MOs from coefficient file
 Reading MOs from coefficient file
 An unrestricted hybrid HF-DFT SCF calculation will be
 performed using Pulay DIIS extrapolation
 Exchange:     0.2000 Hartree-Fock + 0.0800 Slater + 0.7200 B88
 Correlation:  0.1900 VWN1RPA + 0.8100 LYP
 Using SG-1 standard quadrature grid
 SCF converges when DIIS error is below 1.0E-08
 Geometry optimization detected.  Setting ReadMinima to 0
 Setting SaveMinima to 0
Using Q-Chem read-in guess as SCF_GUESS READ specified.

 using 4 threads for integral computing
 -------------------------------------------------------
 OpenMP Integral computing Module                
 Release: version 1.0, May 2013, Q-Chem Inc. Pittsburgh 
 -------------------------------------------------------
 -------------------------------------------------------
 OpenMP BLAS3 based DFT computing Module                
 Release: version 1.0, May 2013, Q-Chem Inc. Pittsburgh 
 -------------------------------------------------------
 ---------------------------------------
  Cycle       Energy         DIIS Error
 ---------------------------------------
    1    -286.8576780990      8.10E-04
    2    -286.8597570412      1.08E-04
    3    -286.8597049908      1.89E-04
    4    -286.8598145205      1.58E-05
    5    -286.8598154403      1.16E-05
    6    -286.8598158570      6.13E-06
    7    -286.8598160184      1.05E-06
    8    -286.8598160283      2.27E-07
    9    -286.8598160300      1.39E-07
   10    -286.8598160302      4.15E-08
   11    -286.8598160302      1.05E-08
   12    -286.8598160302      8.43E-09 Convergence criterion met
 ---------------------------------------
 <S^2> = 0.7651
 SCF time:  CPU 53.56 s  wall 30.94 s
 SCF   energy in the final basis set = -286.85981603
 Total energy in the final basis set = -286.85981603
 
 --------------------------------------------------------------
 
                    Orbital Energies (a.u.)
 --------------------------------------------------------------
 
 Alpha MOs
 -- Occupied --
-14.329 -10.251 -10.251 -10.212 -10.211 -10.192 -10.189  -0.970
 -0.780  -0.742  -0.732  -0.580  -0.573  -0.561  -0.529  -0.488
 -0.426  -0.421  -0.414  -0.400  -0.292  -0.283  -0.271  -0.259
 -0.252
 -- Virtual --
  0.007   0.016   0.020   0.022   0.024   0.029   0.030   0.031
  0.043   0.046   0.056   0.069   0.076   0.084   0.102   0.105
  0.116   0.118   0.118   0.144   0.150   0.156   0.163   0.169
  0.176   0.182   0.186   0.203   0.208   0.211   0.234   0.236
  0.252   0.260   0.260   0.268   0.287   0.292   0.303   0.306
  0.401   0.430   0.489   0.558   0.648   0.674   0.674   0.686
  0.692   0.694   0.719   0.724   0.731   0.734   0.757   0.782
  0.810   0.840   0.864   0.869   0.892   0.895   0.936   0.968
  1.012   1.023   1.043   1.068   1.080   1.105   1.140   1.193
  1.220   1.259   1.265   1.303   1.324   1.359   1.379   1.397
  1.424   1.447   1.477   1.485   1.533   1.568   1.598   1.669
  1.760   1.874   1.889   1.928   1.936   1.943   1.961   1.984
  1.988   2.023   2.036   2.120   2.183   2.250   2.250   2.361
  2.380   2.387   2.402   2.410   2.431   2.436   2.456   2.516
  2.530   2.593   2.612   2.640   2.719   2.720   2.785   2.804
  2.918   3.022   3.031   3.037   3.189   3.222   3.312   3.462
  3.542   3.755   3.872   4.137   4.296   4.345   4.527   4.638
  4.741   5.368
 
 Beta MOs
 -- Occupied --
-14.331 -10.244 -10.244 -10.211 -10.210 -10.192 -10.189  -0.963
 -0.778  -0.742  -0.711  -0.574  -0.562  -0.561  -0.527  -0.488
 -0.423  -0.413  -0.394  -0.391  -0.292  -0.282  -0.270  -0.257
 -- Virtual --
 -0.149   0.007   0.021   0.024   0.027   0.027   0.030   0.038
  0.046   0.046   0.047   0.060   0.070   0.076   0.086   0.103
  0.109   0.117   0.120   0.121   0.148   0.150   0.156   0.169
  0.170   0.178   0.184   0.187   0.203   0.210   0.213   0.237
  0.242   0.258   0.263   0.264   0.269   0.290   0.293   0.305
  0.309   0.404   0.434   0.498   0.558   0.654   0.678   0.680
  0.689   0.699   0.711   0.729   0.731   0.740   0.741   0.765
  0.783   0.818   0.842   0.865   0.875   0.895   0.896   0.936
  0.972   1.016   1.025   1.040   1.077   1.080   1.105   1.141
  1.197   1.227   1.271   1.275   1.306   1.342   1.368   1.380
  1.398   1.441   1.449   1.483   1.494   1.535   1.569   1.599
  1.673   1.779   1.880   1.893   1.928   1.936   1.944   1.962
  1.989   1.992   2.026   2.050   2.125   2.189   2.261   2.275
  2.362   2.384   2.387   2.403   2.411   2.442   2.445   2.464
  2.530   2.541   2.594   2.625   2.644   2.725   2.727   2.785
  2.809   2.920   3.025   3.031   3.037   3.191   3.223   3.315
  3.462   3.546   3.758   3.872   4.134   4.310   4.348   4.543
  4.639   4.748   5.368
 --------------------------------------------------------------
 
          Ground-State Mulliken Net Atomic Charges

     Atom                 Charge (a.u.)    Spin (a.u.)
  --------------------------------------------------------
      1 C                    -0.124032      -0.001705
      2 C                    -0.129687       0.533850
      3 C                    -0.068366       0.082211
      4 C                    -0.069798       0.080180
      5 C                    -0.129912       0.535364
      6 N                    -0.178354      -0.165291
      7 H                     0.171434      -0.000330
      8 H                     0.139390      -0.026755
      9 H                     0.138737      -0.005995
     10 H                     0.138803      -0.005920
     11 H                     0.139501      -0.026819
     12 C                    -0.206795       0.001232
     13 H                     0.179079      -0.000022
  --------------------------------------------------------
  Sum of atomic charges =     0.000000
  Sum of spin   charges =     1.000000

 -----------------------------------------------------------------
                    Cartesian Multipole Moments
 -----------------------------------------------------------------
    Charge (ESU x 10^10)
                 0.0000
    Dipole Moment (Debye)
         X      -1.4118      Y      -0.3569      Z       1.6149
       Tot       2.1745
    Quadrupole Moments (Debye-Ang)
        XX     -44.0641     XY      -2.2547     YY     -38.2529
        XZ      -3.0315     YZ      -1.1851     ZZ     -38.8054
    Octopole Moments (Debye-Ang^2)
       XXX     -20.8574    XXY       1.3186    XYY      -9.8112
       YYY      -7.8225    XXZ       3.9650    XYZ       0.2342
       YYZ       6.8920    XZZ      10.1247    YZZ       3.5309
       ZZZ       3.0935
    Hexadecapole Moments (Debye-Ang^3)
      XXXX    -933.7098   XXXY    -120.2591   XXYY    -195.0648
      XYYY    -109.8235   YYYY    -246.0704   XXXZ     148.5326
      XXYZ      14.0662   XYYZ      55.6261   YYYZ      51.4714
      XXZZ    -134.8874   XYZZ     -17.6950   YYZZ     -85.9905
      XZZZ     113.0565   YZZZ      35.5718   ZZZZ    -258.2091
 -----------------------------------------------------------------
 Calculating analytic gradient of the SCF energy
 Gradient of SCF Energy
            1           2           3           4           5           6
    1  -0.0014167  -0.0009347   0.0002412   0.0003934  -0.0009129   0.0045489
    2  -0.0004429  -0.0001396   0.0003312  -0.0000199  -0.0005420   0.0014421
    3   0.0005329  -0.0011604   0.0006097   0.0006442  -0.0011220   0.0000451
            7           8           9          10          11          12
    1  -0.0014135   0.0009614  -0.0002085  -0.0002311   0.0010234  -0.0009908
    2  -0.0004732   0.0004469  -0.0001105  -0.0000602   0.0002649  -0.0003322
    3   0.0000167   0.0005096  -0.0001285  -0.0001404   0.0005548  -0.0001151
           13
    1  -0.0010603
    2  -0.0003647
    3  -0.0002466
 Max gradient component =       4.549E-03
 RMS gradient           =       9.949E-04
 Gradient time:  CPU 14.39 s  wall 5.00 s
 Geometry Optimization Parameters
   NAtoms,    NIC,     NZ,  NCons,   NDum,   NFix, NCnnct, MaxDiis
       13      97       0       0       0       0       0       0

 Cartesian Hessian Update
 Hessian Updated using BFGS Update


** GEOMETRY OPTIMIZATION IN DELOCALIZED INTERNAL COORDINATES **
   Searching for a Minimum

   Optimization Cycle:   2

                       Coordinates (Angstroms)
     ATOM                X               Y               Z
      1  C         2.5300157906    0.7832801173   -0.4736807818
      2  C        -0.5072902845   -1.3083563066   -0.0182180732
      3  C        -1.3803157804   -1.1151995052    1.1401454343
      4  C        -1.7947276945    0.1831296293    1.0621847228
      5  C        -1.1539649085    0.7181054721   -0.1394573808
      6  N        -0.3863303150   -0.1946874840   -0.7656540463
      7  H         2.2470135140    0.7376495606    0.5529792093
      8  H         0.0370623494   -2.2114562258   -0.2749558240
      9  H        -1.6352927488   -1.8614450231    1.8811351982
     10  H        -2.4592210800    0.7200441862    1.7263425995
     11  H        -1.2208317534    1.7358751602   -0.5101906572
     12  C         2.8042279708    0.8184970373   -1.6491284916
     13  H         2.9982454936    0.8330267374   -2.6973963069
   Point Group: c1    Number of degrees of freedom:    33


   Energy is   -286.859816030

 Hessian Updated using BFGS Update

 33 Hessian modes will be used to form the next step
  Hessian Eigenvalues:
     0.004881    0.006324    0.017679    0.018451    0.020006    0.020211
     0.022904    0.025063    0.061188    0.075905    0.095655    0.119733
     0.159736    0.159845    0.159973    0.160221    0.174545    0.191470
     0.200000    0.210882    0.219980    0.336925    0.352322    0.353264
     0.353358    0.358038    0.358225    0.365335    0.379537    0.462313
     0.538477    0.541284    1.010007

 Minimum Search - Taking Simple RFO Step
 Searching for Lamda that Minimizes Along All modes
 Value Taken    Lamda =  -0.00244257
 Calculated Step too Large.  Step scaled by  0.594174
 Step Taken.  Stepsize is  0.300000

                             Maximum     Tolerance    Cnvgd?
         Gradient           0.006610      0.000300      NO
         Displacement       0.140922      0.001200      NO
         Energy change     -0.001735      0.000001      NO


 New Cartesian Coordinates Obtained by Inverse Iteration

 Displacement from previous Coordinates is:  0.440903
 ----------------------------------------------------------------
             Standard Nuclear Orientation (Angstroms)
    I     Atom           X                Y                Z
 ----------------------------------------------------------------
    1      C       2.5940103230     0.8024503873    -0.5030784959
    2      C      -0.5474051274    -1.3215704891    -0.0093021653
    3      C      -1.4033533463    -1.1216704078     1.1599465628
    4      C      -1.8177409553     0.1766564117     1.0816022295
    5      C      -1.1939514192     0.7055588380    -0.1310321239
    6      N      -0.4344025198    -0.2106535777    -0.7635975401
    7      H       2.3134119449     0.7571882786     0.5240539509
    8      H      -0.0287675749    -2.2352545871    -0.2812300130
    9      H      -1.6472908164    -1.8631469058     1.9094209146
   10      H      -2.4707264810     0.7174693386     1.7540216195
   11      H      -1.2872909136     1.7151136834    -0.5179952754
   12      C       2.8868296583     0.8447046909    -1.6737568145
   13      H       3.1152677811     0.8716176950    -2.7149472471
 ----------------------------------------------------------------
 Nuclear Repulsion Energy =   235.6195552945 hartrees
 There are       25 alpha and       24 beta electrons
 Applying Cartesian multipole field
    Component          Value
    ---------          -----
     (2,0,0)        1.00000E-11
     (0,2,0)        2.00000E-11
     (0,0,2)       -3.00000E-11
 Nucleus-field energy     =     0.0000000031 hartrees
 Requested basis set is 6-31+G(d,p)
 There are 53 shells and 163 basis functions
 A cutoff of  1.0D-14 yielded   1299 shell pairs
 There are     12772 function pairs
 Smallest overlap matrix eigenvalue = 2.39E-05
 Guess MOs from SCF MO coefficient file
 Reading MOs from coefficient file
 Reading MOs from coefficient file
 An unrestricted hybrid HF-DFT SCF calculation will be
 performed using Pulay DIIS extrapolation
 Exchange:     0.2000 Hartree-Fock + 0.0800 Slater + 0.7200 B88
 Correlation:  0.1900 VWN1RPA + 0.8100 LYP
 Using SG-1 standard quadrature grid
 SCF converges when DIIS error is below 1.0E-08
 Geometry optimization detected.  Setting ReadMinima to 0
 Setting SaveMinima to 0
Using Q-Chem read-in guess as SCF_GUESS READ specified.

 using 4 threads for integral computing
 -------------------------------------------------------
 OpenMP Integral computing Module                
 Release: version 1.0, May 2013, Q-Chem Inc. Pittsburgh 
 -------------------------------------------------------
 -------------------------------------------------------
 OpenMP BLAS3 based DFT computing Module                
 Release: version 1.0, May 2013, Q-Chem Inc. Pittsburgh 
 -------------------------------------------------------
 ---------------------------------------
  Cycle       Energy         DIIS Error
 ---------------------------------------
    1    -286.8610958316      5.87E-04
    2    -286.8609949350      5.31E-05
    3    -286.8609960055      7.63E-05
    4    -286.8610137491      1.78E-05
    5    -286.8610147839      9.05E-06
    6    -286.8610150604      4.25E-06
    7    -286.8610151360      9.44E-07
    8    -286.8610151431      1.93E-07
    9    -286.8610151441      7.42E-08
   10    -286.8610151442      1.81E-08
   11    -286.8610151442      1.23E-08
   12    -286.8610151443      7.76E-09 Convergence criterion met
 ---------------------------------------
 <S^2> = 0.7651
 SCF time:  CPU 52.89 s  wall 42.02 s
 SCF   energy in the final basis set = -286.86101514
 Total energy in the final basis set = -286.86101514
 
 --------------------------------------------------------------
 
                    Orbital Energies (a.u.)
 --------------------------------------------------------------
 
 Alpha MOs
 -- Occupied --
-14.329 -10.251 -10.251 -10.212 -10.211 -10.193 -10.190  -0.969
 -0.780  -0.743  -0.732  -0.580  -0.573  -0.562  -0.529  -0.489
 -0.426  -0.421  -0.415  -0.401  -0.290  -0.283  -0.272  -0.261
 -0.252
 -- Virtual --
  0.007   0.016   0.020   0.023   0.024   0.028   0.029   0.031
  0.042   0.046   0.056   0.070   0.076   0.083   0.101   0.105
  0.115   0.116   0.117   0.144   0.149   0.155   0.163   0.167
  0.175   0.182   0.185   0.203   0.207   0.210   0.235   0.236
  0.251   0.260   0.260   0.263   0.287   0.290   0.303   0.307
  0.399   0.429   0.488   0.555   0.647   0.672   0.675   0.685
  0.691   0.694   0.719   0.723   0.732   0.733   0.754   0.773
  0.808   0.839   0.866   0.869   0.892   0.898   0.935   0.969
  1.012   1.022   1.034   1.068   1.087   1.096   1.141   1.192
  1.216   1.256   1.266   1.304   1.324   1.355   1.378   1.390
  1.430   1.451   1.477   1.478   1.527   1.564   1.592   1.666
  1.760   1.875   1.889   1.934   1.936   1.943   1.954   1.972
  1.984   2.021   2.036   2.119   2.183   2.248   2.249   2.364
  2.380   2.386   2.396   2.406   2.431   2.434   2.456   2.519
  2.528   2.591   2.614   2.636   2.719   2.720   2.784   2.804
  2.918   3.020   3.031   3.035   3.190   3.222   3.311   3.460
  3.543   3.755   3.871   4.130   4.295   4.344   4.523   4.635
  4.741   5.369
 
 Beta MOs
 -- Occupied --
-14.332 -10.244 -10.244 -10.211 -10.210 -10.193 -10.190  -0.963
 -0.778  -0.743  -0.711  -0.574  -0.563  -0.562  -0.527  -0.489
 -0.423  -0.412  -0.395  -0.391  -0.291  -0.283  -0.272  -0.258
 -- Virtual --
 -0.149   0.007   0.021   0.024   0.026   0.027   0.030   0.038
  0.046   0.046   0.047   0.060   0.070   0.076   0.085   0.102
  0.108   0.116   0.119   0.119   0.147   0.150   0.155   0.168
  0.169   0.177   0.184   0.187   0.203   0.209   0.212   0.237
  0.243   0.258   0.262   0.263   0.265   0.290   0.291   0.304
  0.310   0.403   0.434   0.497   0.555   0.653   0.677   0.678
  0.688   0.699   0.712   0.728   0.731   0.740   0.742   0.761
  0.775   0.816   0.841   0.867   0.875   0.895   0.899   0.935
  0.973   1.017   1.022   1.032   1.076   1.086   1.096   1.142
  1.197   1.223   1.271   1.272   1.307   1.342   1.365   1.378
  1.391   1.450   1.454   1.483   1.484   1.528   1.564   1.593
  1.670   1.779   1.881   1.893   1.934   1.936   1.944   1.954
  1.972   1.992   2.024   2.050   2.124   2.189   2.259   2.274
  2.365   2.384   2.386   2.396   2.407   2.442   2.443   2.464
  2.535   2.536   2.593   2.627   2.638   2.725   2.727   2.784
  2.808   2.920   3.023   3.031   3.035   3.192   3.222   3.314
  3.460   3.547   3.758   3.871   4.128   4.309   4.347   4.539
  4.636   4.748   5.369
 --------------------------------------------------------------
 
          Ground-State Mulliken Net Atomic Charges

     Atom                 Charge (a.u.)    Spin (a.u.)
  --------------------------------------------------------
      1 C                    -0.126134      -0.001318
      2 C                    -0.129185       0.533775
      3 C                    -0.066396       0.082127
      4 C                    -0.067410       0.080873
      5 C                    -0.129775       0.534768
      6 N                    -0.179029      -0.165337
      7 H                     0.171961      -0.000252
      8 H                     0.139427      -0.026699
      9 H                     0.138690      -0.005989
     10 H                     0.138755      -0.005944
     11 H                     0.139507      -0.026738
     12 C                    -0.210115       0.000753
     13 H                     0.179704      -0.000018
  --------------------------------------------------------
  Sum of atomic charges =    -0.000000
  Sum of spin   charges =     1.000000

 -----------------------------------------------------------------
                    Cartesian Multipole Moments
 -----------------------------------------------------------------
    Charge (ESU x 10^10)
                -0.0000
    Dipole Moment (Debye)
         X      -1.3614      Y      -0.3371      Z       1.6492
       Tot       2.1649
    Quadrupole Moments (Debye-Ang)
        XX     -43.6636     XY      -2.1410     YY     -38.1895
        XZ      -3.2168     YZ      -1.2539     ZZ     -38.7938
    Octopole Moments (Debye-Ang^2)
       XXX     -19.1658    XXY       2.0526    XYY      -9.9103
       YYY      -8.0912    XXZ       2.8688    XYZ      -0.0726
       YYZ       6.8121    XZZ      10.9391    YZZ       3.8232
       ZZZ       3.1855
    Hexadecapole Moments (Debye-Ang^3)
      XXXX    -972.6764   XXXY    -126.0295   XXYY    -202.5636
      XYYY    -116.2623   YYYY    -249.8607   XXXZ     151.0132
      XXYZ      13.1687   XYYZ      57.9638   YYYZ      53.9701
      XXZZ    -137.8966   XYZZ     -18.4241   YYZZ     -87.2994
      XZZZ     116.8438   YZZZ      36.6372   ZZZZ    -264.1594
 -----------------------------------------------------------------
 Calculating analytic gradient of the SCF energy
 Gradient of SCF Energy
            1           2           3           4           5           6
    1  -0.0013858  -0.0002401   0.0001242   0.0001780  -0.0004163   0.0038152
    2  -0.0004412  -0.0002519   0.0001459  -0.0000103   0.0000524   0.0011810
    3   0.0003250  -0.0003403   0.0003071   0.0002701  -0.0002824  -0.0005717
            7           8           9          10          11          12
    1  -0.0005889   0.0002012  -0.0001548  -0.0001663   0.0001702  -0.0010772
    2  -0.0001893   0.0000337  -0.0000579  -0.0000577   0.0001099  -0.0003513
    3   0.0000094   0.0002297  -0.0000229  -0.0000312   0.0002306   0.0001115
           13
    1  -0.0004595
    2  -0.0001632
    3  -0.0002351
 Max gradient component =       3.815E-03
 RMS gradient           =       7.416E-04
 Gradient time:  CPU 14.02 s  wall 7.28 s
 Geometry Optimization Parameters
   NAtoms,    NIC,     NZ,  NCons,   NDum,   NFix, NCnnct, MaxDiis
       13      97       0       0       0       0       0       0

 Cartesian Hessian Update
 Hessian Updated using BFGS Update


** GEOMETRY OPTIMIZATION IN DELOCALIZED INTERNAL COORDINATES **
   Searching for a Minimum

   Optimization Cycle:   3

                       Coordinates (Angstroms)
     ATOM                X               Y               Z
      1  C         2.5940103230    0.8024503873   -0.5030784959
      2  C        -0.5474051274   -1.3215704891   -0.0093021653
      3  C        -1.4033533463   -1.1216704078    1.1599465628
      4  C        -1.8177409553    0.1766564117    1.0816022295
      5  C        -1.1939514192    0.7055588380   -0.1310321239
      6  N        -0.4344025198   -0.2106535777   -0.7635975401
      7  H         2.3134119449    0.7571882786    0.5240539509
      8  H        -0.0287675749   -2.2352545871   -0.2812300130
      9  H        -1.6472908164   -1.8631469058    1.9094209146
     10  H        -2.4707264810    0.7174693386    1.7540216195
     11  H        -1.2872909136    1.7151136834   -0.5179952754
     12  C         2.8868296583    0.8447046909   -1.6737568145
     13  H         3.1152677811    0.8716176950   -2.7149472471
   Point Group: c1    Number of degrees of freedom:    33


   Energy is   -286.861015144

 Hessian Updated using BFGS Update

 33 Hessian modes will be used to form the next step
  Hessian Eigenvalues:
     0.004745    0.004901    0.018074    0.018452    0.020006    0.020873
     0.022904    0.025078    0.061188    0.076048    0.092188    0.119732
     0.159844    0.159972    0.160001    0.160525    0.174773    0.188844
     0.200000    0.208030    0.219980    0.336925    0.352413    0.353264
     0.353364    0.358038    0.358230    0.365377    0.379532    0.462892
     0.538488    0.542588    1.010035

 Minimum Search - Taking Simple RFO Step
 Searching for Lamda that Minimizes Along All modes
 Value Taken    Lamda =  -0.00162377
 Calculated Step too Large.  Step scaled by  0.613716
 Step Taken.  Stepsize is  0.300000

                             Maximum     Tolerance    Cnvgd?
         Gradient           0.004123      0.000300      NO
         Displacement       0.137757      0.001200      NO
         Energy change     -0.001199      0.000001      NO


 New Cartesian Coordinates Obtained by Inverse Iteration

 Displacement from previous Coordinates is:  0.441719
 ----------------------------------------------------------------
             Standard Nuclear Orientation (Angstroms)
    I     Atom           X                Y                Z
 ----------------------------------------------------------------
    1      C       2.6569728746     0.8209764868    -0.5339131285
    2      C      -0.5917933769    -1.3361884319    -0.0019600608
    3      C      -1.4281038873    -1.1285781263     1.1794259351
    4      C      -1.8417879084     0.1700028712     1.1005975019
    5      C      -1.2376192416     0.6908308048    -0.1248703111
    6      N      -0.4878194494    -0.2291415618    -0.7633298563
    7      H       2.3742373268     0.7736667294     0.4924430999
    8      H      -0.0890521706    -2.2557189904    -0.2835833470
    9      H      -1.6574429922    -1.8642457293     1.9390835826
   10      H      -2.4794408311     0.7168424115     1.7827160761
   11      H      -1.3463496661     1.6944551977    -0.5228685024
   12      C       2.9718986306     0.8725734678    -1.6985785927
   13      H       3.2348912451     0.9129882265    -2.7310567947
 ----------------------------------------------------------------
 Nuclear Repulsion Energy =   233.9381273441 hartrees
 There are       25 alpha and       24 beta electrons
 Applying Cartesian multipole field
    Component          Value
    ---------          -----
     (2,0,0)        1.00000E-11
     (0,2,0)        2.00000E-11
     (0,0,2)       -3.00000E-11
 Nucleus-field energy     =     0.0000000034 hartrees
 Requested basis set is 6-31+G(d,p)
 There are 53 shells and 163 basis functions
 A cutoff of  1.0D-14 yielded   1290 shell pairs
 There are     12664 function pairs
 Smallest overlap matrix eigenvalue = 2.42E-05
 Guess MOs from SCF MO coefficient file
 Reading MOs from coefficient file
 Reading MOs from coefficient file
 An unrestricted hybrid HF-DFT SCF calculation will be
 performed using Pulay DIIS extrapolation
 Exchange:     0.2000 Hartree-Fock + 0.0800 Slater + 0.7200 B88
 Correlation:  0.1900 VWN1RPA + 0.8100 LYP
 Using SG-1 standard quadrature grid
 SCF converges when DIIS error is below 1.0E-08
 Geometry optimization detected.  Setting ReadMinima to 0
 Setting SaveMinima to 0
Using Q-Chem read-in guess as SCF_GUESS READ specified.

 using 4 threads for integral computing
 -------------------------------------------------------
 OpenMP Integral computing Module                
 Release: version 1.0, May 2013, Q-Chem Inc. Pittsburgh 
 -------------------------------------------------------
 -------------------------------------------------------
 OpenMP BLAS3 based DFT computing Module                
 Release: version 1.0, May 2013, Q-Chem Inc. Pittsburgh 
 -------------------------------------------------------
 ---------------------------------------
  Cycle       Energy         DIIS Error
 ---------------------------------------
    1    -286.8619286501      6.48E-04
    2    -286.8618223100      4.43E-05
    3    -286.8618295458      4.96E-05
    4    -286.8618364332      1.95E-05
    5    -286.8618376155      7.11E-06
    6    -286.8618377723      3.51E-06
    7    -286.8618378161      1.01E-06
    8    -286.8618378214      1.30E-07
    9    -286.8618378220      7.45E-08
   10    -286.8618378221      5.10E-08
   11    -286.8618378221      1.80E-08
   12    -286.8618378221      1.86E-08
   13    -286.8618378222      1.09E-08
   14    -286.8618378222      3.18E-09 Convergence criterion met
 ---------------------------------------
 <S^2> = 0.7650
 SCF time:  CPU 60.81 s  wall 58.35 s
 SCF   energy in the final basis set = -286.86183782
 Total energy in the final basis set = -286.86183782
 
 --------------------------------------------------------------
 
                    Orbital Energies (a.u.)
 --------------------------------------------------------------
 
 Alpha MOs
 -- Occupied --
-14.329 -10.251 -10.251 -10.212 -10.211 -10.194 -10.191  -0.969
 -0.780  -0.744  -0.732  -0.580  -0.574  -0.563  -0.529  -0.490
 -0.427  -0.421  -0.415  -0.401  -0.289  -0.284  -0.273  -0.262
 -0.252
 -- Virtual --
  0.007   0.016   0.020   0.023   0.024   0.028   0.028   0.031
  0.041   0.046   0.056   0.070   0.075   0.082   0.101   0.104
  0.114   0.115   0.117   0.143   0.149   0.154   0.163   0.165
  0.173   0.181   0.186   0.202   0.207   0.209   0.235   0.236
  0.251   0.258   0.259   0.261   0.287   0.288   0.302   0.307
  0.398   0.429   0.488   0.552   0.647   0.670   0.675   0.684
  0.690   0.694   0.718   0.722   0.731   0.733   0.752   0.764
  0.807   0.838   0.867   0.869   0.892   0.900   0.935   0.968
  1.012   1.019   1.028   1.067   1.082   1.096   1.140   1.192
  1.212   1.255   1.266   1.304   1.324   1.352   1.377   1.385
  1.431   1.455   1.476   1.480   1.519   1.560   1.586   1.664
  1.760   1.875   1.889   1.937   1.939   1.945   1.947   1.960
  1.983   2.020   2.036   2.119   2.183   2.247   2.249   2.365
  2.377   2.385   2.391   2.405   2.431   2.433   2.456   2.519
  2.528   2.591   2.614   2.633   2.719   2.720   2.783   2.803
  2.918   3.020   3.030   3.033   3.190   3.222   3.311   3.458
  3.543   3.755   3.870   4.125   4.295   4.342   4.518   4.632
  4.741   5.368
 
 Beta MOs
 -- Occupied --
-14.332 -10.244 -10.244 -10.211 -10.210 -10.194 -10.191  -0.963
 -0.778  -0.744  -0.711  -0.574  -0.563  -0.563  -0.527  -0.490
 -0.423  -0.412  -0.395  -0.391  -0.290  -0.284  -0.274  -0.259
 -- Virtual --
 -0.149   0.007   0.021   0.024   0.026   0.027   0.030   0.037
  0.046   0.046   0.047   0.060   0.070   0.075   0.084   0.102
  0.108   0.115   0.117   0.119   0.147   0.149   0.155   0.166
  0.169   0.175   0.183   0.187   0.203   0.209   0.210   0.236
  0.244   0.258   0.259   0.263   0.264   0.289   0.290   0.304
  0.311   0.402   0.434   0.497   0.552   0.653   0.675   0.677
  0.688   0.699   0.713   0.727   0.731   0.739   0.745   0.757
  0.766   0.814   0.841   0.868   0.875   0.894   0.901   0.935
  0.972   1.016   1.017   1.028   1.075   1.081   1.096   1.141
  1.197   1.219   1.270   1.272   1.306   1.342   1.362   1.377
  1.385   1.451   1.460   1.483   1.484   1.520   1.560   1.586
  1.668   1.779   1.881   1.893   1.938   1.939   1.945   1.947
  1.960   1.992   2.024   2.049   2.124   2.189   2.259   2.274
  2.366   2.381   2.385   2.391   2.407   2.441   2.442   2.464
  2.534   2.537   2.593   2.628   2.635   2.725   2.727   2.783
  2.807   2.920   3.023   3.030   3.033   3.192   3.222   3.314
  3.458   3.547   3.759   3.870   4.122   4.309   4.346   4.534
  4.632   4.748   5.368
 --------------------------------------------------------------
 
          Ground-State Mulliken Net Atomic Charges

     Atom                 Charge (a.u.)    Spin (a.u.)
  --------------------------------------------------------
      1 C                    -0.129945      -0.000984
      2 C                    -0.128340       0.533515
      3 C                    -0.064630       0.081988
      4 C                    -0.065180       0.081720
      5 C                    -0.129005       0.533927
      6 N                    -0.180958      -0.165018
      7 H                     0.172569      -0.000184
      8 H                     0.139450      -0.026679
      9 H                     0.138677      -0.005976
     10 H                     0.138742      -0.005967
     11 H                     0.139501      -0.026697
     12 C                    -0.211185       0.000369
     13 H                     0.180305      -0.000016
  --------------------------------------------------------
  Sum of atomic charges =    -0.000000
  Sum of spin   charges =     1.000000

 -----------------------------------------------------------------
                    Cartesian Multipole Moments
 -----------------------------------------------------------------
    Charge (ESU x 10^10)
                -0.0000
    Dipole Moment (Debye)
         X      -1.2962      Y      -0.3114      Z       1.6901
       Tot       2.1525
    Quadrupole Moments (Debye-Ang)
        XX     -43.2956     XY      -2.0315     YY     -38.1425
        XZ      -3.4244     YZ      -1.3377     ZZ     -38.7960
    Octopole Moments (Debye-Ang^2)
       XXX     -17.0647    XXY       2.8345    XYY      -9.8733
       YYY      -8.2121    XXZ       1.6901    XYZ      -0.4568
       YYZ       6.7902    XZZ      11.8106    YZZ       4.1599
       ZZZ       3.5038
    Hexadecapole Moments (Debye-Ang^3)
      XXXX   -1013.4255   XXXY    -131.9593   XXYY    -210.4755
      XYYY    -123.1769   YYYY    -254.0620   XXXZ     153.0653
      XXYZ      12.0495   XYYZ      60.2462   YYYZ      56.5065
      XXZZ    -141.2308   XYZZ     -19.2160   YYZZ     -88.6509
      XZZZ     120.8348   YZZZ      37.7374   ZZZZ    -270.4505
 -----------------------------------------------------------------
 Calculating analytic gradient of the SCF energy
 Gradient of SCF Energy
            1           2           3           4           5           6
    1  -0.0015476  -0.0001514   0.0000213   0.0000604  -0.0002627   0.0031768
    2  -0.0005050  -0.0000131  -0.0000159   0.0000383  -0.0000982   0.0010215
    3   0.0003404  -0.0000075   0.0000180   0.0000040   0.0000473  -0.0003921
            7           8           9          10          11          12
    1   0.0001122  -0.0001576  -0.0000136  -0.0000108  -0.0001648  -0.0010965
    2   0.0000590  -0.0000592   0.0000071  -0.0000186  -0.0000574  -0.0003720
    3   0.0000471   0.0000170   0.0000489   0.0000471   0.0000058  -0.0001490
           13
    1   0.0000343
    2   0.0000134
    3  -0.0000270
 Max gradient component =       3.177E-03
 RMS gradient           =       6.327E-04
 Gradient time:  CPU 14.11 s  wall 8.42 s
 Geometry Optimization Parameters
   NAtoms,    NIC,     NZ,  NCons,   NDum,   NFix, NCnnct, MaxDiis
       13      97       0       0       0       0       0       0

 Cartesian Hessian Update
 Hessian Updated using BFGS Update


** GEOMETRY OPTIMIZATION IN DELOCALIZED INTERNAL COORDINATES **
   Searching for a Minimum

   Optimization Cycle:   4

                       Coordinates (Angstroms)
     ATOM                X               Y               Z
      1  C         2.6569728746    0.8209764868   -0.5339131285
      2  C        -0.5917933769   -1.3361884319   -0.0019600608
      3  C        -1.4281038873   -1.1285781263    1.1794259351
      4  C        -1.8417879084    0.1700028712    1.1005975019
      5  C        -1.2376192416    0.6908308048   -0.1248703111
      6  N        -0.4878194494   -0.2291415618   -0.7633298563
      7  H         2.3742373268    0.7736667294    0.4924430999
      8  H        -0.0890521706   -2.2557189904   -0.2835833470
      9  H        -1.6574429922   -1.8642457293    1.9390835826
     10  H        -2.4794408311    0.7168424115    1.7827160761
     11  H        -1.3463496661    1.6944551977   -0.5228685024
     12  C         2.9718986306    0.8725734678   -1.6985785927
     13  H         3.2348912451    0.9129882265   -2.7310567947
   Point Group: c1    Number of degrees of freedom:    33


   Energy is   -286.861837822

 Hessian Updated using BFGS Update

 33 Hessian modes will be used to form the next step
  Hessian Eigenvalues:
     0.003388    0.004888    0.018341    0.018454    0.020009    0.020964
     0.022904    0.025213    0.061188    0.076214    0.088673    0.119732
     0.159845    0.159972    0.159997    0.160495    0.175014    0.192836
     0.200000    0.206406    0.219980    0.336925    0.352486    0.353264
     0.353370    0.358038    0.358228    0.365525    0.379554    0.462827
     0.538484    0.542541    1.010040

 Minimum Search - Taking Simple RFO Step
 Searching for Lamda that Minimizes Along All modes
 Value Taken    Lamda =  -0.00111371
 Calculated Step too Large.  Step scaled by  0.617251
 Step Taken.  Stepsize is  0.300000

                             Maximum     Tolerance    Cnvgd?
         Gradient           0.002221      0.000300      NO
         Displacement       0.139142      0.001200      NO
         Energy change     -0.000823      0.000001      NO


 New Cartesian Coordinates Obtained by Inverse Iteration

 Displacement from previous Coordinates is:  0.433311
 ----------------------------------------------------------------
             Standard Nuclear Orientation (Angstroms)
    I     Atom           X                Y                Z
 ----------------------------------------------------------------
    1      C       2.7212856364     0.8391895330    -0.5663484266
    2      C      -0.6360427935    -1.3512178869     0.0063750217
    3      C      -1.4538818993    -1.1356079665     1.1989164554
    4      C      -1.8672119612     0.1630979262     1.1188407044
    5      C      -1.2806143460     0.6763040705    -0.1181831817
    6      N      -0.5423812613    -0.2485615683    -0.7628061361
    7      H       2.4328137986     0.7872375646     0.4582671815
    8      H      -0.1429794430    -2.2743536536    -0.2805388125
    9      H      -1.6709169335    -1.8660441945     1.9671458228
   10      H      -2.4920605658     0.7153616219     1.8083656440
   11      H      -1.3980211735     1.6761609068    -0.5231650805
   12      C       3.0582802146     0.9017164591    -1.7243385042
   13      H       3.3503212809     0.9551805434    -2.7484250858
 ----------------------------------------------------------------
 Nuclear Repulsion Energy =   232.3191428759 hartrees
 There are       25 alpha and       24 beta electrons
 Applying Cartesian multipole field
    Component          Value
    ---------          -----
     (2,0,0)        1.00000E-11
     (0,2,0)        2.00000E-11
     (0,0,2)       -3.00000E-11
 Nucleus-field energy     =     0.0000000036 hartrees
 Requested basis set is 6-31+G(d,p)
 There are 53 shells and 163 basis functions
 A cutoff of  1.0D-14 yielded   1284 shell pairs
 There are     12597 function pairs
 Smallest overlap matrix eigenvalue = 2.44E-05
 Guess MOs from SCF MO coefficient file
 Reading MOs from coefficient file
 Reading MOs from coefficient file
 An unrestricted hybrid HF-DFT SCF calculation will be
 performed using Pulay DIIS extrapolation
 Exchange:     0.2000 Hartree-Fock + 0.0800 Slater + 0.7200 B88
 Correlation:  0.1900 VWN1RPA + 0.8100 LYP
 Using SG-1 standard quadrature grid
 SCF converges when DIIS error is below 1.0E-08
 Geometry optimization detected.  Setting ReadMinima to 0
 Setting SaveMinima to 0
Using Q-Chem read-in guess as SCF_GUESS READ specified.

 using 4 threads for integral computing
 -------------------------------------------------------
 OpenMP Integral computing Module                
 Release: version 1.0, May 2013, Q-Chem Inc. Pittsburgh 
 -------------------------------------------------------
 -------------------------------------------------------
 OpenMP BLAS3 based DFT computing Module                
 Release: version 1.0, May 2013, Q-Chem Inc. Pittsburgh 
 -------------------------------------------------------
 ---------------------------------------
  Cycle       Energy         DIIS Error
 ---------------------------------------
    1    -286.8618868901      6.38E-04
    2    -286.8624001357      3.69E-05
    3    -286.8624091880      2.83E-05
    4    -286.8624108793      1.87E-05
    5    -286.8624119606      5.73E-06
    6    -286.8624120659      2.43E-06
    7    -286.8624120843      1.09E-06
    8    -286.8624120891      1.16E-07
    9    -286.8624120894      7.59E-08
   10    -286.8624120895      4.82E-08
   11    -286.8624120896      2.34E-08
   12    -286.8624120896      1.89E-08
   13    -286.8624120896      1.09E-08
   14    -286.8624120896      2.88E-09 Convergence criterion met
 ---------------------------------------
 <S^2> = 0.7650
 SCF time:  CPU 59.93 s  wall 37.56 s
 SCF   energy in the final basis set = -286.86241209
 Total energy in the final basis set = -286.86241209
 
 --------------------------------------------------------------
 
                    Orbital Energies (a.u.)
 --------------------------------------------------------------
 
 Alpha MOs
 -- Occupied --
-14.330 -10.251 -10.251 -10.212 -10.212 -10.195 -10.192  -0.970
 -0.781  -0.745  -0.732  -0.580  -0.574  -0.564  -0.529  -0.491
 -0.427  -0.421  -0.415  -0.401  -0.288  -0.285  -0.275  -0.263
 -0.253
 -- Virtual --
  0.007   0.016   0.019   0.023   0.024   0.027   0.027   0.030
  0.041   0.046   0.056   0.069   0.074   0.081   0.101   0.103
  0.113   0.114   0.116   0.143   0.149   0.154   0.162   0.163
  0.171   0.181   0.187   0.202   0.207   0.209   0.234   0.237
  0.251   0.254   0.259   0.261   0.286   0.287   0.302   0.308
  0.397   0.429   0.488   0.549   0.647   0.668   0.674   0.683
  0.689   0.694   0.717   0.721   0.729   0.734   0.751   0.756
  0.805   0.838   0.867   0.869   0.892   0.901   0.935   0.966
  1.012   1.016   1.026   1.066   1.072   1.099   1.139   1.191
  1.208   1.253   1.266   1.302   1.323   1.349   1.376   1.382
  1.430   1.459   1.477   1.482   1.510   1.556   1.579   1.662
  1.759   1.875   1.888   1.937   1.942   1.942   1.946   1.952
  1.983   2.020   2.035   2.118   2.182   2.246   2.248   2.362
  2.375   2.384   2.389   2.405   2.430   2.432   2.456   2.518
  2.527   2.591   2.613   2.630   2.719   2.719   2.781   2.802
  2.918   3.020   3.029   3.031   3.190   3.221   3.311   3.455
  3.543   3.755   3.869   4.120   4.294   4.341   4.513   4.628
  4.741   5.366
 
 Beta MOs
 -- Occupied --
-14.333 -10.244 -10.244 -10.211 -10.210 -10.195 -10.192  -0.963
 -0.778  -0.745  -0.711  -0.574  -0.564  -0.563  -0.527  -0.491
 -0.423  -0.412  -0.395  -0.391  -0.289  -0.285  -0.275  -0.260
 -- Virtual --
 -0.149   0.007   0.020   0.024   0.026   0.027   0.029   0.037
  0.046   0.046   0.047   0.060   0.070   0.074   0.083   0.102
  0.107   0.114   0.115   0.118   0.147   0.149   0.154   0.164
  0.168   0.172   0.183   0.188   0.203   0.208   0.210   0.235
  0.245   0.254   0.258   0.262   0.264   0.287   0.290   0.304
  0.311   0.401   0.433   0.496   0.550   0.653   0.673   0.676
  0.687   0.698   0.713   0.725   0.729   0.737   0.748   0.753
  0.758   0.812   0.840   0.868   0.874   0.894   0.901   0.935
  0.970   1.012   1.016   1.027   1.071   1.075   1.099   1.140
  1.196   1.215   1.269   1.272   1.304   1.342   1.360   1.376
  1.382   1.449   1.465   1.484   1.485   1.511   1.556   1.579
  1.666   1.779   1.881   1.892   1.938   1.942   1.942   1.946
  1.952   1.992   2.024   2.049   2.124   2.189   2.258   2.273
  2.362   2.379   2.384   2.390   2.406   2.440   2.442   2.464
  2.533   2.538   2.593   2.627   2.632   2.724   2.727   2.782
  2.806   2.920   3.022   3.029   3.031   3.192   3.222   3.314
  3.455   3.546   3.759   3.869   4.118   4.309   4.345   4.529
  4.629   4.748   5.366
 --------------------------------------------------------------
 
          Ground-State Mulliken Net Atomic Charges

     Atom                 Charge (a.u.)    Spin (a.u.)
  --------------------------------------------------------
      1 C                    -0.134806      -0.000657
      2 C                    -0.126818       0.533322
      3 C                    -0.063260       0.081806
      4 C                    -0.063435       0.082482
      5 C                    -0.127338       0.533206
      6 N                    -0.184374      -0.164754
      7 H                     0.173216      -0.000135
      8 H                     0.139546      -0.026669
      9 H                     0.138694      -0.005957
     10 H                     0.138760      -0.005986
     11 H                     0.139573      -0.026671
     12 C                    -0.210667       0.000027
     13 H                     0.180910      -0.000013
  --------------------------------------------------------
  Sum of atomic charges =     0.000000
  Sum of spin   charges =     1.000000

 -----------------------------------------------------------------
                    Cartesian Multipole Moments
 -----------------------------------------------------------------
    Charge (ESU x 10^10)
                -0.0000
    Dipole Moment (Debye)
         X      -1.2371      Y      -0.2869      Z       1.7304
       Tot       2.1464
    Quadrupole Moments (Debye-Ang)
        XX     -42.9777     XY      -1.9358     YY     -38.1003
        XZ      -3.6317     YZ      -1.4333     ZZ     -38.8203
    Octopole Moments (Debye-Ang^2)
       XXX     -15.1784    XXY       3.5548    XYY      -9.8248
       YYY      -8.3003    XXZ       0.6213    XYZ      -0.8497
       YYZ       6.7940    XZZ      12.6420    YZZ       4.4996
       ZZZ       3.7916
    Hexadecapole Moments (Debye-Ang^3)
      XXXX   -1056.4161   XXXY    -138.1901   XXYY    -218.7791
      XYYY    -130.4669   YYYY    -258.5603   XXXZ     155.3994
      XXYZ      10.8543   XYYZ      62.5756   YYYZ      59.1456
      XXZZ    -145.0983   XYZZ     -20.0633   YYZZ     -90.1112
      XZZZ     125.3542   YZZZ      38.9761   ZZZZ    -276.9719
 -----------------------------------------------------------------
 Calculating analytic gradient of the SCF energy
 Gradient of SCF Energy
            1           2           3           4           5           6
    1  -0.0016991  -0.0000224  -0.0000186  -0.0001187  -0.0000283   0.0024507
    2  -0.0005834   0.0000276  -0.0001094   0.0000418  -0.0000390   0.0008320
    3   0.0001204   0.0001617  -0.0000671  -0.0001296   0.0002545  -0.0003440
            7           8           9          10          11          12
    1   0.0006229  -0.0002825   0.0000664   0.0000549  -0.0003047  -0.0010984
    2   0.0002473  -0.0001122   0.0000302   0.0000095  -0.0001071  -0.0003728
    3   0.0001819  -0.0000981   0.0000765   0.0000683  -0.0001260  -0.0001748
           13
    1   0.0003778
    2   0.0001356
    3   0.0000763
 Max gradient component =       2.451E-03
 RMS gradient           =       5.654E-04
 Gradient time:  CPU 13.78 s  wall 6.02 s
 Geometry Optimization Parameters
   NAtoms,    NIC,     NZ,  NCons,   NDum,   NFix, NCnnct, MaxDiis
       13      97       0       0       0       0       0       0

 Cartesian Hessian Update
 Hessian Updated using BFGS Update


** GEOMETRY OPTIMIZATION IN DELOCALIZED INTERNAL COORDINATES **
   Searching for a Minimum

   Optimization Cycle:   5

                       Coordinates (Angstroms)
     ATOM                X               Y               Z
      1  C         2.7212856364    0.8391895330   -0.5663484266
      2  C        -0.6360427935   -1.3512178869    0.0063750217
      3  C        -1.4538818993   -1.1356079665    1.1989164554
      4  C        -1.8672119612    0.1630979262    1.1188407044
      5  C        -1.2806143460    0.6763040705   -0.1181831817
      6  N        -0.5423812613   -0.2485615683   -0.7628061361
      7  H         2.4328137986    0.7872375646    0.4582671815
      8  H        -0.1429794430   -2.2743536536   -0.2805388125
      9  H        -1.6709169335   -1.8660441945    1.9671458228
     10  H        -2.4920605658    0.7153616219    1.8083656440
     11  H        -1.3980211735    1.6761609068   -0.5231650805
     12  C         3.0582802146    0.9017164591   -1.7243385042
     13  H         3.3503212809    0.9551805434   -2.7484250858
   Point Group: c1    Number of degrees of freedom:    33


   Energy is   -286.862412090

 Hessian Updated using BFGS Update

 33 Hessian modes will be used to form the next step
  Hessian Eigenvalues:
     0.002249    0.004889    0.018411    0.018454    0.020019    0.020992
     0.022905    0.025189    0.061189    0.076234    0.085204    0.119731
     0.159846    0.159972    0.159992    0.160484    0.174805    0.199653
     0.200002    0.205100    0.219980    0.336925    0.352467    0.353264
     0.353373    0.358038    0.358227    0.365541    0.379552    0.462803
     0.538484    0.542489    1.010020

 Minimum Search - Taking Simple RFO Step
 Searching for Lamda that Minimizes Along All modes
 Value Taken    Lamda =  -0.00084859
 Calculated Step too Large.  Step scaled by  0.586275
 Step Taken.  Stepsize is  0.300000

                             Maximum     Tolerance    Cnvgd?
         Gradient           0.001555      0.000300      NO
         Displacement       0.148210      0.001200      NO
         Energy change     -0.000574      0.000001      NO


 New Cartesian Coordinates Obtained by Inverse Iteration

 Displacement from previous Coordinates is:  0.423516
 ----------------------------------------------------------------
             Standard Nuclear Orientation (Angstroms)
    I     Atom           X                Y                Z
 ----------------------------------------------------------------
    1      C       2.7865386871     0.8577531557    -0.5988412800
    2      C      -0.6800394524    -1.3665823985     0.0151192054
    3      C      -1.4804891110    -1.1427667094     1.2177421988
    4      C      -1.8920289010     0.1564325986     1.1366564978
    5      C      -1.3231769054     0.6614189465    -0.1119470583
    6      N      -0.5969837826    -0.2687972212    -0.7622303268
    7      H       2.4882423251     0.7988814744     0.4226655395
    8      H      -0.1924602580    -2.2919592816    -0.2738789965
    9      H      -1.6872566182    -1.8683253643     1.9933554655
   10      H      -2.5049233360     0.7141004050     1.8325023343
   11      H      -1.4444933106     1.6590849065    -0.5211327113
   12      C       3.1453049161     0.9320072393    -1.7496639981
   13      H       3.4603563004     0.9972156048    -2.7662412680
 ----------------------------------------------------------------
 Nuclear Repulsion Energy =   230.7874521367 hartrees
 There are       25 alpha and       24 beta electrons
 Applying Cartesian multipole field
    Component          Value
    ---------          -----
     (2,0,0)        1.00000E-11
     (0,2,0)        2.00000E-11
     (0,0,2)       -3.00000E-11
 Nucleus-field energy     =     0.0000000038 hartrees
 Requested basis set is 6-31+G(d,p)
 There are 53 shells and 163 basis functions
 A cutoff of  1.0D-14 yielded   1274 shell pairs
 There are     12461 function pairs
 Smallest overlap matrix eigenvalue = 2.46E-05
 Guess MOs from SCF MO coefficient file
 Reading MOs from coefficient file
 Reading MOs from coefficient file
 An unrestricted hybrid HF-DFT SCF calculation will be
 performed using Pulay DIIS extrapolation
 Exchange:     0.2000 Hartree-Fock + 0.0800 Slater + 0.7200 B88
 Correlation:  0.1900 VWN1RPA + 0.8100 LYP
 Using SG-1 standard quadrature grid
 SCF converges when DIIS error is below 1.0E-08
 Geometry optimization detected.  Setting ReadMinima to 0
 Setting SaveMinima to 0
Using Q-Chem read-in guess as SCF_GUESS READ specified.

 using 4 threads for integral computing
 -------------------------------------------------------
 OpenMP Integral computing Module                
 Release: version 1.0, May 2013, Q-Chem Inc. Pittsburgh 
 -------------------------------------------------------
 -------------------------------------------------------
 OpenMP BLAS3 based DFT computing Module                
 Release: version 1.0, May 2013, Q-Chem Inc. Pittsburgh 
 -------------------------------------------------------
 ---------------------------------------
  Cycle       Energy         DIIS Error
 ---------------------------------------
    1    -286.8621817935      6.31E-04
    2    -286.8628286513      3.50E-05
    3    -286.8628376372      2.27E-05
    4    -286.8628388735      1.48E-05
    5    -286.8628395757      5.85E-06
    6    -286.8628397026      1.08E-06
    7    -286.8628397070      6.84E-07
    8    -286.8628397088      1.51E-07
    9    -286.8628397090      9.59E-08
   10    -286.8628397091      4.44E-08
   11    -286.8628397091      2.55E-08
   12    -286.8628397092      1.78E-08
   13    -286.8628397092      9.95E-09 Convergence criterion met
 ---------------------------------------
 <S^2> = 0.7650
 SCF time:  CPU 54.87 s  wall 45.40 s
 SCF   energy in the final basis set = -286.86283971
 Total energy in the final basis set = -286.86283971
 
 --------------------------------------------------------------
 
                    Orbital Energies (a.u.)
 --------------------------------------------------------------
 
 Alpha MOs
 -- Occupied --
-14.330 -10.252 -10.252 -10.212 -10.212 -10.196 -10.193  -0.970
 -0.781  -0.746  -0.732  -0.580  -0.574  -0.564  -0.529  -0.491
 -0.427  -0.421  -0.415  -0.401  -0.288  -0.286  -0.276  -0.264
 -0.253
 -- Virtual --
  0.006   0.017   0.019   0.023   0.024   0.027   0.027   0.030
  0.040   0.046   0.056   0.069   0.073   0.081   0.100   0.102
  0.111   0.113   0.116   0.143   0.149   0.153   0.161   0.162
  0.169   0.180   0.188   0.201   0.206   0.208   0.234   0.238
  0.249   0.251   0.259   0.262   0.284   0.286   0.302   0.308
  0.396   0.428   0.488   0.547   0.647   0.667   0.674   0.683
  0.689   0.693   0.716   0.719   0.727   0.734   0.749   0.750
  0.803   0.837   0.867   0.868   0.892   0.900   0.935   0.963
  1.012   1.015   1.025   1.065   1.065   1.099   1.137   1.191
  1.204   1.252   1.266   1.299   1.323   1.347   1.375   1.379
  1.430   1.463   1.477   1.485   1.501   1.554   1.572   1.661
  1.759   1.875   1.887   1.937   1.939   1.944   1.945   1.949
  1.983   2.020   2.035   2.118   2.182   2.245   2.248   2.357
  2.375   2.383   2.389   2.404   2.430   2.430   2.456   2.518
  2.527   2.591   2.613   2.626   2.719   2.719   2.780   2.800
  2.918   3.020   3.028   3.030   3.190   3.221   3.311   3.453
  3.542   3.755   3.869   4.117   4.294   4.340   4.509   4.625
  4.741   5.364
 
 Beta MOs
 -- Occupied --
-14.333 -10.244 -10.244 -10.211 -10.210 -10.196 -10.193  -0.963
 -0.778  -0.746  -0.712  -0.574  -0.564  -0.563  -0.527  -0.491
 -0.423  -0.413  -0.395  -0.391  -0.288  -0.286  -0.277  -0.260
 -- Virtual --
 -0.149   0.007   0.020   0.023   0.026   0.026   0.028   0.036
  0.046   0.046   0.047   0.060   0.070   0.073   0.083   0.102
  0.107   0.113   0.114   0.117   0.146   0.149   0.154   0.162
  0.168   0.170   0.182   0.190   0.202   0.208   0.209   0.235
  0.245   0.249   0.258   0.262   0.265   0.285   0.289   0.303
  0.312   0.400   0.433   0.496   0.548   0.652   0.671   0.675
  0.687   0.697   0.713   0.724   0.728   0.735   0.749   0.751
  0.752   0.809   0.840   0.869   0.874   0.894   0.900   0.935
  0.967   1.010   1.016   1.027   1.064   1.074   1.099   1.138
  1.195   1.211   1.268   1.272   1.301   1.342   1.358   1.375
  1.379   1.449   1.469   1.484   1.487   1.502   1.554   1.573
  1.664   1.779   1.881   1.892   1.938   1.939   1.944   1.946
  1.949   1.992   2.024   2.049   2.124   2.189   2.257   2.273
  2.357   2.379   2.383   2.389   2.406   2.439   2.441   2.464
  2.533   2.537   2.593   2.625   2.630   2.724   2.727   2.780
  2.805   2.920   3.022   3.028   3.030   3.192   3.222   3.314
  3.453   3.546   3.759   3.869   4.115   4.308   4.344   4.525
  4.625   4.748   5.364
 --------------------------------------------------------------
 
          Ground-State Mulliken Net Atomic Charges

     Atom                 Charge (a.u.)    Spin (a.u.)
  --------------------------------------------------------
      1 C                    -0.140132      -0.000349
      2 C                    -0.125037       0.533089
      3 C                    -0.062110       0.081650
      4 C                    -0.061912       0.083187
      5 C                    -0.125361       0.532519
      6 N                    -0.188468      -0.164470
      7 H                     0.173852      -0.000105
      8 H                     0.139638      -0.026657
      9 H                     0.138726      -0.005939
     10 H                     0.138792      -0.005999
     11 H                     0.139650      -0.026647
     12 C                    -0.209095      -0.000269
     13 H                     0.181457      -0.000009
  --------------------------------------------------------
  Sum of atomic charges =     0.000000
  Sum of spin   charges =     1.000000

 -----------------------------------------------------------------
                    Cartesian Multipole Moments
 -----------------------------------------------------------------
    Charge (ESU x 10^10)
                 0.0000
    Dipole Moment (Debye)
         X      -1.1870      Y      -0.2649      Z       1.7682
       Tot       2.1460
    Quadrupole Moments (Debye-Ang)
        XX     -42.7275     XY      -1.8573     YY     -38.0651
        XZ      -3.8359     YZ      -1.5346     ZZ     -38.8533
    Octopole Moments (Debye-Ang^2)
       XXX     -13.5728    XXY       4.1835    XYY      -9.7928
       YYY      -8.3838    XXZ      -0.3476    XYZ      -1.2353
       YYZ       6.8172    XZZ      13.4144    YZZ       4.8415
       ZZZ       4.0566
    Hexadecapole Moments (Debye-Ang^3)
      XXXX   -1101.5653   XXXY    -144.8236   XXYY    -227.4146
      XYYY    -138.1388   YYYY    -263.3756   XXXZ     157.9633
      XXYZ       9.6100   XYYZ      64.8901   YYYZ      61.8304
      XXZZ    -149.4384   XYZZ     -21.0188   YYZZ     -91.6417
      XZZZ     130.1693   YZZZ      40.3157   ZZZZ    -283.4763
 -----------------------------------------------------------------
 Calculating analytic gradient of the SCF energy
 Gradient of SCF Energy
            1           2           3           4           5           6
    1  -0.0018571   0.0001182  -0.0001306  -0.0000776  -0.0000182   0.0018456
    2  -0.0006554   0.0000652  -0.0001254   0.0000295  -0.0000637   0.0006763
    3   0.0000025   0.0002461  -0.0001395  -0.0000954   0.0002183  -0.0002871
            7           8           9          10          11          12
    1   0.0009526  -0.0002822   0.0000794   0.0000872  -0.0002839  -0.0009608
    2   0.0003690  -0.0001037   0.0000321   0.0000228  -0.0001099  -0.0003282
    3   0.0002805  -0.0001284   0.0000652   0.0000689  -0.0001442  -0.0002381
           13
    1   0.0005274
    2   0.0001913
    3   0.0001512
 Max gradient component =       1.857E-03
 RMS gradient           =       5.266E-04
 Gradient time:  CPU 13.32 s  wall 6.08 s
 Geometry Optimization Parameters
   NAtoms,    NIC,     NZ,  NCons,   NDum,   NFix, NCnnct, MaxDiis
       13      97       0       0       0       0       0       0

 Cartesian Hessian Update
 Hessian Updated using BFGS Update


** GEOMETRY OPTIMIZATION IN DELOCALIZED INTERNAL COORDINATES **
   Searching for a Minimum

   Optimization Cycle:   6

                       Coordinates (Angstroms)
     ATOM                X               Y               Z
      1  C         2.7865386871    0.8577531557   -0.5988412800
      2  C        -0.6800394524   -1.3665823985    0.0151192054
      3  C        -1.4804891110   -1.1427667094    1.2177421988
      4  C        -1.8920289010    0.1564325986    1.1366564978
      5  C        -1.3231769054    0.6614189465   -0.1119470583
      6  N        -0.5969837826   -0.2687972212   -0.7622303268
      7  H         2.4882423251    0.7988814744    0.4226655395
      8  H        -0.1924602580   -2.2919592816   -0.2738789965
      9  H        -1.6872566182   -1.8683253643    1.9933554655
     10  H        -2.5049233360    0.7141004050    1.8325023343
     11  H        -1.4444933106    1.6590849065   -0.5211327113
     12  C         3.1453049161    0.9320072393   -1.7496639981
     13  H         3.4603563004    0.9972156048   -2.7662412680
   Point Group: c1    Number of degrees of freedom:    33


   Energy is   -286.862839709

 Hessian Updated using BFGS Update

 33 Hessian modes will be used to form the next step
  Hessian Eigenvalues:
     0.001417    0.004890    0.018331    0.018465    0.020070    0.020928
     0.022909    0.025151    0.061189    0.076179    0.081781    0.119729
     0.159845    0.159973    0.159994    0.160491    0.174637    0.200000
     0.201952    0.205740    0.219980    0.336925    0.352434    0.353264
     0.353373    0.358038    0.358227    0.365531    0.379553    0.462795
     0.538493    0.542459    1.010027

 Minimum Search - Taking Simple RFO Step
 Searching for Lamda that Minimizes Along All modes
 Value Taken    Lamda =  -0.00073468
 Calculated Step too Large.  Step scaled by  0.526564
[...]
    9      H      -2.3950064204    -2.1079867905     1.5333210351
   10      H      -3.1652429764     0.4928289074     1.4720579276
   11      H      -1.1300342146     1.8179124446     0.1883938510
   12      C       3.7192321434     1.0596133255    -1.9444073616
   13      H       4.6414591119     1.3332979017    -2.4049003613
 ----------------------------------------------------------------
 Nuclear Repulsion Energy =   228.0072949748 hartrees
 There are       25 alpha and       24 beta electrons
 Applying Cartesian multipole field
    Component          Value
    ---------          -----
     (2,0,0)        1.00000E-11
     (0,2,0)        2.00000E-11
     (0,0,2)       -3.00000E-11
 Nucleus-field energy     =     0.0000000049 hartrees
 Requested basis set is 6-31+G(d,p)
 There are 53 shells and 163 basis functions
 A cutoff of  1.0D-14 yielded   1248 shell pairs
 There are     12178 function pairs
 Smallest overlap matrix eigenvalue = 1.68E-05
 Guess MOs from SCF MO coefficient file
 Reading MOs from coefficient file
 Reading MOs from coefficient file
 An unrestricted hybrid HF-DFT SCF calculation will be
 performed using Pulay DIIS extrapolation
 Exchange:     0.2000 Hartree-Fock + 0.0800 Slater + 0.7200 B88
 Correlation:  0.1900 VWN1RPA + 0.8100 LYP
 Using SG-1 standard quadrature grid
 SCF converges when DIIS error is below 1.0E-08
 Geometry optimization detected.  Setting ReadMinima to 0
 Setting SaveMinima to 0
Using Q-Chem read-in guess as SCF_GUESS READ specified.

 using 4 threads for integral computing
 -------------------------------------------------------
 OpenMP Integral computing Module                
 Release: version 1.0, May 2013, Q-Chem Inc. Pittsburgh 
 -------------------------------------------------------
 -------------------------------------------------------
 OpenMP BLAS3 based DFT computing Module                
 Release: version 1.0, May 2013, Q-Chem Inc. Pittsburgh 
 -------------------------------------------------------
 ---------------------------------------
  Cycle       Energy         DIIS Error
 ---------------------------------------
    1    -286.8702034972      1.08E-04
    2    -286.8706258688      7.84E-06
    3    -286.8706258070      1.12E-05
    4    -286.8706262885      2.32E-06
    5    -286.8706263070      1.17E-06
    6    -286.8706263116      3.44E-07
    7    -286.8706263120      2.28E-07
    8    -286.8706263122      6.40E-08
    9    -286.8706263122      2.53E-08
   10    -286.8706263123      1.71E-08
   11    -286.8706263123      1.02E-08
   12    -286.8706263123      5.09E-09 Convergence criterion met
 ---------------------------------------
 <S^2> = 0.7648
 SCF time:  CPU 48.92 s  wall 27.65 s
 SCF   energy in the final basis set = -286.87062631
 Total energy in the final basis set = -286.87062631
 
 --------------------------------------------------------------
 
                    Orbital Energies (a.u.)
 --------------------------------------------------------------
 
 Alpha MOs
 -- Occupied --
-14.344 -10.262 -10.262 -10.221 -10.220 -10.183 -10.179  -0.981
 -0.790  -0.743  -0.734  -0.590  -0.584  -0.550  -0.538  -0.475
 -0.438  -0.431  -0.424  -0.411  -0.296  -0.275  -0.274  -0.273
 -0.262
 -- Virtual --
  0.005   0.007   0.015   0.019   0.027   0.030   0.031   0.033
  0.047   0.052   0.053   0.064   0.077   0.085   0.088   0.094
  0.112   0.118   0.122   0.141   0.146   0.159   0.176   0.176
  0.178   0.191   0.195   0.216   0.217   0.220   0.227   0.232
  0.240   0.252   0.258   0.279   0.279   0.297   0.337   0.358
  0.414   0.424   0.474   0.581   0.641   0.655   0.670   0.678
  0.680   0.695   0.696   0.709   0.723   0.750   0.760   0.763
  0.846   0.855   0.864   0.872   0.885   0.918   0.941   0.964
  0.990   0.996   1.045   1.074   1.119   1.158   1.186   1.187
  1.239   1.250   1.294   1.313   1.336   1.392   1.402   1.418
  1.447   1.460   1.470   1.553   1.559   1.560   1.617   1.722
  1.773   1.868   1.880   1.927   1.950   1.950   1.958   1.961
  1.975   2.009   2.025   2.120   2.172   2.227   2.237   2.366
  2.373   2.395   2.400   2.411   2.420   2.439   2.450   2.508
  2.522   2.586   2.603   2.628   2.711   2.716   2.796   2.834
  2.902   3.009   3.034   3.047   3.181   3.217   3.303   3.474
  3.536   3.749   3.882   4.126   4.288   4.356   4.532   4.628
  4.733   5.360
 
 Beta MOs
 -- Occupied --
-14.347 -10.255 -10.255 -10.220 -10.219 -10.183 -10.179  -0.975
 -0.787  -0.734  -0.722  -0.584  -0.573  -0.550  -0.536  -0.475
 -0.434  -0.421  -0.405  -0.401  -0.298  -0.274  -0.274  -0.270
 -- Virtual --
 -0.159   0.005   0.019   0.028   0.028   0.030   0.032   0.034
  0.039   0.048   0.053   0.059   0.065   0.078   0.085   0.093
  0.094   0.117   0.119   0.122   0.145   0.153   0.159   0.176
  0.177   0.179   0.193   0.196   0.217   0.221   0.221   0.226
  0.237   0.246   0.256   0.261   0.281   0.282   0.301   0.338
  0.358   0.417   0.428   0.483   0.581   0.646   0.672   0.681
  0.681   0.696   0.699   0.714   0.714   0.736   0.750   0.761
  0.763   0.849   0.858   0.869   0.873   0.887   0.918   0.941
  0.969   0.984   1.000   1.046   1.082   1.120   1.158   1.192
  1.193   1.254   1.257   1.294   1.331   1.347   1.392   1.402
  1.439   1.450   1.465   1.476   1.553   1.559   1.560   1.619
  1.732   1.785   1.874   1.885   1.930   1.950   1.950   1.959
  1.961   1.983   2.013   2.038   2.127   2.179   2.240   2.262
  2.370   2.374   2.396   2.400   2.411   2.431   2.447   2.458
  2.525   2.530   2.587   2.617   2.630   2.719   2.722   2.800
  2.835   2.904   3.012   3.034   3.047   3.183   3.217   3.305
  3.474   3.540   3.752   3.882   4.123   4.303   4.359   4.548
  4.629   4.740   5.360
 --------------------------------------------------------------
 
          Ground-State Mulliken Net Atomic Charges

     Atom                 Charge (a.u.)    Spin (a.u.)
  --------------------------------------------------------
      1 C                    -0.082978       0.000298
      2 C                    -0.036193       0.531043
      3 C                    -0.135224       0.080020
      4 C                    -0.134080       0.082222
      5 C                    -0.037708       0.529843
      6 N                    -0.179871      -0.160376
      7 H                     0.210389       0.001409
      8 H                     0.145967      -0.026360
      9 H                     0.143131      -0.005808
     10 H                     0.143138      -0.005891
     11 H                     0.146004      -0.026316
     12 C                    -0.365519      -0.000098
     13 H                     0.182946       0.000014
  --------------------------------------------------------
  Sum of atomic charges =     0.000000
  Sum of spin   charges =     1.000000

 -----------------------------------------------------------------
                    Cartesian Multipole Moments
 -----------------------------------------------------------------
    Charge (ESU x 10^10)
                -0.0000
    Dipole Moment (Debye)
         X      -2.6962      Y      -0.7630      Z       1.4842
       Tot       3.1709
    Quadrupole Moments (Debye-Ang)
        XX     -38.1566     XY      -0.3139     YY     -37.1435
        XZ      -3.4494     YZ      -1.2375     ZZ     -43.8681
    Octopole Moments (Debye-Ang^2)
       XXX       2.4305    XXY      10.4627    XYY     -10.8532
       YYY     -10.1369    XXZ      -5.7956    XYZ      -3.9973
       YYZ       7.2368    XZZ      -0.7070    YZZ       0.2986
       ZZZ       7.8875
    Hexadecapole Moments (Debye-Ang^3)
      XXXX   -1041.3159   XXXY     -86.9431   XXYY    -239.2844
      XYYY    -153.4326   YYYY    -267.2800   XXXZ     165.5417
      XXYZ     -12.5686   XYYZ      91.6536   YYYZ      86.8612
      XXZZ    -210.4510   XYZZ     -30.6618   YYZZ    -108.5845
      XZZZ     301.7330   YZZZ      87.8568   ZZZZ    -401.4930
 -----------------------------------------------------------------
 Calculating analytic gradient of the SCF energy
 Gradient of SCF Energy
            1           2           3           4           5           6
    1   0.0001858   0.0000572  -0.0000377  -0.0000486   0.0000945   0.0000820
    2   0.0000053  -0.0000712  -0.0000876  -0.0001018   0.0000627   0.0001857
    3   0.0000111   0.0000552  -0.0001369   0.0002652  -0.0000672  -0.0001066
            7           8           9          10          11          12
    1  -0.0001735   0.0000268  -0.0000470  -0.0001108  -0.0000164  -0.0001470
    2  -0.0000196  -0.0001045   0.0000417   0.0000981  -0.0000122  -0.0001012
    3   0.0000291   0.0000247   0.0000072   0.0000028  -0.0000401   0.0000012
           13
    1   0.0001347
    2   0.0001046
    3  -0.0000458
 Max gradient component =       2.652E-04
 RMS gradient           =       9.627E-05
 Gradient time:  CPU 13.19 s  wall 5.08 s
 Geometry Optimization Parameters
   NAtoms,    NIC,     NZ,  NCons,   NDum,   NFix, NCnnct, MaxDiis
       13      97       0       0       0       0       0       0

 Cartesian Hessian Update
 Hessian Updated using BFGS Update


** GEOMETRY OPTIMIZATION IN CARTESIAN COORDINATES **
   Searching for a Minimum

   Optimization Cycle: 142

                       Coordinates (Angstroms)
     ATOM                X               Y               Z
      1  C         2.6731499726    0.7511948990   -1.4203991901
      2  C        -0.5712723791   -1.2928655477    0.4498459594
      3  C        -1.8706855333   -1.2600527299    1.1133523888
      4  C        -2.2582392490    0.0489512889    1.0835688056
      5  C        -1.1780314650    0.7552604497    0.4016607860
      6  N        -0.1788748037   -0.0716375071    0.0323262415
      7  H         1.7411551783    0.4781224712   -0.9548356561
      8  H         0.0509812432   -2.1661757605    0.2841211528
      9  H        -2.3950064204   -2.1079867905    1.5333210351
     10  H        -3.1652429764    0.4928289074    1.4720579276
     11  H        -1.1300342146    1.8179124446    0.1883938510
     12  C         3.7192321434    1.0596133255   -1.9444073616
     13  H         4.6414591119    1.3332979017   -2.4049003613
   Point Group: c1    Number of degrees of freedom:    33


   Energy is   -286.870626312


 Translations and Rotations Projected Out of Hessian

 33 Hessian modes will be used to form the next step
  Hessian Eigenvalues:
     0.000249    0.002542    0.003097    0.010378    0.017091    0.042572
     0.062527    0.082761    0.101389    0.131188    0.174056    0.211169
     0.269103    0.323078    0.424783    0.453064    0.570238    0.675550
     0.770059    0.815705    0.840535    0.891329    0.965212    0.982782
     0.997229    1.000014    1.004314    1.023308    1.031226    1.155087
     1.182667    1.418597    4.303869

 Minimum Search - Taking Simple RFO Step
 Searching for Lamda that Minimizes Along All modes
 Value Taken    Lamda =  -0.00000101
 Step Taken.  Stepsize is  0.013125

                             Maximum     Tolerance    Cnvgd?
         Gradient           0.000265      0.000300     YES
         Displacement       0.004919      0.001200      NO
         Energy change     -0.000001      0.000001     YES


                       Distance Matrix (Angstroms)
             C (  1)   C (  2)   C (  3)   C (  4)   C (  5)   N (  6)
   C (  2)  4.266413
   C (  3)  5.577764  1.459381
   C (  4)  5.575088  2.246761  1.365495
   C (  5)  4.260460  2.136656  2.246722  1.459699
   N (  6)  3.304771  1.348961  2.333061  2.333111  1.348511
   H (  7)  1.077002  3.233705  4.510438  4.509372  3.230873  2.227833
   H (  8)  4.276939  1.085051  2.280677  3.298243  3.171605  2.122104
   H (  9)  6.525764  2.272520  1.081794  2.207570  3.310569  3.363175
   H ( 10)  6.520728  3.310937  2.208425  1.081946  2.272362  3.363011
   H ( 11)  4.265010  3.171358  3.298179  2.281098  1.084904  2.121193
   C ( 12)  1.209956  5.447480  6.780702  6.776448  5.438737  4.514692
   H ( 13)  2.276473  6.497606  7.842933  7.837398  6.486708  5.581177
             H (  7)   H (  8)   H (  9)   H ( 10)   H ( 11)   C ( 12)
   H (  8)  3.374021
   H (  9)  5.476013  2.747133
   H ( 10)  5.473826  4.338848  2.713164
   H ( 11)  3.368344  4.156551  4.338395  2.746946
   C ( 12)  2.286957  5.369182  7.714415  7.706457  5.351565
   H ( 13)  3.353472  6.367860  8.767205  8.756814  6.345878  1.066518

 
 Final energy is   -286.870626312283     


 ******************************
 **  OPTIMIZATION CONVERGED  **
 ******************************

                       Coordinates (Angstroms)
     ATOM                X               Y               Z
      1  C         2.6731499726    0.7511948990   -1.4203991901
      2  C        -0.5712723791   -1.2928655477    0.4498459594
      3  C        -1.8706855333   -1.2600527299    1.1133523888
      4  C        -2.2582392490    0.0489512889    1.0835688056
      5  C        -1.1780314650    0.7552604497    0.4016607860
      6  N        -0.1788748037   -0.0716375071    0.0323262415
      7  H         1.7411551783    0.4781224712   -0.9548356561
      8  H         0.0509812432   -2.1661757605    0.2841211528
      9  H        -2.3950064204   -2.1079867905    1.5333210351
     10  H        -3.1652429764    0.4928289074    1.4720579276
     11  H        -1.1300342146    1.8179124446    0.1883938510
     12  C         3.7192321434    1.0596133255   -1.9444073616
     13  H         4.6414591119    1.3332979017   -2.4049003613

Z-matrix Print:
$molecule
0 2
N 
C  1 1.348511
H  2 1.084904 1 120.930491
C  1 1.348961 2 104.763556 3 -179.933167 0
H  4 1.085051 1 120.967579 2 -179.938686 0
C  4 1.459381 1 112.294528 2 0.021105 0
H  6 1.081794 4 126.187408 1 -179.980291 0
C  6 1.365495 4 105.328104 1 -0.056772 0
H  8 1.081946 6 128.563543 4 179.948049 0
H  1 2.227833 2 127.488755 3 2.900524 0
C  10 1.077002 1 179.240757 2 64.908801 0
C  11 1.209956 10 179.898967 1 -95.749418 0
H  12 1.066518 11 179.876159 10 72.426077 0
$end

 
 --------------------------------------------------------------
 
                    Orbital Energies (a.u.)
 --------------------------------------------------------------
 
 Alpha MOs
 -- Occupied --
-14.344 -10.262 -10.262 -10.221 -10.220 -10.183 -10.179  -0.981
 -0.790  -0.743  -0.734  -0.590  -0.584  -0.550  -0.538  -0.475
 -0.438  -0.431  -0.424  -0.411  -0.296  -0.275  -0.274  -0.273
 -0.262
 -- Virtual --
  0.005   0.007   0.015   0.019   0.027   0.030   0.031   0.033
  0.047   0.052   0.053   0.064   0.077   0.085   0.088   0.094
  0.112   0.118   0.122   0.141   0.146   0.159   0.176   0.176
  0.178   0.191   0.195   0.216   0.217   0.220   0.227   0.232
  0.240   0.252   0.258   0.279   0.279   0.297   0.337   0.358
  0.414   0.424   0.474   0.581   0.641   0.655   0.670   0.678
  0.680   0.695   0.696   0.709   0.723   0.750   0.760   0.763
  0.846   0.855   0.864   0.872   0.885   0.918   0.941   0.964
  0.990   0.996   1.045   1.074   1.119   1.158   1.186   1.187
  1.239   1.250   1.294   1.313   1.336   1.392   1.402   1.418
  1.447   1.460   1.470   1.553   1.559   1.560   1.617   1.722
  1.773   1.868   1.880   1.927   1.950   1.950   1.958   1.961
  1.975   2.009   2.025   2.120   2.172   2.227   2.237   2.366
  2.373   2.395   2.400   2.411   2.420   2.439   2.450   2.508
  2.522   2.586   2.603   2.628   2.711   2.716   2.796   2.834
  2.902   3.009   3.034   3.047   3.181   3.217   3.303   3.474
  3.536   3.749   3.882   4.126   4.288   4.356   4.532   4.628
  4.733   5.360
 
 Beta MOs
 -- Occupied --
-14.347 -10.255 -10.255 -10.220 -10.219 -10.183 -10.179  -0.975
 -0.787  -0.734  -0.722  -0.584  -0.573  -0.550  -0.536  -0.475
 -0.434  -0.421  -0.405  -0.401  -0.298  -0.274  -0.274  -0.270
 -- Virtual --
 -0.159   0.005   0.019   0.028   0.028   0.030   0.032   0.034
  0.039   0.048   0.053   0.059   0.065   0.078   0.085   0.093
  0.094   0.117   0.119   0.122   0.145   0.153   0.159   0.176
  0.177   0.179   0.193   0.196   0.217   0.221   0.221   0.226
  0.237   0.246   0.256   0.261   0.281   0.282   0.301   0.338
  0.358   0.417   0.428   0.483   0.581   0.646   0.672   0.681
  0.681   0.696   0.699   0.714   0.714   0.736   0.750   0.761
  0.763   0.849   0.858   0.869   0.873   0.887   0.918   0.941
  0.969   0.984   1.000   1.046   1.082   1.120   1.158   1.192
  1.193   1.254   1.257   1.294   1.331   1.347   1.392   1.402
  1.439   1.450   1.465   1.476   1.553   1.559   1.560   1.619
  1.732   1.785   1.874   1.885   1.930   1.950   1.950   1.959
  1.961   1.983   2.013   2.038   2.127   2.179   2.240   2.262
  2.370   2.374   2.396   2.400   2.411   2.431   2.447   2.458
  2.525   2.530   2.587   2.617   2.630   2.719   2.722   2.800
  2.835   2.904   3.012   3.034   3.047   3.183   3.217   3.305
  3.474   3.540   3.752   3.882   4.123   4.303   4.359   4.548
  4.629   4.740   5.360
 --------------------------------------------------------------
 
          Ground-State Mulliken Net Atomic Charges

     Atom                 Charge (a.u.)    Spin (a.u.)
  --------------------------------------------------------
      1 C                    -0.082978       0.000298
      2 C                    -0.036193       0.531043
      3 C                    -0.135224       0.080020
      4 C                    -0.134080       0.082222
      5 C                    -0.037708       0.529843
      6 N                    -0.179871      -0.160376
      7 H                     0.210389       0.001409
      8 H                     0.145967      -0.026360
      9 H                     0.143131      -0.005808
     10 H                     0.143138      -0.005891
     11 H                     0.146004      -0.026316
     12 C                    -0.365519      -0.000098
     13 H                     0.182946       0.000014
  --------------------------------------------------------
  Sum of atomic charges =     0.000000
  Sum of spin   charges =     1.000000

 -----------------------------------------------------------------
                    Cartesian Multipole Moments
 -----------------------------------------------------------------
    Charge (ESU x 10^10)
                -0.0000
    Dipole Moment (Debye)
         X      -2.6962      Y      -0.7630      Z       1.4842
       Tot       3.1709
    Quadrupole Moments (Debye-Ang)
        XX     -38.1566     XY      -0.3139     YY     -37.1435
        XZ      -3.4494     YZ      -1.2375     ZZ     -43.8681
    Octopole Moments (Debye-Ang^2)
       XXX       2.4305    XXY      10.4627    XYY     -10.8532
       YYY     -10.1369    XXZ      -5.7956    XYZ      -3.9973
       YYZ       7.2368    XZZ      -0.7070    YZZ       0.2986
       ZZZ       7.8875
    Hexadecapole Moments (Debye-Ang^3)
      XXXX   -1041.3159   XXXY     -86.9431   XXYY    -239.2844
      XYYY    -153.4326   YYYY    -267.2800   XXXZ     165.5417
      XXYZ     -12.5686   XYYZ      91.6536   YYYZ      86.8612
      XXZZ    -210.4510   XYZZ     -30.6618   YYZZ    -108.5845
      XZZZ     301.7330   YZZZ      87.8568   ZZZZ    -401.4930
 -----------------------------------------------------------------
Archival summary:
1\1\c8-73\OPT\ProcedureUnspecified\6-31+G**\166(2)\hpark21\WedMar211:15:162022WedMar211:15:162022\0\\#,OPT,ProcedureUnspecified,6-31+G**,\\0,2\N\C,1,1.34851\H,2,1.0849,1,120.93\C,1,1.34896,2,104.764,3,-179.933,0\H,4,1.08505,1,120.968,2,-179.939,0\C,4,1.45938,1,112.295,2,0.0211048,0\H,6,1.08179,4,126.187,1,-179.98,0\C,6,1.36549,4,105.328,1,-0.0567717,0\H,8,1.08195,6,128.564,4,179.948,0\H,1,2.22783,2,127.489,3,2.90052,0\C,10,1.077,1,179.241,2,64.9088,0\C,11,1.20996,10,179.899,1,-95.7494,0\H,12,1.06652,11,179.876,10,72.4261,0\\\@

 Total job time:  6179.46s(wall), 9096.46s(cpu) 
 Wed Mar  2 11:15:16 2022

        *************************************************************
        *                                                           *
        *  Thank you very much for using Q-Chem.  Have a nice day.  *
        *                                                           *
        *************************************************************


