
Running Job 1 of 1 qcopt_prd.in
qchem qcopt_prd.in_47116.0 ./qcopt_prd.d/ 1
/home/leeping/opt/qchem/5.0.2-openmp/exe/qcprog.exe_s qcopt_prd.in_47116.0 ./qcopt_prd.d/
Check license passed

                  Welcome to Q-Chem
     A Quantum Leap Into The Future Of Chemistry


 Q-Chem 5.0, Q-Chem, Inc., Pleasanton, CA (2017)

 Yihan Shao,  Zhengting Gan,  E. Epifanovsky,  A. T. B. Gilbert,  M. Wormit,  
 J. Kussmann,  A. W. Lange,  A. Behn,  Jia Deng,  Xintian Feng,  D. Ghosh,  
 M. Goldey,  P. R. Horn,  L. D. Jacobson,  I. Kaliman,  T. Kus,  A. Landau,  
 Jie Liu,  E. I. Proynov,  R. M. Richard,  R. P. Steele,  E. J. Sundstrom,  
 H. L. Woodcock III,  P. M. Zimmerman,  D. Zuev,  B. Albrecht,  E. Alguire,  
 S. A. Baeppler,  D. Barton,  Z. Benda,  Y. A. Bernard,  E. J. Berquist,  
 K. B. Bravaya,  H. Burton,  D. Casanova,  Chun-Min Chang,  Yunqing Chen,  
 A. Chien,  K. D. Closser,  M. P. Coons,  S. Dasgupta,  A. L. Dempwolff,  
 M. Diedenhofen,  Hainam Do,  R. G. Edgar,  Po-Tung Fang,  S. Fatehi,  
 Qingguo Feng,  J. Fosso-Tande,  Qinghui Ge,  A. Ghysels,  G. Gidofalvi,  
 J. Gomes,  J. Gonthier,  A. Gunina,  M. W. D. Hanson-Heine,  
 P. H. P. Harbach,  A. W. Hauser,  J. E. Herr,  E. G. Hohenstein,  
 Z. C. Holden,  Kerwin Hui,  T.-C. Jagau,  Hyunjun Ji,  B. Kaduk,  
 K. Khistyaev,  Jaehoon Kim,  P. Klunzinger,  K. Koh,  D. Kosenkov,  
 L. Koulias,  T. Kowalczyk,  C. M. Krauter,  A. Kunitsa,  Ka Un Lao,  
 A. Laurent,  K. V. Lawler,  Joonho Lee,  D. Lefrancois,  S. Lehtola,  
 D. S. Levine,  Yi-Pei Li,  You-Sheng Lin,  Fenglai Liu,  E. Livshits,  
 A. Luenser,  P. Manohar,  E. Mansoor,  S. F. Manzer,  Shan-Ping Mao,  
 Yuezhi Mao,  N. Mardirossian,  A. V. Marenich,  T. Markovich,  
 L. A. Martinez-Martinez,  S. A. Maurer,  N. J. Mayhall,  S. C. McKenzie,  
 J.-M. Mewes,  A. F. Morrison,  J. W. Mullinax,  K. Nanda,  
 T. S. Nguyen-Beck,  R. Olivares-Amaya,  J. A. Parkhill,  T. M. Perrine,  
 F. Plasser,  S. Prager,  A. Prociuk,  E. Ramos,  D. R. Rehn,  F. Rob,  
 M. Schneider,  N. Sergueev,  S. M. Sharada,  S. Sharma,  D. W. Small,  
 T. Stauch,  T. Stein,  Yu-Chuan Su,  A. J. W. Thom,  A. Tkatchenko,  
 T. Tsuchimochi,  L. Vogt,  O. Vydrov,  M. A. Watson,  J. Wenzel,  
 M. de Wergifosse,  T. A. Wesolowski,  A. White,  J. Witte,  A. Yamada,  
 Jun Yang,  K. Yao,  S. Yeganeh,  S. R. Yost,  Zhi-Qiang You,  A. Zech,  
 Igor Ying Zhang,  Xing Zhang,  Yan Zhao,  Ying Zhu,  B. R. Brooks,  
 G. K. L. Chan,  C. J. Cramer,  M. S. Gordon,  W. J. Hehre,  A. Klamt,  
 M. W. Schmidt,  C. D. Sherrill,  D. G. Truhlar,  A. Aspuru-Guzik,  R. Baer,  
 A. T. Bell,  N. A. Besley,  Jeng-Da Chai,  R. A. DiStasio Jr.,  A. Dreuw,  
 B. D. Dunietz,  T. R. Furlani,  Chao-Ping Hsu,  Yousung Jung,  Jing Kong,  
 D. S. Lambrecht,  WanZhen Liang,  C. Ochsenfeld,  V. A. Rassolov,  
 L. V. Slipchenko,  J. E. Subotnik,  T. Van Voorhis,  J. M. Herbert,  
 A. I. Krylov,  P. M. W. Gill,  M. Head-Gordon

 Contributors to earlier versions of Q-Chem not listed above: 
 R. D. Adamson,  B. Austin,  J. Baker,  G. J. O. Beran,  K. Brandhorst,  
 S. T. Brown,  E. F. C. Byrd,  A. K. Chakraborty,  C.-L. Cheng,  
 Siu Hung Chien,  D. M. Chipman,  D. L. Crittenden,  H. Dachsel,  
 R. J. Doerksen,  A. D. Dutoi,  L. Fusti-Molnar,  W. A. Goddard III,  
 A. Golubeva-Zadorozhnaya,  S. R. Gwaltney,  G. Hawkins,  A. Heyden,  
 S. Hirata,  G. Kedziora,  F. J. Keil,  C. Kelley,  Jihan Kim,  R. A. King,  
 R. Z. Khaliullin,  P. P. Korambath,  W. Kurlancheek,  A. M. Lee,  M. S. Lee,  
 S. V. Levchenko,  Ching Yeh Lin,  D. Liotard,  R. C. Lochan,  I. Lotan,  
 P. E. Maslen,  N. Nair,  D. P. O'Neill,  D. Neuhauser,  E. Neuscamman,  
 C. M. Oana,  R. Olson,  B. Peters,  R. Peverati,  P. A. Pieniazek,  
 Y. M. Rhee,  J. Ritchie,  M. A. Rohrdanz,  E. Rosta,  N. J. Russ,  
 H. F. Schaefer III,  N. E. Schultz,  N. Shenvi,  A. C. Simmonett,  A. Sodt,  
 D. Stuck,  K. S. Thanthiriwatte,  V. Vanovschi,  Tao Wang,  A. Warshel,  
 C. F. Williams,  Q. Wu,  X. Xu,  W. Zhang

 Please cite Q-Chem as follows:
 Y. Shao et al., Mol. Phys. 113, 184-215 (2015)
 DOI: 10.1080/00268976.2014.952696

 Q-Chem 5.0.2 for Intel X86 EM64T Linux

 Parts of Q-Chem use Armadillo 5.200.1 (Boston Tea Smuggler).
 http://arma.sourceforge.net/

 Q-Chem begins on Tue Mar  1 20:52:45 2022  

Host: 
0

     Scratch files written to ./qcopt_prd.d//
 Dec517 15110_ 26548  26544 5633   
Processing $rem in /home/leeping/opt/qchem/5.0.2-openmp/config/preferences.
 MEM_STATIC 2000
 MEM_TOTAL  8000
 SYMMETRY   OFF
 SYM_IGNORE TRUE 

Checking the input file for inconsistencies... 	...done.

--------------------------------------------------------------
User input:
--------------------------------------------------------------
$molecule
0 2
C        4.4483117052    0.6459393816   -3.6514677194
C       -0.8333674815   -0.1425073700    1.1198437923
C       -1.9870916853   -0.9980632637    0.8556235672
C       -3.0320178741   -0.3915008652    1.4865555453
C       -2.4629495500    0.8029127967    2.1048927229
N       -1.1432294501    0.9319978900    1.8704967634
H        4.2132539085    1.2685501607   -4.4850846797
H        0.1831835466   -0.3059070486    0.7744448836
H       -1.9868919112   -1.9133358502    0.2777549023
H       -4.0665057213   -0.7065157366    1.5336664595
H       -2.9977410894    1.5404849824    2.6961110817
C        4.7143998261   -0.0553084007   -2.7084593842
H        4.9506457767   -0.6767466766   -1.8743779348
$end

$rem
method                b3lyp
basis                 6-31g(d)
unrestricted          true
symmetry              off
sym_ignore            true
incdft                false
incfock               0
scf_convergence       8
thresh                14
jobtype               opt
scf_guess             core
scf_guess_mix         5
scf_algorithm         diis
max_scf_cycles        100
geom_opt_max_cycles   300
$end

--------------------------------------------------------------
 ----------------------------------------------------------------
             Standard Nuclear Orientation (Angstroms)
    I     Atom           X                Y                Z
 ----------------------------------------------------------------
    1      C       4.4483117052     0.6459393816    -3.6514677194
    2      C      -0.8333674815    -0.1425073700     1.1198437923
    3      C      -1.9870916853    -0.9980632637     0.8556235672
    4      C      -3.0320178741    -0.3915008652     1.4865555453
    5      C      -2.4629495500     0.8029127967     2.1048927229
    6      N      -1.1432294501     0.9319978900     1.8704967634
    7      H       4.2132539085     1.2685501607    -4.4850846797
    8      H       0.1831835466    -0.3059070486     0.7744448836
    9      H      -1.9868919112    -1.9133358502     0.2777549023
   10      H      -4.0665057213    -0.7065157366     1.5336664595
   11      H      -2.9977410894     1.5404849824     2.6961110817
   12      C       4.7143998261    -0.0553084007    -2.7084593842
   13      H       4.9506457767    -0.6767466766    -1.8743779348
 ----------------------------------------------------------------
 Nuclear Repulsion Energy =   207.8790060571 hartrees
 There are       25 alpha and       24 beta electrons
 Requested basis set is 6-31G(d)
 There are 40 shells and 117 basis functions

 Total QAlloc Memory Limit   8000 MB
 Mega-Array Size      1956 MB
 MEM_STATIC part      2000 MB
 A cutoff of  1.0D-14 yielded    567 shell pairs
 There are      4944 function pairs
 
 -------------------------------------------------------
 OpenMP Integral Computing Module                       
 Release: version 1.0, May 2013, Q-Chem Inc. Pittsburgh 
 -------------------------------------------------------
 Integral Job Info:
 Integral job number is                      11
 Integral operator is                         1
 short-range coefficients                     0
 long-range coefficients              100000000
 Omega coefficients                           0
 if combine SR and LR in K                    0
 Integral screening is                        0
 Integral computing path is                   2
 max size of driver memory is            800000
 size of driver memory is                593474
 size of scratch memory is              2361544
 max col of scratch BK array               1296
 max len of scratch array in speh3          155
 max len of scratch index in speh4           18
 max int batch size is                      520
 min int batch size is                       52
 fixed nKL is                                52
 max L of basis functions is                  2
 order of int derivative is                   0
 number of shells is                         40
 number of basis is                         117
 number of cartesian basis is               117
 number of contracted shell pairs           567
 number of primitive shell pairs           2514
 maxK2 (contraction) of shell pair           36
 max number of K2 of shell pair               1
 max number of CS2 of shell pair             57
 max number of PS2 of shell pair            252
 mem total for path MDJ                  522828
 -------------------------------------------------------
 Smallest overlap matrix eigenvalue = 1.03E-03

 Scale SEOQF with 1.000000e-01/1.000000e-01/1.000000e-01

 Standard Electronic Orientation quadrupole field applied
 Nucleus-field energy     =    -0.0000000069 hartrees
 Guess MOs from core Hamiltonian diagonalization
 Mixing HOMO and LUMO in initial guess
 Adding  50% of the LUMO to the HOMO
 An unrestricted hybrid HF-DFT SCF calculation will be
 performed using Pulay DIIS extrapolation
 Exchange:     0.2000 Hartree-Fock + 0.0800 Slater + 0.7200 B88
 Correlation:  0.1900 VWN1RPA + 0.8100 LYP
 Using SG-1 standard quadrature grid
 SCF converges when DIIS error is below 1.0E-08
 using 4 threads for integral computing
 -------------------------------------------------------
 OpenMP Integral computing Module                
 Release: version 1.0, May 2013, Q-Chem Inc. Pittsburgh 
 -------------------------------------------------------
 -------------------------------------------------------
 OpenMP BLAS3 based DFT computing Module                
 Release: version 1.0, May 2013, Q-Chem Inc. Pittsburgh 
 -------------------------------------------------------
 ---------------------------------------
  Cycle       Energy         DIIS Error
 ---------------------------------------
    1    -195.9871735594      1.45E-01
    2     -49.0995898688      1.44E-01
    3    -246.7041860685      6.74E-02
    4     -82.8435441935      1.13E-01
    5    -187.1301994667      9.98E-02
    6    -223.8744447389      9.15E-02
    7    -225.0846441585      9.21E-02
    8    -225.5714977451      9.08E-02
    9    -225.5560970304      9.08E-02
   10    -210.0544954482      1.32E-01
   11    -248.0272109722      6.27E-02
   12    -200.5341449298      9.46E-02
   13    -241.0749333147      8.48E-02
   14    -227.6980899075      9.19E-02
   15    -228.6083750384      9.01E-02
   16    -261.9999153228      6.63E-02
   17    -276.0916194189      4.44E-02
   18    -285.7783432057      1.83E-02
   19    -284.3295299554      2.84E-02
   20    -286.3614396785      9.10E-03
   21    -286.8022441968      4.25E-03
   22    -286.8269025452      2.07E-03
   23    -286.8346884134      8.48E-04
   24    -286.8361303411      2.95E-04
   25    -286.8363008669      1.61E-04
   26    -286.8363566203      5.86E-05
   27    -286.8363680326      2.09E-05
   28    -286.8363714998      7.97E-06
   29    -286.8363734685      3.65E-06
   30    -286.8363741342      1.81E-06
   31    -286.8363742681      7.12E-07
   32    -286.8363742845      4.19E-07
   33    -286.8363742930      1.78E-07
   34    -286.8363742933      1.14E-07
   35    -286.8363742933      6.37E-08
   36    -286.8363742934      5.87E-09 Convergence criterion met
 ---------------------------------------
 <S^2> = 0.7656
 SCF time:  CPU 59.88 s  wall 76.59 s
 SCF   energy in the final basis set = -286.83637429
 Total energy in the final basis set = -286.83637429
 
 --------------------------------------------------------------
 
                    Orbital Energies (a.u.)
 --------------------------------------------------------------
 
 Alpha MOs
 -- Occupied --
-14.315 -10.241 -10.241 -10.200 -10.200 -10.192 -10.190  -0.958
 -0.769  -0.743  -0.722  -0.570  -0.566  -0.565  -0.520  -0.492
 -0.417  -0.410  -0.405  -0.391  -0.282  -0.282  -0.268  -0.252
 -0.241
 -- Virtual --
  0.040   0.047   0.052   0.052   0.105   0.110   0.149   0.150
  0.154   0.160   0.221   0.247   0.279   0.360   0.427   0.465
  0.471   0.521   0.521   0.533   0.533   0.546   0.572   0.591
  0.593   0.618   0.654   0.654   0.659   0.661   0.674   0.747
  0.795   0.798   0.824   0.827   0.831   0.837   0.894   0.911
  0.951   0.971   1.028   1.113   1.125   1.218   1.265   1.325
  1.356   1.377   1.461   1.479   1.503   1.506   1.508   1.524
  1.549   1.549   1.553   1.647   1.778   1.936   1.944   1.944
  1.987   2.015   2.050   2.136   2.194   2.224   2.250   2.308
  2.386   2.432   2.487   2.487   2.530   2.555   2.587   2.616
  2.728   2.897   2.921   3.012   3.191   3.934   4.056   4.089
  4.135   4.288   4.329   4.440
 
 Beta MOs
 -- Occupied --
-14.318 -10.233 -10.233 -10.199 -10.198 -10.192 -10.190  -0.951
 -0.767  -0.743  -0.701  -0.566  -0.565  -0.554  -0.518  -0.492
 -0.413  -0.403  -0.385  -0.379  -0.282  -0.282  -0.269  -0.248
 -- Virtual --
 -0.134   0.052   0.052   0.070   0.076   0.105   0.113   0.149
  0.155   0.159   0.164   0.226   0.253   0.286   0.366   0.427
  0.471   0.473   0.530   0.533   0.533   0.544   0.549   0.599
  0.602   0.610   0.626   0.654   0.654   0.665   0.675   0.676
  0.747   0.800   0.801   0.824   0.825   0.827   0.839   0.902
  0.916   0.958   0.974   1.028   1.118   1.126   1.218   1.272
  1.346   1.376   1.389   1.462   1.486   1.503   1.506   1.508
  1.533   1.549   1.549   1.579   1.650   1.802   1.939   1.944
  1.944   1.996   2.018   2.055   2.162   2.209   2.236   2.283
  2.320   2.400   2.432   2.487   2.487   2.547   2.559   2.603
  2.624   2.731   2.900   2.924   3.015   3.191   3.932   4.066
  4.104   4.135   4.300   4.329   4.449
 --------------------------------------------------------------
 
          Ground-State Mulliken Net Atomic Charges

     Atom                 Charge (a.u.)    Spin (a.u.)
  --------------------------------------------------------
      1 C                    -0.187589      -0.000000
      2 C                     0.057361       0.532619
      3 C                    -0.151274       0.083810
      4 C                    -0.151178       0.084370
      5 C                     0.057112       0.531942
      6 N                    -0.408654      -0.167629
      7 H                     0.188764       0.000000
      8 H                     0.153357      -0.026631
      9 H                     0.145405      -0.005918
     10 H                     0.145169      -0.005941
     11 H                     0.152702      -0.026621
     12 C                    -0.189022      -0.000000
     13 H                     0.187848       0.000000
  --------------------------------------------------------
  Sum of atomic charges =     0.000000
  Sum of spin   charges =     1.000000

 -----------------------------------------------------------------
                    Cartesian Multipole Moments
 -----------------------------------------------------------------
    Charge (ESU x 10^10)
                 0.0000
    Dipole Moment (Debye)
         X      -1.2361      Y      -1.4720      Z      -0.6495
       Tot       2.0289
    Quadrupole Moments (Debye-Ang)
        XX     -34.4105     XY      -0.8239     YY     -40.4134
        XZ      -2.3235     YZ      -3.7417     ZZ     -40.0761
    Octopole Moments (Debye-Ang^2)
       XXX     -37.3562    XXY      -9.0910    XYY       1.4199
       YYY     -14.4199    XXZ      24.7766    XYZ     -15.3308
       YYZ     -12.6233    XZZ      -1.0110    YZZ      15.6370
       ZZZ     -44.5051
    Hexadecapole Moments (Debye-Ang^3)
      XXXX   -2311.2519   XXXY    -109.1104   XXYY    -385.8456
      XYYY     -49.4489   YYYY    -171.9674   XXXZ     810.2812
      XXYZ     -13.8481   XYYZ     233.1811   YYYZ       2.5982
      XXZZ    -567.3418   XYZZ      41.0705   YYZZ    -210.4221
      XZZZ     670.4547   YZZZ     -86.5533   ZZZZ   -1051.4567
 -----------------------------------------------------------------
 Calculating analytic gradient of the SCF energy
 Gradient of SCF Energy
            1           2           3           4           5           6
    1  -0.0000035   0.0000505   0.0000703  -0.0000253   0.0000212  -0.0001036
    2  -0.0000272  -0.0000592  -0.0000282   0.0001216  -0.0000820   0.0000898
    3  -0.0000029  -0.0000093   0.0000388  -0.0000102   0.0002055  -0.0001398
            7           8           9          10          11          12
    1   0.0000271  -0.0000122  -0.0000175   0.0000266  -0.0000047   0.0000231
    2  -0.0000084  -0.0000665  -0.0000061  -0.0000249   0.0000384   0.0000663
    3   0.0000098   0.0000119  -0.0000134  -0.0000518  -0.0000177   0.0000264
           13
    1  -0.0000520
    2  -0.0000137
    3  -0.0000472
 Max gradient component =       2.055E-04
 RMS gradient           =       5.994E-05
 Gradient time:  CPU 4.52 s  wall 5.60 s
 Geometry Optimization Parameters
   NAtoms,    NIC,     NZ,  NCons,   NDum,   NFix, NCnnct, MaxDiis
       13      88       0       0       0       0       0       0


** GEOMETRY OPTIMIZATION IN DELOCALIZED INTERNAL COORDINATES **
   Searching for a Minimum

   Optimization Cycle:   1

                       Coordinates (Angstroms)
     ATOM                X               Y               Z
      1  C         4.4483117052    0.6459393816   -3.6514677194
      2  C        -0.8333674815   -0.1425073700    1.1198437923
      3  C        -1.9870916853   -0.9980632637    0.8556235672
      4  C        -3.0320178741   -0.3915008652    1.4865555453
      5  C        -2.4629495500    0.8029127967    2.1048927229
      6  N        -1.1432294501    0.9319978900    1.8704967634
      7  H         4.2132539085    1.2685501607   -4.4850846797
      8  H         0.1831835466   -0.3059070486    0.7744448836
      9  H        -1.9868919112   -1.9133358502    0.2777549023
     10  H        -4.0665057213   -0.7065157366    1.5336664595
     11  H        -2.9977410894    1.5404849824    2.6961110817
     12  C         4.7143998261   -0.0553084007   -2.7084593842
     13  H         4.9506457767   -0.6767466766   -1.8743779348
   Point Group: c1    Number of degrees of freedom:    33


   Energy is   -286.836374293


 Attempting to Generate Delocalized Internal Coordinates

 33 Hessian modes will be used to form the next step
  Hessian Eigenvalues:
     0.001550    0.003064    0.012588    0.016683    0.017326    0.017865
     0.019253    0.021743    0.022977    0.072491    0.091981    0.157497
     0.160000    0.160000    0.160000    0.169384    0.180490    0.200000
     0.200000    0.219743    0.228884    0.338114    0.352705    0.352746
     0.357022    0.357043    0.367099    0.368266    0.376524    0.485700
     0.535723    0.542912    1.023925

 Minimum Search - Taking Simple RFO Step
 Searching for Lamda that Minimizes Along All modes
 Value Taken    Lamda =  -0.00000250
 Step Taken.  Stepsize is  0.021248

                             Maximum     Tolerance    Cnvgd?
         Gradient           0.000103      0.000300     YES
         Displacement       0.010424      0.001200      NO
         Energy change     *********      0.000001      NO


 New Cartesian Coordinates Obtained by Inverse Iteration

 Displacement from previous Coordinates is:  0.042168
 ----------------------------------------------------------------
             Standard Nuclear Orientation (Angstroms)
    I     Atom           X                Y                Z
 ----------------------------------------------------------------
    1      C       4.4461060569     0.6418760957    -3.6529292178
    2      C      -0.8327888207    -0.1410103035     1.1206256969
    3      C      -1.9866308748    -0.9949805684     0.8514386188
    4      C      -3.0318023474    -0.3911689248     1.4845029357
    5      C      -2.4631004549     0.8013205973     2.1068946351
    6      N      -1.1425717749     0.9296804093     1.8766279103
    7      H       4.2082309791     1.2592513944    -4.4896693265
    8      H       0.1841082940    -0.3036605517     0.7758532531
    9      H      -1.9859693042    -1.9079950507     0.2700441914
   10      H      -4.0663684327    -0.7062130651     1.5303688054
   11      H      -2.9980628537     1.5359468733     2.7015650576
   12      C       4.7150793588    -0.0534768378    -2.7063595614
   13      H       4.9537701747    -0.6695700682    -1.8689629985
 ----------------------------------------------------------------
 Nuclear Repulsion Energy =   207.8827632345 hartrees
 There are       25 alpha and       24 beta electrons
 Applying Cartesian multipole field
    Component          Value
    ---------          -----
     (2,0,0)        1.00000E-11
     (0,2,0)        2.00000E-11
     (0,0,2)       -3.00000E-11
 Nucleus-field energy     =    -0.0000000070 hartrees
 Requested basis set is 6-31G(d)
 There are 40 shells and 117 basis functions
 A cutoff of  1.0D-14 yielded    567 shell pairs
 There are      4944 function pairs
 Smallest overlap matrix eigenvalue = 1.03E-03
 Guess MOs from SCF MO coefficient file
 Reading MOs from coefficient file
 Mixing HOMO and LUMO in initial guess
 Adding  50% of the LUMO to the HOMO
 Reading MOs from coefficient file
 An unrestricted hybrid HF-DFT SCF calculation will be
 performed using Pulay DIIS extrapolation
 Exchange:     0.2000 Hartree-Fock + 0.0800 Slater + 0.7200 B88
 Correlation:  0.1900 VWN1RPA + 0.8100 LYP
 Using SG-1 standard quadrature grid
 SCF converges when DIIS error is below 1.0E-08
 Geometry optimization detected.  Setting ReadMinima to 0
 Setting SaveMinima to 0
 using 4 threads for integral computing
 -------------------------------------------------------
 OpenMP Integral computing Module                
 Release: version 1.0, May 2013, Q-Chem Inc. Pittsburgh 
 -------------------------------------------------------
 -------------------------------------------------------
 OpenMP BLAS3 based DFT computing Module                
 Release: version 1.0, May 2013, Q-Chem Inc. Pittsburgh 
 -------------------------------------------------------
 ---------------------------------------
  Cycle       Energy         DIIS Error
 ---------------------------------------
    1    -286.7780989964      2.75E-03
    2    -286.7493971929      6.73E-03
    3    -286.8323173267      1.17E-03
    4    -286.8347227747      6.82E-04
    5    -286.8361264694      1.52E-04
    6    -286.8363145463      6.95E-05
    7    -286.8363479520      4.71E-05
    8    -286.8363645719      2.08E-05
    9    -286.8363692990      1.40E-05
   10    -286.8363732706      1.09E-05
   11    -286.8363742158      5.78E-06
   12    -286.8363752194      1.40E-06
   13    -286.8363753125      2.94E-07
   14    -286.8363753219      1.15E-07
   15    -286.8363753239      2.54E-08
   16    -286.8363753241      1.07E-08
   17    -286.8363753241      2.77E-09 Convergence criterion met
 ---------------------------------------
 <S^2> = 0.7656
 SCF time:  CPU 28.37 s  wall 42.76 s
 SCF   energy in the final basis set = -286.83637532
 Total energy in the final basis set = -286.83637532
 
 --------------------------------------------------------------
 
                    Orbital Energies (a.u.)
 --------------------------------------------------------------
 
 Alpha MOs
 -- Occupied --
-14.315 -10.241 -10.241 -10.200 -10.200 -10.192 -10.190  -0.958
 -0.769  -0.743  -0.722  -0.570  -0.566  -0.565  -0.520  -0.492
 -0.417  -0.410  -0.405  -0.391  -0.282  -0.282  -0.268  -0.252
 -0.241
 -- Virtual --
  0.040   0.047   0.052   0.052   0.105   0.110   0.149   0.150
  0.154   0.160   0.221   0.247   0.279   0.360   0.427   0.465
  0.471   0.521   0.521   0.533   0.533   0.546   0.572   0.591
  0.593   0.618   0.654   0.654   0.660   0.661   0.674   0.747
  0.795   0.798   0.824   0.827   0.831   0.837   0.894   0.911
  0.951   0.971   1.028   1.113   1.125   1.218   1.265   1.325
  1.356   1.377   1.461   1.479   1.503   1.506   1.508   1.524
  1.549   1.549   1.554   1.647   1.778   1.936   1.944   1.944
  1.987   2.015   2.050   2.136   2.194   2.224   2.250   2.308
  2.386   2.432   2.487   2.487   2.530   2.555   2.587   2.616
  2.728   2.897   2.921   3.012   3.191   3.934   4.056   4.089
  4.135   4.288   4.329   4.440
 
 Beta MOs
 -- Occupied --
-14.318 -10.233 -10.233 -10.199 -10.198 -10.192 -10.190  -0.951
 -0.767  -0.743  -0.701  -0.566  -0.565  -0.554  -0.518  -0.492
 -0.413  -0.403  -0.385  -0.379  -0.282  -0.282  -0.269  -0.248
 -- Virtual --
 -0.134   0.052   0.052   0.070   0.076   0.105   0.113   0.149
  0.155   0.159   0.164   0.226   0.253   0.286   0.366   0.427
  0.471   0.473   0.530   0.533   0.533   0.544   0.549   0.599
  0.602   0.610   0.626   0.654   0.654   0.665   0.675   0.676
  0.747   0.800   0.801   0.824   0.825   0.827   0.839   0.902
  0.916   0.958   0.974   1.028   1.118   1.126   1.218   1.272
  1.346   1.376   1.389   1.462   1.486   1.503   1.506   1.508
  1.533   1.549   1.549   1.579   1.650   1.802   1.938   1.944
  1.944   1.996   2.018   2.055   2.161   2.209   2.236   2.283
  2.320   2.400   2.432   2.487   2.487   2.547   2.559   2.603
  2.624   2.731   2.900   2.924   3.015   3.191   3.932   4.066
  4.104   4.135   4.300   4.329   4.449
 --------------------------------------------------------------
 
          Ground-State Mulliken Net Atomic Charges

     Atom                 Charge (a.u.)    Spin (a.u.)
  --------------------------------------------------------
      1 C                    -0.187617      -0.000000
      2 C                     0.057358       0.532503
      3 C                    -0.151292       0.084050
      4 C                    -0.151139       0.084133
      5 C                     0.057083       0.532041
      6 N                    -0.408616      -0.167611
      7 H                     0.188769       0.000000
      8 H                     0.153336      -0.026628
      9 H                     0.145413      -0.005928
     10 H                     0.145186      -0.005932
     11 H                     0.152670      -0.026627
     12 C                    -0.189033      -0.000000
     13 H                     0.187881       0.000000
  --------------------------------------------------------
  Sum of atomic charges =    -0.000000
  Sum of spin   charges =     1.000000

 -----------------------------------------------------------------
                    Cartesian Multipole Moments
 -----------------------------------------------------------------
    Charge (ESU x 10^10)
                -0.0000
    Dipole Moment (Debye)
         X      -1.2368      Y      -1.4683      Z      -0.6582
       Tot       2.0294
    Quadrupole Moments (Debye-Ang)
        XX     -34.4048     XY      -0.8231     YY     -40.4550
        XZ      -2.3023     YZ      -3.7309     ZZ     -40.0728
    Octopole Moments (Debye-Ang^2)
       XXX     -37.2901    XXY      -9.1209    XYY       1.2873
       YYY     -14.4044    XXZ      24.9082    XYZ     -15.2581
       YYZ     -12.5368    XZZ      -1.0151    YZZ      15.5205
       ZZZ     -44.8802
    Hexadecapole Moments (Debye-Ang^3)
      XXXX   -2309.8480   XXXY    -108.8801   XXYY    -386.4655
      XYYY     -49.3881   YYYY    -171.2678   XXXZ     810.7552
      XXYZ     -13.5822   XYYZ     233.7504   YYYZ       2.4177
      XXZZ    -567.5545   XYZZ      40.7099   YYZZ    -210.9395
      XZZZ     669.3549   YZZZ     -86.6631   ZZZZ   -1050.5428
 -----------------------------------------------------------------
 Calculating analytic gradient of the SCF energy
 Gradient of SCF Energy
            1           2           3           4           5           6
    1  -0.0000000  -0.0000361   0.0000137   0.0000186  -0.0000134   0.0000180
    2  -0.0000210   0.0000771   0.0000076  -0.0000734   0.0001668  -0.0000719
    3  -0.0000173  -0.0000922  -0.0000026   0.0001418  -0.0002894   0.0002040
            7           8           9          10          11          12
    1   0.0000137  -0.0000066  -0.0000143   0.0000055   0.0000196   0.0000330
    2   0.0000045  -0.0000692   0.0000037  -0.0000338  -0.0000238   0.0000617
    3  -0.0000028   0.0000163  -0.0000021   0.0000047   0.0000336   0.0000248
           13
    1  -0.0000517
    2  -0.0000283
    3  -0.0000187
 Max gradient component =       2.894E-04
 RMS gradient           =       7.504E-05
 Gradient time:  CPU 4.53 s  wall 1.87 s
 Geometry Optimization Parameters
   NAtoms,    NIC,     NZ,  NCons,   NDum,   NFix, NCnnct, MaxDiis
       13      88       0       0       0       0       0       0

 Cartesian Hessian Update
 Hessian Updated using BFGS Update


** GEOMETRY OPTIMIZATION IN DELOCALIZED INTERNAL COORDINATES **
   Searching for a Minimum

   Optimization Cycle:   2

                       Coordinates (Angstroms)
     ATOM                X               Y               Z
      1  C         4.4461060569    0.6418760957   -3.6529292178
      2  C        -0.8327888207   -0.1410103035    1.1206256969
      3  C        -1.9866308748   -0.9949805684    0.8514386188
      4  C        -3.0318023474   -0.3911689248    1.4845029357
      5  C        -2.4631004549    0.8013205973    2.1068946351
      6  N        -1.1425717749    0.9296804093    1.8766279103
      7  H         4.2082309791    1.2592513944   -4.4896693265
      8  H         0.1841082940   -0.3036605517    0.7758532531
      9  H        -1.9859693042   -1.9079950507    0.2700441914
     10  H        -4.0663684327   -0.7062130651    1.5303688054
     11  H        -2.9980628537    1.5359468733    2.7015650576
     12  C         4.7150793588   -0.0534768378   -2.7063595614
     13  H         4.9537701747   -0.6695700682   -1.8689629985
   Point Group: c1    Number of degrees of freedom:    33


   Energy is   -286.836375324

 Hessian Updated using BFGS Update

 33 Hessian modes will be used to form the next step
  Hessian Eigenvalues:
     0.001276    0.001560    0.012989    0.016814    0.017205    0.018108
     0.021099    0.022881    0.054444    0.072436    0.090863    0.156729
     0.158092    0.160000    0.160039    0.169311    0.178820    0.199253
     0.200017    0.219855    0.232305    0.337927    0.352728    0.352821
     0.357023    0.357130    0.367090    0.368006    0.376527    0.485868
     0.534346    0.543707    1.023916

 Minimum Search - Taking Simple RFO Step
 Searching for Lamda that Minimizes Along All modes
 Value Taken    Lamda =  -0.00000277
 Step Taken.  Stepsize is  0.037773

                             Maximum     Tolerance    Cnvgd?
         Gradient           0.000117      0.000300     YES
         Displacement       0.020517      0.001200      NO
         Energy change     -0.000001      0.000001      NO


 New Cartesian Coordinates Obtained by Inverse Iteration

 Displacement from previous Coordinates is:  0.087026
 ----------------------------------------------------------------
             Standard Nuclear Orientation (Angstroms)
    I     Atom           X                Y                Z
 ----------------------------------------------------------------
    1      C       4.4410359004     0.6335583460    -3.6559174326
    2      C      -0.8310462792    -0.1386651738     1.1234862748
    3      C      -1.9850071811    -0.9893320862     0.8440480237
    4      C      -3.0313714165    -0.3897118560     1.4790480437
    5      C      -2.4629568743     0.7965646584     2.1134373186
    6      N      -1.1417749633     0.9260514914     1.8873391241
    7      H       4.1973956264     1.2401045663    -4.4989307936
    8      H       0.1865241541    -0.2994363943     0.7797687842
    9      H      -1.9833591030    -1.8975795244     0.2552703401
   10      H      -4.0664920338    -0.7037072985     1.5199336292
   11      H      -2.9988873370     1.5264727190     2.7129885826
   12      C       4.7160366629    -0.0496264840    -2.7022238201
   13      H       4.9599028446    -0.6546929640    -1.8582480744
 ----------------------------------------------------------------
 Nuclear Repulsion Energy =   207.8908651804 hartrees
 There are       25 alpha and       24 beta electrons
 Applying Cartesian multipole field
    Component          Value
    ---------          -----
     (2,0,0)        1.00000E-11
     (0,2,0)        2.00000E-11
     (0,0,2)       -3.00000E-11
 Nucleus-field energy     =    -0.0000000070 hartrees
 Requested basis set is 6-31G(d)
 There are 40 shells and 117 basis functions
 A cutoff of  1.0D-14 yielded    567 shell pairs
 There are      4944 function pairs
 Smallest overlap matrix eigenvalue = 1.03E-03
 Guess MOs from SCF MO coefficient file
 Reading MOs from coefficient file
 Mixing HOMO and LUMO in initial guess
 Adding  50% of the LUMO to the HOMO
 Reading MOs from coefficient file
 An unrestricted hybrid HF-DFT SCF calculation will be
 performed using Pulay DIIS extrapolation
 Exchange:     0.2000 Hartree-Fock + 0.0800 Slater + 0.7200 B88
 Correlation:  0.1900 VWN1RPA + 0.8100 LYP
 Using SG-1 standard quadrature grid
 SCF converges when DIIS error is below 1.0E-08
 Geometry optimization detected.  Setting ReadMinima to 0
 Setting SaveMinima to 0
 using 4 threads for integral computing
 -------------------------------------------------------
 OpenMP Integral computing Module                
 Release: version 1.0, May 2013, Q-Chem Inc. Pittsburgh 
 -------------------------------------------------------
 -------------------------------------------------------
 OpenMP BLAS3 based DFT computing Module                
 Release: version 1.0, May 2013, Q-Chem Inc. Pittsburgh 
 -------------------------------------------------------
 ---------------------------------------
  Cycle       Energy         DIIS Error
 ---------------------------------------
    1    -286.7779647842      2.77E-03
    2    -286.7499664961      6.70E-03
    3    -286.8324307577      1.15E-03
    4    -286.8347823879      6.72E-04
    5    -286.8361306820      1.51E-04
    6    -286.8363147507      7.09E-05
    7    -286.8363494555      4.73E-05
    8    -286.8363669407      2.12E-05
    9    -286.8363716543      1.39E-05
   10    -286.8363757269      1.10E-05
   11    -286.8363766943      5.79E-06
   12    -286.8363777016      1.43E-06
   13    -286.8363777951      3.06E-07
   14    -286.8363778045      1.14E-07
   15    -286.8363778066      2.52E-08
   16    -286.8363778068      1.07E-08
   17    -286.8363778068      3.37E-09 Convergence criterion met
 ---------------------------------------
 <S^2> = 0.7655
 SCF time:  CPU 28.26 s  wall 28.32 s
 SCF   energy in the final basis set = -286.83637781
 Total energy in the final basis set = -286.83637781
 
 --------------------------------------------------------------
 
                    Orbital Energies (a.u.)
 --------------------------------------------------------------
 
 Alpha MOs
 -- Occupied --
-14.315 -10.241 -10.241 -10.200 -10.200 -10.192 -10.190  -0.958
 -0.769  -0.743  -0.722  -0.570  -0.566  -0.565  -0.520  -0.492
 -0.417  -0.410  -0.405  -0.391  -0.282  -0.282  -0.268  -0.252
 -0.241
 -- Virtual --
  0.040   0.047   0.052   0.052   0.105   0.110   0.149   0.150
  0.154   0.160   0.221   0.247   0.279   0.360   0.427   0.465
  0.471   0.521   0.521   0.533   0.533   0.546   0.572   0.591
  0.593   0.618   0.654   0.654   0.660   0.661   0.674   0.747
  0.795   0.798   0.824   0.827   0.831   0.837   0.894   0.911
  0.951   0.971   1.028   1.113   1.125   1.217   1.265   1.325
  1.356   1.377   1.461   1.479   1.504   1.506   1.508   1.524
  1.549   1.549   1.554   1.647   1.778   1.936   1.943   1.943
  1.987   2.015   2.050   2.136   2.194   2.224   2.250   2.308
  2.386   2.432   2.487   2.487   2.530   2.555   2.587   2.616
  2.728   2.897   2.921   3.012   3.191   3.934   4.056   4.089
  4.135   4.288   4.329   4.440
 
 Beta MOs
 -- Occupied --
-14.318 -10.233 -10.233 -10.199 -10.198 -10.192 -10.190  -0.951
 -0.767  -0.743  -0.701  -0.566  -0.565  -0.554  -0.518  -0.492
 -0.413  -0.403  -0.385  -0.379  -0.282  -0.282  -0.269  -0.248
 -- Virtual --
 -0.134   0.052   0.052   0.070   0.076   0.105   0.113   0.149
  0.155   0.159   0.164   0.226   0.253   0.286   0.366   0.427
  0.471   0.473   0.530   0.533   0.533   0.544   0.549   0.599
  0.602   0.610   0.626   0.654   0.654   0.665   0.675   0.676
  0.747   0.800   0.801   0.824   0.825   0.827   0.839   0.902
  0.916   0.958   0.974   1.028   1.118   1.126   1.217   1.272
  1.346   1.376   1.389   1.462   1.486   1.504   1.506   1.508
  1.533   1.549   1.549   1.580   1.650   1.802   1.938   1.943
  1.943   1.996   2.018   2.055   2.161   2.209   2.236   2.283
  2.320   2.400   2.432   2.487   2.487   2.547   2.559   2.603
  2.624   2.730   2.900   2.924   3.015   3.191   3.932   4.066
  4.104   4.135   4.300   4.329   4.449
 --------------------------------------------------------------
 
          Ground-State Mulliken Net Atomic Charges

     Atom                 Charge (a.u.)    Spin (a.u.)
  --------------------------------------------------------
      1 C                    -0.187657      -0.000000
      2 C                     0.057372       0.532319
      3 C                    -0.151322       0.084421
      4 C                    -0.151108       0.083762
      5 C                     0.057064       0.532215
      6 N                    -0.408601      -0.167597
      7 H                     0.188770       0.000000
      8 H                     0.153321      -0.026623
      9 H                     0.145428      -0.005945
     10 H                     0.145199      -0.005918
     11 H                     0.152645      -0.026635
     12 C                    -0.189043      -0.000000
     13 H                     0.187930       0.000000
  --------------------------------------------------------
  Sum of atomic charges =     0.000000
  Sum of spin   charges =     1.000000

 -----------------------------------------------------------------
                    Cartesian Multipole Moments
 -----------------------------------------------------------------
    Charge (ESU x 10^10)
                 0.0000
    Dipole Moment (Debye)
         X      -1.2368      Y      -1.4624      Z      -0.6728
       Tot       2.0300
    Quadrupole Moments (Debye-Ang)
        XX     -34.3897     XY      -0.8234     YY     -40.5473
        XZ      -2.2545     YZ      -3.7046     ZZ     -40.0542
    Octopole Moments (Debye-Ang^2)
       XXX     -37.1570    XXY      -9.1520    XYY       1.0331
       YYY     -14.3669    XXZ      25.1346    XYZ     -15.1173
       YYZ     -12.3767    XZZ      -1.0201    YZZ      15.2927
       ZZZ     -45.6265
    Hexadecapole Moments (Debye-Ang^3)
      XXXX   -2306.2506   XXXY    -108.4851   XXYY    -387.6943
      XYYY     -49.2770   YYYY    -169.8723   XXXZ     811.7804
      XXYZ     -12.9222   XYYZ     234.9223   YYYZ       2.0688
      XXZZ    -568.0468   XYZZ      39.8808   YYZZ    -212.0389
      XZZZ     667.1315   YZZZ     -86.7636   ZZZZ   -1048.7532
 -----------------------------------------------------------------
 Calculating analytic gradient of the SCF energy
 Gradient of SCF Energy
            1           2           3           4           5           6
    1   0.0000066  -0.0000574  -0.0000253   0.0000029   0.0000587   0.0000368
    2  -0.0000165   0.0001098   0.0000045  -0.0001032   0.0000813   0.0000004
    3  -0.0000335  -0.0000117   0.0000135   0.0000175  -0.0002077   0.0001325
            7           8           9          10          11          12
    1  -0.0000056  -0.0000027  -0.0000003  -0.0000253   0.0000172   0.0000487
    2   0.0000181  -0.0000739   0.0000085  -0.0000036  -0.0000404   0.0000558
    3  -0.0000143   0.0000050   0.0000169   0.0000329   0.0000155   0.0000190
           13
    1  -0.0000543
    2  -0.0000409
    3   0.0000144
 Max gradient component =       2.077E-04
 RMS gradient           =       5.590E-05
 Gradient time:  CPU 4.58 s  wall 2.77 s
 Geometry Optimization Parameters
   NAtoms,    NIC,     NZ,  NCons,   NDum,   NFix, NCnnct, MaxDiis
       13      88       0       0       0       0       0       0

 Cartesian Hessian Update
 Hessian Updated using BFGS Update


** GEOMETRY OPTIMIZATION IN DELOCALIZED INTERNAL COORDINATES **
   Searching for a Minimum

   Optimization Cycle:   3

                       Coordinates (Angstroms)
     ATOM                X               Y               Z
      1  C         4.4410359004    0.6335583460   -3.6559174326
      2  C        -0.8310462792   -0.1386651738    1.1234862748
      3  C        -1.9850071811   -0.9893320862    0.8440480237
      4  C        -3.0313714165   -0.3897118560    1.4790480437
      5  C        -2.4629568743    0.7965646584    2.1134373186
      6  N        -1.1417749633    0.9260514914    1.8873391241
      7  H         4.1973956264    1.2401045663   -4.4989307936
      8  H         0.1865241541   -0.2994363943    0.7797687842
      9  H        -1.9833591030   -1.8975795244    0.2552703401
     10  H        -4.0664920338   -0.7037072985    1.5199336292
     11  H        -2.9988873370    1.5264727190    2.7129885826
     12  C         4.7160366629   -0.0496264840   -2.7022238201
     13  H         4.9599028446   -0.6546929640   -1.8582480744
   Point Group: c1    Number of degrees of freedom:    33


   Energy is   -286.836377807

 Hessian Updated using BFGS Update

 33 Hessian modes will be used to form the next step
  Hessian Eigenvalues:
     0.000200    0.001554    0.012955    0.016858    0.017138    0.018370
     0.021215    0.022949    0.053444    0.072331    0.089370    0.157337
     0.159952    0.160004    0.165333    0.169202    0.179177    0.199597
     0.200590    0.220449    0.253715    0.338274    0.352741    0.353390
     0.357029    0.358335    0.367676    0.372138    0.378825    0.486806
     0.534700    0.548920    1.026456

 Minimum Search - Taking Simple RFO Step
 Searching for Lamda that Minimizes Along All modes
 Value Taken    Lamda =  -0.00001546
 Step Taken.  Stepsize is  0.263589

                             Maximum     Tolerance    Cnvgd?
         Gradient           0.000101      0.000300     YES
         Displacement       0.142369      0.001200      NO
         Energy change     -0.000002      0.000001      NO


 New Cartesian Coordinates Obtained by Inverse Iteration

 Displacement from previous Coordinates is:  0.604759
 ----------------------------------------------------------------
             Standard Nuclear Orientation (Angstroms)
    I     Atom           X                Y                Z
 ----------------------------------------------------------------
    1      C       4.4070453186     0.5741261600    -3.6746449725
    2      C      -0.8191924675    -0.1228176416     1.1423001806
    3      C      -1.9731671215    -0.9479439867     0.7932209311
    4      C      -3.0271715628    -0.3795515721     1.4441111886
    5      C      -2.4630365232     0.7623989537     2.1582190141
    6      N      -1.1373595929     0.8972843314     1.9612489305
    7      H       4.1268062901     1.1022043116    -4.5581553187
    8      H       0.2027591078    -0.2698697309     0.8053575905
    9      H      -1.9652466655    -1.8201693586     0.1523480838
   10      H      -4.0650850123    -0.6868263269     1.4501879287
   11      H      -3.0057580909     1.4591832833     2.7902581208
   12      C       4.7209095714    -0.0212869944    -2.6751864934
   13      H       4.9984967489    -0.5467314291    -1.7892651841
 ----------------------------------------------------------------
 Nuclear Repulsion Energy =   207.9467019235 hartrees
 There are       25 alpha and       24 beta electrons
 Applying Cartesian multipole field
    Component          Value
    ---------          -----
     (2,0,0)        1.00000E-11
     (0,2,0)        2.00000E-11
     (0,0,2)       -3.00000E-11
 Nucleus-field energy     =    -0.0000000076 hartrees
 Requested basis set is 6-31G(d)
 There are 40 shells and 117 basis functions
 A cutoff of  1.0D-14 yielded    567 shell pairs
 There are      4944 function pairs
 Smallest overlap matrix eigenvalue = 1.03E-03
 Guess MOs from SCF MO coefficient file
 Reading MOs from coefficient file
 Mixing HOMO and LUMO in initial guess
 Adding  50% of the LUMO to the HOMO
 Reading MOs from coefficient file
 An unrestricted hybrid HF-DFT SCF calculation will be
 performed using Pulay DIIS extrapolation
 Exchange:     0.2000 Hartree-Fock + 0.0800 Slater + 0.7200 B88
 Correlation:  0.1900 VWN1RPA + 0.8100 LYP
 Using SG-1 standard quadrature grid
 SCF converges when DIIS error is below 1.0E-08
 Geometry optimization detected.  Setting ReadMinima to 0
 Setting SaveMinima to 0
 using 4 threads for integral computing
 -------------------------------------------------------
 OpenMP Integral computing Module                
 Release: version 1.0, May 2013, Q-Chem Inc. Pittsburgh 
 -------------------------------------------------------
 -------------------------------------------------------
 OpenMP BLAS3 based DFT computing Module                
 Release: version 1.0, May 2013, Q-Chem Inc. Pittsburgh 
 -------------------------------------------------------
 ---------------------------------------
  Cycle       Energy         DIIS Error
 ---------------------------------------
    1    -286.7655089289      4.28E-03
    2    -286.7505229339      6.68E-03
    3    -286.8329573520      1.06E-03
    4    -286.8345866689      9.03E-04
    5    -286.8361297097      1.57E-04
    6    -286.8363087659      7.09E-05
    7    -286.8363550898      5.27E-05
    8    -286.8363786828      2.16E-05
    9    -286.8363846567      1.60E-05
   10    -286.8363888727      1.17E-05
   11    -286.8363902284      6.44E-06
   12    -286.8363913165      2.90E-06
   13    -286.8363915226      8.27E-07
   14    -286.8363915625      2.01E-07
   15    -286.8363915665      6.00E-08
   16    -286.8363915670      1.91E-08
   17    -286.8363915671      5.56E-09 Convergence criterion met
 ---------------------------------------
 <S^2> = 0.7656
 SCF time:  CPU 28.37 s  wall 35.40 s
 SCF   energy in the final basis set = -286.83639157
 Total energy in the final basis set = -286.83639157
 
 --------------------------------------------------------------
 
                    Orbital Energies (a.u.)
 --------------------------------------------------------------
 
 Alpha MOs
 -- Occupied --
-14.315 -10.241 -10.241 -10.200 -10.200 -10.193 -10.190  -0.958
 -0.769  -0.743  -0.722  -0.570  -0.566  -0.565  -0.520  -0.492
 -0.417  -0.410  -0.405  -0.391  -0.282  -0.282  -0.268  -0.252
 -0.241
 -- Virtual --
  0.040   0.047   0.052   0.052   0.105   0.110   0.148   0.150
  0.154   0.160   0.221   0.248   0.279   0.360   0.426   0.465
  0.471   0.521   0.522   0.532   0.533   0.546   0.572   0.591
  0.593   0.617   0.654   0.654   0.660   0.661   0.674   0.746
  0.795   0.798   0.824   0.826   0.831   0.837   0.894   0.911
  0.951   0.971   1.028   1.113   1.126   1.217   1.265   1.325
  1.356   1.377   1.461   1.479   1.504   1.506   1.507   1.524
  1.549   1.549   1.554   1.647   1.778   1.935   1.943   1.943
  1.987   2.016   2.050   2.136   2.194   2.224   2.250   2.308
  2.386   2.432   2.487   2.487   2.530   2.555   2.587   2.616
  2.728   2.897   2.922   3.012   3.191   3.934   4.056   4.089
  4.134   4.288   4.329   4.440
 
 Beta MOs
 -- Occupied --
-14.318 -10.233 -10.233 -10.199 -10.198 -10.193 -10.190  -0.951
 -0.767  -0.743  -0.701  -0.566  -0.565  -0.554  -0.518  -0.492
 -0.413  -0.403  -0.385  -0.379  -0.282  -0.282  -0.269  -0.248
 -- Virtual --
 -0.134   0.052   0.052   0.070   0.076   0.105   0.113   0.148
  0.155   0.159   0.164   0.226   0.253   0.286   0.366   0.426
  0.471   0.473   0.530   0.532   0.533   0.544   0.549   0.599
  0.602   0.610   0.626   0.654   0.654   0.665   0.675   0.676
  0.746   0.800   0.801   0.824   0.825   0.827   0.839   0.902
  0.916   0.958   0.974   1.028   1.118   1.127   1.217   1.272
  1.346   1.376   1.389   1.462   1.486   1.504   1.506   1.507
  1.533   1.549   1.549   1.580   1.650   1.802   1.938   1.943
  1.943   1.996   2.018   2.055   2.161   2.209   2.236   2.283
  2.320   2.400   2.432   2.487   2.487   2.547   2.559   2.603
  2.624   2.730   2.900   2.925   3.015   3.191   3.932   4.066
  4.104   4.134   4.300   4.329   4.449
 --------------------------------------------------------------
 
          Ground-State Mulliken Net Atomic Charges

     Atom                 Charge (a.u.)    Spin (a.u.)
  --------------------------------------------------------
      1 C                    -0.187860      -0.000000
      2 C                     0.057490       0.531311
      3 C                    -0.151376       0.086323
      4 C                    -0.151138       0.081831
      5 C                     0.057058       0.533257
      6 N                    -0.408737      -0.167594
      7 H                     0.188710       0.000000
      8 H                     0.153345      -0.026585
      9 H                     0.145510      -0.006025
     10 H                     0.145177      -0.005841
     11 H                     0.152670      -0.026678
     12 C                    -0.189037      -0.000000
     13 H                     0.188188       0.000000
  --------------------------------------------------------
  Sum of atomic charges =    -0.000000
  Sum of spin   charges =     1.000000

 -----------------------------------------------------------------
                    Cartesian Multipole Moments
 -----------------------------------------------------------------
    Charge (ESU x 10^10)
                 0.0000
    Dipole Moment (Debye)
         X      -1.2348      Y      -1.4145      Z      -0.7765
       Tot       2.0319
    Quadrupole Moments (Debye-Ang)
        XX     -34.2754     XY      -0.8042     YY     -41.1629
        XZ      -1.9379     YZ      -3.4650     ZZ     -39.9466
    Octopole Moments (Debye-Ang^2)
       XXX     -36.0845    XXY      -9.0485    XYY      -0.6165
       YYY     -13.9760    XXZ      26.5793    XYZ     -14.0263
       YYZ     -11.2567    XZZ      -1.0896    YZZ      13.4216
       ZZZ     -50.7260
    Hexadecapole Moments (Debye-Ang^3)
      XXXX   -2280.8049   XXXY    -104.0316   XXYY    -395.5137
      XYYY     -48.4484   YYYY    -159.7354   XXXZ     818.0663
      XXYZ      -8.3607   XYYZ     242.6797   YYYZ      -0.3522
      XXZZ    -571.0312   XYZZ      33.2438   YYZZ    -219.6315
      XZZZ     652.3385   YZZZ     -85.6868   ZZZZ   -1038.1750
 -----------------------------------------------------------------
 Calculating analytic gradient of the SCF energy
 Gradient of SCF Energy
            1           2           3           4           5           6
    1   0.0000939   0.0001215  -0.0000843   0.0000161   0.0000002   0.0000045
    2  -0.0000048   0.0001313   0.0000161  -0.0001292  -0.0000679   0.0000393
    3  -0.0000385   0.0002741  -0.0000339  -0.0002569   0.0001708  -0.0002195
            7           8           9          10          11          12
    1  -0.0000915  -0.0000090   0.0000881  -0.0000693  -0.0000665   0.0000802
    2   0.0000471  -0.0001239   0.0000001   0.0001554  -0.0000352   0.0000081
    3  -0.0000214  -0.0000942   0.0000402   0.0001587  -0.0000226  -0.0000567
           13
    1  -0.0000838
    2  -0.0000363
    3   0.0000999
 Max gradient component =       2.741E-04
 RMS gradient           =       1.045E-04
 Gradient time:  CPU 4.25 s  wall 4.73 s
 Geometry Optimization Parameters
   NAtoms,    NIC,     NZ,  NCons,   NDum,   NFix, NCnnct, MaxDiis
       13      88       0       0       0       0       0       0

 Cartesian Hessian Update
 Hessian Updated using BFGS Update


** GEOMETRY OPTIMIZATION IN DELOCALIZED INTERNAL COORDINATES **
   Searching for a Minimum

   Optimization Cycle:   4

                       Coordinates (Angstroms)
     ATOM                X               Y               Z
      1  C         4.4070453186    0.5741261600   -3.6746449725
      2  C        -0.8191924675   -0.1228176416    1.1423001806
      3  C        -1.9731671215   -0.9479439867    0.7932209311
      4  C        -3.0271715628   -0.3795515721    1.4441111886
      5  C        -2.4630365232    0.7623989537    2.1582190141
      6  N        -1.1373595929    0.8972843314    1.9612489305
      7  H         4.1268062901    1.1022043116   -4.5581553187
      8  H         0.2027591078   -0.2698697309    0.8053575905
      9  H        -1.9652466655   -1.8201693586    0.1523480838
     10  H        -4.0650850123   -0.6868263269    1.4501879287
     11  H        -3.0057580909    1.4591832833    2.7902581208
     12  C         4.7209095714   -0.0212869944   -2.6751864934
     13  H         4.9984967489   -0.5467314291   -1.7892651841
   Point Group: c1    Number of degrees of freedom:    33


   Energy is   -286.836391567

 Hessian Updated using BFGS Update
**WARNING** Hereditary positive definiteness endangered

 33 Hessian modes will be used to form the next step
  Hessian Eigenvalues:
    -2.447705    0.000000    0.001555    0.013952    0.016978    0.017215
     0.018584    0.021375    0.022947    0.070199    0.079435    0.089208
     0.158237    0.159985    0.160223    0.169171    0.177391    0.194831
     0.199773    0.219964    0.252462    0.335606    0.351176    0.353356
     0.356993    0.358272    0.366306    0.371044    0.376128    0.482742
     0.515031    0.547494    1.024103
**WARNING** Magnitude of eigenvalue   2 too small.  Replaced by     0.000100
**WARNING** Hessian does not have the Desired Local Structure

 Minimum Search - Taking Simple RFO Step
 Searching for Lamda that Minimizes Along All modes
 Value Taken    Lamda =  -2.44770504
 Calculated Step too Large.  Step scaled by  0.000055
 Step Taken.  Stepsize is  0.300000

                             Maximum     Tolerance    Cnvgd?
         Gradient           0.000239      0.000300     YES
         Displacement       0.139687      0.001200      NO
         Energy change     -0.000014      0.000001      NO


 New Cartesian Coordinates Obtained by Inverse Iteration

 Displacement from previous Coordinates is:  0.533919
 ----------------------------------------------------------------
             Standard Nuclear Orientation (Angstroms)
    I     Atom           X                Y                Z
 ----------------------------------------------------------------
    1      C       4.4106994235     0.5947543440    -3.6735303605
    2      C      -0.8612964998    -0.1530500073     1.1247925228
    3      C      -2.0194084750    -0.9630216872     0.8127446236
    4      C      -3.0293924247    -0.3812843139     1.4776038732
    5      C      -2.4182759418     0.7907051804     2.1322183920
    6      N      -1.1130998677     0.8867071654     1.9666890093
    7      H       4.2555417930     1.0848633393    -4.5954779088
    8      H       0.1557567177    -0.2876751940     0.7997487368
    9      H      -2.0891475539    -1.8458925654     0.1874551341
   10      H      -4.0412312772    -0.7669440514     1.4419321377
   11      H      -2.8958512718     1.5187654902     2.7698065310
   12      C       4.6832031534     0.0222703492    -2.6564688331
   13      H       4.9625022244    -0.5001980495    -1.7875138579
 ----------------------------------------------------------------
 Nuclear Repulsion Energy =   208.9524964782 hartrees
 There are       25 alpha and       24 beta electrons
 Applying Cartesian multipole field
    Component          Value
    ---------          -----
     (2,0,0)        1.00000E-11
     (0,2,0)        2.00000E-11
     (0,0,2)       -3.00000E-11
 Nucleus-field energy     =    -0.0000000076 hartrees
 Requested basis set is 6-31G(d)
 There are 40 shells and 117 basis functions
 A cutoff of  1.0D-14 yielded    567 shell pairs
 There are      4944 function pairs
 Smallest overlap matrix eigenvalue = 1.01E-03
 Guess MOs from SCF MO coefficient file
 Reading MOs from coefficient file
 Mixing HOMO and LUMO in initial guess
 Adding  50% of the LUMO to the HOMO
 Reading MOs from coefficient file
 An unrestricted hybrid HF-DFT SCF calculation will be
 performed using Pulay DIIS extrapolation
 Exchange:     0.2000 Hartree-Fock + 0.0800 Slater + 0.7200 B88
 Correlation:  0.1900 VWN1RPA + 0.8100 LYP
 Using SG-1 standard quadrature grid
 SCF converges when DIIS error is below 1.0E-08
 Geometry optimization detected.  Setting ReadMinima to 0
 Setting SaveMinima to 0
 using 4 threads for integral computing
 -------------------------------------------------------
 OpenMP Integral computing Module                
 Release: version 1.0, May 2013, Q-Chem Inc. Pittsburgh 
 -------------------------------------------------------
 -------------------------------------------------------
 OpenMP BLAS3 based DFT computing Module                
 Release: version 1.0, May 2013, Q-Chem Inc. Pittsburgh 
 -------------------------------------------------------
 ---------------------------------------
  Cycle       Energy         DIIS Error
 ---------------------------------------
    1    -286.8037909978      3.97E-03
    2    -286.7506034542      6.49E-03
    3    -286.8281562638      8.87E-04
    4    -286.8291568546      7.98E-04
    5    -286.8303685357      1.92E-04
    6    -286.8305004101      8.23E-05
    7    -286.8305306840      4.16E-05
    8    -286.8305465984      1.94E-05
    9    -286.8305483518      8.45E-06
   10    -286.8305492473      4.30E-06
   11    -286.8305493582      1.56E-06
   12    -286.8305494002      7.11E-07
   13    -286.8305494087      3.17E-07
   14    -286.8305494113      1.19E-07
   15    -286.8305494120      3.57E-08
   16    -286.8305494122      1.64E-08
   17    -286.8305494122      7.10E-09 Convergence criterion met
 ---------------------------------------
 <S^2> = 0.7653
 SCF time:  CPU 28.87 s  wall 29.90 s
 SCF   energy in the final basis set = -286.83054941
 Total energy in the final basis set = -286.83054941
 
 --------------------------------------------------------------
 
                    Orbital Energies (a.u.)
 --------------------------------------------------------------
 
 Alpha MOs
 -- Occupied --
-14.317 -10.239 -10.238 -10.201 -10.195 -10.190 -10.187  -0.965
 -0.779  -0.745  -0.718  -0.569  -0.568  -0.563  -0.529  -0.495
 -0.414  -0.414  -0.401  -0.387  -0.283  -0.283  -0.277  -0.258
 -0.237
 -- Virtual --
  0.040   0.051   0.051   0.054   0.111   0.114   0.145   0.153
  0.156   0.167   0.229   0.247   0.276   0.361   0.429   0.466
  0.469   0.514   0.521   0.532   0.532   0.548   0.572   0.590
  0.598   0.636   0.652   0.656   0.663   0.667   0.693   0.753
  0.798   0.800   0.818   0.826   0.829   0.835   0.897   0.911
  0.942   0.973   1.032   1.093   1.133   1.237   1.295   1.311
  1.360   1.377   1.459   1.472   1.495   1.511   1.520   1.538
  1.547   1.547   1.571   1.649   1.778   1.945   1.947   1.947
  1.992   2.030   2.073   2.128   2.188   2.234   2.288   2.331
  2.401   2.442   2.493   2.503   2.536   2.558   2.592   2.638
  2.742   2.884   2.899   3.046   3.217   3.941   4.048   4.098
  4.149   4.285   4.340   4.448
 
 Beta MOs
 -- Occupied --
-14.320 -10.231 -10.231 -10.199 -10.194 -10.190 -10.187  -0.958
 -0.776  -0.745  -0.697  -0.568  -0.563  -0.552  -0.526  -0.495
 -0.410  -0.398  -0.384  -0.381  -0.283  -0.283  -0.278  -0.254
 -- Virtual --
 -0.130   0.051   0.054   0.069   0.079   0.112   0.114   0.152
  0.153   0.161   0.170   0.234   0.252   0.283   0.368   0.429
  0.469   0.474   0.522   0.532   0.532   0.542   0.551   0.601
  0.606   0.610   0.645   0.652   0.656   0.670   0.677   0.698
  0.753   0.801   0.806   0.819   0.824   0.826   0.837   0.904
  0.917   0.950   0.976   1.032   1.094   1.138   1.237   1.303
  1.329   1.379   1.390   1.461   1.472   1.503   1.511   1.528
  1.538   1.547   1.547   1.596   1.652   1.802   1.947   1.947
  1.949   2.001   2.034   2.077   2.153   2.203   2.247   2.318
  2.343   2.415   2.442   2.493   2.503   2.552   2.562   2.608
  2.645   2.744   2.888   2.902   3.048   3.217   3.939   4.059
  4.113   4.149   4.297   4.340   4.457
 --------------------------------------------------------------
 
          Ground-State Mulliken Net Atomic Charges

     Atom                 Charge (a.u.)    Spin (a.u.)
  --------------------------------------------------------
      1 C                    -0.186825      -0.000000
      2 C                     0.045055       0.577583
      3 C                    -0.138577       0.004697
      4 C                    -0.151717       0.163581
      5 C                     0.053561       0.477583
      6 N                    -0.395412      -0.158981
      7 H                     0.184696       0.000000
      8 H                     0.148000      -0.028434
      9 H                     0.146793      -0.002576
     10 H                     0.146641      -0.009114
     11 H                     0.145655      -0.024339
     12 C                    -0.180553      -0.000000
     13 H                     0.182684       0.000000
  --------------------------------------------------------
  Sum of atomic charges =     0.000000
  Sum of spin   charges =     1.000000

 -----------------------------------------------------------------
                    Cartesian Multipole Moments
 -----------------------------------------------------------------
    Charge (ESU x 10^10)
                -0.0000
    Dipole Moment (Debye)
         X      -1.1843      Y      -1.4597      Z      -0.8613
       Tot       2.0676
    Quadrupole Moments (Debye-Ang)
        XX     -33.4900     XY      -0.2134     YY     -40.8605
        XZ      -2.3711     YZ      -3.3051     ZZ     -39.6523
    Octopole Moments (Debye-Ang^2)
       XXX     -27.0385    XXY     -10.7193    XYY      -1.6685
       YYY     -14.5199    XXZ      17.5989    XYZ     -13.3476
       YYZ     -10.5322    XZZ       5.8338    YZZ      12.7607
       ZZZ     -55.0253
    Hexadecapole Moments (Debye-Ang^3)
      XXXX   -2245.1209   XXXY     -93.4688   XXYY    -391.6607
      XYYY     -55.7491   YYYY    -162.2045   XXXZ     787.7427
      XXYZ     -14.7501   XYYZ     241.0165   YYYZ       4.9954
      XXZZ    -541.2218   XYZZ      33.1870   YYZZ    -219.0819
      XZZZ     625.9840   YZZZ     -80.1019   ZZZZ   -1016.5553
 -----------------------------------------------------------------
 Calculating analytic gradient of the SCF energy
 Gradient of SCF Energy
            1           2           3           4           5           6
    1  -0.0015769  -0.0192697  -0.0158668   0.0124556   0.0222057  -0.0013194
    2  -0.0018865   0.0018487   0.0063208  -0.0070006  -0.0035113   0.0095190
    3   0.0050674   0.0002600   0.0081723  -0.0019727  -0.0195951   0.0166778
            7           8           9          10          11          12
    1   0.0042579  -0.0057049  -0.0051503   0.0036239   0.0090264  -0.0016240
    2  -0.0049847   0.0053594  -0.0012861  -0.0096276  -0.0016353   0.0015241
    3   0.0070289   0.0055867  -0.0002361  -0.0070693  -0.0018104  -0.0008010
           13
    1  -0.0010575
    2   0.0053601
    3  -0.0113084
 Max gradient component =       2.221E-02
 RMS gradient           =       8.552E-03
 Gradient time:  CPU 4.36 s  wall 1.78 s
 Geometry Optimization Parameters
   NAtoms,    NIC,     NZ,  NCons,   NDum,   NFix, NCnnct, MaxDiis
       13      88       0       0       0       0       0       0

 Cartesian Hessian Update
 Hessian Updated using BFGS Update


** GEOMETRY OPTIMIZATION IN DELOCALIZED INTERNAL COORDINATES **
   Searching for a Minimum

   Optimization Cycle:   5

                       Coordinates (Angstroms)
     ATOM                X               Y               Z
      1  C         4.4106994235    0.5947543440   -3.6735303605
      2  C        -0.8612964998   -0.1530500073    1.1247925228
      3  C        -2.0194084750   -0.9630216872    0.8127446236
      4  C        -3.0293924247   -0.3812843139    1.4776038732
      5  C        -2.4182759418    0.7907051804    2.1322183920
      6  N        -1.1130998677    0.8867071654    1.9666890093
      7  H         4.2555417930    1.0848633393   -4.5954779088
      8  H         0.1557567177   -0.2876751940    0.7997487368
      9  H        -2.0891475539   -1.8458925654    0.1874551341
     10  H        -4.0412312772   -0.7669440514    1.4419321377
     11  H        -2.8958512718    1.5187654902    2.7698065310
     12  C         4.6832031534    0.0222703492   -2.6564688331
     13  H         4.9625022244   -0.5001980495   -1.7875138579
   Point Group: c1    Number of degrees of freedom:    33


   Energy is   -286.830549412

 Hessian Updated using BFGS Update

 33 Hessian modes will be used to form the next step
  Hessian Eigenvalues:
     0.000000    0.001555    0.013906    0.016965    0.017207    0.018568
     0.021362    0.022947    0.063203    0.071581    0.089205    0.105512
     0.158361    0.160216    0.160878    0.169773    0.177786    0.194833
     0.199796    0.223358    0.288946    0.335869    0.353180    0.355825
     0.357142    0.358471    0.371015    0.372849    0.383927    0.496317
     0.518705    0.664411    1.042887
**WARNING** Magnitude of eigenvalue   1 too small.  Replaced by     0.000100

 Minimum Search - Taking Simple RFO Step
 Searching for Lamda that Minimizes Along All modes
 Value Taken    Lamda =  -0.01102682
 Step Taken.  Stepsize is  0.262850

                             Maximum     Tolerance    Cnvgd?
         Gradient           0.031736      0.000300      NO
         Displacement       0.125656      0.001200      NO
         Energy change      0.005842      0.000001      NO


 New Cartesian Coordinates Obtained by Inverse Iteration

 Displacement from previous Coordinates is:  0.477162
 ----------------------------------------------------------------
             Standard Nuclear Orientation (Angstroms)
    I     Atom           X                Y                Z
 ----------------------------------------------------------------
    1      C       4.4092260706     0.5741261106    -3.6773138978
    2      C      -0.8233892131    -0.1251900750     1.1381463956
    3      C      -1.9782992120    -0.9479002778     0.7943125246
    4      C      -3.0290917922    -0.3793278653     1.4494181793
    5      C      -2.4610736024     0.7654989477     2.1586086173
    6      N      -1.1363744112     0.8929196625     1.9654371969
    7      H       4.1441340353     1.0941223856    -4.5695579368
    8      H       0.1989694711    -0.2704746158     0.8032952905
    9      H      -1.9799240003    -1.8194680600     0.1524163433
   10      H      -4.0642225479    -0.6964072114     1.4495115217
   11      H      -2.9967417735     1.4633554116     2.7949519718
   12      C       4.7189334917    -0.0142289529    -2.6726810123
   13      H       4.9978534840    -0.5370254600    -1.7865451941
 ----------------------------------------------------------------
 Nuclear Repulsion Energy =   207.9587799650 hartrees
 There are       25 alpha and       24 beta electrons
 Applying Cartesian multipole field
    Component          Value
    ---------          -----
     (2,0,0)        1.00000E-11
     (0,2,0)        2.00000E-11
     (0,0,2)       -3.00000E-11
 Nucleus-field energy     =    -0.0000000076 hartrees
 Requested basis set is 6-31G(d)
 There are 40 shells and 117 basis functions
 A cutoff of  1.0D-14 yielded    567 shell pairs
 There are      4944 function pairs
 Smallest overlap matrix eigenvalue = 1.02E-03
 Guess MOs from SCF MO coefficient file
 Reading MOs from coefficient file
 Mixing HOMO and LUMO in initial guess
 Adding  50% of the LUMO to the HOMO
 Reading MOs from coefficient file
 An unrestricted hybrid HF-DFT SCF calculation will be
 performed using Pulay DIIS extrapolation
 Exchange:     0.2000 Hartree-Fock + 0.0800 Slater + 0.7200 B88
 Correlation:  0.1900 VWN1RPA + 0.8100 LYP
 Using SG-1 standard quadrature grid
 SCF converges when DIIS error is below 1.0E-08
 Geometry optimization detected.  Setting ReadMinima to 0
 Setting SaveMinima to 0
 using 4 threads for integral computing
 -------------------------------------------------------
 OpenMP Integral computing Module                
 Release: version 1.0, May 2013, Q-Chem Inc. Pittsburgh 
 -------------------------------------------------------
 -------------------------------------------------------
 OpenMP BLAS3 based DFT computing Module                
 Release: version 1.0, May 2013, Q-Chem Inc. Pittsburgh 
 -------------------------------------------------------
 ---------------------------------------
  Cycle       Energy         DIIS Error
 ---------------------------------------
    1    -286.7473796745      3.89E-03
    2    -286.7415307276      7.04E-03
    3    -286.8340167473      7.99E-04
    4    -286.8348980208      8.01E-04
    5    -286.8361516552      1.89E-04
    6    -286.8363037575      6.36E-05
    7    -286.8363363836      5.00E-05
    8    -286.8363501676      1.74E-05
    9    -286.8363521708      9.32E-06
   10    -286.8363529594      6.36E-06
   11    -286.8363531228      2.45E-06
   12    -286.8363532055      1.47E-06
   13    -286.8363532374      6.76E-07
   14    -286.8363532526      1.89E-07
   15    -286.8363532553      5.37E-08
   16    -286.8363532558      1.63E-08
   17    -286.8363532559      4.88E-09 Convergence criterion met
 ---------------------------------------
 <S^2> = 0.7656
 SCF time:  CPU 28.20 s  wall 22.93 s
 SCF   energy in the final basis set = -286.83635326
 Total energy in the final basis set = -286.83635326
 
 --------------------------------------------------------------
 
                    Orbital Energies (a.u.)
 --------------------------------------------------------------
 
 Alpha MOs
 -- Occupied --
-14.315 -10.241 -10.240 -10.200 -10.199 -10.192 -10.190  -0.958
 -0.770  -0.743  -0.722  -0.570  -0.566  -0.565  -0.521  -0.492
 -0.417  -0.410  -0.404  -0.392  -0.282  -0.282  -0.268  -0.252
 -0.241
 -- Virtual --
  0.040   0.048   0.052   0.052   0.106   0.110   0.149   0.149
  0.154   0.161   0.222   0.247   0.279   0.360   0.427   0.465
  0.470   0.521   0.521   0.532   0.533   0.546   0.572   0.591
  0.593   0.618   0.654   0.654   0.660   0.661   0.674   0.747
  0.795   0.798   0.824   0.827   0.831   0.837   0.895   0.911
  0.950   0.971   1.029   1.115   1.122   1.218   1.268   1.325
  1.356   1.377   1.461   1.479   1.502   1.506   1.509   1.524
  1.549   1.549   1.554   1.647   1.779   1.938   1.943   1.943
  1.986   2.015   2.051   2.136   2.194   2.224   2.251   2.309
  2.386   2.432   2.487   2.487   2.530   2.555   2.587   2.618
  2.728   2.896   2.919   3.014   3.192   3.934   4.056   4.089
  4.135   4.288   4.330   4.440
 
 Beta MOs
 -- Occupied --
-14.318 -10.233 -10.233 -10.199 -10.198 -10.192 -10.190  -0.951
 -0.767  -0.743  -0.701  -0.566  -0.564  -0.554  -0.518  -0.492
 -0.413  -0.402  -0.386  -0.379  -0.282  -0.282  -0.269  -0.248
 -- Virtual --
 -0.134   0.052   0.052   0.070   0.076   0.106   0.114   0.149
  0.154   0.159   0.164   0.227   0.253   0.286   0.366   0.427
  0.470   0.473   0.529   0.532   0.533   0.544   0.549   0.599
  0.602   0.610   0.627   0.654   0.654   0.665   0.675   0.677
  0.747   0.800   0.802   0.824   0.825   0.827   0.838   0.903
  0.916   0.957   0.974   1.029   1.120   1.123   1.218   1.275
  1.346   1.376   1.389   1.462   1.486   1.502   1.506   1.509
  1.533   1.549   1.549   1.580   1.650   1.803   1.941   1.943
  1.943   1.995   2.018   2.055   2.161   2.209   2.236   2.284
  2.320   2.400   2.432   2.487   2.487   2.547   2.559   2.603
  2.626   2.731   2.899   2.922   3.016   3.192   3.932   4.066
  4.104   4.135   4.300   4.330   4.449
 --------------------------------------------------------------
 
          Ground-State Mulliken Net Atomic Charges

     Atom                 Charge (a.u.)    Spin (a.u.)
  --------------------------------------------------------
      1 C                    -0.187677      -0.000000
      2 C                     0.056738       0.537234
      3 C                    -0.150493       0.075786
      4 C                    -0.151670       0.092157
      5 C                     0.057238       0.527460
      6 N                    -0.408408      -0.167577
      7 H                     0.188492       0.000000
      8 H                     0.153354      -0.026802
      9 H                     0.145445      -0.005579
     10 H                     0.145359      -0.006244
     11 H                     0.152436      -0.026435
     12 C                    -0.188750      -0.000000
     13 H                     0.187936       0.000000
  --------------------------------------------------------
  Sum of atomic charges =     0.000000
  Sum of spin   charges =     1.000000

 -----------------------------------------------------------------
                    Cartesian Multipole Moments
 -----------------------------------------------------------------
    Charge (ESU x 10^10)
                -0.0000
    Dipole Moment (Debye)
         X      -1.2262      Y      -1.4135      Z      -0.7931
       Tot       2.0324
    Quadrupole Moments (Debye-Ang)
        XX     -34.1484     XY      -0.7600     YY     -41.1631
        XZ      -2.0215     YZ      -3.4241     ZZ     -39.8780
    Octopole Moments (Debye-Ang^2)
       XXX     -35.0896    XXY      -9.1555    XYY      -0.8019
       YYY     -14.0092    XXZ      25.6608    XYZ     -13.9863
       YYZ     -11.1135    XZZ      -0.2228    YZZ      13.3426
       ZZZ     -51.6223
    Hexadecapole Moments (Debye-Ang^3)
      XXXX   -2278.5388   XXXY    -102.8697   XXYY    -395.8420
      XYYY     -49.3856   YYYY    -159.5888   XXXZ     815.1198
      XXYZ      -8.8712   XYYZ     243.0882   YYYZ       0.2901
      XXZZ    -567.2266   XYZZ      33.0002   YYZZ    -220.0200
      XZZZ     648.2571   YZZZ     -85.0234   ZZZZ   -1034.9220
 -----------------------------------------------------------------
 Calculating analytic gradient of the SCF energy
 Gradient of SCF Energy
            1           2           3           4           5           6
    1  -0.0003321  -0.0006494  -0.0001448   0.0000452   0.0006328  -0.0000362
    2   0.0000437  -0.0001639   0.0001288   0.0000729   0.0006727   0.0000113
    3   0.0001768  -0.0011925   0.0004306   0.0008525  -0.0016319   0.0017101
            7           8           9          10          11          12
    1   0.0003952  -0.0001320  -0.0004002   0.0001641   0.0005214  -0.0001123
    2  -0.0002727   0.0002807  -0.0000426  -0.0009174  -0.0000565   0.0001042
    3   0.0001922   0.0003802   0.0000162  -0.0006326   0.0000842   0.0001860
           13
    1   0.0000484
    2   0.0001388
    3  -0.0005719
 Max gradient component =       1.710E-03
 RMS gradient           =       5.557E-04
 Gradient time:  CPU 4.17 s  wall 1.85 s
 Geometry Optimization Parameters
   NAtoms,    NIC,     NZ,  NCons,   NDum,   NFix, NCnnct, MaxDiis
       13      88       0       0       0       0       0       0

 Cartesian Hessian Update
 Hessian Updated using BFGS Update


** GEOMETRY OPTIMIZATION IN DELOCALIZED INTERNAL COORDINATES **
   Searching for a Minimum

   Optimization Cycle:   6

                       Coordinates (Angstroms)
     ATOM                X               Y               Z
      1  C         4.4092260706    0.5741261106   -3.6773138978
      2  C        -0.8233892131   -0.1251900750    1.1381463956
      3  C        -1.9782992120   -0.9479002778    0.7943125246
      4  C        -3.0290917922   -0.3793278653    1.4494181793
      5  C        -2.4610736024    0.7654989477    2.1586086173
      6  N        -1.1363744112    0.8929196625    1.9654371969
      7  H         4.1441340353    1.0941223856   -4.5695579368
      8  H         0.1989694711   -0.2704746158    0.8032952905
      9  H        -1.9799240003   -1.8194680600    0.1524163433
     10  H        -4.0642225479   -0.6964072114    1.4495115217
     11  H        -2.9967417735    1.4633554116    2.7949519718
     12  C         4.7189334917   -0.0142289529   -2.6726810123
     13  H         4.9978534840   -0.5370254600   -1.7865451941
   Point Group: c1    Number of degrees of freedom:    33


   Energy is   -286.836353256

 Hessian Updated using BFGS Update

 33 Hessian modes will be used to form the next step
  Hessian Eigenvalues:
     0.000000    0.001555    0.013906    0.016965    0.017207    0.018564
     0.021362    0.022947    0.063714    0.071710    0.089206    0.105651
     0.158360    0.160214    0.160867    0.169765    0.177730    0.194832
     0.199791    0.223530    0.289363    0.335853    0.353180    0.355849
     0.357137    0.358445    0.371021    0.372711    0.383360    0.496001
     0.518542    0.660289    1.041521
**WARNING** Magnitude of eigenvalue   1 too small.  Replaced by     0.000100

 Minimum Search - Taking Simple RFO Step
 Searching for Lamda that Minimizes Along All modes
 Value Taken    Lamda =  -0.00011967
 Calculated Step too Large.  Step scaled by  0.676996
 Step Taken.  Stepsize is  0.300000

                             Maximum     Tolerance    Cnvgd?
         Gradient           0.001544      0.000300      NO
         Displacement       0.163663      0.001200      NO
         Energy change     -0.005804      0.000001      NO


 New Cartesian Coordinates Obtained by Inverse Iteration

 Displacement from previous Coordinates is:  0.697785
 ----------------------------------------------------------------
             Standard Nuclear Orientation (Angstroms)
    I     Atom           X                Y                Z
 ----------------------------------------------------------------
    1      C       4.3722112752     0.5017684445    -3.6934303766
    2      C      -0.8092818457    -0.1050881593     1.1594813056
    3      C      -1.9616335202    -0.8958217154     0.7366680030
    4      C      -3.0218469888    -0.3680324910     1.4106881066
    5      C      -2.4625688584     0.7200800642     2.2087436469
    6      N      -1.1337768406     0.8578603135     2.0438933901
    7      H       4.0650374166     0.9282124149    -4.6214501646
    8      H       0.2174151566    -0.2340722754     0.8305159264
    9      H      -1.9514616169    -1.7207109317     0.0358541274
   10      H      -4.0600549397    -0.6722252436     1.3756824304
   11      H      -3.0096071520     1.3760093644     2.8794408053
   12      C       4.7219714215     0.0190841629    -2.6463475036
   13      H       5.0335964927    -0.4070639482    -1.7197396966
 ----------------------------------------------------------------
 Nuclear Repulsion Energy =   208.0302165726 hartrees
 There are       25 alpha and       24 beta electrons
 Applying Cartesian multipole field
    Component          Value
    ---------          -----
     (2,0,0)        1.00000E-11
     (0,2,0)        2.00000E-11
     (0,0,2)       -3.00000E-11
 Nucleus-field energy     =    -0.0000000083 hartrees
 Requested basis set is 6-31G(d)
 There are 40 shells and 117 basis functions
 A cutoff of  1.0D-14 yielded    568 shell pairs
 There are      4945 function pairs
 Smallest overlap matrix eigenvalue = 1.03E-03
 Guess MOs from SCF MO coefficient file
 Reading MOs from coefficient file
 Mixing HOMO and LUMO in initial guess
 Adding  50% of the LUMO to the HOMO
 Reading MOs from coefficient file
 An unrestricted hybrid HF-DFT SCF calculation will be
 performed using Pulay DIIS extrapolation
 Exchange:     0.2000 Hartree-Fock + 0.0800 Slater + 0.7200 B88
 Correlation:  0.1900 VWN1RPA + 0.8100 LYP
 Using SG-1 standard quadrature grid
 SCF converges when DIIS error is below 1.0E-08
 Geometry optimization detected.  Setting ReadMinima to 0
 Setting SaveMinima to 0
 using 4 threads for integral computing
 -------------------------------------------------------
 OpenMP Integral computing Module                
[...]

 Minimum Search - Taking Simple RFO Step
 Searching for Lamda that Minimizes Along All modes
 Value Taken    Lamda =   0.00000000
 Step Taken.  Stepsize is  0.026561

                             Maximum     Tolerance    Cnvgd?
         Gradient           0.000219      0.000300     YES
         Displacement       0.021583      0.001200      NO
         Energy change     -0.000001      0.000001      NO


 New Cartesian Coordinates Obtained by Inverse Iteration

 Displacement from previous Coordinates is:  0.025848
 ----------------------------------------------------------------
             Standard Nuclear Orientation (Angstroms)
    I     Atom           X                Y                Z
 ----------------------------------------------------------------
    1      C       2.8466583730    -0.3121073710    -2.2892377232
    2      C      -0.1891340782     0.0798769719     0.4726827320
    3      C      -1.4693166275    -0.2038390146    -0.1705769152
    4      C      -2.3880430829    -0.1851223836     0.8356520336
    5      C      -1.6230063587     0.1098882753     2.0440734884
    6      N      -0.3081055486     0.2648313488     1.8031164717
    7      H       2.4514160248    -1.0082518795    -2.9944993252
    8      H       0.7774692123     0.1457043626    -0.0181815928
    9      H      -1.6283544252    -0.3856728150    -1.2257574982
   10      H      -3.4565584666    -0.3487593930     0.7785438801
   11      H      -2.0197306199     0.2051028134     3.0507516988
   12      C       3.2992697984     0.4723046389    -1.4936104695
   13      H       3.7074357993     1.1660444456    -0.7929567804
 ----------------------------------------------------------------
 Nuclear Repulsion Energy =   225.8809696467 hartrees
 There are       25 alpha and       24 beta electrons
 Applying Cartesian multipole field
    Component          Value
    ---------          -----
     (2,0,0)        1.00000E-11
     (0,2,0)        2.00000E-11
     (0,0,2)       -3.00000E-11
 Nucleus-field energy     =    -0.0000000046 hartrees
 Requested basis set is 6-31G(d)
 There are 40 shells and 117 basis functions
 A cutoff of  1.0D-14 yielded    709 shell pairs
 There are      6181 function pairs
 Smallest overlap matrix eigenvalue = 1.03E-03
 Guess MOs from SCF MO coefficient file
 Reading MOs from coefficient file
 Mixing HOMO and LUMO in initial guess
 Adding  50% of the LUMO to the HOMO
 Reading MOs from coefficient file
 An unrestricted hybrid HF-DFT SCF calculation will be
 performed using Pulay DIIS extrapolation
 Exchange:     0.2000 Hartree-Fock + 0.0800 Slater + 0.7200 B88
 Correlation:  0.1900 VWN1RPA + 0.8100 LYP
 Using SG-1 standard quadrature grid
 SCF converges when DIIS error is below 1.0E-08
 Geometry optimization detected.  Setting ReadMinima to 0
 Setting SaveMinima to 0
 using 4 threads for integral computing
 -------------------------------------------------------
 OpenMP Integral computing Module                
 Release: version 1.0, May 2013, Q-Chem Inc. Pittsburgh 
 -------------------------------------------------------
 -------------------------------------------------------
 OpenMP BLAS3 based DFT computing Module                
 Release: version 1.0, May 2013, Q-Chem Inc. Pittsburgh 
 -------------------------------------------------------
 ---------------------------------------
  Cycle       Energy         DIIS Error
 ---------------------------------------
    1    -286.7823997810      2.11E-03
    2    -286.8049358029      4.15E-03
    3    -286.8364323550      6.81E-04
    4    -286.8372118595      5.42E-04
    5    -286.8379090525      1.27E-04
    6    -286.8379728954      4.34E-05
    7    -286.8379986167      2.36E-05
    8    -286.8380045448      2.01E-05
    9    -286.8380088602      8.72E-06
   10    -286.8380101811      5.53E-06
   11    -286.8380107029      3.33E-06
   12    -286.8380110030      1.74E-06
   13    -286.8380110792      5.28E-07
   14    -286.8380110879      3.62E-07
   15    -286.8380110919      6.58E-08
   16    -286.8380110924      9.61E-09 Convergence criterion met
 ---------------------------------------
 <S^2> = 0.7655
 SCF time:  CPU 32.78 s  wall 27.41 s
 SCF   energy in the final basis set = -286.83801109
 Total energy in the final basis set = -286.83801109
 
 --------------------------------------------------------------
 
                    Orbital Energies (a.u.)
 --------------------------------------------------------------
 
 Alpha MOs
 -- Occupied --
-14.311 -10.237 -10.235 -10.200 -10.197 -10.197 -10.196  -0.953
 -0.766  -0.750  -0.717  -0.572  -0.567  -0.560  -0.516  -0.498
 -0.413  -0.406  -0.401  -0.387  -0.290  -0.289  -0.264  -0.249
 -0.237
 -- Virtual --
  0.042   0.045   0.046   0.051   0.101   0.115   0.143   0.153
  0.159   0.168   0.225   0.251   0.283   0.361   0.421   0.468
  0.477   0.521   0.523   0.529   0.547   0.571   0.576   0.593
  0.597   0.622   0.648   0.651   0.666   0.672   0.682   0.740
  0.800   0.808   0.831   0.835   0.840   0.856   0.901   0.949
  0.978   1.012   1.067   1.118   1.132   1.214   1.272   1.329
  1.360   1.381   1.465   1.482   1.499   1.500   1.503   1.528
  1.542   1.557   1.570   1.651   1.782   1.936   1.936   1.941
  1.991   2.018   2.054   2.140   2.199   2.228   2.258   2.312
  2.389   2.450   2.480   2.484   2.534   2.560   2.594   2.622
  2.733   2.904   2.926   3.017   3.184   3.940   4.063   4.093
  4.152   4.297   4.326   4.446
 
 Beta MOs
 -- Occupied --
-14.314 -10.229 -10.227 -10.200 -10.197 -10.196 -10.195  -0.947
 -0.763  -0.750  -0.696  -0.572  -0.561  -0.549  -0.514  -0.498
 -0.409  -0.399  -0.381  -0.375  -0.290  -0.289  -0.265  -0.245
 -- Virtual --
 -0.130   0.043   0.046   0.074   0.080   0.101   0.118   0.144
  0.159   0.162   0.173   0.230   0.257   0.290   0.367   0.421
  0.474   0.479   0.525   0.531   0.547   0.550   0.575   0.600
  0.606   0.613   0.631   0.648   0.652   0.675   0.681   0.685
  0.740   0.803   0.808   0.829   0.831   0.842   0.861   0.908
  0.954   0.981   1.014   1.070   1.123   1.134   1.214   1.279
  1.350   1.380   1.393   1.466   1.488   1.499   1.500   1.503
  1.537   1.542   1.570   1.583   1.654   1.806   1.936   1.937
  1.943   2.000   2.021   2.059   2.165   2.213   2.240   2.290
  2.323   2.403   2.450   2.480   2.484   2.551   2.564   2.610
  2.630   2.736   2.907   2.929   3.020   3.184   3.938   4.073
  4.107   4.153   4.309   4.327   4.454
 --------------------------------------------------------------
 
          Ground-State Mulliken Net Atomic Charges

     Atom                 Charge (a.u.)    Spin (a.u.)
  --------------------------------------------------------
      1 C                    -0.189163      -0.000246
      2 C                     0.046391       0.533367
      3 C                    -0.153325       0.084341
      4 C                    -0.151938       0.085726
      5 C                     0.055981       0.528621
      6 N                    -0.412809      -0.167164
      7 H                     0.191463       0.000013
      8 H                     0.164888      -0.026309
      9 H                     0.141610      -0.005944
     10 H                     0.142889      -0.006016
     11 H                     0.150275      -0.026540
     12 C                    -0.183748       0.000157
     13 H                     0.197486      -0.000006
  --------------------------------------------------------
  Sum of atomic charges =    -0.000000
  Sum of spin   charges =     1.000000

 -----------------------------------------------------------------
                    Cartesian Multipole Moments
 -----------------------------------------------------------------
    Charge (ESU x 10^10)
                -0.0000
    Dipole Moment (Debye)
         X      -1.1295      Y      -0.3947      Z      -1.5355
       Tot       1.9466
    Quadrupole Moments (Debye-Ang)
        XX     -35.2675     XY       1.9408     YY     -40.8925
        XZ      -2.7109     YZ       2.2060     ZZ     -39.6797
    Octopole Moments (Debye-Ang^2)
       XXX     -15.2372    XXY       7.3167    XYY       6.2922
       YYY      -2.4861    XXZ       9.9033    XYZ       4.2090
       YYZ      -9.6468    XZZ     -13.6174    YZZ     -12.8093
       ZZZ     -26.9121
    Hexadecapole Moments (Debye-Ang^3)
      XXXX   -1074.3111   XXXY      28.6172   XXYY    -186.9689
      XYYY     -22.7380   YYYY     -65.9651   XXXZ     325.6682
      XXYZ       5.2089   XYYZ      96.2613   YYYZ     -13.6179
      XXZZ    -287.8129   XYZZ     -34.2740   YYZZ    -111.7140
      XZZZ     260.4355   YZZZ      15.1876   ZZZZ    -572.8514
 -----------------------------------------------------------------
 Calculating analytic gradient of the SCF energy
 Gradient of SCF Energy
            1           2           3           4           5           6
    1  -0.0000125  -0.0001694  -0.0001738   0.0002620   0.0000724  -0.0000433
    2   0.0000346  -0.0002197   0.0000529  -0.0000325   0.0000091  -0.0000019
    3  -0.0000402  -0.0001753   0.0002488  -0.0002524  -0.0000301   0.0000235
            7           8           9          10          11          12
    1  -0.0000134   0.0000804  -0.0000038   0.0000112  -0.0000061  -0.0000480
    2  -0.0000113   0.0002527  -0.0000085   0.0000205   0.0000015  -0.0000918
    3   0.0000196   0.0002223   0.0000103   0.0000362   0.0000079  -0.0000258
           13
    1   0.0000445
    2  -0.0000055
    3  -0.0000447
 Max gradient component =       2.620E-04
 RMS gradient           =       1.116E-04
 Gradient time:  CPU 5.54 s  wall 3.23 s
 Geometry Optimization Parameters
   NAtoms,    NIC,     NZ,  NCons,   NDum,   NFix, NCnnct, MaxDiis
       13      88       0       0       0       0       0       0

 Cartesian Hessian Update
 Hessian Updated using BFGS Update


** GEOMETRY OPTIMIZATION IN DELOCALIZED INTERNAL COORDINATES **
   Searching for a Minimum

   Optimization Cycle:  71

                       Coordinates (Angstroms)
     ATOM                X               Y               Z
      1  C         2.8466583730   -0.3121073710   -2.2892377232
      2  C        -0.1891340782    0.0798769719    0.4726827320
      3  C        -1.4693166275   -0.2038390146   -0.1705769152
      4  C        -2.3880430829   -0.1851223836    0.8356520336
      5  C        -1.6230063587    0.1098882753    2.0440734884
      6  N        -0.3081055486    0.2648313488    1.8031164717
      7  H         2.4514160248   -1.0082518795   -2.9944993252
      8  H         0.7774692123    0.1457043626   -0.0181815928
      9  H        -1.6283544252   -0.3856728150   -1.2257574982
     10  H        -3.4565584666   -0.3487593930    0.7785438801
     11  H        -2.0197306199    0.2051028134    3.0507516988
     12  C         3.2992697984    0.4723046389   -1.4936104695
     13  H         3.7074357993    1.1660444456   -0.7929567804
   Point Group: c1    Number of degrees of freedom:    33


   Energy is   -286.838011092

 Hessian Updated using BFGS Update

 33 Hessian modes will be used to form the next step
  Hessian Eigenvalues:
     0.000148    0.000618    0.001779    0.014264    0.016610    0.019334
     0.020731    0.021716    0.024601    0.038057    0.043632    0.057185
     0.081140    0.114132    0.132772    0.139006    0.157550    0.158507
     0.161505    0.230835    0.310198    0.328193    0.353375    0.357010
     0.358012    0.361407    0.370255    0.392927    0.409352    0.464051
     0.522028    1.039223    2.427300

 Minimum Search - Taking Simple RFO Step
 Searching for Lamda that Minimizes Along All modes
 Value Taken    Lamda =   0.00000000
 Step Taken.  Stepsize is  0.017398

                             Maximum     Tolerance    Cnvgd?
         Gradient           0.000179      0.000300     YES
         Displacement       0.014774      0.001200      NO
         Energy change     -0.000000      0.000001     YES


                       Distance Matrix (Angstroms)
             C (  1)   C (  2)   C (  3)   C (  4)   C (  5)   N (  6)
   C (  2)  4.122850
   C (  3)  4.809167  1.460529
   C (  4)  6.097800  2.244365  1.362683
   C (  5)  6.239677  2.127477  2.242035  1.460341
   N (  6)  5.199303  1.348487  2.337419  2.337645  1.345746
   H (  7)  1.066878  4.491980  4.898343  6.226393  6.575589  5.679156
   H (  8)  3.106257  1.086095  2.278915  3.295292  3.164879  2.123627
   H (  9)  4.600233  2.274377  1.082480  2.206073  3.307175  3.367535
   H ( 10)  7.010219  3.309583  2.207026  1.082480  2.274607  3.367343
   H ( 11)  7.243254  3.164365  3.293501  2.279166  1.086212  2.118920
   C ( 12)  1.205480  4.023589  4.994698  6.180874  6.072508  4.891279
   H ( 13)  2.272604  4.238497  5.390983  6.452355  6.130075  4.865835
             H (  7)   H (  8)   H (  9)   H ( 10)   H ( 11)   C ( 12)
   H (  8)  3.604467
   H (  9)  4.490053  2.743827
   H ( 10)  7.040948  4.336618  2.713101
   H ( 11)  7.616327  4.152855  4.334827  2.744844
   C ( 12)  2.272349  2.939904  5.008927  7.174820  7.001028
   H ( 13)  3.339452  3.197823  5.573670  7.489129  6.964046  1.067141

 
 Final energy is   -286.838011092412     


 ******************************
 **  OPTIMIZATION CONVERGED  **
 ******************************

                       Coordinates (Angstroms)
     ATOM                X               Y               Z
      1  C         2.8466583730   -0.3121073710   -2.2892377232
      2  C        -0.1891340782    0.0798769719    0.4726827320
      3  C        -1.4693166275   -0.2038390146   -0.1705769152
      4  C        -2.3880430829   -0.1851223836    0.8356520336
      5  C        -1.6230063587    0.1098882753    2.0440734884
      6  N        -0.3081055486    0.2648313488    1.8031164717
      7  H         2.4514160248   -1.0082518795   -2.9944993252
      8  H         0.7774692123    0.1457043626   -0.0181815928
      9  H        -1.6283544252   -0.3856728150   -1.2257574982
     10  H        -3.4565584666   -0.3487593930    0.7785438801
     11  H        -2.0197306199    0.2051028134    3.0507516988
     12  C         3.2992697984    0.4723046389   -1.4936104695
     13  H         3.7074357993    1.1660444456   -0.7929567804

Z-matrix Print:
$molecule
0 2
N 
C  1 1.345746
H  2 1.086212 1 120.844720
C  1 1.348487 2 104.303959 3 179.997267 0
H  4 1.086095 1 121.071616 2 -179.977616 0
C  2 1.460341 1 112.765711 3 179.994768 0
H  6 1.082480 2 126.250114 1 -179.955558 0
C  6 1.362683 2 105.106310 1 -0.012826 0
H  8 1.082480 6 128.539086 2 -179.899177 0
C  5 2.939904 4 175.532685 1 -127.968371 0
H  10 1.067141 5 94.060009 4 99.243834 0
C  10 1.205480 5 86.381141 4 -80.842267 0
H  12 1.066878 10 179.689941 5 -148.549726 0
$end

 
 --------------------------------------------------------------
 
                    Orbital Energies (a.u.)
 --------------------------------------------------------------
 
 Alpha MOs
 -- Occupied --
-14.311 -10.237 -10.235 -10.200 -10.197 -10.197 -10.196  -0.953
 -0.766  -0.750  -0.717  -0.572  -0.567  -0.560  -0.516  -0.498
 -0.413  -0.406  -0.401  -0.387  -0.290  -0.289  -0.264  -0.249
 -0.237
 -- Virtual --
  0.042   0.045   0.046   0.051   0.101   0.115   0.143   0.153
  0.159   0.168   0.225   0.251   0.283   0.361   0.421   0.468
  0.477   0.521   0.523   0.529   0.547   0.571   0.576   0.593
  0.597   0.622   0.648   0.651   0.666   0.672   0.682   0.740
  0.800   0.808   0.831   0.835   0.840   0.856   0.901   0.949
  0.978   1.012   1.067   1.118   1.132   1.214   1.272   1.329
  1.360   1.381   1.465   1.482   1.499   1.500   1.503   1.528
  1.542   1.557   1.570   1.651   1.782   1.936   1.936   1.941
  1.991   2.018   2.054   2.140   2.199   2.228   2.258   2.312
  2.389   2.450   2.480   2.484   2.534   2.560   2.594   2.622
  2.733   2.904   2.926   3.017   3.184   3.940   4.063   4.093
  4.152   4.297   4.326   4.446
 
 Beta MOs
 -- Occupied --
-14.314 -10.229 -10.227 -10.200 -10.197 -10.196 -10.195  -0.947
 -0.763  -0.750  -0.696  -0.572  -0.561  -0.549  -0.514  -0.498
 -0.409  -0.399  -0.381  -0.375  -0.290  -0.289  -0.265  -0.245
 -- Virtual --
 -0.130   0.043   0.046   0.074   0.080   0.101   0.118   0.144
  0.159   0.162   0.173   0.230   0.257   0.290   0.367   0.421
  0.474   0.479   0.525   0.531   0.547   0.550   0.575   0.600
  0.606   0.613   0.631   0.648   0.652   0.675   0.681   0.685
  0.740   0.803   0.808   0.829   0.831   0.842   0.861   0.908
  0.954   0.981   1.014   1.070   1.123   1.134   1.214   1.279
  1.350   1.380   1.393   1.466   1.488   1.499   1.500   1.503
  1.537   1.542   1.570   1.583   1.654   1.806   1.936   1.937
  1.943   2.000   2.021   2.059   2.165   2.213   2.240   2.290
  2.323   2.403   2.450   2.480   2.484   2.551   2.564   2.610
  2.630   2.736   2.907   2.929   3.020   3.184   3.938   4.073
  4.107   4.153   4.309   4.327   4.454
 --------------------------------------------------------------
 
          Ground-State Mulliken Net Atomic Charges

     Atom                 Charge (a.u.)    Spin (a.u.)
  --------------------------------------------------------
      1 C                    -0.189163      -0.000246
      2 C                     0.046391       0.533367
      3 C                    -0.153325       0.084341
      4 C                    -0.151938       0.085726
      5 C                     0.055981       0.528621
      6 N                    -0.412809      -0.167164
      7 H                     0.191463       0.000013
      8 H                     0.164888      -0.026309
      9 H                     0.141610      -0.005944
     10 H                     0.142889      -0.006016
     11 H                     0.150275      -0.026540
     12 C                    -0.183748       0.000157
     13 H                     0.197486      -0.000006
  --------------------------------------------------------
  Sum of atomic charges =    -0.000000
  Sum of spin   charges =     1.000000

 -----------------------------------------------------------------
                    Cartesian Multipole Moments
 -----------------------------------------------------------------
    Charge (ESU x 10^10)
                -0.0000
    Dipole Moment (Debye)
         X      -1.1295      Y      -0.3947      Z      -1.5355
       Tot       1.9466
    Quadrupole Moments (Debye-Ang)
        XX     -35.2675     XY       1.9408     YY     -40.8925
        XZ      -2.7109     YZ       2.2060     ZZ     -39.6797
    Octopole Moments (Debye-Ang^2)
       XXX     -15.2372    XXY       7.3167    XYY       6.2922
       YYY      -2.4861    XXZ       9.9033    XYZ       4.2090
       YYZ      -9.6468    XZZ     -13.6174    YZZ     -12.8093
       ZZZ     -26.9121
    Hexadecapole Moments (Debye-Ang^3)
      XXXX   -1074.3111   XXXY      28.6172   XXYY    -186.9689
      XYYY     -22.7380   YYYY     -65.9651   XXXZ     325.6682
      XXYZ       5.2089   XYYZ      96.2613   YYYZ     -13.6179
      XXZZ    -287.8129   XYZZ     -34.2740   YYZZ    -111.7140
      XZZZ     260.4355   YZZZ      15.1876   ZZZZ    -572.8514
 -----------------------------------------------------------------
Archival summary:
1\1\c8-73\OPT\ProcedureUnspecified\6-31G*\166(2)\hpark21\TueMar121:38:502022TueMar121:38:502022\0\\#,OPT,ProcedureUnspecified,6-31G*,\\0,2\N\C,1,1.34575\H,2,1.08621,1,120.845\C,1,1.34849,2,104.304,3,179.997,0\H,4,1.0861,1,121.072,2,-179.978,0\C,2,1.46034,1,112.766,3,179.995,0\H,6,1.08248,2,126.25,1,-179.956,0\C,6,1.36268,2,105.106,1,-0.012826,0\H,8,1.08248,6,128.539,2,-179.899,0\C,5,2.9399,4,175.533,1,-127.968,0\H,10,1.06714,5,94.06,4,99.2438,0\C,10,1.20548,5,86.3811,4,-80.8423,0\H,12,1.06688,10,179.69,5,-148.55,0\\\@

 Total job time:  2765.43s(wall), 2698.25s(cpu) 
 Tue Mar  1 21:38:50 2022

        *************************************************************
        *                                                           *
        *  Thank you very much for using Q-Chem.  Have a nice day.  *
        *                                                           *
        *************************************************************


