
Running Job 1 of 1 qcts2.in
qchem qcts2.in_2526.0 ./qcts2.d/ 1
/home/leeping/opt/qchem/5.0.2-openmp/exe/qcprog.exe_s qcts2.in_2526.0 ./qcts2.d/
Check license passed

                  Welcome to Q-Chem
     A Quantum Leap Into The Future Of Chemistry


 Q-Chem 5.0, Q-Chem, Inc., Pleasanton, CA (2017)

 Yihan Shao,  Zhengting Gan,  E. Epifanovsky,  A. T. B. Gilbert,  M. Wormit,  
 J. Kussmann,  A. W. Lange,  A. Behn,  Jia Deng,  Xintian Feng,  D. Ghosh,  
 M. Goldey,  P. R. Horn,  L. D. Jacobson,  I. Kaliman,  T. Kus,  A. Landau,  
 Jie Liu,  E. I. Proynov,  R. M. Richard,  R. P. Steele,  E. J. Sundstrom,  
 H. L. Woodcock III,  P. M. Zimmerman,  D. Zuev,  B. Albrecht,  E. Alguire,  
 S. A. Baeppler,  D. Barton,  Z. Benda,  Y. A. Bernard,  E. J. Berquist,  
 K. B. Bravaya,  H. Burton,  D. Casanova,  Chun-Min Chang,  Yunqing Chen,  
 A. Chien,  K. D. Closser,  M. P. Coons,  S. Dasgupta,  A. L. Dempwolff,  
 M. Diedenhofen,  Hainam Do,  R. G. Edgar,  Po-Tung Fang,  S. Fatehi,  
 Qingguo Feng,  J. Fosso-Tande,  Qinghui Ge,  A. Ghysels,  G. Gidofalvi,  
 J. Gomes,  J. Gonthier,  A. Gunina,  M. W. D. Hanson-Heine,  
 P. H. P. Harbach,  A. W. Hauser,  J. E. Herr,  E. G. Hohenstein,  
 Z. C. Holden,  Kerwin Hui,  T.-C. Jagau,  Hyunjun Ji,  B. Kaduk,  
 K. Khistyaev,  Jaehoon Kim,  P. Klunzinger,  K. Koh,  D. Kosenkov,  
 L. Koulias,  T. Kowalczyk,  C. M. Krauter,  A. Kunitsa,  Ka Un Lao,  
 A. Laurent,  K. V. Lawler,  Joonho Lee,  D. Lefrancois,  S. Lehtola,  
 D. S. Levine,  Yi-Pei Li,  You-Sheng Lin,  Fenglai Liu,  E. Livshits,  
 A. Luenser,  P. Manohar,  E. Mansoor,  S. F. Manzer,  Shan-Ping Mao,  
 Yuezhi Mao,  N. Mardirossian,  A. V. Marenich,  T. Markovich,  
 L. A. Martinez-Martinez,  S. A. Maurer,  N. J. Mayhall,  S. C. McKenzie,  
 J.-M. Mewes,  A. F. Morrison,  J. W. Mullinax,  K. Nanda,  
 T. S. Nguyen-Beck,  R. Olivares-Amaya,  J. A. Parkhill,  T. M. Perrine,  
 F. Plasser,  S. Prager,  A. Prociuk,  E. Ramos,  D. R. Rehn,  F. Rob,  
 M. Schneider,  N. Sergueev,  S. M. Sharada,  S. Sharma,  D. W. Small,  
 T. Stauch,  T. Stein,  Yu-Chuan Su,  A. J. W. Thom,  A. Tkatchenko,  
 T. Tsuchimochi,  L. Vogt,  O. Vydrov,  M. A. Watson,  J. Wenzel,  
 M. de Wergifosse,  T. A. Wesolowski,  A. White,  J. Witte,  A. Yamada,  
 Jun Yang,  K. Yao,  S. Yeganeh,  S. R. Yost,  Zhi-Qiang You,  A. Zech,  
 Igor Ying Zhang,  Xing Zhang,  Yan Zhao,  Ying Zhu,  B. R. Brooks,  
 G. K. L. Chan,  C. J. Cramer,  M. S. Gordon,  W. J. Hehre,  A. Klamt,  
 M. W. Schmidt,  C. D. Sherrill,  D. G. Truhlar,  A. Aspuru-Guzik,  R. Baer,  
 A. T. Bell,  N. A. Besley,  Jeng-Da Chai,  R. A. DiStasio Jr.,  A. Dreuw,  
 B. D. Dunietz,  T. R. Furlani,  Chao-Ping Hsu,  Yousung Jung,  Jing Kong,  
 D. S. Lambrecht,  WanZhen Liang,  C. Ochsenfeld,  V. A. Rassolov,  
 L. V. Slipchenko,  J. E. Subotnik,  T. Van Voorhis,  J. M. Herbert,  
 A. I. Krylov,  P. M. W. Gill,  M. Head-Gordon

 Contributors to earlier versions of Q-Chem not listed above: 
 R. D. Adamson,  B. Austin,  J. Baker,  G. J. O. Beran,  K. Brandhorst,  
 S. T. Brown,  E. F. C. Byrd,  A. K. Chakraborty,  C.-L. Cheng,  
 Siu Hung Chien,  D. M. Chipman,  D. L. Crittenden,  H. Dachsel,  
 R. J. Doerksen,  A. D. Dutoi,  L. Fusti-Molnar,  W. A. Goddard III,  
 A. Golubeva-Zadorozhnaya,  S. R. Gwaltney,  G. Hawkins,  A. Heyden,  
 S. Hirata,  G. Kedziora,  F. J. Keil,  C. Kelley,  Jihan Kim,  R. A. King,  
 R. Z. Khaliullin,  P. P. Korambath,  W. Kurlancheek,  A. M. Lee,  M. S. Lee,  
 S. V. Levchenko,  Ching Yeh Lin,  D. Liotard,  R. C. Lochan,  I. Lotan,  
 P. E. Maslen,  N. Nair,  D. P. O'Neill,  D. Neuhauser,  E. Neuscamman,  
 C. M. Oana,  R. Olson,  B. Peters,  R. Peverati,  P. A. Pieniazek,  
 Y. M. Rhee,  J. Ritchie,  M. A. Rohrdanz,  E. Rosta,  N. J. Russ,  
 H. F. Schaefer III,  N. E. Schultz,  N. Shenvi,  A. C. Simmonett,  A. Sodt,  
 D. Stuck,  K. S. Thanthiriwatte,  V. Vanovschi,  Tao Wang,  A. Warshel,  
 C. F. Williams,  Q. Wu,  X. Xu,  W. Zhang

 Please cite Q-Chem as follows:
 Y. Shao et al., Mol. Phys. 113, 184-215 (2015)
 DOI: 10.1080/00268976.2014.952696

 Q-Chem 5.0.2 for Intel X86 EM64T Linux

 Parts of Q-Chem use Armadillo 5.200.1 (Boston Tea Smuggler).
 http://arma.sourceforge.net/

 Q-Chem begins on Wed Mar  2 00:56:55 2022  

Host: 
0

     Scratch files written to ./qcts2.d//
 Dec517 15110_ 26548  26544 5633   
Processing $rem in /home/leeping/opt/qchem/5.0.2-openmp/config/preferences.
 MEM_STATIC 2000
 MEM_TOTAL  8000
 SYMMETRY   OFF
 SYM_IGNORE TRUE 

Checking the input file for inconsistencies... 	...done.

--------------------------------------------------------------
User input:
--------------------------------------------------------------
$molecule
0 2
C        1.9187621108    0.5428250285   -0.5117485323
C       -0.2356565301   -1.2446121241    0.0930099675
C       -1.2159664608   -1.1135978010    1.0351128371
C       -1.6722168456    0.2634168716    0.9598865097
C       -0.9296813479    0.8774946408   -0.0279643674
N       -0.1338100054   -0.0568262757   -0.6427920854
H        1.8729885900    0.5455424415    0.5569820007
H        0.3753551184   -2.0970920366   -0.1707580261
H       -1.6139748578   -1.8874754571    1.6795922443
H       -2.5069419264    0.6925324896    1.5017764411
H       -0.9915307493    1.8874814690   -0.4107901952
C        2.4763433309    0.6843363211   -1.5968691542
H        2.7349201258    0.7444377877   -2.6313320411
$end

$rem
method                b3lyp
basis                 6-31+g(d,p)
unrestricted          true
symmetry              off
sym_ignore            true
incdft                false
incfock               0
scf_convergence       6
thresh                14
jobtype               sp
scf_guess             read
scf_algorithm         diis
max_scf_cycles        100
stability_analysis    true
max_cis_cycles        100
cis_n_roots           4
$end

--------------------------------------------------------------
 ----------------------------------------------------------------
             Standard Nuclear Orientation (Angstroms)
    I     Atom           X                Y                Z
 ----------------------------------------------------------------
    1      C       1.9187621108     0.5428250285    -0.5117485323
    2      C      -0.2356565301    -1.2446121241     0.0930099675
    3      C      -1.2159664608    -1.1135978010     1.0351128371
    4      C      -1.6722168456     0.2634168716     0.9598865097
    5      C      -0.9296813479     0.8774946408    -0.0279643674
    6      N      -0.1338100054    -0.0568262757    -0.6427920854
    7      H       1.8729885900     0.5455424415     0.5569820007
    8      H       0.3753551184    -2.0970920366    -0.1707580261
    9      H      -1.6139748578    -1.8874754571     1.6795922443
   10      H      -2.5069419264     0.6925324896     1.5017764411
   11      H      -0.9915307493     1.8874814690    -0.4107901952
   12      C       2.4763433309     0.6843363211    -1.5968691542
   13      H       2.7349201258     0.7444377877    -2.6313320411
 ----------------------------------------------------------------
 Nuclear Repulsion Energy =   250.3741913305 hartrees
 There are       25 alpha and       24 beta electrons
 Requested basis set is 6-31+G(d,p)
 There are 53 shells and 163 basis functions

 Total QAlloc Memory Limit   8000 MB
 Mega-Array Size      1956 MB
 MEM_STATIC part      2000 MB

                       Distance Matrix (Angstroms)
             C (  1)   C (  2)   C (  3)   C (  4)   C (  5)   N (  6)
   C (  2)  2.863946
   C (  3)  3.868209  1.365917
   C (  4)  3.890875  2.255955  1.452581
   C (  5)  2.908553  2.235988  2.275201  1.379964
   N (  6)  2.142383  1.400933  2.259025  2.244511  1.372727
   H (  7)  1.069714  2.804694  3.538785  3.579163  2.882241  2.414445
   H (  8)  3.076937  1.081495  2.225689  3.323087  3.251411  2.155168
   H (  9)  4.815451  2.197789  1.082890  2.268856  3.321004  3.306907
   H ( 10)  4.864520  3.300892  2.268590  1.083767  2.205010  3.285189
   H ( 11)  3.207507  3.261161  3.338785  2.231518  1.081875  2.137719
   C ( 12)  1.228173  3.732489  4.877812  4.891291  3.754967  2.876193
   H ( 13)  2.280218  4.494740  5.701282  5.705356  4.497169  3.581330
             H (  7)   H (  8)   H (  9)   H ( 10)   H ( 11)   C ( 12)
   H (  8)  3.123464
   H (  9)  4.397584  2.724916
   H ( 10)  4.483083  4.345919  2.735955
   H ( 11)  3.307999  4.219339  4.359752  2.717036
   C ( 12)  2.241066  3.766203  5.837818  5.868118  3.857524
   H ( 13)  3.308751  4.438047  6.665127  6.675507  4.485955  1.067983

 
 A cutoff of  1.0D-14 yielded   1345 shell pairs
 There are     13073 function pairs
 Smallest overlap matrix eigenvalue = 2.23E-05

 Scale SEOQF with 1.000000e-01/1.000000e-01/1.000000e-01

 Standard Electronic Orientation quadrupole field applied
 Nucleus-field energy     =     0.0000000020 hartrees
 Guess MOs from SCF MO coefficient file
 Reading MOs from coefficient file
 Reading MOs from coefficient file
 An unrestricted hybrid HF-DFT SCF calculation will be
 performed using Pulay DIIS extrapolation
 Exchange:     0.2000 Hartree-Fock + 0.0800 Slater + 0.7200 B88
 Correlation:  0.1900 VWN1RPA + 0.8100 LYP
 Using SG-1 standard quadrature grid
 SCF converges when DIIS error is below 1.0E-06
Using Q-Chem read-in guess as SCF_GUESS READ specified.

 -------------------------------------------------------
 OpenMP BLAS3 based DFT computing Module                
 -------------------------------------------------------
 ---------------------------------------
  Cycle       Energy         DIIS Error
 ---------------------------------------
    1    -286.8302200636      1.39E-09
    2    -286.8302200636      2.38E-09 Convergence criterion met
 ---------------------------------------
 <S^2> = 0.7746
 SCF time:  CPU 6.27 s  wall 13.46 s
 SCF   energy in the final basis set = -286.83022006
 Total energy in the final basis set = -286.83022006
 
 Direct TDDFT/TDA calculation will be performed
 Exchange:     0.2000 Hartree-Fock + 0.0800 Slater + 0.7200 B88
 Correlation:  0.1900 VWN1RPA + 0.8100 LYP
 Using SG-1 standard quadrature grid
 CIS energy converged when residual is below 10e- 6
 ---------------------------------------------------
 Iter    Rts Conv    Rts Left    Ttl Dev     Max Dev
 ---------------------------------------------------
   1         0           4      0.004436    0.001804
   2         0           4      0.001326    0.000599
   3         0           4      0.000475    0.000272
   4         0           4      0.000213    0.000153
   5         0           4      0.000075    0.000062
   6         1           3      0.000023    0.000020
   7         3           1      0.000010    0.000009
   8         3           1      0.000003    0.000003
   9         4           0      0.000001    0.000001    Roots Converged
 ---------------------------------------------------
 
 ---------------------------------------------------
         TDDFT/TDA Excitation Energies              
 ---------------------------------------------------

 Excited state   1: excitation energy (eV) =    0.7502
 Total energy for state  1:                  -286.80265084 au
    <S**2>     :  0.8068
    Trans. Mom.:  0.2578 X  -0.0121 Y  -0.1095 Z
    Strength   :     0.0014449550
    D( 24) --> S(  1) amplitude =  0.9886 beta

 Excited state   2: excitation energy (eV) =    1.5061
 Total energy for state  2:                  -286.77487294 au
    <S**2>     :  0.7911
    Trans. Mom.: -0.8572 X  -0.2169 Y   0.5110 Z
    Strength   :     0.0384861202
    D( 21) --> S(  1) amplitude =  0.2264 beta
    D( 23) --> S(  1) amplitude =  0.9521 beta

 Excited state   3: excitation energy (eV) =    2.9632
 Total energy for state  3:                  -286.72132425 au
    <S**2>     :  0.7905
    Trans. Mom.:  0.0196 X   0.0577 Y  -0.0198 Z
    Strength   :     0.0002979494
    D( 22) --> S(  1) amplitude =  0.9932 beta

 Excited state   4: excitation energy (eV) =    3.7564
 Total energy for state  4:                  -286.69217519 au
    <S**2>     :  0.8310
    Trans. Mom.:  1.0720 X   0.2599 Y  -0.4767 Z
    Strength   :     0.1328907177
    D( 24) --> V(  1) amplitude =  0.2955 alpha
    D( 21) --> S(  1) amplitude =  0.8801 beta
    D( 23) --> S(  1) amplitude = -0.1797 beta
 
 ---------------------------------------------------

 Stability analysis will be performed
 ---------------------------------------------------
 Iter    Rts Conv    Rts Left    Ttl Dev     Max Dev
 ---------------------------------------------------
   1         0           8      0.004818    0.000781
   2         0           8      0.001608    0.000511
   3         0           8      0.000853    0.000400
   4         2           6      0.000486    0.000292
   5         4           4      0.000365    0.000289
   6         4           4      0.000241    0.000207
   7         4           4      0.000137    0.000123
   8         5           3      0.000060    0.000056
   9         7           1      0.000023    0.000021
  10         7           1      0.000010    0.000008
  11         7           1      0.000004    0.000002
  12         8           0      0.000002    0.000001    Roots Converged
 UKS-> UKS   stable,    smallest eigenvalue:      0.0213328
 UKS->CUKS   stable,    smallest eigenvalue:      0.0267530
 ---------------------------------------------------
  SETman timing summary (seconds)
  CPU time               167.48s
  System time              0.00s
  Wall time              216.39s
 
 --------------------------------------------------------------
 
                    Orbital Energies (a.u.)
 --------------------------------------------------------------
 
 Alpha MOs
 -- Occupied --
-14.371 -10.234 -10.229 -10.208 -10.205 -10.200 -10.191  -0.960
 -0.786  -0.756  -0.720  -0.592  -0.566  -0.549  -0.520  -0.509
 -0.412  -0.412  -0.403  -0.383  -0.349  -0.313  -0.272  -0.245
 -0.224
 -- Virtual --
 -0.010  -0.002   0.013   0.018   0.031   0.032   0.037   0.049
  0.050   0.052   0.061   0.069   0.078   0.086   0.099   0.117
  0.120   0.127   0.138   0.140   0.146   0.151   0.168   0.178
  0.180   0.190   0.191   0.201   0.216   0.220   0.237   0.245
  0.257   0.271   0.276   0.276   0.295   0.311   0.315   0.344
  0.423   0.448   0.484   0.501   0.646   0.664   0.672   0.684
  0.690   0.711   0.713   0.723   0.728   0.752   0.761   0.804
  0.832   0.875   0.886   0.898   0.905   0.916   0.948   0.969
  0.993   1.033   1.046   1.056   1.091   1.110   1.164   1.189
  1.200   1.250   1.260   1.296   1.337   1.348   1.368   1.375
  1.424   1.462   1.506   1.546   1.551   1.627   1.696   1.782
  1.832   1.851   1.881   1.947   1.951   1.981   1.997   2.005
  2.033   2.074   2.138   2.152   2.185   2.243   2.276   2.366
  2.394   2.404   2.426   2.431   2.466   2.477   2.502   2.547
  2.552   2.593   2.648   2.673   2.739   2.764   2.794   2.855
  2.865   2.894   2.919   3.029   3.213   3.245   3.322   3.566
  3.611   3.717   3.786   4.196   4.342   4.373   4.569   4.638
  4.762   4.882
 
 Beta MOs
 -- Occupied --
-14.360 -10.236 -10.223 -10.208 -10.206 -10.196 -10.190  -0.944
 -0.776  -0.742  -0.717  -0.586  -0.561  -0.546  -0.511  -0.505
 -0.408  -0.402  -0.389  -0.379  -0.327  -0.310  -0.251  -0.221
 -- Virtual --
 -0.148  -0.004   0.000   0.013   0.020   0.031   0.034   0.044
  0.051   0.056   0.059   0.063   0.071   0.082   0.086   0.100
  0.119   0.126   0.129   0.140   0.142   0.148   0.152   0.171
  0.180   0.182   0.191   0.191   0.204   0.217   0.221   0.238
  0.248   0.259   0.274   0.278   0.279   0.297   0.312   0.316
  0.345   0.428   0.451   0.487   0.505   0.652   0.664   0.680
  0.694   0.696   0.715   0.723   0.729   0.735   0.754   0.764
  0.804   0.833   0.876   0.887   0.900   0.907   0.918   0.953
  0.978   0.996   1.040   1.052   1.065   1.092   1.120   1.168
  1.194   1.203   1.254   1.263   1.300   1.340   1.350   1.377
  1.384   1.428   1.470   1.510   1.557   1.563   1.642   1.719
  1.792   1.838   1.863   1.888   1.950   1.953   1.982   2.000
  2.007   2.038   2.078   2.148   2.164   2.192   2.246   2.282
  2.371   2.399   2.405   2.428   2.433   2.469   2.482   2.507
  2.551   2.559   2.595   2.659   2.676   2.743   2.769   2.802
  2.861   2.867   2.901   2.921   3.033   3.215   3.246   3.323
  3.571   3.613   3.722   3.788   4.213   4.344   4.379   4.573
  4.638   4.765   4.889
 --------------------------------------------------------------
 
          Ground-State Mulliken Net Atomic Charges

     Atom                 Charge (a.u.)    Spin (a.u.)
  --------------------------------------------------------
      1 C                    -0.080864      -0.167147
      2 C                    -0.199127       0.008851
      3 C                    -0.076576       0.072229
      4 C                    -0.066636       0.259848
      5 C                    -0.184476      -0.106078
      6 N                    -0.184020       0.464224
      7 H                     0.202710       0.016853
      8 H                     0.132688       0.000426
      9 H                     0.129205      -0.002062
     10 H                     0.131063      -0.008797
     11 H                     0.130043       0.005042
     12 C                    -0.121339       0.474327
     13 H                     0.187331      -0.017716
  --------------------------------------------------------
  Sum of atomic charges =     0.000000
  Sum of spin   charges =     1.000000

 -----------------------------------------------------------------
                    Cartesian Multipole Moments
 -----------------------------------------------------------------
    Charge (ESU x 10^10)
                 0.0000
    Dipole Moment (Debye)
         X       0.9590      Y       0.3580      Z       0.1943
       Tot       1.0419
    Quadrupole Moments (Debye-Ang)
        XX     -39.4288     XY      -0.3796     YY     -40.2782
        XZ      -5.2954     YZ      -1.7599     ZZ     -38.6577
    Octopole Moments (Debye-Ang^2)
       XXX      -4.2744    XXY       4.0462    XYY      -4.5186
       YYY      -3.0211    XXZ       0.1709    XYZ      -0.7741
       YYZ       4.2356    XZZ      11.8544    YZZ       3.7699
       ZZZ      -3.8121
    Hexadecapole Moments (Debye-Ang^3)
      XXXX    -637.3690   XXXY     -56.1365   XXYY    -148.9055
      XYYY     -64.9014   YYYY    -237.2937   XXXZ     110.1232
      XXYZ       7.3776   XYYZ      45.1892   YYYZ      41.7336
      XXZZ     -97.2184   XYZZ      -2.9298   YYZZ     -82.5522
      XZZZ      97.4280   YZZZ      31.9632   ZZZZ    -229.3464
 -----------------------------------------------------------------
Archival summary:
1\1\c8-73\SP\ProcedureUnspecified\6-31+G**\166(2)\hpark21\WedMar201:00:512022WedMar201:00:512022\0\\#,ProcedureUnspecified,6-31+G**,\\0,2\N\C,1,1.37273\H,2,1.08188,1,120.668\C,2,1.37996,1,109.251,3,173.092,0\H,4,1.08377,2,126.596,1,-168.759,0\C,1,1.40093,2,107.439,3,178.584,0\H,6,1.08149,1,119.943,2,-175.129,0\C,6,1.36592,1,109.458,2,8.29949,0\H,8,1.08289,6,127.281,1,172.286,0\C,1,2.14238,2,109.729,3,63.8317,0\H,10,1.06971,1,91.1933,2,59.2594,0\C,10,1.22817,1,114.404,2,-120.965,0\H,12,1.06798,10,166.458,1,1.01454,0\\\@

 Total job time:  236.13s(wall), 173.99s(cpu) 
 Wed Mar  2 01:00:51 2022

        *************************************************************
        *                                                           *
        *  Thank you very much for using Q-Chem.  Have a nice day.  *
        *                                                           *
        *************************************************************


