
Running Job 1 of 1 qcts1.in
qchem qcts1.in_57734.0 ./qcts1.d/ 1
/home/leeping/opt/qchem/5.0.2-openmp/exe/qcprog.exe_s qcts1.in_57734.0 ./qcts1.d/
Check license passed

                  Welcome to Q-Chem
     A Quantum Leap Into The Future Of Chemistry


 Q-Chem 5.0, Q-Chem, Inc., Pleasanton, CA (2017)

 Yihan Shao,  Zhengting Gan,  E. Epifanovsky,  A. T. B. Gilbert,  M. Wormit,  
 J. Kussmann,  A. W. Lange,  A. Behn,  Jia Deng,  Xintian Feng,  D. Ghosh,  
 M. Goldey,  P. R. Horn,  L. D. Jacobson,  I. Kaliman,  T. Kus,  A. Landau,  
 Jie Liu,  E. I. Proynov,  R. M. Richard,  R. P. Steele,  E. J. Sundstrom,  
 H. L. Woodcock III,  P. M. Zimmerman,  D. Zuev,  B. Albrecht,  E. Alguire,  
 S. A. Baeppler,  D. Barton,  Z. Benda,  Y. A. Bernard,  E. J. Berquist,  
 K. B. Bravaya,  H. Burton,  D. Casanova,  Chun-Min Chang,  Yunqing Chen,  
 A. Chien,  K. D. Closser,  M. P. Coons,  S. Dasgupta,  A. L. Dempwolff,  
 M. Diedenhofen,  Hainam Do,  R. G. Edgar,  Po-Tung Fang,  S. Fatehi,  
 Qingguo Feng,  J. Fosso-Tande,  Qinghui Ge,  A. Ghysels,  G. Gidofalvi,  
 J. Gomes,  J. Gonthier,  A. Gunina,  M. W. D. Hanson-Heine,  
 P. H. P. Harbach,  A. W. Hauser,  J. E. Herr,  E. G. Hohenstein,  
 Z. C. Holden,  Kerwin Hui,  T.-C. Jagau,  Hyunjun Ji,  B. Kaduk,  
 K. Khistyaev,  Jaehoon Kim,  P. Klunzinger,  K. Koh,  D. Kosenkov,  
 L. Koulias,  T. Kowalczyk,  C. M. Krauter,  A. Kunitsa,  Ka Un Lao,  
 A. Laurent,  K. V. Lawler,  Joonho Lee,  D. Lefrancois,  S. Lehtola,  
 D. S. Levine,  Yi-Pei Li,  You-Sheng Lin,  Fenglai Liu,  E. Livshits,  
 A. Luenser,  P. Manohar,  E. Mansoor,  S. F. Manzer,  Shan-Ping Mao,  
 Yuezhi Mao,  N. Mardirossian,  A. V. Marenich,  T. Markovich,  
 L. A. Martinez-Martinez,  S. A. Maurer,  N. J. Mayhall,  S. C. McKenzie,  
 J.-M. Mewes,  A. F. Morrison,  J. W. Mullinax,  K. Nanda,  
 T. S. Nguyen-Beck,  R. Olivares-Amaya,  J. A. Parkhill,  T. M. Perrine,  
 F. Plasser,  S. Prager,  A. Prociuk,  E. Ramos,  D. R. Rehn,  F. Rob,  
 M. Schneider,  N. Sergueev,  S. M. Sharada,  S. Sharma,  D. W. Small,  
 T. Stauch,  T. Stein,  Yu-Chuan Su,  A. J. W. Thom,  A. Tkatchenko,  
 T. Tsuchimochi,  L. Vogt,  O. Vydrov,  M. A. Watson,  J. Wenzel,  
 M. de Wergifosse,  T. A. Wesolowski,  A. White,  J. Witte,  A. Yamada,  
 Jun Yang,  K. Yao,  S. Yeganeh,  S. R. Yost,  Zhi-Qiang You,  A. Zech,  
 Igor Ying Zhang,  Xing Zhang,  Yan Zhao,  Ying Zhu,  B. R. Brooks,  
 G. K. L. Chan,  C. J. Cramer,  M. S. Gordon,  W. J. Hehre,  A. Klamt,  
 M. W. Schmidt,  C. D. Sherrill,  D. G. Truhlar,  A. Aspuru-Guzik,  R. Baer,  
 A. T. Bell,  N. A. Besley,  Jeng-Da Chai,  R. A. DiStasio Jr.,  A. Dreuw,  
 B. D. Dunietz,  T. R. Furlani,  Chao-Ping Hsu,  Yousung Jung,  Jing Kong,  
 D. S. Lambrecht,  WanZhen Liang,  C. Ochsenfeld,  V. A. Rassolov,  
 L. V. Slipchenko,  J. E. Subotnik,  T. Van Voorhis,  J. M. Herbert,  
 A. I. Krylov,  P. M. W. Gill,  M. Head-Gordon

 Contributors to earlier versions of Q-Chem not listed above: 
 R. D. Adamson,  B. Austin,  J. Baker,  G. J. O. Beran,  K. Brandhorst,  
 S. T. Brown,  E. F. C. Byrd,  A. K. Chakraborty,  C.-L. Cheng,  
 Siu Hung Chien,  D. M. Chipman,  D. L. Crittenden,  H. Dachsel,  
 R. J. Doerksen,  A. D. Dutoi,  L. Fusti-Molnar,  W. A. Goddard III,  
 A. Golubeva-Zadorozhnaya,  S. R. Gwaltney,  G. Hawkins,  A. Heyden,  
 S. Hirata,  G. Kedziora,  F. J. Keil,  C. Kelley,  Jihan Kim,  R. A. King,  
 R. Z. Khaliullin,  P. P. Korambath,  W. Kurlancheek,  A. M. Lee,  M. S. Lee,  
 S. V. Levchenko,  Ching Yeh Lin,  D. Liotard,  R. C. Lochan,  I. Lotan,  
 P. E. Maslen,  N. Nair,  D. P. O'Neill,  D. Neuhauser,  E. Neuscamman,  
 C. M. Oana,  R. Olson,  B. Peters,  R. Peverati,  P. A. Pieniazek,  
 Y. M. Rhee,  J. Ritchie,  M. A. Rohrdanz,  E. Rosta,  N. J. Russ,  
 H. F. Schaefer III,  N. E. Schultz,  N. Shenvi,  A. C. Simmonett,  A. Sodt,  
 D. Stuck,  K. S. Thanthiriwatte,  V. Vanovschi,  Tao Wang,  A. Warshel,  
 C. F. Williams,  Q. Wu,  X. Xu,  W. Zhang

 Please cite Q-Chem as follows:
 Y. Shao et al., Mol. Phys. 113, 184-215 (2015)
 DOI: 10.1080/00268976.2014.952696

 Q-Chem 5.0.2 for Intel X86 EM64T Linux

 Parts of Q-Chem use Armadillo 5.200.1 (Boston Tea Smuggler).
 http://arma.sourceforge.net/

 Q-Chem begins on Tue Mar  1 22:40:04 2022  

Host: 
0

     Scratch files written to ./qcts1.d//
 Dec517 15110_ 26548  26544 5633   
Processing $rem in /home/leeping/opt/qchem/5.0.2-openmp/config/preferences.
 MEM_STATIC 2000
 MEM_TOTAL  8000
 SYMMETRY   OFF
 SYM_IGNORE TRUE 

Checking the input file for inconsistencies... 	...done.

--------------------------------------------------------------
User input:
--------------------------------------------------------------
$molecule
0 2
C        2.0051621185    0.5073544991   -0.5444426369
C       -0.0996892517   -0.7712076080    0.0655414297
C       -1.1577504030   -1.0634244093    0.9066458936
C       -1.8993093100    0.1267048798    0.9786876914
C       -1.2340044725    1.1028286403    0.1941112242
N       -0.1291613985    0.5400732537   -0.4065803838
H        2.4817947157    0.5052730226    0.4329657871
H        0.6773600005   -1.4115996603   -0.3318980311
H       -1.2943777948   -1.9831544818    1.4530660312
H       -2.8799373799    0.2321927877    1.4374398270
H       -1.6933135363    2.0330683988   -0.1363576309
C        2.3760683497    0.1982447700   -1.6834015247
H        2.9257489149   -0.1778907375   -2.5316720779
$end

$rem
method                b3lyp
basis                 6-31g(d)
unrestricted          true
symmetry              off
sym_ignore            true
incdft                false
incfock               0
scf_convergence       8
thresh                14
jobtype               sp
scf_guess             core
scf_guess_mix         5
scf_algorithm         diis
max_scf_cycles        100
$end

--------------------------------------------------------------
 ----------------------------------------------------------------
             Standard Nuclear Orientation (Angstroms)
    I     Atom           X                Y                Z
 ----------------------------------------------------------------
    1      C       2.0051621185     0.5073544991    -0.5444426369
    2      C      -0.0996892517    -0.7712076080     0.0655414297
    3      C      -1.1577504030    -1.0634244093     0.9066458936
    4      C      -1.8993093100     0.1267048798     0.9786876914
    5      C      -1.2340044725     1.1028286403     0.1941112242
    6      N      -0.1291613985     0.5400732537    -0.4065803838
    7      H       2.4817947157     0.5052730226     0.4329657871
    8      H       0.6773600005    -1.4115996603    -0.3318980311
    9      H      -1.2943777948    -1.9831544818     1.4530660312
   10      H      -2.8799373799     0.2321927877     1.4374398270
   11      H      -1.6933135363     2.0330683988    -0.1363576309
   12      C       2.3760683497     0.1982447700    -1.6834015247
   13      H       2.9257489149    -0.1778907375    -2.5316720779
 ----------------------------------------------------------------
 Nuclear Repulsion Energy =   249.9311582671 hartrees
 There are       25 alpha and       24 beta electrons
 Requested basis set is 6-31G(d)
 There are 40 shells and 117 basis functions

 Total QAlloc Memory Limit   8000 MB
 Mega-Array Size      1956 MB
 MEM_STATIC part      2000 MB

                       Distance Matrix (Angstroms)
             C (  1)   C (  2)   C (  3)   C (  4)   C (  5)   N (  6)
   C (  2)  2.537164
   C (  3)  3.817986  1.382874
   C (  4)  4.208291  2.208781  1.404104
   C (  5)  3.375241  2.194359  2.281704  1.418100
   N (  6)  2.139022  1.393996  2.313820  2.285446  1.377753
   H (  7)  1.087433  2.903182  3.991425  4.431162  3.771112  2.742834
   H (  8)  2.343207  1.082527  2.241171  3.274636  3.201929  2.113074
   H (  9)  4.591257  2.195751  1.078492  2.245547  3.333452  3.344053
   H ( 10)  5.278993  3.258634  2.219526  1.087756  2.238966  3.325954
   H ( 11)  4.021574  3.231774  3.311035  2.218103  1.088816  2.179134
   C ( 12)  1.237072  3.182454  4.559389  5.036933  4.168447  2.832542
   H ( 13)  2.294803  4.031230  5.411208  5.974662  5.135532  3.789982
             H (  7)   H (  8)   H (  9)   H ( 10)   H ( 11)   C ( 12)
   H (  8)  2.741423
   H (  9)  4.635985  2.720390
   H ( 10)  5.461841  4.299648  2.724336
   H ( 11)  4.482167  4.186176  4.337680  2.669844
   C ( 12)  2.141134  2.702549  5.297934  6.112806  4.724383
   H ( 13)  3.074555  3.378801  6.078370  7.044715  5.653460  1.078513

 
 A cutoff of  1.0D-14 yielded    771 shell pairs
 There are      6907 function pairs
 
 -------------------------------------------------------
 OpenMP Integral Computing Module                       
 Release: version 1.0, May 2013, Q-Chem Inc. Pittsburgh 
 -------------------------------------------------------
 Integral Job Info:
 Integral job number is                      11
 Integral operator is                         1
 short-range coefficients                     0
 long-range coefficients              100000000
 Omega coefficients                           0
 if combine SR and LR in K                    0
 Integral screening is                        0
 Integral computing path is                   2
 max size of driver memory is            800000
 size of driver memory is                593474
 size of scratch memory is              2361544
 max col of scratch BK array               1296
 max len of scratch array in speh3          155
 max len of scratch index in speh4           18
 max int batch size is                      520
 min int batch size is                       52
 fixed nKL is                                52
 max L of basis functions is                  2
 order of int derivative is                   0
 number of shells is                         40
 number of basis is                         117
 number of cartesian basis is               117
 number of contracted shell pairs           771
 number of primitive shell pairs           3237
 maxK2 (contraction) of shell pair           36
 max number of K2 of shell pair               1
 max number of CS2 of shell pair             88
 max number of PS2 of shell pair            378
 mem total for path MDJ                  529068
 -------------------------------------------------------
 Smallest overlap matrix eigenvalue = 1.42E-03

 Scale SEOQF with 1.000000e-01/1.000000e-01/1.000000e-01

 Standard Electronic Orientation quadrupole field applied
 Nucleus-field energy     =     0.0000000023 hartrees
 Guess MOs from core Hamiltonian diagonalization
 Mixing HOMO and LUMO in initial guess
 Adding  50% of the LUMO to the HOMO
 An unrestricted hybrid HF-DFT SCF calculation will be
 performed using Pulay DIIS extrapolation
 Exchange:     0.2000 Hartree-Fock + 0.0800 Slater + 0.7200 B88
 Correlation:  0.1900 VWN1RPA + 0.8100 LYP
 Using SG-1 standard quadrature grid
 SCF converges when DIIS error is below 1.0E-08
 using 4 threads for integral computing
 -------------------------------------------------------
 OpenMP Integral computing Module                
 Release: version 1.0, May 2013, Q-Chem Inc. Pittsburgh 
 -------------------------------------------------------
 -------------------------------------------------------
 OpenMP BLAS3 based DFT computing Module                
 Release: version 1.0, May 2013, Q-Chem Inc. Pittsburgh 
 -------------------------------------------------------
 ---------------------------------------
  Cycle       Energy         DIIS Error
 ---------------------------------------
    1    -219.8325885601      1.42E-01
    2    -113.5688757936      1.56E-01
    3    -219.1419550818      1.16E-01
    4    -236.3282900390      1.08E-01
    5    -285.9209204987      1.98E-02
    6    -285.1885662605      2.73E-02
    7    -286.6833148909      7.07E-03
    8    -286.7182976769      5.25E-03
    9    -286.7674909353      1.23E-03
   10    -286.7700107009      7.70E-04
   11    -286.7713660264      5.21E-04
   12    -286.7719372210      1.86E-04
   13    -286.7721518344      8.03E-05
   14    -286.7722441179      6.81E-05
   15    -286.7723236797      4.64E-05
   16    -286.7724137741      2.36E-05
   17    -286.7724239239      1.53E-05
   18    -286.7724266618      1.18E-05
   19    -286.7724290536      4.82E-06
   20    -286.7724293040      1.68E-06
   21    -286.7724293323      4.49E-07
   22    -286.7724293352      1.25E-07
   23    -286.7724293366      6.01E-08
   24    -286.7724293369      1.55E-08
   25    -286.7724293370      1.29E-08
   26    -286.7724293370      8.37E-09 Convergence criterion met
 ---------------------------------------
 <S^2> = 0.7805
 SCF time:  CPU 63.21 s  wall 46.78 s
 SCF   energy in the final basis set = -286.77242934
 Total energy in the final basis set = -286.77242934
 
 --------------------------------------------------------------
 
                    Orbital Energies (a.u.)
 --------------------------------------------------------------
 
 Alpha MOs
 -- Occupied --
-14.335 -10.214 -10.210 -10.209 -10.199 -10.196 -10.170  -0.939
 -0.765  -0.745  -0.710  -0.567  -0.552  -0.548  -0.508  -0.478
 -0.403  -0.399  -0.384  -0.383  -0.328  -0.282  -0.242  -0.225
 -0.219
 -- Virtual --
 -0.016   0.035   0.050   0.077   0.125   0.132   0.165   0.168
  0.169   0.176   0.235   0.249   0.312   0.375   0.404   0.453
  0.481   0.530   0.542   0.556   0.565   0.586   0.590   0.603
  0.613   0.626   0.651   0.667   0.678   0.711   0.722   0.793
  0.824   0.836   0.844   0.858   0.898   0.923   0.935   0.938
  0.969   1.019   1.055   1.093   1.115   1.164   1.178   1.247
  1.360   1.371   1.410   1.436   1.501   1.523   1.553   1.587
  1.638   1.709   1.730   1.795   1.836   1.922   1.976   1.995
  2.045   2.065   2.096   2.213   2.226   2.233   2.245   2.299
  2.332   2.391   2.468   2.541   2.583   2.615   2.639   2.672
  2.744   2.897   2.943   3.008   3.038   3.953   4.092   4.129
  4.151   4.291   4.330   4.464
 
 Beta MOs
 -- Occupied --
-14.332 -10.211 -10.209 -10.208 -10.194 -10.192 -10.171  -0.930
 -0.757  -0.738  -0.698  -0.561  -0.547  -0.542  -0.503  -0.475
 -0.399  -0.391  -0.381  -0.368  -0.315  -0.278  -0.233  -0.201
 -- Virtual --
 -0.138  -0.005   0.041   0.071   0.092   0.127   0.136   0.167
  0.170   0.172   0.179   0.240   0.253   0.316   0.378   0.407
  0.458   0.485   0.538   0.552   0.563   0.580   0.593   0.599
  0.613   0.619   0.630   0.657   0.671   0.684   0.718   0.725
  0.796   0.826   0.839   0.849   0.860   0.902   0.926   0.938
  0.940   0.972   1.026   1.060   1.095   1.119   1.170   1.181
  1.252   1.367   1.384   1.419   1.440   1.506   1.527   1.566
  1.598   1.648   1.729   1.741   1.809   1.850   1.927   1.980
  1.998   2.050   2.068   2.099   2.220   2.239   2.240   2.264
  2.304   2.341   2.403   2.471   2.552   2.593   2.623   2.645
  2.676   2.748   2.902   2.947   3.013   3.042   3.959   4.098
  4.135   4.161   4.292   4.338   4.469
 --------------------------------------------------------------
 
          Ground-State Mulliken Net Atomic Charges

     Atom                 Charge (a.u.)    Spin (a.u.)
  --------------------------------------------------------
      1 C                    -0.210322      -0.156999
      2 C                     0.042602       0.343244
      3 C                    -0.158021      -0.116415
      4 C                    -0.154702       0.304268
      5 C                     0.020693       0.116861
      6 N                    -0.403741       0.134311
      7 H                     0.202001       0.013665
      8 H                     0.153892      -0.016065
      9 H                     0.129076       0.003170
     10 H                     0.139589      -0.012004
     11 H                     0.144343      -0.007920
     12 C                    -0.101326       0.414682
     13 H                     0.195916      -0.020798
  --------------------------------------------------------
  Sum of atomic charges =    -0.000000
  Sum of spin   charges =     1.000000

 -----------------------------------------------------------------
                    Cartesian Multipole Moments
 -----------------------------------------------------------------
    Charge (ESU x 10^10)
                 0.0000
    Dipole Moment (Debye)
         X       0.7565      Y      -0.7963      Z       0.3956
       Tot       1.1674
    Quadrupole Moments (Debye-Ang)
        XX     -33.7332     XY      -2.8500     YY     -39.7467
        XZ      -3.4948     YZ       1.0042     ZZ     -38.7447
    Octopole Moments (Debye-Ang^2)
       XXX       7.6171    XXY      -1.4092    XYY      -4.3677
       YYY     -10.0480    XXZ      -0.5766    XYZ       5.3666
       YYZ       4.8852    XZZ      11.6606    YZZ      -7.4548
       ZZZ      -3.3389
    Hexadecapole Moments (Debye-Ang^3)
      XXXX    -604.1969   XXXY     -30.1806   XXYY    -142.8688
      XYYY     -22.7422   YYYY    -185.6422   XXXZ     113.2763
      XXYZ      18.2490   XYYZ      52.7732   YYYZ      22.5398
      XXZZ    -104.9707   XYZZ      -8.7439   YYZZ     -74.0071
      XZZZ     116.6297   YZZZ      32.1316   ZZZZ    -220.8083
 -----------------------------------------------------------------
Archival summary:
1\1\c8-73\SP\ProcedureUnspecified\6-31G*\166(2)\hpark21\TueMar122:40:562022TueMar122:40:562022\0\\#,ProcedureUnspecified,6-31G*,\\0,2\N\C,1,1.37775\H,2,1.08882,1,123.705\C,1,1.394,2,104.686,3,-164.299,0\H,4,1.08253,1,116.571,2,176.939,0\C,4,1.38287,1,112.867,2,1.63434,0\H,6,1.07849,4,125.824,1,-174.505,0\C,6,1.4041,4,104.844,1,-0.214091,0\H,8,1.08776,6,125.448,4,170.747,0\C,1,2.13902,2,146.564,3,83.9058,0\H,10,1.08743,1,112.299,2,45.6667,0\C,10,1.23707,1,111.243,2,-149.291,0\H,12,1.07851,10,164.6,1,-150.418,0\\\@

 Total job time:  51.15s(wall), 65.03s(cpu) 
 Tue Mar  1 22:40:56 2022

        *************************************************************
        *                                                           *
        *  Thank you very much for using Q-Chem.  Have a nice day.  *
        *                                                           *
        *************************************************************


