
Running Job 1 of 1 qcts1.in
qchem qcts1.in_58196.0 ./qcts1.d/ 1
/home/leeping/opt/qchem/5.0.2-openmp/exe/qcprog.exe_s qcts1.in_58196.0 ./qcts1.d/
Check license passed

                  Welcome to Q-Chem
     A Quantum Leap Into The Future Of Chemistry


 Q-Chem 5.0, Q-Chem, Inc., Pleasanton, CA (2017)

 Yihan Shao,  Zhengting Gan,  E. Epifanovsky,  A. T. B. Gilbert,  M. Wormit,  
 J. Kussmann,  A. W. Lange,  A. Behn,  Jia Deng,  Xintian Feng,  D. Ghosh,  
 M. Goldey,  P. R. Horn,  L. D. Jacobson,  I. Kaliman,  T. Kus,  A. Landau,  
 Jie Liu,  E. I. Proynov,  R. M. Richard,  R. P. Steele,  E. J. Sundstrom,  
 H. L. Woodcock III,  P. M. Zimmerman,  D. Zuev,  B. Albrecht,  E. Alguire,  
 S. A. Baeppler,  D. Barton,  Z. Benda,  Y. A. Bernard,  E. J. Berquist,  
 K. B. Bravaya,  H. Burton,  D. Casanova,  Chun-Min Chang,  Yunqing Chen,  
 A. Chien,  K. D. Closser,  M. P. Coons,  S. Dasgupta,  A. L. Dempwolff,  
 M. Diedenhofen,  Hainam Do,  R. G. Edgar,  Po-Tung Fang,  S. Fatehi,  
 Qingguo Feng,  J. Fosso-Tande,  Qinghui Ge,  A. Ghysels,  G. Gidofalvi,  
 J. Gomes,  J. Gonthier,  A. Gunina,  M. W. D. Hanson-Heine,  
 P. H. P. Harbach,  A. W. Hauser,  J. E. Herr,  E. G. Hohenstein,  
 Z. C. Holden,  Kerwin Hui,  T.-C. Jagau,  Hyunjun Ji,  B. Kaduk,  
 K. Khistyaev,  Jaehoon Kim,  P. Klunzinger,  K. Koh,  D. Kosenkov,  
 L. Koulias,  T. Kowalczyk,  C. M. Krauter,  A. Kunitsa,  Ka Un Lao,  
 A. Laurent,  K. V. Lawler,  Joonho Lee,  D. Lefrancois,  S. Lehtola,  
 D. S. Levine,  Yi-Pei Li,  You-Sheng Lin,  Fenglai Liu,  E. Livshits,  
 A. Luenser,  P. Manohar,  E. Mansoor,  S. F. Manzer,  Shan-Ping Mao,  
 Yuezhi Mao,  N. Mardirossian,  A. V. Marenich,  T. Markovich,  
 L. A. Martinez-Martinez,  S. A. Maurer,  N. J. Mayhall,  S. C. McKenzie,  
 J.-M. Mewes,  A. F. Morrison,  J. W. Mullinax,  K. Nanda,  
 T. S. Nguyen-Beck,  R. Olivares-Amaya,  J. A. Parkhill,  T. M. Perrine,  
 F. Plasser,  S. Prager,  A. Prociuk,  E. Ramos,  D. R. Rehn,  F. Rob,  
 M. Schneider,  N. Sergueev,  S. M. Sharada,  S. Sharma,  D. W. Small,  
 T. Stauch,  T. Stein,  Yu-Chuan Su,  A. J. W. Thom,  A. Tkatchenko,  
 T. Tsuchimochi,  L. Vogt,  O. Vydrov,  M. A. Watson,  J. Wenzel,  
 M. de Wergifosse,  T. A. Wesolowski,  A. White,  J. Witte,  A. Yamada,  
 Jun Yang,  K. Yao,  S. Yeganeh,  S. R. Yost,  Zhi-Qiang You,  A. Zech,  
 Igor Ying Zhang,  Xing Zhang,  Yan Zhao,  Ying Zhu,  B. R. Brooks,  
 G. K. L. Chan,  C. J. Cramer,  M. S. Gordon,  W. J. Hehre,  A. Klamt,  
 M. W. Schmidt,  C. D. Sherrill,  D. G. Truhlar,  A. Aspuru-Guzik,  R. Baer,  
 A. T. Bell,  N. A. Besley,  Jeng-Da Chai,  R. A. DiStasio Jr.,  A. Dreuw,  
 B. D. Dunietz,  T. R. Furlani,  Chao-Ping Hsu,  Yousung Jung,  Jing Kong,  
 D. S. Lambrecht,  WanZhen Liang,  C. Ochsenfeld,  V. A. Rassolov,  
 L. V. Slipchenko,  J. E. Subotnik,  T. Van Voorhis,  J. M. Herbert,  
 A. I. Krylov,  P. M. W. Gill,  M. Head-Gordon

 Contributors to earlier versions of Q-Chem not listed above: 
 R. D. Adamson,  B. Austin,  J. Baker,  G. J. O. Beran,  K. Brandhorst,  
 S. T. Brown,  E. F. C. Byrd,  A. K. Chakraborty,  C.-L. Cheng,  
 Siu Hung Chien,  D. M. Chipman,  D. L. Crittenden,  H. Dachsel,  
 R. J. Doerksen,  A. D. Dutoi,  L. Fusti-Molnar,  W. A. Goddard III,  
 A. Golubeva-Zadorozhnaya,  S. R. Gwaltney,  G. Hawkins,  A. Heyden,  
 S. Hirata,  G. Kedziora,  F. J. Keil,  C. Kelley,  Jihan Kim,  R. A. King,  
 R. Z. Khaliullin,  P. P. Korambath,  W. Kurlancheek,  A. M. Lee,  M. S. Lee,  
 S. V. Levchenko,  Ching Yeh Lin,  D. Liotard,  R. C. Lochan,  I. Lotan,  
 P. E. Maslen,  N. Nair,  D. P. O'Neill,  D. Neuhauser,  E. Neuscamman,  
 C. M. Oana,  R. Olson,  B. Peters,  R. Peverati,  P. A. Pieniazek,  
 Y. M. Rhee,  J. Ritchie,  M. A. Rohrdanz,  E. Rosta,  N. J. Russ,  
 H. F. Schaefer III,  N. E. Schultz,  N. Shenvi,  A. C. Simmonett,  A. Sodt,  
 D. Stuck,  K. S. Thanthiriwatte,  V. Vanovschi,  Tao Wang,  A. Warshel,  
 C. F. Williams,  Q. Wu,  X. Xu,  W. Zhang

 Please cite Q-Chem as follows:
 Y. Shao et al., Mol. Phys. 113, 184-215 (2015)
 DOI: 10.1080/00268976.2014.952696

 Q-Chem 5.0.2 for Intel X86 EM64T Linux

 Parts of Q-Chem use Armadillo 5.200.1 (Boston Tea Smuggler).
 http://arma.sourceforge.net/

 Q-Chem begins on Tue Mar  1 22:49:05 2022  

Host: 
0

     Scratch files written to ./qcts1.d//
 Dec517 15110_ 26548  26544 5633   
Processing $rem in /home/leeping/opt/qchem/5.0.2-openmp/config/preferences.
 MEM_STATIC 2000
 MEM_TOTAL  8000
 SYMMETRY   OFF
 SYM_IGNORE TRUE 

Checking the input file for inconsistencies... 	...done.

--------------------------------------------------------------
User input:
--------------------------------------------------------------
$molecule
0 2
C        2.0051621185    0.5073544991   -0.5444426369
C       -0.0996892517   -0.7712076080    0.0655414297
C       -1.1577504030   -1.0634244093    0.9066458936
C       -1.8993093100    0.1267048798    0.9786876914
C       -1.2340044725    1.1028286403    0.1941112242
N       -0.1291613985    0.5400732537   -0.4065803838
H        2.4817947157    0.5052730226    0.4329657871
H        0.6773600005   -1.4115996603   -0.3318980311
H       -1.2943777948   -1.9831544818    1.4530660312
H       -2.8799373799    0.2321927877    1.4374398270
H       -1.6933135363    2.0330683988   -0.1363576309
C        2.3760683497    0.1982447700   -1.6834015247
H        2.9257489149   -0.1778907375   -2.5316720779
$end

$rem
method                b3lyp
basis                 6-31g(d)
unrestricted          true
symmetry              off
sym_ignore            true
incdft                false
incfock               0
scf_convergence       8
thresh                14
jobtype               ts
scf_guess             read
scf_algorithm         diis
max_scf_cycles        100
geom_opt_max_cycles   500
geom_opt_dmax         100
geom_opt_tol_gradient 10
geom_opt_hessian      read
$end

--------------------------------------------------------------
 ----------------------------------------------------------------
             Standard Nuclear Orientation (Angstroms)
    I     Atom           X                Y                Z
 ----------------------------------------------------------------
    1      C       2.0051621185     0.5073544991    -0.5444426369
    2      C      -0.0996892517    -0.7712076080     0.0655414297
    3      C      -1.1577504030    -1.0634244093     0.9066458936
    4      C      -1.8993093100     0.1267048798     0.9786876914
    5      C      -1.2340044725     1.1028286403     0.1941112242
    6      N      -0.1291613985     0.5400732537    -0.4065803838
    7      H       2.4817947157     0.5052730226     0.4329657871
    8      H       0.6773600005    -1.4115996603    -0.3318980311
    9      H      -1.2943777948    -1.9831544818     1.4530660312
   10      H      -2.8799373799     0.2321927877     1.4374398270
   11      H      -1.6933135363     2.0330683988    -0.1363576309
   12      C       2.3760683497     0.1982447700    -1.6834015247
   13      H       2.9257489149    -0.1778907375    -2.5316720779
 ----------------------------------------------------------------
 Nuclear Repulsion Energy =   249.9311582671 hartrees
 There are       25 alpha and       24 beta electrons
 Requested basis set is 6-31G(d)
 There are 40 shells and 117 basis functions

 Total QAlloc Memory Limit   8000 MB
 Mega-Array Size      1956 MB
 MEM_STATIC part      2000 MB
 A cutoff of  1.0D-14 yielded    771 shell pairs
 There are      6907 function pairs
 
 -------------------------------------------------------
 OpenMP Integral Computing Module                       
 Release: version 1.0, May 2013, Q-Chem Inc. Pittsburgh 
 -------------------------------------------------------
 Integral Job Info:
 Integral job number is                      11
 Integral operator is                         1
 short-range coefficients                     0
 long-range coefficients              100000000
 Omega coefficients                           0
 if combine SR and LR in K                    0
 Integral screening is                        0
 Integral computing path is                   2
 max size of driver memory is            800000
 size of driver memory is                593474
 size of scratch memory is              2361544
 max col of scratch BK array               1296
 max len of scratch array in speh3          155
 max len of scratch index in speh4           18
 max int batch size is                      520
 min int batch size is                       52
 fixed nKL is                                52
 max L of basis functions is                  2
 order of int derivative is                   0
 number of shells is                         40
 number of basis is                         117
 number of cartesian basis is               117
 number of contracted shell pairs           771
 number of primitive shell pairs           3237
 maxK2 (contraction) of shell pair           36
 max number of K2 of shell pair               1
 max number of CS2 of shell pair             88
 max number of PS2 of shell pair            378
 mem total for path MDJ                  529068
 -------------------------------------------------------
 Smallest overlap matrix eigenvalue = 1.42E-03

 Scale SEOQF with 1.000000e-01/1.000000e-01/1.000000e-01

 Standard Electronic Orientation quadrupole field applied
 Nucleus-field energy     =     0.0000000023 hartrees
 Guess MOs from SCF MO coefficient file
 Reading MOs from coefficient file
 Reading MOs from coefficient file
 An unrestricted hybrid HF-DFT SCF calculation will be
 performed using Pulay DIIS extrapolation
 Exchange:     0.2000 Hartree-Fock + 0.0800 Slater + 0.7200 B88
 Correlation:  0.1900 VWN1RPA + 0.8100 LYP
 Using SG-1 standard quadrature grid
 SCF converges when DIIS error is below 1.0E-08
Using Q-Chem read-in guess as SCF_GUESS READ specified.

 using 4 threads for integral computing
 -------------------------------------------------------
 OpenMP Integral computing Module                
 Release: version 1.0, May 2013, Q-Chem Inc. Pittsburgh 
 -------------------------------------------------------
 -------------------------------------------------------
 OpenMP BLAS3 based DFT computing Module                
 Release: version 1.0, May 2013, Q-Chem Inc. Pittsburgh 
 -------------------------------------------------------
 ---------------------------------------
  Cycle       Energy         DIIS Error
 ---------------------------------------
    1    -286.7724293370      4.72E-10
    2    -286.7724293370      4.41E-10 Convergence criterion met
 ---------------------------------------
 <S^2> = 0.7805
 SCF time:  CPU 4.93 s  wall 2.11 s
 SCF   energy in the final basis set = -286.77242934
 Total energy in the final basis set = -286.77242934
 
 --------------------------------------------------------------
 
                    Orbital Energies (a.u.)
 --------------------------------------------------------------
 
 Alpha MOs
 -- Occupied --
-14.335 -10.214 -10.210 -10.209 -10.199 -10.196 -10.170  -0.939
 -0.765  -0.745  -0.710  -0.567  -0.552  -0.548  -0.508  -0.478
 -0.403  -0.399  -0.384  -0.383  -0.328  -0.282  -0.242  -0.225
 -0.219
 -- Virtual --
 -0.016   0.035   0.050   0.077   0.125   0.132   0.165   0.168
  0.169   0.176   0.235   0.249   0.312   0.375   0.404   0.453
  0.481   0.530   0.542   0.556   0.565   0.586   0.590   0.603
  0.613   0.626   0.651   0.667   0.678   0.711   0.722   0.793
  0.824   0.836   0.844   0.858   0.898   0.923   0.935   0.938
  0.969   1.019   1.055   1.093   1.115   1.164   1.178   1.247
  1.360   1.371   1.410   1.436   1.501   1.523   1.553   1.587
  1.638   1.709   1.730   1.795   1.836   1.922   1.976   1.995
  2.045   2.065   2.096   2.213   2.226   2.233   2.245   2.299
  2.332   2.391   2.468   2.541   2.583   2.615   2.639   2.672
  2.744   2.897   2.943   3.008   3.038   3.953   4.092   4.129
  4.151   4.291   4.330   4.464
 
 Beta MOs
 -- Occupied --
-14.332 -10.211 -10.209 -10.208 -10.194 -10.192 -10.171  -0.930
 -0.757  -0.738  -0.698  -0.561  -0.547  -0.542  -0.503  -0.475
 -0.399  -0.391  -0.381  -0.368  -0.315  -0.278  -0.233  -0.201
 -- Virtual --
 -0.138  -0.005   0.041   0.071   0.092   0.127   0.136   0.167
  0.170   0.172   0.179   0.240   0.253   0.316   0.378   0.407
  0.458   0.485   0.538   0.552   0.563   0.580   0.593   0.599
  0.613   0.619   0.630   0.657   0.671   0.684   0.718   0.725
  0.796   0.826   0.839   0.849   0.860   0.902   0.926   0.938
  0.940   0.972   1.026   1.060   1.095   1.119   1.170   1.181
  1.252   1.367   1.384   1.419   1.440   1.506   1.527   1.566
  1.598   1.648   1.729   1.741   1.809   1.850   1.927   1.980
  1.998   2.050   2.068   2.099   2.220   2.239   2.240   2.264
  2.304   2.341   2.403   2.471   2.552   2.593   2.623   2.645
  2.676   2.748   2.902   2.947   3.013   3.042   3.959   4.098
  4.135   4.161   4.292   4.338   4.469
 --------------------------------------------------------------
 
          Ground-State Mulliken Net Atomic Charges

     Atom                 Charge (a.u.)    Spin (a.u.)
  --------------------------------------------------------
      1 C                    -0.210322      -0.157002
      2 C                     0.042602       0.343243
      3 C                    -0.158021      -0.116413
      4 C                    -0.154702       0.304266
      5 C                     0.020693       0.116861
      6 N                    -0.403741       0.134312
      7 H                     0.202001       0.013665
      8 H                     0.153892      -0.016065
      9 H                     0.129076       0.003169
     10 H                     0.139589      -0.012004
     11 H                     0.144343      -0.007920
     12 C                    -0.101326       0.414685
     13 H                     0.195916      -0.020798
  --------------------------------------------------------
  Sum of atomic charges =    -0.000000
  Sum of spin   charges =     1.000000

 -----------------------------------------------------------------
                    Cartesian Multipole Moments
 -----------------------------------------------------------------
    Charge (ESU x 10^10)
                -0.0000
    Dipole Moment (Debye)
         X       0.7565      Y      -0.7963      Z       0.3956
       Tot       1.1674
    Quadrupole Moments (Debye-Ang)
        XX     -33.7332     XY      -2.8500     YY     -39.7467
        XZ      -3.4948     YZ       1.0042     ZZ     -38.7447
    Octopole Moments (Debye-Ang^2)
       XXX       7.6171    XXY      -1.4091    XYY      -4.3677
       YYY     -10.0480    XXZ      -0.5766    XYZ       5.3666
       YYZ       4.8852    XZZ      11.6606    YZZ      -7.4548
       ZZZ      -3.3389
    Hexadecapole Moments (Debye-Ang^3)
      XXXX    -604.1969   XXXY     -30.1806   XXYY    -142.8688
      XYYY     -22.7422   YYYY    -185.6422   XXXZ     113.2763
      XXYZ      18.2490   XYYZ      52.7732   YYYZ      22.5398
      XXZZ    -104.9707   XYZZ      -8.7439   YYZZ     -74.0071
      XZZZ     116.6297   YZZZ      32.1316   ZZZZ    -220.8083
 -----------------------------------------------------------------
 Calculating analytic gradient of the SCF energy
 Gradient of SCF Energy
            1           2           3           4           5           6
    1  -0.0344730  -0.0057691   0.0027239   0.0041578  -0.0253661   0.0449465
    2   0.0046284   0.0030206  -0.0028930   0.0098941   0.0067958  -0.0090806
    3   0.0145518   0.0092679  -0.0049850  -0.0113303   0.0190005  -0.0122834
            7           8           9          10          11          12
    1   0.0205192   0.0018042   0.0047103  -0.0016877  -0.0099057  -0.0136386
    2  -0.0089216   0.0029055   0.0026635  -0.0022098  -0.0011834   0.0010470
    3  -0.0010061  -0.0066288   0.0008376   0.0013086  -0.0016480  -0.0079698
           13
    1   0.0119784
    2  -0.0066665
    3   0.0008852
 Max gradient component =       4.495E-02
 RMS gradient           =       1.269E-02
 Gradient time:  CPU 7.18 s  wall 2.05 s
 Geometry Optimization Parameters
   NAtoms,    NIC,     NZ,  NCons,   NDum,   NFix, NCnnct, MaxDiis
       13      97       0       0       0       0       0       0

 Cartesian Hessian read from HESS file


** GEOMETRY OPTIMIZATION IN DELOCALIZED INTERNAL COORDINATES **
   Searching for a Transition State

   Optimization Cycle:   1

                       Coordinates (Angstroms)
     ATOM                X               Y               Z
      1  C         2.0051621185    0.5073544991   -0.5444426369
      2  C        -0.0996892517   -0.7712076080    0.0655414297
      3  C        -1.1577504030   -1.0634244093    0.9066458936
      4  C        -1.8993093100    0.1267048798    0.9786876914
      5  C        -1.2340044725    1.1028286403    0.1941112242
      6  N        -0.1291613985    0.5400732537   -0.4065803838
      7  H         2.4817947157    0.5052730226    0.4329657871
      8  H         0.6773600005   -1.4115996603   -0.3318980311
      9  H        -1.2943777948   -1.9831544818    1.4530660312
     10  H        -2.8799373799    0.2321927877    1.4374398270
     11  H        -1.6933135363    2.0330683988   -0.1363576309
     12  C         2.3760683497    0.1982447700   -1.6834015247
     13  H         2.9257489149   -0.1778907375   -2.5316720779
   Point Group: c1    Number of degrees of freedom:    33


   Energy is   -286.772429337


 Attempting to Generate Delocalized Internal Coordinates

 Transforming Cartesian Hessian to Internal Coordinates
 Hessian Transformation does not Include Derivative of B-matrix

 33 Hessian modes will be used to form the next step
  Hessian Eigenvalues:
    -0.155337   -0.003426    0.001081    0.003446    0.008954    0.011287
     0.011904    0.014785    0.019089    0.020799    0.022175    0.030169
     0.037726    0.041364    0.048295    0.069776    0.093379    0.105487
     0.106878    0.140788    0.167142    0.196274    0.278050    0.316849
     0.337071    0.348613    0.363483    0.366942    0.369115    0.384201
     0.390268    0.492619    0.910282
**WARNING** Hessian does not have the Desired Local Structure

 Transition State Search - Taking P-RFO Step
 Searching for Lamda that Maximizes Along the Lowest mode
 Value Taken    Lamda =   0.00178571
 Searching for Lamda that Minimizes Along All other modes
 Value Taken    Lamda =  -0.03153863
 Calculated Step too Large.  Step scaled by  0.145630
 Step Taken.  Stepsize is  0.100000

                             Maximum     Tolerance    Cnvgd?
         Gradient           0.028686      0.000010      NO
         Displacement       0.048212      0.001200      NO
         Energy change     *********      0.000001      NO


 New Cartesian Coordinates Obtained by Inverse Iteration

 Displacement from previous Coordinates is:  0.168411
 ----------------------------------------------------------------
             Standard Nuclear Orientation (Angstroms)
    I     Atom           X                Y                Z
 ----------------------------------------------------------------
    1      C       1.9998255901     0.5080109758    -0.5416459727
    2      C      -0.1033326947    -0.7928332958     0.0628695314
    3      C      -1.1579471831    -1.0696955397     0.9082733742
    4      C      -1.8887427385     0.1319535913     0.9801619968
    5      C      -1.2189739975     1.0960423308     0.1856836403
    6      N      -0.1350985073     0.5190748069    -0.4213226675
    7      H       2.4411618845     0.5207536315     0.4487104622
    8      H       0.6757931901    -1.4347349755    -0.3267294452
    9      H      -1.3053440553    -1.9838757313     1.4619727449
   10      H      -2.8651031114     0.2520197799     1.4434770091
   11      H      -1.6625588267     2.0325840092    -0.1455015502
   12      C       2.3865549742     0.2054284491    -1.6755817987
   13      H       2.9123560281    -0.1462646770    -2.5462617260
 ----------------------------------------------------------------
 Nuclear Repulsion Energy =   250.0765081259 hartrees
 There are       25 alpha and       24 beta electrons
 Applying Cartesian multipole field
    Component          Value
    ---------          -----
     (2,0,0)        1.00000E-11
     (0,2,0)        2.00000E-11
     (0,0,2)       -3.00000E-11
 Nucleus-field energy     =     0.0000000023 hartrees
 Requested basis set is 6-31G(d)
 There are 40 shells and 117 basis functions
 A cutoff of  1.0D-14 yielded    771 shell pairs
 There are      6907 function pairs
 Smallest overlap matrix eigenvalue = 1.42E-03
 Guess MOs from SCF MO coefficient file
 Reading MOs from coefficient file
 Reading MOs from coefficient file
 An unrestricted hybrid HF-DFT SCF calculation will be
 performed using Pulay DIIS extrapolation
 Exchange:     0.2000 Hartree-Fock + 0.0800 Slater + 0.7200 B88
 Correlation:  0.1900 VWN1RPA + 0.8100 LYP
 Using SG-1 standard quadrature grid
 SCF converges when DIIS error is below 1.0E-08
 Geometry optimization detected.  Setting ReadMinima to 0
 Setting SaveMinima to 0
Using Q-Chem read-in guess as SCF_GUESS READ specified.

 using 4 threads for integral computing
 -------------------------------------------------------
 OpenMP Integral computing Module                
 Release: version 1.0, May 2013, Q-Chem Inc. Pittsburgh 
 -------------------------------------------------------
 -------------------------------------------------------
 OpenMP BLAS3 based DFT computing Module                
 Release: version 1.0, May 2013, Q-Chem Inc. Pittsburgh 
 -------------------------------------------------------
 ---------------------------------------
  Cycle       Energy         DIIS Error
 ---------------------------------------
    1    -286.7831815622      8.52E-04
    2    -286.7765195911      1.49E-04
    3    -286.7764179210      2.92E-04
    4    -286.7765859401      8.34E-05
    5    -286.7765989027      1.78E-05
    6    -286.7766043018      2.35E-05
    7    -286.7766094221      1.65E-05
    8    -286.7766128413      1.12E-05
    9    -286.7766152291      6.99E-06
   10    -286.7766160336      3.16E-06
   11    -286.7766161699      1.66E-06
   12    -286.7766162291      9.99E-07
   13    -286.7766162566      4.33E-07
   14    -286.7766162628      2.40E-07
   15    -286.7766162640      9.11E-08
   16    -286.7766162643      5.88E-08
   17    -286.7766162644      1.88E-08
   18    -286.7766162644      7.17E-09 Convergence criterion met
 ---------------------------------------
 <S^2> = 0.7811
 SCF time:  CPU 43.84 s  wall 26.84 s
 SCF   energy in the final basis set = -286.77661626
 Total energy in the final basis set = -286.77661626
 
 --------------------------------------------------------------
 
                    Orbital Energies (a.u.)
 --------------------------------------------------------------
 
 Alpha MOs
 -- Occupied --
-14.336 -10.212 -10.211 -10.207 -10.201 -10.196 -10.169  -0.940
 -0.765  -0.745  -0.709  -0.569  -0.553  -0.546  -0.507  -0.481
 -0.402  -0.399  -0.383  -0.382  -0.329  -0.284  -0.242  -0.226
 -0.217
 -- Virtual --
 -0.012   0.035   0.052   0.078   0.125   0.130   0.165   0.169
  0.169   0.176   0.233   0.252   0.314   0.375   0.404   0.454
  0.479   0.531   0.542   0.555   0.564   0.586   0.592   0.602
  0.611   0.626   0.651   0.669   0.681   0.712   0.730   0.793
  0.826   0.833   0.842   0.856   0.900   0.923   0.936   0.939
  0.967   1.019   1.056   1.101   1.116   1.166   1.181   1.253
  1.361   1.373   1.413   1.437   1.502   1.523   1.550   1.588
  1.634   1.702   1.727   1.786   1.837   1.923   1.976   1.995
  2.045   2.065   2.095   2.215   2.227   2.235   2.247   2.311
  2.331   2.394   2.466   2.541   2.582   2.615   2.635   2.674
  2.747   2.901   2.945   3.017   3.037   3.959   4.093   4.129
  4.152   4.296   4.332   4.465
 
 Beta MOs
 -- Occupied --
-14.332 -10.212 -10.207 -10.206 -10.196 -10.192 -10.171  -0.930
 -0.757  -0.738  -0.698  -0.563  -0.548  -0.541  -0.503  -0.478
 -0.398  -0.391  -0.380  -0.368  -0.315  -0.280  -0.233  -0.202
 -- Virtual --
 -0.137  -0.001   0.040   0.073   0.092   0.128   0.134   0.167
  0.170   0.173   0.179   0.238   0.255   0.318   0.378   0.407
  0.460   0.484   0.538   0.551   0.561   0.580   0.593   0.598
  0.613   0.618   0.630   0.657   0.672   0.687   0.718   0.732
  0.795   0.828   0.836   0.847   0.858   0.904   0.926   0.939
  0.941   0.970   1.025   1.061   1.102   1.120   1.172   1.184
  1.258   1.368   1.386   1.421   1.441   1.508   1.527   1.563
  1.600   1.643   1.722   1.737   1.802   1.851   1.928   1.981
  1.998   2.050   2.067   2.097   2.223   2.239   2.243   2.265
  2.315   2.341   2.406   2.469   2.552   2.593   2.623   2.642
  2.678   2.751   2.906   2.949   3.021   3.041   3.967   4.099
  4.135   4.162   4.297   4.339   4.469
 --------------------------------------------------------------
 
          Ground-State Mulliken Net Atomic Charges

     Atom                 Charge (a.u.)    Spin (a.u.)
  --------------------------------------------------------
      1 C                    -0.215243      -0.159141
      2 C                     0.036890       0.326378
      3 C                    -0.158142      -0.124368
      4 C                    -0.154784       0.327478
      5 C                     0.019677       0.077310
      6 N                    -0.399475       0.168553
      7 H                     0.203176       0.014000
      8 H                     0.152445      -0.015160
      9 H                     0.128551       0.003612
     10 H                     0.139248      -0.012820
     11 H                     0.142658      -0.006071
     12 C                    -0.091012       0.421440
     13 H                     0.196011      -0.021211
  --------------------------------------------------------
  Sum of atomic charges =     0.000000
  Sum of spin   charges =     1.000000

 -----------------------------------------------------------------
                    Cartesian Multipole Moments
 -----------------------------------------------------------------
    Charge (ESU x 10^10)
                 0.0000
    Dipole Moment (Debye)
         X       0.8275      Y      -0.7134      Z       0.3495
       Tot       1.1471
    Quadrupole Moments (Debye-Ang)
        XX     -33.9161     XY      -2.6678     YY     -39.7514
        XZ      -3.6640     YZ       0.9350     ZZ     -38.4999
    Octopole Moments (Debye-Ang^2)
       XXX       7.0261    XXY      -1.0193    XYY      -4.2572
       YYY      -9.3837    XXZ      -0.7473    XYZ       5.1596
       YYZ       4.9044    XZZ      12.0541    YZZ      -6.9926
       ZZZ      -3.7967
    Hexadecapole Moments (Debye-Ang^3)
      XXXX    -604.7906   XXXY     -30.0304   XXYY    -142.7053
      XYYY     -23.4686   YYYY    -186.5463   XXXZ     112.2548
      XXYZ      17.8032   XYYZ      52.5977   YYYZ      22.9160
      XXZZ    -103.1614   XYZZ      -8.3833   YYZZ     -74.1266
      XZZZ     114.2269   YZZZ      32.0509   ZZZZ    -218.3212
 -----------------------------------------------------------------
 Calculating analytic gradient of the SCF energy
 Gradient of SCF Energy
            1           2           3           4           5           6
    1  -0.0314327  -0.0047186   0.0018579   0.0036443  -0.0217486   0.0396189
    2   0.0037153   0.0027178  -0.0028312   0.0084943   0.0058321  -0.0067645
    3   0.0134347   0.0084741  -0.0049259  -0.0102568   0.0164957  -0.0100039
            7           8           9          10          11          12
    1   0.0187668   0.0017676   0.0043936  -0.0013774  -0.0088973  -0.0128239
    2  -0.0081359   0.0030037   0.0024489  -0.0018411  -0.0013179   0.0003888
    3  -0.0013408  -0.0061651   0.0010196   0.0012845  -0.0017363  -0.0073850
           13
    1   0.0109496
    2  -0.0057104
    3   0.0011051
 Max gradient component =       3.962E-02
 RMS gradient           =       1.128E-02
 Gradient time:  CPU 7.15 s  wall 2.14 s
 Geometry Optimization Parameters
   NAtoms,    NIC,     NZ,  NCons,   NDum,   NFix, NCnnct, MaxDiis
       13      97       0       0       0       0       0       0

 Cartesian Hessian Update
 Hessian Updated using Powell/Murtagh-Sargent Update
  Mixing factors:     0.997758 Powell
                      0.002242 Murtagh-Sargent


** GEOMETRY OPTIMIZATION IN DELOCALIZED INTERNAL COORDINATES **
   Searching for a Transition State

   Optimization Cycle:   2

                       Coordinates (Angstroms)
     ATOM                X               Y               Z
      1  C         1.9998255901    0.5080109758   -0.5416459727
      2  C        -0.1033326947   -0.7928332958    0.0628695314
      3  C        -1.1579471831   -1.0696955397    0.9082733742
      4  C        -1.8887427385    0.1319535913    0.9801619968
      5  C        -1.2189739975    1.0960423308    0.1856836403
      6  N        -0.1350985073    0.5190748069   -0.4213226675
      7  H         2.4411618845    0.5207536315    0.4487104622
      8  H         0.6757931901   -1.4347349755   -0.3267294452
      9  H        -1.3053440553   -1.9838757313    1.4619727449
     10  H        -2.8651031114    0.2520197799    1.4434770091
     11  H        -1.6625588267    2.0325840092   -0.1455015502
     12  C         2.3865549742    0.2054284491   -1.6755817987
     13  H         2.9123560281   -0.1462646770   -2.5462617260
   Point Group: c1    Number of degrees of freedom:    33


   Energy is   -286.776616264

 Hessian Updated using Powell/Murtagh-Sargent Update
  Mixing factors:     0.973312 Powell
                      0.026688 Murtagh-Sargent

 33 Hessian modes will be used to form the next step
  Hessian Eigenvalues:
    -0.154469   -0.002985    0.001068    0.003496    0.008875    0.011225
     0.011890    0.014404    0.019223    0.020698    0.022181    0.027468
     0.033897    0.041268    0.048426    0.069739    0.093424    0.105507
     0.106817    0.140301    0.167178    0.197093    0.278104    0.317316
     0.337282    0.348610    0.363572    0.366709    0.369168    0.384234
     0.390268    0.492629    0.910284
**WARNING** Hessian does not have the Desired Local Structure

 Transition State Search - Taking P-RFO Step
 Searching for Lamda that Maximizes Along the Lowest mode
 Value Taken    Lamda =   0.00151459
 Searching for Lamda that Minimizes Along All other modes
 Value Taken    Lamda =  -0.02975506
 Calculated Step too Large.  Step scaled by  0.138585
 Step Taken.  Stepsize is  0.100000

                             Maximum     Tolerance    Cnvgd?
         Gradient           0.025896      0.000010      NO
         Displacement       0.046325      0.001200      NO
         Energy change     -0.004187      0.000001      NO


 New Cartesian Coordinates Obtained by Inverse Iteration

 Displacement from previous Coordinates is:  0.164830
 ----------------------------------------------------------------
             Standard Nuclear Orientation (Angstroms)
    I     Atom           X                Y                Z
 ----------------------------------------------------------------
    1      C       1.9951012653     0.5083797254    -0.5399183986
    2      C      -0.1069600507    -0.8134980870     0.0610420271
    3      C      -1.1591150393    -1.0757484049     0.9098533419
    4      C      -1.8787967609     0.1369702416     0.9811732907
    5      C      -1.2041670447     1.0898168515     0.1783976799
    6      N      -0.1395057295     0.4973740452    -0.4348258870
    7      H       2.4014417388     0.5379381623     0.4631557737
    8      H       0.6737954612    -1.4579006520    -0.3200744141
    9      H      -1.3165121210    -1.9848717883     1.4698471555
   10      H      -2.8512051849     0.2709393692     1.4483192224
   11      H      -1.6326755381     2.0325332880    -0.1532175665
   12      C       2.3983333384     0.2117176130    -1.6682684764
   13      H       2.8988562180    -0.1151870089    -2.5613781496
 ----------------------------------------------------------------
 Nuclear Repulsion Energy =   250.1798430016 hartrees
 There are       25 alpha and       24 beta electrons
 Applying Cartesian multipole field
    Component          Value
    ---------          -----
     (2,0,0)        1.00000E-11
     (0,2,0)        2.00000E-11
     (0,0,2)       -3.00000E-11
 Nucleus-field energy     =     0.0000000022 hartrees
 Requested basis set is 6-31G(d)
 There are 40 shells and 117 basis functions
 A cutoff of  1.0D-14 yielded    771 shell pairs
 There are      6907 function pairs
 Smallest overlap matrix eigenvalue = 1.42E-03
 Guess MOs from SCF MO coefficient file
 Reading MOs from coefficient file
 Reading MOs from coefficient file
 An unrestricted hybrid HF-DFT SCF calculation will be
 performed using Pulay DIIS extrapolation
 Exchange:     0.2000 Hartree-Fock + 0.0800 Slater + 0.7200 B88
 Correlation:  0.1900 VWN1RPA + 0.8100 LYP
 Using SG-1 standard quadrature grid
 SCF converges when DIIS error is below 1.0E-08
 Geometry optimization detected.  Setting ReadMinima to 0
 Setting SaveMinima to 0
Using Q-Chem read-in guess as SCF_GUESS READ specified.

 using 4 threads for integral computing
 -------------------------------------------------------
 OpenMP Integral computing Module                
 Release: version 1.0, May 2013, Q-Chem Inc. Pittsburgh 
 -------------------------------------------------------
 -------------------------------------------------------
 OpenMP BLAS3 based DFT computing Module                
 Release: version 1.0, May 2013, Q-Chem Inc. Pittsburgh 
 -------------------------------------------------------
 ---------------------------------------
  Cycle       Energy         DIIS Error
 ---------------------------------------
    1    -286.7852331923      7.90E-04
    2    -286.7803213365      1.25E-04
    3    -286.7802437072      2.53E-04
    4    -286.7803702639      6.59E-05
    5    -286.7803785039      1.43E-05
    6    -286.7803821565      1.93E-05
    7    -286.7803852851      1.30E-05
    8    -286.7803873941      9.09E-06
    9    -286.7803886467      6.08E-06
   10    -286.7803892121      2.07E-06
   11    -286.7803892949      1.17E-06
   12    -286.7803893252      7.22E-07
   13    -286.7803893386      3.16E-07
   14    -286.7803893423      2.69E-07
   15    -286.7803893437      8.20E-08
   16    -286.7803893440      4.90E-08
   17    -286.7803893440      1.62E-08
   18    -286.7803893440      5.13E-09 Convergence criterion met
 ---------------------------------------
 <S^2> = 0.7813
 SCF time:  CPU 43.63 s  wall 25.22 s
 SCF   energy in the final basis set = -286.78038934
 Total energy in the final basis set = -286.78038934
 
 --------------------------------------------------------------
 
                    Orbital Energies (a.u.)
 --------------------------------------------------------------
 
 Alpha MOs
 -- Occupied --
-14.337 -10.211 -10.210 -10.205 -10.203 -10.196 -10.169  -0.940
 -0.765  -0.745  -0.709  -0.571  -0.553  -0.545  -0.507  -0.483
 -0.402  -0.399  -0.384  -0.382  -0.330  -0.286  -0.243  -0.227
 -0.217
 -- Virtual --
 -0.009   0.035   0.054   0.078   0.124   0.129   0.164   0.169
  0.169   0.176   0.232   0.253   0.315   0.375   0.403   0.454
  0.477   0.531   0.542   0.554   0.564   0.586   0.592   0.601
  0.610   0.627   0.651   0.670   0.685   0.711   0.740   0.791
  0.826   0.829   0.842   0.855   0.902   0.922   0.936   0.940
  0.966   1.018   1.058   1.107   1.118   1.168   1.184   1.260
  1.362   1.375   1.415   1.439   1.504   1.524   1.547   1.588
  1.629   1.694   1.724   1.780   1.838   1.924   1.975   1.996
  2.045   2.065   2.094   2.215   2.228   2.238   2.248   2.321
  2.331   2.397   2.465   2.542   2.581   2.615   2.632   2.676
  2.749   2.904   2.947   3.023   3.036   3.964   4.095   4.130
  4.154   4.299   4.334   4.465
 
 Beta MOs
 -- Occupied --
-14.333 -10.213 -10.206 -10.204 -10.197 -10.191 -10.170  -0.931
 -0.757  -0.737  -0.698  -0.565  -0.548  -0.540  -0.502  -0.480
 -0.398  -0.392  -0.379  -0.368  -0.315  -0.281  -0.233  -0.203
 -- Virtual --
 -0.136   0.002   0.040   0.075   0.092   0.127   0.132   0.166
  0.170   0.173   0.178   0.237   0.257   0.318   0.377   0.406
  0.460   0.482   0.538   0.551   0.560   0.580   0.593   0.598
  0.612   0.616   0.630   0.657   0.674   0.690   0.717   0.742
  0.794   0.828   0.833   0.846   0.856   0.906   0.925   0.939
  0.942   0.969   1.024   1.063   1.109   1.121   1.174   1.187
  1.265   1.369   1.387   1.423   1.442   1.509   1.528   1.560
  1.601   1.638   1.714   1.734   1.797   1.851   1.929   1.979
  1.999   2.050   2.068   2.096   2.224   2.239   2.246   2.266
  2.325   2.340   2.409   2.467   2.552   2.592   2.623   2.639
  2.680   2.753   2.909   2.951   3.028   3.040   3.973   4.101
  4.135   4.163   4.301   4.341   4.470
 --------------------------------------------------------------
 
          Ground-State Mulliken Net Atomic Charges

     Atom                 Charge (a.u.)    Spin (a.u.)
  --------------------------------------------------------
      1 C                    -0.219467      -0.159570
      2 C                     0.032407       0.309680
      3 C                    -0.157953      -0.126891
      4 C                    -0.155105       0.343245
      5 C                     0.018737       0.047371
      6 N                    -0.395848       0.197240
      7 H                     0.204115       0.014232
      8 H                     0.151291      -0.014273
      9 H                     0.128276       0.003815
     10 H                     0.138935      -0.013352
     11 H                     0.141475      -0.004644
     12 C                    -0.082659       0.424518
     13 H                     0.195797      -0.021372
  --------------------------------------------------------
  Sum of atomic charges =    -0.000000
  Sum of spin   charges =     1.000000

 -----------------------------------------------------------------
                    Cartesian Multipole Moments
 -----------------------------------------------------------------
    Charge (ESU x 10^10)
                -0.0000
    Dipole Moment (Debye)
         X       0.8691      Y      -0.6330      Z       0.3172
       Tot       1.1210
    Quadrupole Moments (Debye-Ang)
        XX     -34.1505     XY      -2.4982     YY     -39.7276
        XZ      -3.7919     YZ       0.8608     ZZ     -38.2936
    Octopole Moments (Debye-Ang^2)
       XXX       6.2319    XXY      -0.6200    XYY      -4.2029
       YYY      -8.7210    XXZ      -0.8496    XYZ       4.9531
       YYZ       4.9362    XZZ      12.3574    YZZ      -6.5280
       ZZZ      -4.1940
    Hexadecapole Moments (Debye-Ang^3)
      XXXX    -606.3444   XXXY     -29.9348   XXYY    -142.5811
      XYYY     -24.2357   YYYY    -187.3585   XXXZ     111.6747
      XXYZ      17.3306   XYYZ      52.4630   YYYZ      23.2332
      XXZZ    -101.7529   XYZZ      -8.0182   YYZZ     -74.2476
      XZZZ     112.2328   YZZZ      31.8850   ZZZZ    -216.1499
 -----------------------------------------------------------------
 Calculating analytic gradient of the SCF energy
 Gradient of SCF Energy
            1           2           3           4           5           6
    1  -0.0290672  -0.0039367   0.0013472   0.0032766  -0.0184757   0.0348024
    2   0.0028466   0.0024790  -0.0029574   0.0073178   0.0054031  -0.0051572
    3   0.0116450   0.0080883  -0.0050038  -0.0093856   0.0144162  -0.0082561
            7           8           9          10          11          12
    1   0.0173962   0.0017136   0.0041464  -0.0011616  -0.0081111  -0.0120562
    2  -0.0073174   0.0030473   0.0022142  -0.0015395  -0.0012886  -0.0001617
    3  -0.0008748  -0.0057056   0.0011415   0.0012292  -0.0017761  -0.0064064
           13
    1   0.0101259
    2  -0.0048862
    3   0.0008881
 Max gradient component =       3.480E-02
 RMS gradient           =       1.008E-02
 Gradient time:  CPU 6.93 s  wall 4.00 s
 Geometry Optimization Parameters
   NAtoms,    NIC,     NZ,  NCons,   NDum,   NFix, NCnnct, MaxDiis
       13      97       0       0       0       0       0       0

 Cartesian Hessian Update
 Hessian Updated using Powell/Murtagh-Sargent Update
  Mixing factors:     0.998892 Powell
                      0.001108 Murtagh-Sargent


** GEOMETRY OPTIMIZATION IN DELOCALIZED INTERNAL COORDINATES **
   Searching for a Transition State

   Optimization Cycle:   3

                       Coordinates (Angstroms)
     ATOM                X               Y               Z
      1  C         1.9951012653    0.5083797254   -0.5399183986
      2  C        -0.1069600507   -0.8134980870    0.0610420271
      3  C        -1.1591150393   -1.0757484049    0.9098533419
      4  C        -1.8787967609    0.1369702416    0.9811732907
      5  C        -1.2041670447    1.0898168515    0.1783976799
      6  N        -0.1395057295    0.4973740452   -0.4348258870
      7  H         2.4014417388    0.5379381623    0.4631557737
      8  H         0.6737954612   -1.4579006520   -0.3200744141
      9  H        -1.3165121210   -1.9848717883    1.4698471555
     10  H        -2.8512051849    0.2709393692    1.4483192224
     11  H        -1.6326755381    2.0325332880   -0.1532175665
     12  C         2.3983333384    0.2117176130   -1.6682684764
     13  H         2.8988562180   -0.1151870089   -2.5613781496
   Point Group: c1    Number of degrees of freedom:    33


   Energy is   -286.780389344

 Hessian Updated using Powell/Murtagh-Sargent Update
  Mixing factors:     0.878617 Powell
                      0.121383 Murtagh-Sargent

 33 Hessian modes will be used to form the next step
  Hessian Eigenvalues:
    -0.152475   -0.002919    0.001103    0.003479    0.008806    0.011362
     0.011938    0.014731    0.018593    0.020683    0.022180    0.028756
     0.033891    0.041243    0.048518    0.069737    0.093457    0.105500
     0.106779    0.140433    0.168044    0.197368    0.278370    0.318241
     0.337643    0.348816    0.363612    0.366738    0.369190    0.384301
     0.390304    0.492942    0.910326
**WARNING** Hessian does not have the Desired Local Structure

 Transition State Search - Taking P-RFO Step
 Searching for Lamda that Maximizes Along the Lowest mode
 Value Taken    Lamda =   0.00142782
 Searching for Lamda that Minimizes Along All other modes
 Value Taken    Lamda =  -0.02590064
 Calculated Step too Large.  Step scaled by  0.142731
 Step Taken.  Stepsize is  0.100000

                             Maximum     Tolerance    Cnvgd?
         Gradient           0.023560      0.000010      NO
         Displacement       0.047250      0.001200      NO
         Energy change     -0.003773      0.000001      NO


 New Cartesian Coordinates Obtained by Inverse Iteration

 Displacement from previous Coordinates is:  0.168182
 ----------------------------------------------------------------
             Standard Nuclear Orientation (Angstroms)
    I     Atom           X                Y                Z
 ----------------------------------------------------------------
    1      C       1.9892711252     0.5092939551    -0.5385723806
    2      C      -0.1107630380    -0.8344715478     0.0583517266
    3      C      -1.1606095196    -1.0813971894     0.9115621599
    4      C      -1.8682817563     0.1422038646     0.9824899478
    5      C      -1.1890980330     1.0830331138     0.1712508910
    6      N      -0.1425966924     0.4742704202    -0.4484569712
    7      H       2.3597878078     0.5557130897     0.4760299524
    8      H       0.6710104190    -1.4821864363    -0.3141634050
    9      H      -1.3280793159    -1.9853365929     1.4776951865
   10      H      -2.8362069115     0.2903567580     1.4539976943
   11      H      -1.6019580193     2.0319071767    -0.1608484780
   12      C       2.4094360249     0.2189488016    -1.6612875087
   13      H       2.8866784615    -0.0838720582    -2.5739432160
 ----------------------------------------------------------------
 Nuclear Repulsion Energy =   250.2961235376 hartrees
 There are       25 alpha and       24 beta electrons
 Applying Cartesian multipole field
    Component          Value
    ---------          -----
     (2,0,0)        1.00000E-11
     (0,2,0)        2.00000E-11
     (0,0,2)       -3.00000E-11
 Nucleus-field energy     =     0.0000000022 hartrees
 Requested basis set is 6-31G(d)
 There are 40 shells and 117 basis functions
 A cutoff of  1.0D-14 yielded    771 shell pairs
 There are      6907 function pairs
 Smallest overlap matrix eigenvalue = 1.43E-03
 Guess MOs from SCF MO coefficient file
 Reading MOs from coefficient file
 Reading MOs from coefficient file
 An unrestricted hybrid HF-DFT SCF calculation will be
 performed using Pulay DIIS extrapolation
 Exchange:     0.2000 Hartree-Fock + 0.0800 Slater + 0.7200 B88
 Correlation:  0.1900 VWN1RPA + 0.8100 LYP
 Using SG-1 standard quadrature grid
 SCF converges when DIIS error is below 1.0E-08
 Geometry optimization detected.  Setting ReadMinima to 0
 Setting SaveMinima to 0
Using Q-Chem read-in guess as SCF_GUESS READ specified.

 using 4 threads for integral computing
 -------------------------------------------------------
 OpenMP Integral computing Module                
 Release: version 1.0, May 2013, Q-Chem Inc. Pittsburgh 
 -------------------------------------------------------
 -------------------------------------------------------
 OpenMP BLAS3 based DFT computing Module                
 Release: version 1.0, May 2013, Q-Chem Inc. Pittsburgh 
 -------------------------------------------------------
 ---------------------------------------
  Cycle       Energy         DIIS Error
 ---------------------------------------
    1    -286.7875637939      7.72E-04
    2    -286.7836973815      1.10E-04
    3    -286.7836368942      2.26E-04
    4    -286.7837362158      5.51E-05
    5    -286.7837420480      1.30E-05
    6    -286.7837448399      1.77E-05
    7    -286.7837471576      1.10E-05
    8    -286.7837490347      6.58E-06
    9    -286.7837498653      2.15E-06
   10    -286.7837499516      1.31E-06
   11    -286.7837499830      6.89E-07
   12    -286.7837499950      4.58E-07
   13    -286.7837500021      1.85E-07
   14    -286.7837500039      1.57E-07
   15    -286.7837500046      5.37E-08
   16    -286.7837500048      3.02E-08
   17    -286.7837500048      1.60E-08
   18    -286.7837500048      5.14E-09 Convergence criterion met
 ---------------------------------------
 <S^2> = 0.7813
 SCF time:  CPU 43.74 s  wall 28.22 s
 SCF   energy in the final basis set = -286.78375000
 Total energy in the final basis set = -286.78375000
 
 --------------------------------------------------------------
 
                    Orbital Energies (a.u.)
 --------------------------------------------------------------
 
 Alpha MOs
 -- Occupied --
-14.339 -10.212 -10.209 -10.204 -10.203 -10.196 -10.169  -0.941
 -0.766  -0.745  -0.708  -0.573  -0.554  -0.544  -0.507  -0.485
 -0.402  -0.399  -0.384  -0.381  -0.330  -0.287  -0.244  -0.227
 -0.216
 -- Virtual --
 -0.005   0.034   0.056   0.078   0.122   0.128   0.164   0.169
  0.170   0.176   0.231   0.254   0.316   0.374   0.403   0.455
  0.476   0.532   0.542   0.552   0.564   0.586   0.592   0.600
  0.609   0.628   0.651   0.671   0.688   0.710   0.749   0.788
  0.821   0.830   0.842   0.854   0.903   0.922   0.935   0.941
  0.965   1.016   1.061   1.112   1.119   1.169   1.186   1.266
  1.363   1.377   1.417   1.440   1.504   1.523   1.545   1.588
  1.624   1.686   1.721   1.776   1.838   1.925   1.972   1.997
  2.045   2.066   2.093   2.215   2.230   2.240   2.250   2.328
  2.331   2.400   2.463   2.542   2.580   2.614   2.632   2.677
  2.750   2.907   2.949   3.027   3.036   3.970   4.096   4.129
  4.154   4.302   4.336   4.466
 
 Beta MOs
 -- Occupied --
-14.333 -10.214 -10.205 -10.203 -10.198 -10.191 -10.170  -0.931
 -0.758  -0.737  -0.698  -0.566  -0.549  -0.539  -0.502  -0.482
 -0.398  -0.392  -0.378  -0.368  -0.315  -0.283  -0.233  -0.203
 -- Virtual --
 -0.135   0.006   0.039   0.077   0.092   0.126   0.131   0.166
  0.170   0.173   0.178   0.236   0.257   0.319   0.376   0.406
  0.461   0.481   0.538   0.550   0.558   0.580   0.593   0.597
  0.612   0.616   0.631   0.656   0.675   0.693   0.716   0.751
  0.792   0.824   0.834   0.846   0.855   0.907   0.925   0.938
  0.944   0.969   1.022   1.066   1.113   1.123   1.175   1.189
  1.272   1.370   1.389   1.424   1.444   1.510   1.528   1.557
  1.602   1.632   1.706   1.731   1.794   1.852   1.931   1.976
  2.000   2.050   2.069   2.095   2.225   2.240   2.248   2.266
  2.332   2.339   2.412   2.466   2.551   2.592   2.622   2.639
  2.682   2.755   2.912   2.952   3.032   3.040   3.979   4.102
  4.135   4.163   4.304   4.343   4.470
 --------------------------------------------------------------
 
          Ground-State Mulliken Net Atomic Charges

     Atom                 Charge (a.u.)    Spin (a.u.)
  --------------------------------------------------------
      1 C                    -0.221570      -0.160368
      2 C                     0.028653       0.292454
      3 C                    -0.157811      -0.125742
      4 C                    -0.155420       0.352086
      5 C                     0.017584       0.023074
      6 N                    -0.392862       0.222523
      7 H                     0.205080       0.014538
      8 H                     0.150199      -0.013363
      9 H                     0.128025       0.003874
     10 H                     0.138594      -0.013610
     11 H                     0.140497      -0.003438
     12 C                    -0.076578       0.429508
     13 H                     0.195609      -0.021536
  --------------------------------------------------------
  Sum of atomic charges =    -0.000000
  Sum of spin   charges =     1.000000

 -----------------------------------------------------------------
                    Cartesian Multipole Moments
 -----------------------------------------------------------------
    Charge (ESU x 10^10)
                 0.0000
    Dipole Moment (Debye)
         X       0.9095      Y      -0.5523      Z       0.2898
       Tot       1.1028
    Quadrupole Moments (Debye-Ang)
        XX     -34.3968     XY      -2.3361     YY     -39.6927
        XZ      -3.9052     YZ       0.7822     ZZ     -38.1261
    Octopole Moments (Debye-Ang^2)
       XXX       5.4863    XXY      -0.2321    XYY      -4.1551
       YYY      -8.0615    XXZ      -0.9409    XYZ       4.7403
       YYZ       4.9710    XZZ      12.5793    YZZ      -6.0535
       ZZZ      -4.4627
    Hexadecapole Moments (Debye-Ang^3)
      XXXX    -607.4853   XXXY     -29.9846   XXYY    -142.3840
      XYYY     -25.1024   YYYY    -188.1785   XXXZ     111.1219
      XXYZ      16.8430   XYYZ      52.3186   YYYZ      23.5593
      XXZZ    -100.5148   XYZZ      -7.6700   YYZZ     -74.3737
      XZZZ     110.5411   YZZZ      31.6754   ZZZZ    -214.4249
 -----------------------------------------------------------------
 Calculating analytic gradient of the SCF energy
 Gradient of SCF Energy
            1           2           3           4           5           6
    1  -0.0264861  -0.0031498   0.0008221   0.0028816  -0.0156842   0.0303710
    2   0.0020335   0.0023483  -0.0030239   0.0062953   0.0049550  -0.0038666
    3   0.0099218   0.0076014  -0.0049917  -0.0084759   0.0126565  -0.0068654
            7           8           9          10          11          12
    1   0.0159812   0.0016903   0.0038840  -0.0009747  -0.0073769  -0.0112484
    2  -0.0065196   0.0030944   0.0020028  -0.0012794  -0.0012491  -0.0006922
    3  -0.0004274  -0.0052619   0.0012398   0.0011518  -0.0017848  -0.0054191
           13
    1   0.0092899
    2  -0.0040984
    3   0.0006550
 Max gradient component =       3.037E-02
 RMS gradient           =       8.957E-03
 Gradient time:  CPU 6.84 s  wall 3.71 s
 Geometry Optimization Parameters
   NAtoms,    NIC,     NZ,  NCons,   NDum,   NFix, NCnnct, MaxDiis
       13      97       0       0       0       0       0       0

 Cartesian Hessian Update
 Hessian Updated using Powell/Murtagh-Sargent Update
  Mixing factors:     0.999532 Powell
                      0.000468 Murtagh-Sargent


** GEOMETRY OPTIMIZATION IN DELOCALIZED INTERNAL COORDINATES **
   Searching for a Transition State

   Optimization Cycle:   4

                       Coordinates (Angstroms)
     ATOM                X               Y               Z
      1  C         1.9892711252    0.5092939551   -0.5385723806
      2  C        -0.1107630380   -0.8344715478    0.0583517266
      3  C        -1.1606095196   -1.0813971894    0.9115621599
      4  C        -1.8682817563    0.1422038646    0.9824899478
      5  C        -1.1890980330    1.0830331138    0.1712508910
      6  N        -0.1425966924    0.4742704202   -0.4484569712
      7  H         2.3597878078    0.5557130897    0.4760299524
      8  H         0.6710104190   -1.4821864363   -0.3141634050
      9  H        -1.3280793159   -1.9853365929    1.4776951865
     10  H        -2.8362069115    0.2903567580    1.4539976943
     11  H        -1.6019580193    2.0319071767   -0.1608484780
     12  C         2.4094360249    0.2189488016   -1.6612875087
     13  H         2.8866784615   -0.0838720582   -2.5739432160
   Point Group: c1    Number of degrees of freedom:    33


   Energy is   -286.783750005

 Hessian Updated using Powell/Murtagh-Sargent Update
  Mixing factors:     0.861825 Powell
                      0.138175 Murtagh-Sargent

 33 Hessian modes will be used to form the next step
  Hessian Eigenvalues:
    -0.151121   -0.002907    0.001122    0.003441    0.008715    0.011268
     0.011945    0.015010    0.018173    0.020684    0.022169    0.029865
     0.034036    0.041228    0.048704    0.069867    0.093497    0.105500
     0.106761    0.140529    0.168714    0.197465    0.278488    0.318617
     0.337749    0.348897    0.363632    0.366752    0.369196    0.384327
     0.390311    0.493036    0.910440
**WARNING** Hessian does not have the Desired Local Structure

 Transition State Search - Taking P-RFO Step
 Searching for Lamda that Maximizes Along the Lowest mode
 Value Taken    Lamda =   0.00122559
 Searching for Lamda that Minimizes Along All other modes
 Value Taken    Lamda =  -0.02256772
 Calculated Step too Large.  Step scaled by  0.146855
 Step Taken.  Stepsize is  0.100000

                             Maximum     Tolerance    Cnvgd?
         Gradient           0.021336      0.000010      NO
         Displacement       0.047573      0.001200      NO
         Energy change     -0.003361      0.000001      NO


 New Cartesian Coordinates Obtained by Inverse Iteration

 Displacement from previous Coordinates is:  0.169695
 ----------------------------------------------------------------
             Standard Nuclear Orientation (Angstroms)
    I     Atom           X                Y                Z
 ----------------------------------------------------------------
    1      C       1.9826601695     0.5108525966    -0.5378872664
    2      C      -0.1149611696    -0.8554940373     0.0551795983
    3      C      -1.1624991665    -1.0867022632     0.9135621518
    4      C      -1.8574719880     0.1474053598     0.9841263495
    5      C      -1.1738552773     1.0757665905     0.1642298580
    6      N      -0.1448379705     0.4503775148    -0.4618732643
    7      H       2.3169244309     0.5740694223     0.4868676362
    8      H       0.6671256488    -1.5073128408    -0.3087666533
    9      H      -1.3400328548    -1.9855291709     1.4853806529
   10      H      -2.8204503072     0.3099031644     1.4603955597
   11      H      -1.5705977833     2.0308174641    -0.1681730720
   12      C       2.4201406322     0.2271228397    -1.6548170846
   13      H       2.8764461883    -0.0528132848    -2.5841188669
 ----------------------------------------------------------------
 Nuclear Repulsion Energy =   250.4149720846 hartrees
 There are       25 alpha and       24 beta electrons
 Applying Cartesian multipole field
    Component          Value
    ---------          -----
     (2,0,0)        1.00000E-11
     (0,2,0)        2.00000E-11
     (0,0,2)       -3.00000E-11
 Nucleus-field energy     =     0.0000000022 hartrees
 Requested basis set is 6-31G(d)
 There are 40 shells and 117 basis functions
 A cutoff of  1.0D-14 yielded    771 shell pairs
 There are      6907 function pairs
 Smallest overlap matrix eigenvalue = 1.43E-03
 Guess MOs from SCF MO coefficient file
 Reading MOs from coefficient file
 Reading MOs from coefficient file
 An unrestricted hybrid HF-DFT SCF calculation will be
 performed using Pulay DIIS extrapolation
 Exchange:     0.2000 Hartree-Fock + 0.0800 Slater + 0.7200 B88
 Correlation:  0.1900 VWN1RPA + 0.8100 LYP
 Using SG-1 standard quadrature grid
 SCF converges when DIIS error is below 1.0E-08
 Geometry optimization detected.  Setting ReadMinima to 0
 Setting SaveMinima to 0
Using Q-Chem read-in guess as SCF_GUESS READ specified.

 using 4 threads for integral computing
 -------------------------------------------------------
 OpenMP Integral computing Module                
 Release: version 1.0, May 2013, Q-Chem Inc. Pittsburgh 
 -------------------------------------------------------
 -------------------------------------------------------
 OpenMP BLAS3 based DFT computing Module                
 Release: version 1.0, May 2013, Q-Chem Inc. Pittsburgh 
 -------------------------------------------------------
 ---------------------------------------
  Cycle       Energy         DIIS Error
 ---------------------------------------
    1    -286.7897061820      7.63E-04
    2    -286.7867155794      1.01E-04
    3    -286.7866664812      2.07E-04
    4    -286.7867479628      4.70E-05
    5    -286.7867523007      1.11E-05
    6    -286.7867543763      1.58E-05
    7    -286.7867560360      9.41E-06
    8    -286.7867570927      8.66E-06
    9    -286.7867577166      3.96E-06
   10    -286.7867580392      8.54E-07
   11    -286.7867580576      6.14E-07
   12    -286.7867580717      2.45E-07
   13    -286.7867580752      1.20E-07
   14    -286.7867580762      7.33E-08
   15    -286.7867580766      3.51E-08
   16    -286.7867580767      2.18E-08
   17    -286.7867580767      1.16E-08
   18    -286.7867580767      4.52E-09 Convergence criterion met
 ---------------------------------------
 <S^2> = 0.7813
 SCF time:  CPU 43.98 s  wall 26.54 s
 SCF   energy in the final basis set = -286.78675808
 Total energy in the final basis set = -286.78675808
 
 --------------------------------------------------------------
 
                    Orbital Energies (a.u.)
 --------------------------------------------------------------
 
 Alpha MOs
 -- Occupied --
-14.340 -10.213 -10.208 -10.205 -10.202 -10.195 -10.169  -0.942
 -0.767  -0.745  -0.708  -0.574  -0.554  -0.543  -0.507  -0.487
 -0.402  -0.399  -0.384  -0.380  -0.331  -0.289  -0.245  -0.227
 -0.215
 -- Virtual --
 -0.002   0.034   0.059   0.079   0.120   0.128   0.163   0.169
  0.170   0.175   0.231   0.254   0.317   0.374   0.402   0.455
  0.475   0.532   0.541   0.550   0.564   0.585   0.591   0.600
  0.608   0.628   0.650   0.672   0.692   0.709   0.756   0.785
  0.818   0.832   0.842   0.853   0.904   0.922   0.934   0.942
  0.965   1.013   1.064   1.114   1.121   1.171   1.188   1.271
  1.364   1.379   1.418   1.442   1.504   1.522   1.543   1.588
  1.619   1.679   1.719   1.774   1.839   1.926   1.969   1.999
  2.044   2.068   2.093   2.214   2.232   2.242   2.251   2.329
  2.334   2.401   2.462   2.542   2.580   2.614   2.633   2.679
  2.750   2.909   2.950   3.028   3.038   3.975   4.098   4.129
  4.155   4.303   4.338   4.466
 
 Beta MOs
 -- Occupied --
-14.334 -10.215 -10.204 -10.202 -10.200 -10.191 -10.170  -0.931
 -0.758  -0.737  -0.699  -0.568  -0.549  -0.538  -0.501  -0.484
 -0.398  -0.392  -0.377  -0.368  -0.315  -0.284  -0.233  -0.204
 -- Virtual --
 -0.134   0.008   0.039   0.079   0.092   0.124   0.131   0.165
  0.170   0.173   0.178   0.236   0.258   0.320   0.376   0.406
  0.461   0.479   0.538   0.550   0.556   0.580   0.592   0.596
  0.611   0.615   0.632   0.656   0.677   0.696   0.714   0.757
  0.790   0.820   0.835   0.847   0.854   0.908   0.924   0.937
  0.945   0.969   1.020   1.069   1.116   1.124   1.177   1.191
  1.277   1.371   1.391   1.425   1.446   1.509   1.527   1.555
  1.602   1.627   1.699   1.729   1.793   1.852   1.932   1.973
  2.001   2.049   2.070   2.095   2.225   2.241   2.250   2.267
  2.336   2.339   2.414   2.464   2.552   2.592   2.622   2.640
  2.683   2.755   2.914   2.954   3.033   3.042   3.985   4.103
  4.134   4.163   4.305   4.344   4.471
 --------------------------------------------------------------
 
          Ground-State Mulliken Net Atomic Charges

     Atom                 Charge (a.u.)    Spin (a.u.)
  --------------------------------------------------------
      1 C                    -0.221464      -0.161345
      2 C                     0.025516       0.276264
      3 C                    -0.157671      -0.122639
      4 C                    -0.155712       0.356503
      5 C                     0.016413       0.003653
      6 N                    -0.390397       0.243983
      7 H                     0.206030       0.014897
      8 H                     0.149205      -0.012504
      9 H                     0.127832       0.003854
     10 H                     0.138267      -0.013711
     11 H                     0.139710      -0.002436
     12 C                    -0.073175       0.435144
     13 H                     0.195446      -0.021663
  --------------------------------------------------------
  Sum of atomic charges =     0.000000
  Sum of spin   charges =     1.000000

 -----------------------------------------------------------------
                    Cartesian Multipole Moments
 -----------------------------------------------------------------
    Charge (ESU x 10^10)
                 0.0000
    Dipole Moment (Debye)
         X       0.9426      Y      -0.4738      Z       0.2691
       Tot       1.0887
    Quadrupole Moments (Debye-Ang)
        XX     -34.6516     XY      -2.1851     YY     -39.6469
        XZ      -4.0044     YZ       0.7042     ZZ     -37.9947
    Octopole Moments (Debye-Ang^2)
       XXX       4.7750    XXY       0.1352    XYY      -4.1153
       YYY      -7.4206    XXZ      -1.0193    XYZ       4.5253
       YYZ       5.0114    XZZ      12.7221    YZZ      -5.5787
       ZZZ      -4.6132
    Hexadecapole Moments (Debye-Ang^3)
      XXXX    -608.3274   XXXY     -30.2064   XXYY    -142.1509
      XYYY     -26.0784   YYYY    -189.0183   XXXZ     110.6225
      XXYZ      16.3637   XYYZ      52.1758   YYYZ      23.9108
      XXZZ     -99.4513   XYZZ      -7.3638   YYZZ     -74.5110
      XZZZ     109.1628   YZZZ      31.4593   ZZZZ    -213.1489
 -----------------------------------------------------------------
 Calculating analytic gradient of the SCF energy
 Gradient of SCF Energy
            1           2           3           4           5           6
    1  -0.0238410  -0.0023991   0.0003103   0.0024890  -0.0132493   0.0263131
    2   0.0013148   0.0023103  -0.0030384   0.0053907   0.0045137  -0.0028737
    3   0.0083168   0.0070381  -0.0049033  -0.0075634   0.0111423  -0.0057313
            7           8           9          10          11          12
    1   0.0145493   0.0016751   0.0036183  -0.0008156  -0.0066886  -0.0104160
    2  -0.0057564   0.0031315   0.0018055  -0.0010575  -0.0011932  -0.0012009
    3  -0.0000199  -0.0048170   0.0013093   0.0010574  -0.0017702  -0.0045160
           13
    1   0.0084546
    2  -0.0033467
    3   0.0004573
 Max gradient component =       2.631E-02
 RMS gradient           =       7.915E-03
 Gradient time:  CPU 7.22 s  wall 2.87 s
 Geometry Optimization Parameters
   NAtoms,    NIC,     NZ,  NCons,   NDum,   NFix, NCnnct, MaxDiis
       13      97       0       0       0       0       0       0

 Cartesian Hessian Update
 Hessian Updated using Powell/Murtagh-Sargent Update
  Mixing factors:     0.999959 Powell
                      0.000041 Murtagh-Sargent


** GEOMETRY OPTIMIZATION IN DELOCALIZED INTERNAL COORDINATES **
   Searching for a Transition State

   Optimization Cycle:   5

                       Coordinates (Angstroms)
     ATOM                X               Y               Z
      1  C         1.9826601695    0.5108525966   -0.5378872664
      2  C        -0.1149611696   -0.8554940373    0.0551795983
      3  C        -1.1624991665   -1.0867022632    0.9135621518
      4  C        -1.8574719880    0.1474053598    0.9841263495
      5  C        -1.1738552773    1.0757665905    0.1642298580
      6  N        -0.1448379705    0.4503775148   -0.4618732643
      7  H         2.3169244309    0.5740694223    0.4868676362
      8  H         0.6671256488   -1.5073128408   -0.3087666533
      9  H        -1.3400328548   -1.9855291709    1.4853806529
     10  H        -2.8204503072    0.3099031644    1.4603955597
     11  H        -1.5705977833    2.0308174641   -0.1681730720
     12  C         2.4201406322    0.2271228397   -1.6548170846
     13  H         2.8764461883   -0.0528132848   -2.5841188669
   Point Group: c1    Number of degrees of freedom:    33


   Energy is   -286.786758077

 Hessian Updated using Powell/Murtagh-Sargent Update
  Mixing factors:     0.851038 Powell
                      0.148962 Murtagh-Sargent

 33 Hessian modes will be used to form the next step
  Hessian Eigenvalues:
    -0.150351   -0.002908    0.001131    0.003403    0.008633    0.011156
     0.011938    0.015147    0.017932    0.020691    0.022156    0.030760
     0.034206    0.041221    0.048912    0.070102    0.093528    0.105502
     0.106752    0.140553    0.169205    0.197472    0.278563    0.318735
     0.337761    0.348916    0.363637    0.366756    0.369195    0.384335
     0.390313    0.493048    0.910640
**WARNING** Hessian does not have the Desired Local Structure

 Transition State Search - Taking P-RFO Step
 Searching for Lamda that Maximizes Along the Lowest mode
 Value Taken    Lamda =   0.00098271
 Searching for Lamda that Minimizes Along All other modes
 Value Taken    Lamda =  -0.01961297
 Calculated Step too Large.  Step scaled by  0.151133
 Step Taken.  Stepsize is  0.100000

                             Maximum     Tolerance    Cnvgd?
         Gradient           0.019233      0.000010      NO
         Displacement       0.047654      0.001200      NO
         Energy change     -0.003008      0.000001      NO


 New Cartesian Coordinates Obtained by Inverse Iteration

 Displacement from previous Coordinates is:  0.170367
 ----------------------------------------------------------------
             Standard Nuclear Orientation (Angstroms)
    I     Atom           X                Y                Z
 ----------------------------------------------------------------
    1      C       1.9755461617     0.5130640008    -0.5377365083
    2      C      -0.1197283100    -0.8764941626     0.0516035186
    3      C      -1.1646979291    -1.0916734726     0.9159314831
    4      C      -1.8464554618     0.1524941098     0.9860671199
    5      C      -1.1586182738     1.0680599292     0.1571428325
    6      N      -0.1466459250     0.4260830324    -0.4751130815
    7      H       2.2735000747     0.5927102667     0.4957013160
    8      H       0.6619470337    -1.5331172925    -0.3039864013
    9      H      -1.3522032383    -1.9854609916     1.4930167105
   10      H      -2.8039943689     0.3294106143     1.4675594874
   11      H      -1.5389088660     2.0292723002    -0.1752686247
   12      C       2.4306751357     0.2362459406    -1.6486685453
   13      H       2.8681745197    -0.0221309197    -2.5921437081
 ----------------------------------------------------------------
 Nuclear Repulsion Energy =   250.5288037591 hartrees
 There are       25 alpha and       24 beta electrons
 Applying Cartesian multipole field
    Component          Value
    ---------          -----
     (2,0,0)        1.00000E-11
     (0,2,0)        2.00000E-11
     (0,0,2)       -3.00000E-11
 Nucleus-field energy     =     0.0000000022 hartrees
 Requested basis set is 6-31G(d)
 There are 40 shells and 117 basis functions
 A cutoff of  1.0D-14 yielded    771 shell pairs
 There are      6907 function pairs
 Smallest overlap matrix eigenvalue = 1.43E-03
 Guess MOs from SCF MO coefficient file
 Reading MOs from coefficient file
 Reading MOs from coefficient file
 An unrestricted hybrid HF-DFT SCF calculation will be
 performed using Pulay DIIS extrapolation
 Exchange:     0.2000 Hartree-Fock + 0.0800 Slater + 0.7200 B88
 Correlation:  0.1900 VWN1RPA + 0.8100 LYP
 Using SG-1 standard quadrature grid
 SCF converges when DIIS error is below 1.0E-08
 Geometry optimization detected.  Setting ReadMinima to 0
 Setting SaveMinima to 0
Using Q-Chem read-in guess as SCF_GUESS READ specified.

 using 4 threads for integral computing
 -------------------------------------------------------
 OpenMP Integral computing Module                
 Release: version 1.0, May 2013, Q-Chem Inc. Pittsburgh 
 -------------------------------------------------------
 -------------------------------------------------------
 OpenMP BLAS3 based DFT computing Module                
 Release: version 1.0, May 2013, Q-Chem Inc. Pittsburgh 
 -------------------------------------------------------
 ---------------------------------------
  Cycle       Energy         DIIS Error
 ---------------------------------------
    1    -286.7916255578      7.61E-04
    2    -286.7894173283      9.37E-05
    3    -286.7893784910      1.90E-04
    4    -286.7894451758      4.14E-05
    5    -286.7894485669      1.00E-05
    6    -286.7894501021      1.41E-05
    7    -286.7894512733      8.20E-06
    8    -286.7894518780      8.47E-06
    9    -286.7894525143      3.46E-06
   10    -286.7894527377      7.73E-07
   11    -286.7894527531      4.56E-07
   12    -286.7894527628      1.94E-07
   13    -286.7894527647      8.60E-08
   14    -286.7894527654      4.75E-08
   15    -286.7894527656      2.45E-08
   16    -286.7894527656      1.51E-08
   17    -286.7894527656      7.06E-09 Convergence criterion met
 ---------------------------------------
 <S^2> = 0.7812
 SCF time:  CPU 41.18 s  wall 25.21 s
 SCF   energy in the final basis set = -286.78945277
 Total energy in the final basis set = -286.78945277
 
 --------------------------------------------------------------
 
                    Orbital Energies (a.u.)
 --------------------------------------------------------------
 
 Alpha MOs
 -- Occupied --
-14.341 -10.214 -10.207 -10.206 -10.201 -10.195 -10.169  -0.942
 -0.767  -0.745  -0.708  -0.575  -0.554  -0.543  -0.507  -0.488
 -0.402  -0.400  -0.385  -0.379  -0.332  -0.290  -0.245  -0.228
 -0.214
 -- Virtual --
  0.001   0.033   0.061   0.079   0.117   0.128   0.163   0.169
  0.170   0.175   0.230   0.254   0.317   0.374   0.402   0.456
  0.473   0.532   0.541   0.549   0.563   0.584   0.591   0.600
  0.607   0.629   0.649   0.673   0.695   0.708   0.759   0.784
  0.816   0.833   0.842   0.852   0.905   0.921   0.933   0.943
  0.965   1.011   1.067   1.116   1.123   1.171   1.189   1.274
  1.365   1.381   1.419   1.444   1.503   1.520   1.542   1.587
  1.614   1.674   1.716   1.774   1.839   1.927   1.965   2.000
  2.043   2.069   2.093   2.214   2.233   2.243   2.251   2.329
  2.335   2.403   2.460   2.542   2.580   2.614   2.636   2.680
  2.751   2.910   2.951   3.028   3.040   3.981   4.099   4.129
  4.154   4.303   4.340   4.466
 
 Beta MOs
 -- Occupied --
-14.335 -10.216 -10.203 -10.201 -10.200 -10.190 -10.170  -0.932
 -0.758  -0.736  -0.699  -0.569  -0.549  -0.538  -0.501  -0.485
 -0.398  -0.392  -0.377  -0.369  -0.316  -0.285  -0.233  -0.204
 -- Virtual --
 -0.134   0.011   0.039   0.081   0.092   0.122   0.130   0.165
  0.171   0.174   0.177   0.235   0.258   0.321   0.376   0.405
  0.462   0.478   0.537   0.550   0.553   0.580   0.591   0.596
  0.610   0.615   0.632   0.655   0.678   0.699   0.713   0.759
  0.790   0.818   0.837   0.847   0.853   0.909   0.924   0.936
  0.946   0.970   1.018   1.072   1.118   1.126   1.178   1.192
  1.280   1.372   1.393   1.426   1.449   1.509   1.525   1.554
  1.602   1.621   1.694   1.727   1.793   1.852   1.932   1.970
  2.003   2.048   2.072   2.095   2.224   2.242   2.251   2.267
  2.337   2.339   2.415   2.462   2.552   2.592   2.622   2.643
  2.684   2.755   2.916   2.955   3.032   3.044   3.991   4.105
  4.133   4.163   4.306   4.346   4.471
 --------------------------------------------------------------
 
          Ground-State Mulliken Net Atomic Charges

     Atom                 Charge (a.u.)    Spin (a.u.)
  --------------------------------------------------------
      1 C                    -0.219332      -0.162342
      2 C                     0.022867       0.261853
      3 C                    -0.157515      -0.118689
      4 C                    -0.155929       0.358377
      5 C                     0.015315      -0.011919
      6 N                    -0.388366       0.261845
      7 H                     0.206941       0.015278
      8 H                     0.148326      -0.011736
      9 H                     0.127712       0.003796
     10 H                     0.137978      -0.013738
     11 H                     0.139086      -0.001603
     12 C                    -0.072392       0.440610
     13 H                     0.195309      -0.021732
  --------------------------------------------------------
  Sum of atomic charges =    -0.000000
  Sum of spin   charges =     1.000000

 -----------------------------------------------------------------
                    Cartesian Multipole Moments
 -----------------------------------------------------------------
    Charge (ESU x 10^10)
                 0.0000
    Dipole Moment (Debye)
         X       0.9659      Y      -0.3989      Z       0.2558
       Tot       1.0758
    Quadrupole Moments (Debye-Ang)
        XX     -34.9122     XY      -2.0467     YY     -39.5919
        XZ      -4.0921     YZ       0.6292     ZZ     -37.8931
    Octopole Moments (Debye-Ang^2)
       XXX       4.0872    XXY       0.4782    XYY      -4.0831
       YYY      -6.8069    XXZ      -1.0828    XYZ       4.3092
       YYZ       5.0577    XZZ      12.7942    YZZ      -5.1087
       ZZZ      -4.6597
    Hexadecapole Moments (Debye-Ang^3)
      XXXX    -608.9756   XXXY     -30.5996   XXYY    -141.9091
      XYYY     -27.1611   YYYY    -189.8906   XXXZ     110.1768
      XXYZ      15.9001   XYYZ      52.0325   YYYZ      24.2954
      XXZZ     -98.5444   XYZZ      -7.1068   YYZZ     -74.6565
      XZZZ     108.0460   YZZZ      31.2547   ZZZZ    -212.2516
 -----------------------------------------------------------------
 Calculating analytic gradient of the SCF energy
 Gradient of SCF Energy
            1           2           3           4           5           6
    1  -0.0212337  -0.0017223  -0.0001675   0.0021212  -0.0111033   0.0226344
    2   0.0007163   0.0023120  -0.0029975   0.0045822   0.0040933  -0.0021286
    3   0.0068613   0.0064179  -0.0047514  -0.0066730   0.0098103  -0.0047694
            7           8           9          10          11          12
    1   0.0131155   0.0016665   0.0033534  -0.0006805  -0.0060410  -0.0095791
    2  -0.0050377   0.0031510   0.0016211  -0.0008684  -0.0011238  -0.0016830
    3   0.0003226  -0.0043700   0.0013506   0.0009531  -0.0017356  -0.0037137
           13
    1   0.0076364
    2  -0.0026369
    3   0.0002972
 Max gradient component =       2.263E-02
 RMS gradient           =       6.956E-03
 Gradient time:  CPU 6.84 s  wall 3.18 s
 Geometry Optimization Parameters
   NAtoms,    NIC,     NZ,  NCons,   NDum,   NFix, NCnnct, MaxDiis
       13      97       0       0       0       0       0       0

 Cartesian Hessian Update
 Hessian Updated using Powell/Murtagh-Sargent Update
  Mixing factors:     0.999996 Powell
                      0.000004 Murtagh-Sargent


** GEOMETRY OPTIMIZATION IN DELOCALIZED INTERNAL COORDINATES **
   Searching for a Transition State

   Optimization Cycle:   6

                       Coordinates (Angstroms)
     ATOM                X               Y               Z
      1  C         1.9755461617    0.5130640008   -0.5377365083
      2  C        -0.1197283100   -0.8764941626    0.0516035186
      3  C        -1.1646979291   -1.0916734726    0.9159314831
      4  C        -1.8464554618    0.1524941098    0.9860671199
      5  C        -1.1586182738    1.0680599292    0.1571428325
      6  N        -0.1466459250    0.4260830324   -0.4751130815
      7  H         2.2735000747    0.5927102667    0.4957013160
      8  H         0.6619470337   -1.5331172925   -0.3039864013
      9  H        -1.3522032383   -1.9854609916    1.4930167105
     10  H        -2.8039943689    0.3294106143    1.4675594874
     11  H        -1.5389088660    2.0292723002   -0.1752686247
     12  C         2.4306751357    0.2362459406   -1.6486685453
     13  H         2.8681745197   -0.0221309197   -2.5921437081
   Point Group: c1    Number of degrees of freedom:    33


   Energy is   -286.789452766

 Hessian Updated using Powell/Murtagh-Sargent Update
  Mixing factors:     0.855173 Powell
                      0.144827 Murtagh-Sargent

 33 Hessian modes will be used to form the next step
  Hessian Eigenvalues:
    -0.149992   -0.002900    0.001134    0.003384    0.008569    0.011074
     0.011910    0.015185    0.017832    0.020692    0.022145    0.031397
     0.034379    0.041218    0.049137    0.070421    0.093546    0.105507
     0.106750    0.140551    0.169504    0.197458    0.278617    0.318764
     0.337753    0.348916    0.363638    0.366759    0.369195    0.384336
     0.390314    0.493047    0.910904
**WARNING** Hessian does not have the Desired Local Structure

 Transition State Search - Taking P-RFO Step
 Searching for Lamda that Maximizes Along the Lowest mode
 Value Taken    Lamda =   0.00075035
 Searching for Lamda that Minimizes Along All other modes
 Value Taken    Lamda =  -0.01693479
 Calculated Step too Large.  Step scaled by  0.155797
 Step Taken.  Stepsize is  0.100000

                             Maximum     Tolerance    Cnvgd?
         Gradient           0.017238      0.000010      NO
         Displacement       0.047559      0.001200      NO
         Energy change     -0.002695      0.000001      NO


 New Cartesian Coordinates Obtained by Inverse Iteration

 Displacement from previous Coordinates is:  0.170279
 ----------------------------------------------------------------
             Standard Nuclear Orientation (Angstroms)
    I     Atom           X                Y                Z
 ----------------------------------------------------------------
    1      C       1.9681753919     0.5159228827    -0.5379696048
    2      C      -0.1251296966    -0.8974305266     0.0477433711
    3      C      -1.1670996823    -1.0963222503     0.9187084256
    4      C      -1.8353114952     0.1574434560     0.9882429437
    5      C      -1.1435533306     1.0599664458     0.1498749401
    6      N      -0.1482962214     0.4016534566    -0.4882172796
    7      H       2.2301919084     0.6113890581     0.5026546036
    8      H       0.6553855617    -1.5595178078    -0.2997932558
    9      H      -1.3644734962    -1.9851413208     1.5006642205
   10      H      -2.7869407276     0.3487555460     1.4753839162
   11      H      -1.5071489697     2.0272887602    -0.1821968978
   12      C       2.4411374299     0.2463232519    -1.6426952365
   13      H       2.8616538804     0.0081324032    -2.5982945474
 ----------------------------------------------------------------
 Nuclear Repulsion Energy =   250.6311845882 hartrees
 There are       25 alpha and       24 beta electrons
 Applying Cartesian multipole field
    Component          Value
    ---------          -----
     (2,0,0)        1.00000E-11
     (0,2,0)        2.00000E-11
     (0,0,2)       -3.00000E-11
 Nucleus-field energy     =     0.0000000022 hartrees
[...]

 Transition State Search - Taking P-RFO Step
 Searching for Lamda that Maximizes Along the Lowest mode
 Value Taken    Lamda =   0.00000000
 Searching for Lamda that Minimizes Along All other modes
 Value Taken    Lamda =   0.00000000
 Step Taken.  Stepsize is  0.003881

                             Maximum     Tolerance    Cnvgd?
         Gradient           0.000067      0.000010      NO
         Displacement       0.002282      0.001200      NO
         Energy change      0.000000      0.000001     YES

 ----------------------------------------------------------------
             Standard Nuclear Orientation (Angstroms)
    I     Atom           X                Y                Z
 ----------------------------------------------------------------
    1      C       1.9187621108     0.5428250285    -0.5117485323
    2      C      -0.2356565301    -1.2446121241     0.0930099675
    3      C      -1.2159664608    -1.1135978010     1.0351128371
    4      C      -1.6722168456     0.2634168716     0.9598865097
    5      C      -0.9296813479     0.8774946408    -0.0279643674
    6      N      -0.1338100054    -0.0568262757    -0.6427920854
    7      H       1.8729885900     0.5455424415     0.5569820007
    8      H       0.3753551184    -2.0970920366    -0.1707580261
    9      H      -1.6139748578    -1.8874754571     1.6795922443
   10      H      -2.5069419264     0.6925324896     1.5017764411
   11      H      -0.9915307493     1.8874814690    -0.4107901952
   12      C       2.4763433309     0.6843363211    -1.5968691542
   13      H       2.7349201258     0.7444377877    -2.6313320411
 ----------------------------------------------------------------
 Nuclear Repulsion Energy =   250.3741913292 hartrees
 There are       25 alpha and       24 beta electrons
 Applying Cartesian multipole field
    Component          Value
    ---------          -----
     (2,0,0)        1.00000E-11
     (0,2,0)        2.00000E-11
     (0,0,2)       -3.00000E-11
 Nucleus-field energy     =     0.0000000020 hartrees
 Requested basis set is 6-31G(d)
 There are 40 shells and 117 basis functions
 A cutoff of  1.0D-14 yielded    775 shell pairs
 There are      6883 function pairs
 Smallest overlap matrix eigenvalue = 1.41E-03
 Guess MOs from SCF MO coefficient file
 Reading MOs from coefficient file
 Reading MOs from coefficient file
 An unrestricted hybrid HF-DFT SCF calculation will be
 performed using Pulay DIIS extrapolation
 Exchange:     0.2000 Hartree-Fock + 0.0800 Slater + 0.7200 B88
 Correlation:  0.1900 VWN1RPA + 0.8100 LYP
 Using SG-1 standard quadrature grid
 SCF converges when DIIS error is below 1.0E-08
 Geometry optimization detected.  Setting ReadMinima to 0
 Setting SaveMinima to 0
Using Q-Chem read-in guess as SCF_GUESS READ specified.

 using 4 threads for integral computing
 -------------------------------------------------------
 OpenMP Integral computing Module                
 Release: version 1.0, May 2013, Q-Chem Inc. Pittsburgh 
 -------------------------------------------------------
 -------------------------------------------------------
 OpenMP BLAS3 based DFT computing Module                
 Release: version 1.0, May 2013, Q-Chem Inc. Pittsburgh 
 -------------------------------------------------------
 ---------------------------------------
  Cycle       Energy         DIIS Error
 ---------------------------------------
    1    -286.8044114264      1.94E-05
    2    -286.8044062754      1.16E-06
    3    -286.8044062803      6.02E-07
    4    -286.8044062804      5.89E-07
    5    -286.8044062812      1.69E-07
    6    -286.8044062813      9.26E-08
    7    -286.8044062814      3.62E-08
    8    -286.8044062815      3.49E-08
    9    -286.8044062815      2.01E-08
   10    -286.8044062816      9.52E-09 Convergence criterion met
 ---------------------------------------
 <S^2> = 0.7761
 SCF time:  CPU 24.48 s  wall 12.52 s
 SCF   energy in the final basis set = -286.80440628
 Total energy in the final basis set = -286.80440628
 
 --------------------------------------------------------------
 
                    Orbital Energies (a.u.)
 --------------------------------------------------------------
 
 Alpha MOs
 -- Occupied --
-14.356 -10.222 -10.216 -10.195 -10.191 -10.187 -10.178  -0.945
 -0.772  -0.743  -0.707  -0.584  -0.555  -0.539  -0.509  -0.499
 -0.401  -0.399  -0.393  -0.372  -0.336  -0.300  -0.258  -0.231
 -0.210
 -- Virtual --
  0.016   0.026   0.065   0.081   0.105   0.129   0.162   0.169
  0.170   0.172   0.232   0.242   0.328   0.388   0.392   0.451
  0.456   0.521   0.525   0.550   0.556   0.586   0.593   0.595
  0.601   0.624   0.634   0.661   0.674   0.687   0.777   0.816
  0.824   0.836   0.850   0.857   0.898   0.918   0.939   0.953
  0.961   0.992   1.083   1.112   1.131   1.190   1.241   1.270
  1.365   1.391   1.397   1.453   1.483   1.507   1.549   1.554
  1.565   1.639   1.690   1.824   1.840   1.906   1.946   2.020
  2.028   2.070   2.101   2.182   2.244   2.262   2.263   2.284
  2.321   2.375   2.452   2.544   2.583   2.614   2.679   2.706
  2.727   2.917   2.952   3.016   3.038   4.017   4.114   4.122
  4.150   4.266   4.367   4.467
 
 Beta MOs
 -- Occupied --
-14.345 -10.224 -10.210 -10.195 -10.193 -10.184 -10.177  -0.930
 -0.762  -0.729  -0.705  -0.577  -0.550  -0.536  -0.501  -0.495
 -0.397  -0.391  -0.377  -0.367  -0.314  -0.297  -0.237  -0.207
 -- Virtual --
 -0.132   0.025   0.030   0.088   0.092   0.111   0.131   0.164
  0.171   0.172   0.173   0.237   0.246   0.330   0.389   0.396
  0.457   0.461   0.522   0.527   0.554   0.579   0.590   0.596
  0.604   0.606   0.629   0.642   0.663   0.679   0.691   0.777
  0.817   0.827   0.842   0.851   0.859   0.906   0.919   0.943
  0.957   0.974   1.000   1.090   1.114   1.133   1.198   1.243
  1.275   1.371   1.399   1.405   1.457   1.493   1.511   1.559
  1.567   1.573   1.658   1.710   1.836   1.850   1.917   1.951
  2.024   2.030   2.076   2.103   2.194   2.259   2.266   2.269
  2.289   2.328   2.389   2.454   2.553   2.598   2.622   2.687
  2.710   2.733   2.923   2.956   3.020   3.043   4.032   4.122
  4.130   4.151   4.269   4.370   4.471
 --------------------------------------------------------------
 
          Ground-State Mulliken Net Atomic Charges

     Atom                 Charge (a.u.)    Spin (a.u.)
  --------------------------------------------------------
      1 C                    -0.142674      -0.178164
      2 C                    -0.008810       0.004209
      3 C                    -0.151996       0.077852
      4 C                    -0.149216       0.258761
      5 C                    -0.003724      -0.109382
      6 N                    -0.367184       0.484998
      7 H                     0.219881       0.016758
      8 H                     0.137857       0.000170
      9 H                     0.130895      -0.002171
     10 H                     0.134202      -0.009248
     11 H                     0.135730       0.005085
     12 C                    -0.136278       0.471106
     13 H                     0.201317      -0.019974
  --------------------------------------------------------
  Sum of atomic charges =    -0.000000
  Sum of spin   charges =     1.000000

 -----------------------------------------------------------------
                    Cartesian Multipole Moments
 -----------------------------------------------------------------
    Charge (ESU x 10^10)
                -0.0000
    Dipole Moment (Debye)
         X       1.0822      Y       0.3824      Z       0.2353
       Tot       1.1716
    Quadrupole Moments (Debye-Ang)
        XX     -37.4413     XY      -0.1914     YY     -38.7015
        XZ      -4.8519     YZ      -1.5915     ZZ     -37.1702
    Octopole Moments (Debye-Ang^2)
       XXX      -0.7656    XXY       4.3609    XYY      -3.6504
       YYY      -2.3914    XXZ      -0.7155    XYZ      -1.0536
       YYZ       4.0220    XZZ      11.5788    YZZ       3.6736
       ZZZ      -3.0815
    Hexadecapole Moments (Debye-Ang^3)
      XXXX    -591.2688   XXXY     -51.2828   XXYY    -138.5237
      XYYY     -59.8392   YYYY    -220.4106   XXXZ     106.8950
      XXYZ       6.7223   XYYZ      44.2475   YYYZ      41.4225
      XXZZ     -92.0583   XYZZ      -3.3725   YYZZ     -76.5843
      XZZZ      96.7171   YZZZ      31.7133   ZZZZ    -213.5632
 -----------------------------------------------------------------
 Calculating analytic gradient of the SCF energy
 Gradient of SCF Energy
            1           2           3           4           5           6
    1   0.0000028   0.0000026  -0.0000008  -0.0000045  -0.0000028   0.0000017
    2   0.0000040   0.0000004  -0.0000022   0.0000003   0.0000017  -0.0000022
    3   0.0000041  -0.0000026  -0.0000052  -0.0000031  -0.0000016   0.0000001
            7           8           9          10          11          12
    1  -0.0000012  -0.0000011  -0.0000044  -0.0000025   0.0000023   0.0000017
    2  -0.0000009   0.0000013  -0.0000026  -0.0000023  -0.0000017   0.0000001
    3   0.0000085  -0.0000014  -0.0000058  -0.0000049   0.0000006   0.0000054
           13
    1   0.0000063
    2   0.0000040
    3   0.0000059
 Max gradient component =       8.533E-06
 RMS gradient           =       3.382E-06
 Gradient time:  CPU 7.21 s  wall 2.50 s
 Geometry Optimization Parameters
   NAtoms,    NIC,     NZ,  NCons,   NDum,   NFix, NCnnct, MaxDiis
       13      97       0       0       0       0       0       0

 Cartesian Hessian Update
 Hessian Updated using Powell/Murtagh-Sargent Update
**WARNING** Small Scalar Product
 Hessian Update Skipped this cycle


** GEOMETRY OPTIMIZATION IN CARTESIAN COORDINATES **
   Searching for a Transition State

   Optimization Cycle: 238

                       Coordinates (Angstroms)
     ATOM                X               Y               Z
      1  C         1.9187621108    0.5428250285   -0.5117485323
      2  C        -0.2356565301   -1.2446121241    0.0930099675
      3  C        -1.2159664608   -1.1135978010    1.0351128371
      4  C        -1.6722168456    0.2634168716    0.9598865097
      5  C        -0.9296813479    0.8774946408   -0.0279643674
      6  N        -0.1338100054   -0.0568262757   -0.6427920854
      7  H         1.8729885900    0.5455424415    0.5569820007
      8  H         0.3753551184   -2.0970920366   -0.1707580261
      9  H        -1.6139748578   -1.8874754571    1.6795922443
     10  H        -2.5069419264    0.6925324896    1.5017764411
     11  H        -0.9915307493    1.8874814690   -0.4107901952
     12  C         2.4763433309    0.6843363211   -1.5968691542
     13  H         2.7349201258    0.7444377877   -2.6313320411
   Point Group: c1    Number of degrees of freedom:    33


   Energy is   -286.804406282


 Translations and Rotations Projected Out of Hessian

 32 Hessian modes will be used to form the next step
  Hessian Eigenvalues:
    -0.107927    0.000099    0.006284    0.012250    0.024991    0.037086
     0.051919    0.058202    0.072154    0.074936    0.077065    0.100800
     0.110531    0.123583    0.169523    0.178212    0.218306    0.220215
     0.228363    0.239955    0.298341    0.370045    0.451712    0.513399
     0.614052    0.659996    0.883669    0.979433    1.130540    1.184600
     1.315546    2.444354
**WARNING** Magnitude of eigenvalue   2 too small.  Replaced by     0.000100

 Transition State Search - Taking P-RFO Step
 Searching for Lamda that Maximizes Along the Lowest mode
 Value Taken    Lamda =   0.00000000
 Searching for Lamda that Minimizes Along All other modes
 Value Taken    Lamda =   0.00000000
 Step Taken.  Stepsize is  0.001409

                             Maximum     Tolerance    Cnvgd?
         Gradient           0.000009      0.000010     YES
         Displacement       0.000836      0.001200     YES
         Energy change     -0.000000      0.000001     YES


                       Distance Matrix (Angstroms)
             C (  1)   C (  2)   C (  3)   C (  4)   C (  5)   N (  6)
   C (  2)  2.863946
   C (  3)  3.868209  1.365917
   C (  4)  3.890875  2.255955  1.452581
   C (  5)  2.908553  2.235988  2.275201  1.379964
   N (  6)  2.142383  1.400933  2.259025  2.244511  1.372727
   H (  7)  1.069714  2.804694  3.538785  3.579163  2.882241  2.414445
   H (  8)  3.076937  1.081495  2.225689  3.323087  3.251411  2.155168
   H (  9)  4.815451  2.197789  1.082890  2.268856  3.321004  3.306907
   H ( 10)  4.864520  3.300892  2.268590  1.083767  2.205010  3.285189
   H ( 11)  3.207507  3.261161  3.338785  2.231518  1.081875  2.137719
   C ( 12)  1.228173  3.732489  4.877812  4.891291  3.754967  2.876193
   H ( 13)  2.280218  4.494740  5.701282  5.705356  4.497169  3.581330
             H (  7)   H (  8)   H (  9)   H ( 10)   H ( 11)   C ( 12)
   H (  8)  3.123464
   H (  9)  4.397584  2.724916
   H ( 10)  4.483083  4.345919  2.735955
   H ( 11)  3.307999  4.219339  4.359752  2.717036
   C ( 12)  2.241066  3.766203  5.837818  5.868118  3.857524
   H ( 13)  3.308751  4.438047  6.665127  6.675507  4.485955  1.067983

 
 Final energy is   -286.804406281557     


 ******************************
 **  OPTIMIZATION CONVERGED  **
 ******************************

                       Coordinates (Angstroms)
     ATOM                X               Y               Z
      1  C         1.9187621108    0.5428250285   -0.5117485323
      2  C        -0.2356565301   -1.2446121241    0.0930099675
      3  C        -1.2159664608   -1.1135978010    1.0351128371
      4  C        -1.6722168456    0.2634168716    0.9598865097
      5  C        -0.9296813479    0.8774946408   -0.0279643674
      6  N        -0.1338100054   -0.0568262757   -0.6427920854
      7  H         1.8729885900    0.5455424415    0.5569820007
      8  H         0.3753551184   -2.0970920366   -0.1707580261
      9  H        -1.6139748578   -1.8874754571    1.6795922443
     10  H        -2.5069419264    0.6925324896    1.5017764411
     11  H        -0.9915307493    1.8874814690   -0.4107901952
     12  C         2.4763433309    0.6843363211   -1.5968691542
     13  H         2.7349201258    0.7444377877   -2.6313320411

Z-matrix Print:
$molecule
0 2
N 
C  1 1.372727
H  2 1.081875 1 120.668000
C  2 1.379964 1 109.251205 3 173.092021 0
H  4 1.083767 2 126.596161 1 -168.759347 0
C  1 1.400933 2 107.438721 3 178.583738 0
H  6 1.081495 1 119.943357 2 -175.129329 0
C  6 1.365917 1 109.457649 2 8.299488 0
H  8 1.082890 6 127.280901 1 172.286063 0
C  1 2.142383 2 109.728586 3 63.831666 0
H  10 1.069714 1 91.193293 2 59.259432 0
C  10 1.228173 1 114.404004 2 -120.964700 0
H  12 1.067983 10 166.457630 1 1.014542 0
$end

 
 --------------------------------------------------------------
 
                    Orbital Energies (a.u.)
 --------------------------------------------------------------
 
 Alpha MOs
 -- Occupied --
-14.356 -10.222 -10.216 -10.195 -10.191 -10.187 -10.178  -0.945
 -0.772  -0.743  -0.707  -0.584  -0.555  -0.539  -0.509  -0.499
 -0.401  -0.399  -0.393  -0.372  -0.336  -0.300  -0.258  -0.231
 -0.210
 -- Virtual --
  0.016   0.026   0.065   0.081   0.105   0.129   0.162   0.169
  0.170   0.172   0.232   0.242   0.328   0.388   0.392   0.451
  0.456   0.521   0.525   0.550   0.556   0.586   0.593   0.595
  0.601   0.624   0.634   0.661   0.674   0.687   0.777   0.816
  0.824   0.836   0.850   0.857   0.898   0.918   0.939   0.953
  0.961   0.992   1.083   1.112   1.131   1.190   1.241   1.270
  1.365   1.391   1.397   1.453   1.483   1.507   1.549   1.554
  1.565   1.639   1.690   1.824   1.840   1.906   1.946   2.020
  2.028   2.070   2.101   2.182   2.244   2.262   2.263   2.284
  2.321   2.375   2.452   2.544   2.583   2.614   2.679   2.706
  2.727   2.917   2.952   3.016   3.038   4.017   4.114   4.122
  4.150   4.266   4.367   4.467
 
 Beta MOs
 -- Occupied --
-14.345 -10.224 -10.210 -10.195 -10.193 -10.184 -10.177  -0.930
 -0.762  -0.729  -0.705  -0.577  -0.550  -0.536  -0.501  -0.495
 -0.397  -0.391  -0.377  -0.367  -0.314  -0.297  -0.237  -0.207
 -- Virtual --
 -0.132   0.025   0.030   0.088   0.092   0.111   0.131   0.164
  0.171   0.172   0.173   0.237   0.246   0.330   0.389   0.396
  0.457   0.461   0.522   0.527   0.554   0.579   0.590   0.596
  0.604   0.606   0.629   0.642   0.663   0.679   0.691   0.777
  0.817   0.827   0.842   0.851   0.859   0.906   0.919   0.943
  0.957   0.974   1.000   1.090   1.114   1.133   1.198   1.243
  1.275   1.371   1.399   1.405   1.457   1.493   1.511   1.559
  1.567   1.573   1.658   1.710   1.836   1.850   1.917   1.951
  2.024   2.030   2.076   2.103   2.194   2.259   2.266   2.269
  2.289   2.328   2.389   2.454   2.553   2.598   2.622   2.687
  2.710   2.733   2.923   2.956   3.020   3.043   4.032   4.122
  4.130   4.151   4.269   4.370   4.471
 --------------------------------------------------------------
 
          Ground-State Mulliken Net Atomic Charges

     Atom                 Charge (a.u.)    Spin (a.u.)
  --------------------------------------------------------
      1 C                    -0.142674      -0.178164
      2 C                    -0.008810       0.004209
      3 C                    -0.151996       0.077852
      4 C                    -0.149216       0.258761
      5 C                    -0.003724      -0.109382
      6 N                    -0.367184       0.484998
      7 H                     0.219881       0.016758
      8 H                     0.137857       0.000170
      9 H                     0.130895      -0.002171
     10 H                     0.134202      -0.009248
     11 H                     0.135730       0.005085
     12 C                    -0.136278       0.471106
     13 H                     0.201317      -0.019974
  --------------------------------------------------------
  Sum of atomic charges =    -0.000000
  Sum of spin   charges =     1.000000

 -----------------------------------------------------------------
                    Cartesian Multipole Moments
 -----------------------------------------------------------------
    Charge (ESU x 10^10)
                -0.0000
    Dipole Moment (Debye)
         X       1.0822      Y       0.3824      Z       0.2353
       Tot       1.1716
    Quadrupole Moments (Debye-Ang)
        XX     -37.4413     XY      -0.1914     YY     -38.7015
        XZ      -4.8519     YZ      -1.5915     ZZ     -37.1702
    Octopole Moments (Debye-Ang^2)
       XXX      -0.7656    XXY       4.3609    XYY      -3.6504
       YYY      -2.3914    XXZ      -0.7155    XYZ      -1.0536
       YYZ       4.0220    XZZ      11.5788    YZZ       3.6736
       ZZZ      -3.0815
    Hexadecapole Moments (Debye-Ang^3)
      XXXX    -591.2688   XXXY     -51.2828   XXYY    -138.5237
      XYYY     -59.8392   YYYY    -220.4106   XXXZ     106.8950
      XXYZ       6.7223   XYYZ      44.2475   YYYZ      41.4225
      XXZZ     -92.0583   XYZZ      -3.3725   YYZZ     -76.5843
      XZZZ      96.7171   YZZZ      31.7133   ZZZZ    -213.5632
 -----------------------------------------------------------------
Archival summary:
1\1\c8-73\TS\ProcedureUnspecified\6-31G*\166(2)\hpark21\WedMar200:51:372022WedMar200:51:372022\0\\#,TS,ProcedureUnspecified,6-31G*,\\0,2\N\C,1,1.37273\H,2,1.08188,1,120.668\C,2,1.37996,1,109.251,3,173.092,0\H,4,1.08377,2,126.596,1,-168.759,0\C,1,1.40093,2,107.439,3,178.584,0\H,6,1.08149,1,119.943,2,-175.129,0\C,6,1.36592,1,109.458,2,8.29949,0\H,8,1.08289,6,127.281,1,172.286,0\C,1,2.14238,2,109.729,3,63.8317,0\H,10,1.06971,1,91.1933,2,59.2594,0\C,10,1.22817,1,114.404,2,-120.965,0\H,12,1.06798,10,166.458,1,1.01454,0\\\@

 Total job time:  7352.09s(wall), 10864.12s(cpu) 
 Wed Mar  2 00:51:37 2022

        *************************************************************
        *                                                           *
        *  Thank you very much for using Q-Chem.  Have a nice day.  *
        *                                                           *
        *************************************************************


