
Running Job 1 of 1 qcts2.in
qchem qcts2.in_4570.0 ./qcts2.d/ 1
/home/leeping/opt/qchem/5.0.2-openmp/exe/qcprog.exe_s qcts2.in_4570.0 ./qcts2.d/
Check license passed

                  Welcome to Q-Chem
     A Quantum Leap Into The Future Of Chemistry


 Q-Chem 5.0, Q-Chem, Inc., Pleasanton, CA (2017)

 Yihan Shao,  Zhengting Gan,  E. Epifanovsky,  A. T. B. Gilbert,  M. Wormit,  
 J. Kussmann,  A. W. Lange,  A. Behn,  Jia Deng,  Xintian Feng,  D. Ghosh,  
 M. Goldey,  P. R. Horn,  L. D. Jacobson,  I. Kaliman,  T. Kus,  A. Landau,  
 Jie Liu,  E. I. Proynov,  R. M. Richard,  R. P. Steele,  E. J. Sundstrom,  
 H. L. Woodcock III,  P. M. Zimmerman,  D. Zuev,  B. Albrecht,  E. Alguire,  
 S. A. Baeppler,  D. Barton,  Z. Benda,  Y. A. Bernard,  E. J. Berquist,  
 K. B. Bravaya,  H. Burton,  D. Casanova,  Chun-Min Chang,  Yunqing Chen,  
 A. Chien,  K. D. Closser,  M. P. Coons,  S. Dasgupta,  A. L. Dempwolff,  
 M. Diedenhofen,  Hainam Do,  R. G. Edgar,  Po-Tung Fang,  S. Fatehi,  
 Qingguo Feng,  J. Fosso-Tande,  Qinghui Ge,  A. Ghysels,  G. Gidofalvi,  
 J. Gomes,  J. Gonthier,  A. Gunina,  M. W. D. Hanson-Heine,  
 P. H. P. Harbach,  A. W. Hauser,  J. E. Herr,  E. G. Hohenstein,  
 Z. C. Holden,  Kerwin Hui,  T.-C. Jagau,  Hyunjun Ji,  B. Kaduk,  
 K. Khistyaev,  Jaehoon Kim,  P. Klunzinger,  K. Koh,  D. Kosenkov,  
 L. Koulias,  T. Kowalczyk,  C. M. Krauter,  A. Kunitsa,  Ka Un Lao,  
 A. Laurent,  K. V. Lawler,  Joonho Lee,  D. Lefrancois,  S. Lehtola,  
 D. S. Levine,  Yi-Pei Li,  You-Sheng Lin,  Fenglai Liu,  E. Livshits,  
 A. Luenser,  P. Manohar,  E. Mansoor,  S. F. Manzer,  Shan-Ping Mao,  
 Yuezhi Mao,  N. Mardirossian,  A. V. Marenich,  T. Markovich,  
 L. A. Martinez-Martinez,  S. A. Maurer,  N. J. Mayhall,  S. C. McKenzie,  
 J.-M. Mewes,  A. F. Morrison,  J. W. Mullinax,  K. Nanda,  
 T. S. Nguyen-Beck,  R. Olivares-Amaya,  J. A. Parkhill,  T. M. Perrine,  
 F. Plasser,  S. Prager,  A. Prociuk,  E. Ramos,  D. R. Rehn,  F. Rob,  
 M. Schneider,  N. Sergueev,  S. M. Sharada,  S. Sharma,  D. W. Small,  
 T. Stauch,  T. Stein,  Yu-Chuan Su,  A. J. W. Thom,  A. Tkatchenko,  
 T. Tsuchimochi,  L. Vogt,  O. Vydrov,  M. A. Watson,  J. Wenzel,  
 M. de Wergifosse,  T. A. Wesolowski,  A. White,  J. Witte,  A. Yamada,  
 Jun Yang,  K. Yao,  S. Yeganeh,  S. R. Yost,  Zhi-Qiang You,  A. Zech,  
 Igor Ying Zhang,  Xing Zhang,  Yan Zhao,  Ying Zhu,  B. R. Brooks,  
 G. K. L. Chan,  C. J. Cramer,  M. S. Gordon,  W. J. Hehre,  A. Klamt,  
 M. W. Schmidt,  C. D. Sherrill,  D. G. Truhlar,  A. Aspuru-Guzik,  R. Baer,  
 A. T. Bell,  N. A. Besley,  Jeng-Da Chai,  R. A. DiStasio Jr.,  A. Dreuw,  
 B. D. Dunietz,  T. R. Furlani,  Chao-Ping Hsu,  Yousung Jung,  Jing Kong,  
 D. S. Lambrecht,  WanZhen Liang,  C. Ochsenfeld,  V. A. Rassolov,  
 L. V. Slipchenko,  J. E. Subotnik,  T. Van Voorhis,  J. M. Herbert,  
 A. I. Krylov,  P. M. W. Gill,  M. Head-Gordon

 Contributors to earlier versions of Q-Chem not listed above: 
 R. D. Adamson,  B. Austin,  J. Baker,  G. J. O. Beran,  K. Brandhorst,  
 S. T. Brown,  E. F. C. Byrd,  A. K. Chakraborty,  C.-L. Cheng,  
 Siu Hung Chien,  D. M. Chipman,  D. L. Crittenden,  H. Dachsel,  
 R. J. Doerksen,  A. D. Dutoi,  L. Fusti-Molnar,  W. A. Goddard III,  
 A. Golubeva-Zadorozhnaya,  S. R. Gwaltney,  G. Hawkins,  A. Heyden,  
 S. Hirata,  G. Kedziora,  F. J. Keil,  C. Kelley,  Jihan Kim,  R. A. King,  
 R. Z. Khaliullin,  P. P. Korambath,  W. Kurlancheek,  A. M. Lee,  M. S. Lee,  
 S. V. Levchenko,  Ching Yeh Lin,  D. Liotard,  R. C. Lochan,  I. Lotan,  
 P. E. Maslen,  N. Nair,  D. P. O'Neill,  D. Neuhauser,  E. Neuscamman,  
 C. M. Oana,  R. Olson,  B. Peters,  R. Peverati,  P. A. Pieniazek,  
 Y. M. Rhee,  J. Ritchie,  M. A. Rohrdanz,  E. Rosta,  N. J. Russ,  
 H. F. Schaefer III,  N. E. Schultz,  N. Shenvi,  A. C. Simmonett,  A. Sodt,  
 D. Stuck,  K. S. Thanthiriwatte,  V. Vanovschi,  Tao Wang,  A. Warshel,  
 C. F. Williams,  Q. Wu,  X. Xu,  W. Zhang

 Please cite Q-Chem as follows:
 Y. Shao et al., Mol. Phys. 113, 184-215 (2015)
 DOI: 10.1080/00268976.2014.952696

 Q-Chem 5.0.2 for Intel X86 EM64T Linux

 Parts of Q-Chem use Armadillo 5.200.1 (Boston Tea Smuggler).
 http://arma.sourceforge.net/

 Q-Chem begins on Wed Mar  2 01:26:25 2022  

Host: 
0

     Scratch files written to ./qcts2.d//
 Dec517 15110_ 26548  26544 5633   
Processing $rem in /home/leeping/opt/qchem/5.0.2-openmp/config/preferences.
 MEM_STATIC 2000
 MEM_TOTAL  8000
 SYMMETRY   OFF
 SYM_IGNORE TRUE 

Checking the input file for inconsistencies... 	...done.

--------------------------------------------------------------
User input:
--------------------------------------------------------------
$molecule
0 2
C        1.9304308238    0.5785316072   -0.5071669785
C       -0.2265269660   -1.2638351714    0.1050061038
C       -1.2311674632   -1.1192586859    1.0314720980
C       -1.6775557009    0.2625608459    0.9506173493
C       -0.9145986443    0.8666282435   -0.0196641453
N       -0.1094471289   -0.0887420914   -0.6232071728
H        1.8860588978    0.6115574857    0.5611552981
H        0.3587434918   -2.1340110841   -0.1570003886
H       -1.6611198259   -1.8982750616    1.6483693560
H       -2.5007915966    0.7048608634    1.4974220338
H       -0.9370826068    1.8814168017   -0.3912419445
C        2.4561613432    0.7008746000   -1.6119910271
H        2.7054859285    0.7361550021   -2.6496649837
$end

$rem
method                b3lyp
basis                 6-31+g(d,p)
unrestricted          true
symmetry              off
sym_ignore            true
incdft                false
incfock               0
scf_convergence       8
thresh                14
jobtype               freq
scf_guess             read
scf_algorithm         diis
max_scf_cycles        100
$end

--------------------------------------------------------------
 ----------------------------------------------------------------
             Standard Nuclear Orientation (Angstroms)
    I     Atom           X                Y                Z
 ----------------------------------------------------------------
    1      C       1.9304308238     0.5785316072    -0.5071669785
    2      C      -0.2265269660    -1.2638351714     0.1050061038
    3      C      -1.2311674632    -1.1192586859     1.0314720980
    4      C      -1.6775557009     0.2625608459     0.9506173493
    5      C      -0.9145986443     0.8666282435    -0.0196641453
    6      N      -0.1094471289    -0.0887420914    -0.6232071728
    7      H       1.8860588978     0.6115574857     0.5611552981
    8      H       0.3587434918    -2.1340110841    -0.1570003886
    9      H      -1.6611198259    -1.8982750616     1.6483693560
   10      H      -2.5007915966     0.7048608634     1.4974220338
   11      H      -0.9370826068     1.8814168017    -0.3912419445
   12      C       2.4561613432     0.7008746000    -1.6119910271
   13      H       2.7054859285     0.7361550021    -2.6496649837
 ----------------------------------------------------------------
 Nuclear Repulsion Energy =   250.0948508901 hartrees
 There are       25 alpha and       24 beta electrons
 Requested basis set is 6-31+G(d,p)
 There are 53 shells and 163 basis functions

 Total QAlloc Memory Limit   8000 MB
 Mega-Array Size      1956 MB
 MEM_STATIC part      2000 MB

                       Distance Matrix (Angstroms)
             C (  1)   C (  2)   C (  3)   C (  4)   C (  5)   N (  6)
   C (  2)  2.901989
   C (  3)  3.904562  1.374243
   C (  4)  3.904169  2.269455  1.454381
   C (  5)  2.900836  2.242289  2.269108  1.374208
   N (  6)  2.149377  1.387388  2.249041  2.249289  1.387539
   H (  7)  1.069753  2.861501  3.596390  3.601781  2.871601  2.423877
   H (  8)  3.154474  1.080923  2.229351  3.334200  3.262529  2.149343
   H (  9)  4.866225  2.200577  1.082722  2.270758  3.314260  3.292743
   H ( 10)  4.865189  3.314644  2.270786  1.082747  2.200847  3.293236
   H ( 11)  3.151759  3.262478  3.333865  2.229256  1.080912  2.149492
   C ( 12)  1.229633  3.742323  4.888474  4.883308  3.731622  2.860688
   H ( 13)  2.283824  4.492758  5.700050  5.691869  4.476487  3.565226
             H (  7)   H (  8)   H (  9)   H ( 10)   H ( 11)   C ( 12)
   H (  8)  3.222823
   H (  9)  4.479260  2.719334
   H ( 10)  4.486620  4.355829  2.739370
   H ( 11)  3.238785  4.225837  4.355492  2.719655
   C ( 12)  2.248457  3.814805  5.859824  5.851483  3.794471
   H ( 13)  3.316075  4.467486  6.669375  6.656173  4.436260  1.067790

 
 A cutoff of  1.0D-14 yielded   1344 shell pairs
 There are     13070 function pairs
 Smallest overlap matrix eigenvalue = 2.27E-05
 Guess MOs from SCF MO coefficient file
 Reading MOs from coefficient file
 Reading MOs from coefficient file
 An unrestricted hybrid HF-DFT SCF calculation will be
 performed using Pulay DIIS extrapolation
 Exchange:     0.2000 Hartree-Fock + 0.0800 Slater + 0.7200 B88
 Correlation:  0.1900 VWN1RPA + 0.8100 LYP
 Using SG-1 standard quadrature grid
 SCF converges when DIIS error is below 1.0E-08
Using Q-Chem read-in guess as SCF_GUESS READ specified.

 -------------------------------------------------------
 OpenMP BLAS3 based DFT computing Module                
 -------------------------------------------------------
 ---------------------------------------
  Cycle       Energy         DIIS Error
 ---------------------------------------
    1    -286.8302989300      1.58E-09
    2    -286.8302989300      2.62E-09 Convergence criterion met
 ---------------------------------------
 <S^2> = 0.7731
 SCF time:  CPU 6.39 s  wall 10.07 s
 SCF   energy in the final basis set = -286.83029893
 Total energy in the final basis set = -286.83029893
 
 --------------------------------------------------------------
 
                    Orbital Energies (a.u.)
 --------------------------------------------------------------
 
 Alpha MOs
 -- Occupied --
-14.372 -10.236 -10.231 -10.205 -10.205 -10.194 -10.194  -0.959
 -0.786  -0.755  -0.719  -0.594  -0.566  -0.548  -0.519  -0.510
 -0.412  -0.411  -0.402  -0.382  -0.349  -0.314  -0.271  -0.245
 -0.222
 -- Virtual --
 -0.010  -0.004   0.012   0.018   0.031   0.032   0.036   0.049
  0.051   0.053   0.062   0.068   0.079   0.086   0.099   0.117
  0.120   0.127   0.138   0.140   0.145   0.151   0.169   0.178
  0.179   0.189   0.191   0.200   0.216   0.220   0.237   0.246
  0.257   0.271   0.275   0.276   0.294   0.311   0.315   0.342
  0.424   0.447   0.485   0.500   0.646   0.665   0.671   0.683
  0.689   0.711   0.714   0.725   0.729   0.754   0.762   0.803
  0.833   0.875   0.888   0.900   0.903   0.912   0.946   0.971
  0.992   1.035   1.046   1.053   1.093   1.111   1.164   1.192
  1.198   1.253   1.254   1.298   1.332   1.346   1.368   1.377
  1.424   1.466   1.504   1.546   1.553   1.623   1.699   1.774
  1.832   1.851   1.883   1.947   1.949   1.976   1.997   1.998
  2.032   2.073   2.137   2.154   2.182   2.242   2.271   2.362
  2.395   2.397   2.427   2.433   2.467   2.470   2.503   2.545
  2.552   2.591   2.646   2.674   2.740   2.766   2.786   2.858
  2.869   2.892   2.922   3.024   3.213   3.247   3.323   3.555
  3.613   3.729   3.785   4.191   4.343   4.373   4.567   4.639
  4.762   4.914
 
 Beta MOs
 -- Occupied --
-14.361 -10.238 -10.225 -10.206 -10.206 -10.192 -10.192  -0.943
 -0.776  -0.740  -0.717  -0.587  -0.560  -0.546  -0.511  -0.505
 -0.408  -0.400  -0.389  -0.378  -0.327  -0.311  -0.250  -0.220
 -- Virtual --
 -0.147  -0.004  -0.001   0.013   0.020   0.032   0.033   0.044
  0.051   0.056   0.060   0.064   0.070   0.082   0.086   0.100
  0.119   0.126   0.129   0.140   0.141   0.146   0.152   0.171
  0.180   0.181   0.190   0.191   0.203   0.217   0.222   0.238
  0.249   0.260   0.275   0.276   0.279   0.296   0.311   0.317
  0.342   0.430   0.451   0.488   0.505   0.652   0.665   0.679
  0.694   0.695   0.714   0.723   0.731   0.736   0.756   0.765
  0.803   0.834   0.876   0.888   0.903   0.904   0.915   0.951
  0.980   0.995   1.042   1.051   1.062   1.094   1.120   1.168
  1.199   1.200   1.256   1.257   1.301   1.335   1.348   1.377
  1.386   1.427   1.476   1.507   1.558   1.565   1.638   1.722
  1.784   1.838   1.863   1.889   1.950   1.951   1.977   2.000
  2.001   2.037   2.077   2.147   2.165   2.190   2.246   2.278
  2.367   2.399   2.400   2.429   2.435   2.470   2.476   2.507
  2.550   2.558   2.594   2.658   2.678   2.743   2.771   2.793
  2.864   2.872   2.900   2.924   3.028   3.215   3.248   3.324
  3.559   3.615   3.733   3.787   4.208   4.344   4.379   4.572
  4.639   4.766   4.921
 --------------------------------------------------------------
 
          Ground-State Mulliken Net Atomic Charges

     Atom                 Charge (a.u.)    Spin (a.u.)
  --------------------------------------------------------
      1 C                    -0.085187      -0.168106
      2 C                    -0.198689      -0.061288
      3 C                    -0.072051       0.166583
      4 C                    -0.073939       0.165117
      5 C                    -0.195356      -0.060402
      6 N                    -0.176019       0.485163
      7 H                     0.203654       0.016521
      8 H                     0.131275       0.003577
      9 H                     0.129510      -0.004954
     10 H                     0.129549      -0.004910
     11 H                     0.131303       0.003554
     12 C                    -0.112644       0.477305
     13 H                     0.188594      -0.018160
  --------------------------------------------------------
  Sum of atomic charges =     0.000000
  Sum of spin   charges =     1.000000

 -----------------------------------------------------------------
                    Cartesian Multipole Moments
 -----------------------------------------------------------------
    Charge (ESU x 10^10)
                 0.0000
    Dipole Moment (Debye)
         X       1.0784      Y       0.3623      Z       0.1104
       Tot       1.1430
    Quadrupole Moments (Debye-Ang)
        XX     -39.4794     XY      -0.1170     YY     -40.1497
        XZ      -5.2859     YZ      -1.7235     ZZ     -38.5918
    Octopole Moments (Debye-Ang^2)
       XXX      -3.7291    XXY       3.5402    XYY      -4.7752
       YYY      -3.2622    XXZ       0.2335    XYZ      -0.4043
       YYZ       4.3970    XZZ      12.1505    YZZ       3.9150
       ZZZ      -5.0213
    Hexadecapole Moments (Debye-Ang^3)
      XXXX    -636.3990   XXXY     -58.6348   XXYY    -149.1966
      XYYY     -67.3702   YYYY    -241.1004   XXXZ     111.2723
      XXYZ       8.2596   XYYZ      45.4148   YYYZ      42.7249
      XXZZ     -96.9518   XYZZ      -4.1102   YYZZ     -83.8604
      XZZZ      97.4700   YZZZ      32.7035   ZZZZ    -227.5561
 -----------------------------------------------------------------
 Calculating MO derivatives via CPSCF
   1         3          39      0.325191    0.070764
   2         3          39      0.074673    0.023417
   3         3          39      0.013947    0.004145
   4         3          39      0.001945    0.000518
   5        19          23      0.000197    0.000060
   6        38           4      0.000011    0.000005
   7        42           0      0.000000    0.000000    Roots Converged
 Time for AOints: 18.4 s (CPU) 26.3 s (wall)
 ------------------------------------------------------------------------------
                     AOints        : Timing summary (seconds)
 ------------------------------------------------------------------------------
     job step          cpu (% of tot)      sys (% of tot)     wall (% of tot)
 ------------------------------------------------------------------------------
  cpscf_lag         0.1054E+03 (26.8)   0.4300E-04 (34.1)   0.1111E+03 (25.6)
  iterzp            0.2685E+03 (68.4)   0.8000E-04 (63.5)   0.2958E+03 (68.2)
  make_fx           0.0000E+00 ( 0.0)   0.0000E+00 ( 0.0)   0.0000E+00 ( 0.0)
  AOints            0.1844E+02 ( 4.7)   0.2000E-05 ( 1.6)   0.2633E+02 ( 6.1)
 ------------------------------------------------------------------------------
   Grand Totals     0.3927E+03          0.1260E-03          0.4336E+03
 ------------------------------------------------------------------------------
 Calculating analytic Hessian of the SCF energy
 Polarizability Matrix (a.u.)
            1           2           3
    1-128.5964157 -15.6721618  46.9802738
    2 -15.6721618 -76.7821419  14.5985798
    3  46.9802738  14.5985798 -86.8692595
 
 Direct stationary perturbation theory relativistic correction:
 
 rels  =       0.069303447383
 relv  =      -0.331902499478
 rel2e =       0.149517779804
 E_rel =      -0.113081272291
 
 Hessian of the SCF Energy
            1           2           3           4           5           6
    1   0.0672184  -0.0110675  -0.3057462  -0.0032352  -0.0070775  -0.0014695
    2  -0.0110675   0.0534198  -0.0484032  -0.0112747  -0.0064099   0.0036283
    3  -0.3057462  -0.0484032   1.2172618   0.0025587   0.0022043   0.0007865
    4  -0.0032352  -0.0112747   0.0025587   0.4335034  -0.2476131  -0.2210338
    5  -0.0070775  -0.0064099   0.0022043  -0.2476131   0.6249099   0.0417938
    6  -0.0014695   0.0036283   0.0007865  -0.2210338   0.0417938   0.3306681
    7  -0.0074879  -0.0012074   0.0053872  -0.2310427   0.0465940   0.1485798
    8   0.0188140   0.0021900  -0.0087581  -0.0106519  -0.1100950   0.0176512
    9  -0.0015120  -0.0013982  -0.0009114   0.1546774  -0.0379960  -0.1865404
   10   0.0041306   0.0025807  -0.0007828  -0.0129645   0.0310789   0.0137677
   11  -0.0179109  -0.0086196   0.0103701   0.0383577  -0.0449479  -0.0176057
   12   0.0001739   0.0011727  -0.0020737   0.0228603   0.0055348  -0.0133951
   13  -0.0127074   0.0069506   0.0023667   0.0382415   0.0709608  -0.0442699
   14   0.0023544   0.0029972  -0.0004283   0.0091870  -0.0796474   0.0213961
   15  -0.0000343  -0.0039293   0.0011559  -0.0247100  -0.0273353   0.0435327
   16   0.0814005   0.0253019  -0.0447887  -0.0926519  -0.0175865   0.0395771
   17   0.0279567   0.0056279  -0.0146515   0.0757345  -0.1439014  -0.0074195
   18   0.0080715   0.0024553  -0.0074816  -0.0025034   0.0635160  -0.1026285
   19  -0.0035738   0.0065936   0.0019828   0.0004943   0.0011709  -0.0020540
   20   0.0078767  -0.0217174  -0.0164508  -0.0004105  -0.0006816   0.0007755
   21   0.0301575  -0.0072979  -0.4076596   0.0006808   0.0004482   0.0001426
   22   0.0004578   0.0004623   0.0000062  -0.1275515   0.1402415   0.0522859
   23   0.0003696   0.0004750   0.0000778   0.1382832  -0.2398691  -0.0544758
   24  -0.0003079   0.0003037   0.0003321   0.0617425  -0.0573526  -0.0675880
   25   0.0013586   0.0008993  -0.0006968   0.0025110  -0.0162882   0.0017289
   26   0.0001946   0.0004754  -0.0002015   0.0061232   0.0089271  -0.0076256
   27   0.0003029   0.0007300  -0.0006682   0.0074158   0.0158787  -0.0106870
   28   0.0015479  -0.0001489  -0.0006036  -0.0037542  -0.0036208   0.0062429
   29   0.0006757   0.0001926  -0.0003124   0.0010300  -0.0067319   0.0019554
   30   0.0006583  -0.0005152  -0.0005953  -0.0027625  -0.0014863   0.0048480
   31   0.0007677  -0.0000864   0.0000606  -0.0054056   0.0013195   0.0077139
   32  -0.0000849   0.0000054  -0.0000186   0.0007800  -0.0014524   0.0000741
   33  -0.0000456  -0.0004254   0.0003437  -0.0004903  -0.0040243   0.0039803
   34  -0.1263956  -0.0177101   0.3257646   0.0022861   0.0013389  -0.0017547
   35  -0.0198493  -0.0305802   0.0715747  -0.0003084  -0.0005992   0.0002508
   36   0.2769509   0.0557474  -0.8090093   0.0016170  -0.0012093  -0.0029002
   37  -0.0034816  -0.0012933   0.0144911  -0.0004308  -0.0005184   0.0006859
   38  -0.0022516   0.0019437   0.0049977   0.0007631   0.0004989  -0.0003985
   39  -0.0071993  -0.0020681   0.0085190  -0.0000524   0.0000280  -0.0002190
            7           8           9          10          11          12
    1  -0.0074879   0.0188140  -0.0015120   0.0041306  -0.0179109   0.0001739
    2  -0.0012074   0.0021900  -0.0013982   0.0025807  -0.0086196   0.0011727
    3   0.0053872  -0.0087581  -0.0009114  -0.0007828   0.0103701  -0.0020737
    4  -0.2310427  -0.0106519   0.1546774  -0.0129645   0.0383577   0.0228603
    5   0.0465940  -0.1100950  -0.0379960   0.0310789  -0.0449479   0.0055348
    6   0.1485798   0.0176512  -0.1865404   0.0137677  -0.0176057  -0.0133951
    7   0.4282534   0.0290267  -0.3008711  -0.1018308   0.0359182   0.0171724
    8   0.0290267   0.5716045  -0.1792256   0.0567947  -0.2258588   0.0210096
    9  -0.3008711  -0.1792256   0.4507375   0.0193764   0.0110373  -0.0683564
   10  -0.1018308   0.0567947   0.0193764   0.5285292  -0.1122313  -0.3368538
   11   0.0359182  -0.2258588   0.0110373  -0.1122313   0.4879106  -0.0390331
   12   0.0171724   0.0210096  -0.0683564  -0.3368538  -0.0390331   0.4357522
   13   0.0080741   0.0025375   0.0223393  -0.1811015  -0.0263529   0.1071183
   14   0.0074851  -0.0629122   0.0143871  -0.0810282  -0.1483112   0.1144561
   15   0.0009162   0.0272391  -0.0164143   0.1402961   0.0684806  -0.1986183
   16  -0.0006789  -0.0261589   0.0173538  -0.0316425  -0.0095168   0.0626957
   17  -0.0537315   0.0295920   0.0802521   0.0178897   0.0526841  -0.0643415
   18   0.0485914  -0.0000333  -0.0471039   0.0383706   0.0175697  -0.0396790
   19  -0.0001298  -0.0008399   0.0010228  -0.0003592   0.0009330   0.0007353
   20   0.0004412  -0.0004713  -0.0000780  -0.0004761  -0.0000601   0.0006661
   21  -0.0001223  -0.0004994   0.0002069  -0.0004331   0.0004330   0.0000240
   22  -0.0041899   0.0181428   0.0007762  -0.0010651   0.0033687   0.0035696
   23  -0.0031584   0.0053516   0.0011971  -0.0004209   0.0017424   0.0011524
   24   0.0051760  -0.0143848   0.0028475   0.0052546   0.0035776  -0.0016358
   25  -0.0924580  -0.0790935   0.0823974   0.0065907   0.0109542  -0.0103087
   26  -0.0812308  -0.2073267   0.1264316  -0.0139682  -0.0063234   0.0129560
   27   0.0782768   0.1274468  -0.1368528  -0.0021332  -0.0006264   0.0008033
   28   0.0008828  -0.0059151  -0.0002214  -0.2166737   0.0948764   0.1290298
   29   0.0192768  -0.0022533  -0.0155600   0.0965403  -0.1039313  -0.0545022
   30  -0.0041158  -0.0006397   0.0024429   0.1259804  -0.0577612  -0.1166300
   31   0.0009976  -0.0033350   0.0040053   0.0062277  -0.0177355   0.0033005
   32   0.0007607  -0.0004921   0.0010376   0.0032846  -0.0034201   0.0002527
   33   0.0064379  -0.0000822  -0.0014382  -0.0043540   0.0148540   0.0012020
   34  -0.0010425   0.0017278   0.0010226   0.0002661  -0.0016404   0.0007748
   35  -0.0000786   0.0006687  -0.0003438  -0.0000727  -0.0015561   0.0011715
   36  -0.0052130   0.0098982   0.0013314   0.0014742  -0.0108417   0.0024797
   37   0.0006526  -0.0010493  -0.0003668  -0.0001071   0.0009795  -0.0002682
   38  -0.0000958   0.0000026   0.0002589   0.0000285   0.0006915  -0.0004949
   39  -0.0002155   0.0003783   0.0000511   0.0000369  -0.0004540   0.0001271
           13          14          15          16          17          18
    1  -0.0127074   0.0023544  -0.0000343   0.0814005   0.0279567   0.0080715
    2   0.0069506   0.0029972  -0.0039293   0.0253019   0.0056279   0.0024553
    3   0.0023667  -0.0004283   0.0011559  -0.0447887  -0.0146515  -0.0074816
    4   0.0382415   0.0091870  -0.0247100  -0.0926519   0.0757345  -0.0025034
    5   0.0709608  -0.0796474  -0.0273353  -0.0175865  -0.1439014   0.0635160
    6  -0.0442699   0.0213961   0.0435327   0.0395771  -0.0074195  -0.1026285
    7   0.0080741   0.0074851   0.0009162  -0.0006789  -0.0537315   0.0485914
    8   0.0025375  -0.0629122   0.0272391  -0.0261589   0.0295920  -0.0000333
    9   0.0223393   0.0143871  -0.0164143   0.0173538   0.0802521  -0.0471039
   10  -0.1811015  -0.0810282   0.1402961  -0.0316425   0.0178897   0.0383706
   11  -0.0263529  -0.1483112   0.0684806  -0.0095168   0.0526841   0.0175697
   12   0.1071183   0.1144561  -0.1986183   0.0626957  -0.0643415  -0.0396790
   13   0.2740532  -0.0227894  -0.1549344  -0.0842133  -0.0282765   0.0385114
   14  -0.0227894   0.7555102  -0.2092347   0.0663769  -0.1560839  -0.0449119
   15  -0.1549344  -0.2092347   0.3589967   0.0215847   0.0334407  -0.0980215
   16  -0.0842133   0.0663769   0.0215847   0.1839627  -0.0328404  -0.1279853
   17  -0.0282765  -0.1560839   0.0334407  -0.0328404   0.2495256  -0.0408413
   18   0.0385114  -0.0449119  -0.0980215  -0.1279853  -0.0408413   0.2738020
   19   0.0004885  -0.0004956  -0.0013363  -0.0176405  -0.0074896  -0.0048985
   20   0.0014159  -0.0008775  -0.0016635  -0.0075532   0.0025647  -0.0019218
   21   0.0005763   0.0001280   0.0004280  -0.0034721  -0.0014955  -0.0004201
   22  -0.0031364  -0.0019400   0.0062705   0.0040535  -0.0131402  -0.0054686
   23  -0.0023975  -0.0029341   0.0051167   0.0133444  -0.0224179  -0.0079543
   24  -0.0027300   0.0036308   0.0032207  -0.0113656   0.0083616   0.0036984
   25  -0.0060892   0.0047316   0.0053500   0.0019705  -0.0078447   0.0090036
   26  -0.0009183  -0.0042131   0.0029849   0.0033144  -0.0044093   0.0009189
   27  -0.0033854   0.0006726   0.0046317   0.0070021  -0.0069703   0.0051893
   28  -0.0005630   0.0097285  -0.0037974  -0.0026526   0.0097534   0.0065748
   29  -0.0111614   0.0111486   0.0044896  -0.0018324   0.0014742   0.0048438
   30   0.0169230  -0.0105561  -0.0098845   0.0015538   0.0105269   0.0038983
   31  -0.0349110   0.0060195   0.0112875  -0.0041958   0.0249990  -0.0120695
   32   0.0089532  -0.3147297   0.1011810  -0.0014069  -0.0142678   0.0050777
   33   0.0168278   0.1089349  -0.0857538  -0.0044596  -0.0107224   0.0039549
   34   0.0019216   0.0001711  -0.0012467  -0.0394441  -0.0140112   0.0046323
   35   0.0022404  -0.0000794  -0.0014394  -0.0125568   0.0008825   0.0014668
   36   0.0005948   0.0016106  -0.0030196   0.0418524   0.0136375   0.0046702
   37  -0.0000572   0.0001991   0.0003541   0.0017323   0.0010010  -0.0008303
   38  -0.0011624   0.0001323   0.0006695   0.0011144  -0.0012707  -0.0001857
   39   0.0000620  -0.0000852  -0.0002538   0.0004517   0.0002233   0.0001216
           19          20          21          22          23          24
    1  -0.0035738   0.0078767   0.0301575   0.0004578   0.0003696  -0.0003079
    2   0.0065936  -0.0217174  -0.0072979   0.0004623   0.0004750   0.0003037
    3   0.0019828  -0.0164508  -0.4076596   0.0000062   0.0000778   0.0003321
    4   0.0004943  -0.0004105   0.0006808  -0.1275515   0.1382832   0.0617425
    5   0.0011709  -0.0006816   0.0004482   0.1402415  -0.2398691  -0.0573526
    6  -0.0020540   0.0007755   0.0001426   0.0522859  -0.0544758  -0.0675880
    7  -0.0001298   0.0004412  -0.0001223  -0.0041899  -0.0031584   0.0051760
    8  -0.0008399  -0.0004713  -0.0004994   0.0181428   0.0053516  -0.0143848
    9   0.0010228  -0.0000780   0.0002069   0.0007762   0.0011971   0.0028475
   10  -0.0003592  -0.0004761  -0.0004331  -0.0010651  -0.0004209   0.0052546
   11   0.0009330  -0.0000601   0.0004330   0.0033687   0.0017424   0.0035776
   12   0.0007353   0.0006661   0.0000240   0.0035696   0.0011524  -0.0016358
   13   0.0004885   0.0014159   0.0005763  -0.0031364  -0.0023975  -0.0027300
   14  -0.0004956  -0.0008775   0.0001280  -0.0019400  -0.0029341   0.0036308
   15  -0.0013363  -0.0016635   0.0004280   0.0062705   0.0051167   0.0032207
   16  -0.0176405  -0.0075532  -0.0034721   0.0040535   0.0133444  -0.0113656
   17  -0.0074896   0.0025647  -0.0014955  -0.0131402  -0.0224179   0.0083616
   18  -0.0048985  -0.0019218  -0.0004201  -0.0054686  -0.0079543   0.0036984
   19   0.0245934   0.0024979  -0.0214687  -0.0000190  -0.0000210   0.0000453
   20   0.0024979   0.0152006   0.0103146  -0.0000697  -0.0002735  -0.0000926
   21  -0.0214687   0.0103146   0.4027742  -0.0000861  -0.0001089  -0.0000516
   22  -0.0000190  -0.0000697  -0.0000861   0.1304793  -0.1473020  -0.0570581
   23  -0.0000210  -0.0002735  -0.0001089  -0.1473020   0.2580766   0.0559446
   24   0.0000453  -0.0000926  -0.0000516  -0.0570581   0.0559446   0.0584622
   25  -0.0001152  -0.0000391  -0.0000096  -0.0014565  -0.0000623  -0.0019333
   26   0.0000173  -0.0000292   0.0000194  -0.0011441  -0.0003227  -0.0001358
   27  -0.0000449  -0.0000125  -0.0000298  -0.0018377  -0.0010102  -0.0015750
   28  -0.0000967  -0.0000102   0.0000091   0.0008148   0.0003553   0.0006290
   29  -0.0000702  -0.0000544  -0.0000228   0.0010514   0.0004988  -0.0009225
   30  -0.0000400  -0.0000117  -0.0000174   0.0006079   0.0003792   0.0009944
   31  -0.0001368   0.0001439  -0.0001411   0.0016183   0.0013082   0.0004993
   32   0.0001187  -0.0001365   0.0000518   0.0002311  -0.0003600   0.0009593
   33  -0.0000318   0.0001101  -0.0000645   0.0009497  -0.0002289   0.0016037
   34  -0.0070219  -0.0031389  -0.0057409  -0.0000161  -0.0003637   0.0000046
   35  -0.0017979   0.0011505  -0.0017509   0.0002041   0.0001086   0.0001387
   36   0.0246136   0.0081235   0.0044254  -0.0000630  -0.0001165  -0.0003245
   37   0.0035167  -0.0006778   0.0000504   0.0000107   0.0000652   0.0000438
   38  -0.0006171   0.0053857  -0.0002196  -0.0001057  -0.0000757  -0.0000279
   39   0.0014744   0.0002412   0.0002419   0.0000476   0.0000268   0.0000158
           25          26          27          28          29          30
    1   0.0013586   0.0001946   0.0003029   0.0015479   0.0006757   0.0006583
    2   0.0008993   0.0004754   0.0007300  -0.0001489   0.0001926  -0.0005152
    3  -0.0006968  -0.0002015  -0.0006682  -0.0006036  -0.0003124  -0.0005953
    4   0.0025110   0.0061232   0.0074158  -0.0037542   0.0010300  -0.0027625
    5  -0.0162882   0.0089271   0.0158787  -0.0036208  -0.0067319  -0.0014863
    6   0.0017289  -0.0076256  -0.0106870   0.0062429   0.0019554   0.0048480
    7  -0.0924580  -0.0812308   0.0782768   0.0008828   0.0192768  -0.0041158
    8  -0.0790935  -0.2073267   0.1274468  -0.0059151  -0.0022533  -0.0006397
    9   0.0823974   0.1264316  -0.1368528  -0.0002214  -0.0155600   0.0024429
   10   0.0065907  -0.0139682  -0.0021332  -0.2166737   0.0965403   0.1259804
   11   0.0109542  -0.0063234  -0.0006264   0.0948764  -0.1039313  -0.0577612
   12  -0.0103087   0.0129560   0.0008033   0.1290298  -0.0545022  -0.1166300
   13  -0.0060892  -0.0009183  -0.0033854  -0.0005630  -0.0111614   0.0169230
   14   0.0047316  -0.0042131   0.0006726   0.0097285   0.0111486  -0.0105561
   15   0.0053500   0.0029849   0.0046317  -0.0037974   0.0044896  -0.0098845
   16   0.0019705   0.0033144   0.0070021  -0.0026526  -0.0018324   0.0015538
   17  -0.0078447  -0.0044093  -0.0069703   0.0097534   0.0014742   0.0105269
   18   0.0090036   0.0009189   0.0051893   0.0065748   0.0048438   0.0038983
   19  -0.0001152   0.0000173  -0.0000449  -0.0000967  -0.0000702  -0.0000400
   20  -0.0000391  -0.0000292  -0.0000125  -0.0000102  -0.0000544  -0.0000117
   21  -0.0000096   0.0000194  -0.0000298   0.0000091  -0.0000228  -0.0000174
   22  -0.0014565  -0.0011441  -0.0018377   0.0008148   0.0010514   0.0006079
   23  -0.0000623  -0.0003227  -0.0010102   0.0003553   0.0004988   0.0003792
   24  -0.0019333  -0.0001358  -0.0015750   0.0006290  -0.0009225   0.0009944
   25   0.0867881   0.0875941  -0.0860517  -0.0003261  -0.0011127   0.0000283
   26   0.0875941   0.2127497  -0.1363388   0.0005476   0.0004281  -0.0002586
   27  -0.0860517  -0.1363388   0.1384162  -0.0001939   0.0001162  -0.0002619
   28  -0.0003261   0.0005476  -0.0001939   0.2225334  -0.1044581  -0.1365767
   29  -0.0011127   0.0004281   0.0001162  -0.1044581   0.0994852   0.0607965
   30   0.0000283  -0.0002586  -0.0002619  -0.1365767   0.0607965   0.1166073
   31   0.0013423  -0.0003790   0.0007696  -0.0015421   0.0000254  -0.0021192
   32   0.0002650   0.0000747   0.0001537  -0.0010547  -0.0002894  -0.0004392
   33  -0.0000530   0.0012026   0.0008787  -0.0015579  -0.0011771  -0.0015399
   34  -0.0001324  -0.0001870  -0.0001083  -0.0001664   0.0000569  -0.0001019
   35   0.0000449   0.0000038   0.0000092  -0.0001231   0.0000390  -0.0000747
   36   0.0005182   0.0000498   0.0001264   0.0004514   0.0002746   0.0001138
   37   0.0000162   0.0000363  -0.0000122  -0.0000043  -0.0000214  -0.0000356
   38  -0.0000485  -0.0000343  -0.0000490   0.0000697  -0.0000061   0.0000401
   39   0.0000268  -0.0000028   0.0000289   0.0000139   0.0000209   0.0000243
           31          32          33          34          35          36
    1   0.0007677  -0.0000849  -0.0000456  -0.1263956  -0.0198493   0.2769509
    2  -0.0000864   0.0000054  -0.0004254  -0.0177101  -0.0305802   0.0557474
    3   0.0000606  -0.0000186   0.0003437   0.3257646   0.0715747  -0.8090093
    4  -0.0054056   0.0007800  -0.0004903   0.0022861  -0.0003084   0.0016170
    5   0.0013195  -0.0014524  -0.0040243   0.0013389  -0.0005992  -0.0012093
    6   0.0077139   0.0000741   0.0039803  -0.0017547   0.0002508  -0.0029002
    7   0.0009976   0.0007607   0.0064379  -0.0010425  -0.0000786  -0.0052130
    8  -0.0033350  -0.0004921  -0.0000822   0.0017278   0.0006687   0.0098982
    9   0.0040053   0.0010376  -0.0014382   0.0010226  -0.0003438   0.0013314
   10   0.0062277   0.0032846  -0.0043540   0.0002661  -0.0000727   0.0014742
   11  -0.0177355  -0.0034201   0.0148540  -0.0016404  -0.0015561  -0.0108417
   12   0.0033005   0.0002527   0.0012020   0.0007748   0.0011715   0.0024797
   13  -0.0349110   0.0089532   0.0168278   0.0019216   0.0022404   0.0005948
   14   0.0060195  -0.3147297   0.1089349   0.0001711  -0.0000794   0.0016106
   15   0.0112875   0.1011810  -0.0857538  -0.0012467  -0.0014394  -0.0030196
   16  -0.0041958  -0.0014069  -0.0044596  -0.0394441  -0.0125568   0.0418524
   17   0.0249990  -0.0142678  -0.0107224  -0.0140112   0.0008825   0.0136375
   18  -0.0120695   0.0050777   0.0039549   0.0046323   0.0014668   0.0046702
   19  -0.0001368   0.0001187  -0.0000318  -0.0070219  -0.0017979   0.0246136
   20   0.0001439  -0.0001365   0.0001101  -0.0031389   0.0011505   0.0081235
   21  -0.0001411   0.0000518  -0.0000645  -0.0057409  -0.0017509   0.0044254
   22   0.0016183   0.0002311   0.0009497  -0.0000161   0.0002041  -0.0000630
   23   0.0013082  -0.0003600  -0.0002289  -0.0003637   0.0001086  -0.0001165
   24   0.0004993   0.0009593   0.0016037   0.0000046   0.0001387  -0.0003245
   25   0.0013423   0.0002650  -0.0000530  -0.0001324   0.0000449   0.0005182
   26  -0.0003790   0.0000747   0.0012026  -0.0001870   0.0000038   0.0000498
   27   0.0007696   0.0001537   0.0008787  -0.0001083   0.0000092   0.0001264
   28  -0.0015421  -0.0010547  -0.0015579  -0.0001664  -0.0001231   0.0004514
   29   0.0000254  -0.0002894  -0.0011771   0.0000569   0.0000390   0.0002746
   30  -0.0021192  -0.0004392  -0.0015399  -0.0001019  -0.0000747   0.0001138
   31   0.0352786  -0.0120638  -0.0132821  -0.0000019  -0.0003539  -0.0000684
   32  -0.0120638   0.3349627  -0.1083436   0.0002483   0.0001285   0.0000068
   33  -0.0132821  -0.1083436   0.0771197   0.0000345  -0.0001553  -0.0003021
   34  -0.0000019   0.0002483   0.0000345   0.2056761   0.0335720  -0.4217748
   35  -0.0003539   0.0001285  -0.0001553   0.0335720   0.0517153  -0.0863862
   36  -0.0000684   0.0000068  -0.0003021  -0.4217748  -0.0863862   1.1992815
   37  -0.0000391  -0.0000314   0.0000245  -0.0359290  -0.0009207   0.0790468
   38   0.0001380  -0.0000233   0.0000576  -0.0000637  -0.0218821   0.0092055
   39   0.0000436   0.0000068   0.0000155   0.0984939   0.0155384  -0.3968728
           37          38          39
    1  -0.0034816  -0.0022516  -0.0071993
    2  -0.0012933   0.0019437  -0.0020681
    3   0.0144911   0.0049977   0.0085190
    4  -0.0004308   0.0007631  -0.0000524
    5  -0.0005184   0.0004989   0.0000280
    6   0.0006859  -0.0003985  -0.0002190
    7   0.0006526  -0.0000958  -0.0002155
    8  -0.0010493   0.0000026   0.0003783
    9  -0.0003668   0.0002589   0.0000511
   10  -0.0001071   0.0000285   0.0000369
   11   0.0009795   0.0006915  -0.0004540
   12  -0.0002682  -0.0004949   0.0001271
   13  -0.0000572  -0.0011624   0.0000620
   14   0.0001991   0.0001323  -0.0000852
   15   0.0003541   0.0006695  -0.0002538
   16   0.0017323   0.0011144   0.0004517
   17   0.0010010  -0.0012707   0.0002233
   18  -0.0008303  -0.0001857   0.0001216
   19   0.0035167  -0.0006171   0.0014744
   20  -0.0006778   0.0053857   0.0002412
   21   0.0000504  -0.0002196   0.0002419
   22   0.0000107  -0.0001057   0.0000476
   23   0.0000652  -0.0000757   0.0000268
   24   0.0000438  -0.0000279   0.0000158
   25   0.0000162  -0.0000485   0.0000268
   26   0.0000363  -0.0000343  -0.0000028
   27  -0.0000122  -0.0000490   0.0000289
   28  -0.0000043   0.0000697   0.0000139
   29  -0.0000214  -0.0000061   0.0000209
   30  -0.0000356   0.0000401   0.0000243
   31  -0.0000391   0.0001380   0.0000436
   32  -0.0000314  -0.0000233   0.0000068
   33   0.0000245   0.0000576   0.0000155
   34  -0.0359290  -0.0000637   0.0984939
   35  -0.0009207  -0.0218821   0.0155384
   36   0.0790468   0.0092055  -0.3968728
   37   0.0341206   0.0022311  -0.0931835
   38   0.0022311   0.0146376  -0.0138537
   39  -0.0931835  -0.0138537   0.3882003
 Gradient time:  CPU 509.63 s  wall 560.31 s
 **********************************************************************
 **                                                                  **
 **                       VIBRATIONAL ANALYSIS                       **
 **                       --------------------                       **
 **                                                                  **
 **        VIBRATIONAL FREQUENCIES (CM**-1) AND NORMAL MODES         **
 **     FORCE CONSTANTS (mDYN/ANGSTROM) AND REDUCED MASSES (AMU)     **
 **                  INFRARED INTENSITIES (KM/MOL)                   **
 **                                                                  **
 **********************************************************************
 

 Mode:                 1                      2                      3
 Frequency:      -409.14                  53.48                  65.19
 Force Cnst:      1.0228                 0.0054                 0.0055
 Red. Mass:      10.3700                 3.2020                 2.1966
 IR Active:          YES                    YES                    YES
 IR Intens:      120.456                  0.177                  2.231
 Raman Active:       YES                    YES                    YES
               X      Y      Z        X      Y      Z        X      Y      Z
 C          0.697  0.233  0.109    0.018 -0.077  0.004   -0.073  0.230 -0.010
 C         -0.119 -0.040 -0.020   -0.070 -0.105  0.055   -0.031 -0.063 -0.054
 C         -0.006 -0.028  0.089   -0.088  0.060  0.037   -0.056  0.011 -0.031
 C         -0.025  0.029  0.086    0.049  0.100 -0.041    0.036  0.044  0.024
 C         -0.120 -0.040 -0.019    0.119 -0.051 -0.053    0.062 -0.027  0.060
 N         -0.398 -0.140 -0.158    0.057 -0.190  0.004    0.045 -0.131  0.010
 H         -0.169 -0.052  0.052    0.103 -0.350  0.017   -0.184  0.592 -0.026
 H         -0.159 -0.048 -0.086   -0.222 -0.215  0.079   -0.233 -0.174 -0.143
 H          0.027  0.004  0.153   -0.222  0.118  0.018   -0.210 -0.021 -0.174
 H          0.022  0.031  0.154    0.131  0.229 -0.023    0.171  0.121  0.160
 H         -0.147 -0.063 -0.082    0.304 -0.055 -0.075    0.288  0.012  0.154
 C          0.060  0.016 -0.075   -0.087  0.271 -0.007    0.014 -0.055 -0.000
 H          0.175  0.054 -0.035   -0.173  0.554 -0.018    0.110 -0.376  0.012
 TransDip  -0.289 -0.084  0.182   -0.005  0.013  0.001    0.015 -0.045  0.001

 Mode:                 4                      5                      6
 Frequency:        83.78                 194.54                 423.03
 Force Cnst:      0.0188                 0.0732                 0.3337
 Red. Mass:       4.5427                 3.2840                 3.1646
 IR Active:          YES                    YES                    YES
 IR Intens:        2.546                  0.931                 11.525
 Raman Active:       YES                    YES                    YES
               X      Y      Z        X      Y      Z        X      Y      Z
 C          0.201  0.049 -0.114   -0.090 -0.035 -0.218   -0.030  0.095 -0.005
 C          0.024  0.011  0.134   -0.063 -0.017  0.037   -0.201 -0.113  0.057
 C         -0.198 -0.063 -0.086   -0.039 -0.012  0.061   -0.087 -0.128  0.011
 C         -0.192 -0.067 -0.089   -0.040 -0.007  0.061    0.144 -0.053 -0.002
 C          0.028  0.016  0.128   -0.061 -0.021  0.039    0.232  0.021 -0.050
 N          0.131  0.050  0.234   -0.060 -0.021  0.021   -0.046  0.140 -0.008
 H          0.342  0.073 -0.109   -0.222 -0.068 -0.221   -0.062  0.177 -0.009
 H          0.083  0.033  0.194   -0.075 -0.023  0.032    0.220  0.099  0.310
 H         -0.341 -0.118 -0.255   -0.029 -0.008  0.073    0.180  0.077  0.444
 H         -0.329 -0.115 -0.257   -0.026 -0.001  0.078   -0.176 -0.088 -0.441
 H          0.096  0.039  0.186   -0.069 -0.022  0.037   -0.219 -0.079 -0.307
 C          0.009  0.005 -0.206    0.334  0.105 -0.013   -0.002  0.002 -0.001
 H         -0.150 -0.028 -0.245    0.771  0.245  0.096    0.016 -0.030  0.002
 TransDip  -0.005 -0.004 -0.051   -0.020 -0.005  0.023   -0.032  0.104 -0.006

 Mode:                 7                      8                      9
 Frequency:       551.00                 585.19                 624.58
 Force Cnst:      0.2896                 0.5887                 0.5382
 Red. Mass:       1.6192                 2.9176                 2.3416
 IR Active:          YES                    YES                    YES
 IR Intens:       16.369                  0.509                107.663
 Raman Active:       YES                    YES                    YES
               X      Y      Z        X      Y      Z        X      Y      Z
 C         -0.006 -0.000  0.004   -0.005  0.016 -0.001    0.045  0.045  0.028
 C          0.090  0.026  0.052    0.093  0.037  0.118   -0.109 -0.044 -0.100
 C         -0.004 -0.002 -0.044   -0.164 -0.072 -0.171    0.034  0.020  0.056
 C         -0.002 -0.004 -0.041    0.171  0.057  0.174    0.034  0.009  0.053
 C          0.083  0.036  0.050   -0.094 -0.038 -0.120   -0.108 -0.041 -0.100
 N         -0.061 -0.021 -0.014   -0.004  0.015 -0.001    0.153  0.055  0.115
 H         -0.353 -0.120 -0.015    0.030 -0.087  0.004    0.223 -0.030  0.040
 H          0.158  0.060  0.089    0.267  0.110  0.265   -0.283 -0.117 -0.250
 H         -0.033 -0.012 -0.076   -0.329 -0.127 -0.357   -0.043  0.008 -0.012
 H         -0.023 -0.015 -0.065    0.325  0.126  0.353   -0.031 -0.031 -0.013
 H          0.161  0.053  0.091   -0.277 -0.097 -0.271   -0.275 -0.096 -0.242
 C         -0.147 -0.050 -0.024    0.008 -0.017  0.001   -0.093 -0.058 -0.043
 H          0.775  0.268  0.218   -0.037  0.069 -0.007    0.632  0.327  0.151
 TransDip   0.123  0.040 -0.005   -0.011  0.020 -0.001    0.281  0.088 -0.155

 Mode:                10                     11                     12
 Frequency:       627.38                 729.67                 752.96
 Force Cnst:      0.3908                 0.4017                 0.3685
 Red. Mass:       1.6852                 1.2806                 1.1032
 IR Active:          YES                    YES                    YES
 IR Intens:        2.835                207.339                 72.262
 Raman Active:       YES                    YES                    YES
               X      Y      Z        X      Y      Z        X      Y      Z
 C          0.063 -0.171  0.011    0.013  0.004  0.011    0.020 -0.062  0.003
 C         -0.010  0.006 -0.010   -0.050  0.028 -0.013   -0.000  0.002 -0.014
 C         -0.008 -0.005 -0.008   -0.063 -0.013 -0.018    0.002  0.008 -0.006
 C          0.017  0.004  0.020   -0.057 -0.026 -0.015   -0.006  0.006  0.005
 C         -0.019  0.004 -0.012   -0.026 -0.053 -0.009   -0.001  0.004  0.014
 N          0.014  0.012  0.012    0.062  0.016 -0.055    0.003 -0.012  0.001
 H         -0.187  0.639 -0.024    0.226  0.078  0.022   -0.210  0.654 -0.029
 H          0.023  0.023  0.010    0.202  0.105  0.294    0.051  0.022  0.035
 H         -0.005 -0.007 -0.010    0.378  0.077  0.402    0.009  0.005 -0.006
 H         -0.000 -0.010  0.006    0.336  0.200  0.392   -0.014 -0.003  0.001
 H         -0.090 -0.016 -0.064    0.214  0.063  0.296   -0.052 -0.015 -0.036
 C         -0.062  0.149 -0.012   -0.016 -0.006 -0.013    0.019 -0.058  0.003
 H          0.291 -0.627  0.048    0.149  0.053  0.030   -0.223  0.678 -0.030
 TransDip   0.047 -0.018 -0.019    0.402  0.141  0.177   -0.086  0.258 -0.012

 Mode:                13                     14                     15
 Frequency:       811.63                 822.55                 847.69
 Force Cnst:      0.7291                 0.7272                 0.5347
 Red. Mass:       1.8784                 1.8243                 1.2628
 IR Active:          YES                    YES                    YES
 IR Intens:        5.322                  1.262                 68.684
 Raman Active:       YES                    YES                    YES
               X      Y      Z        X      Y      Z        X      Y      Z
 C         -0.005  0.013 -0.000    0.020  0.007 -0.012   -0.035 -0.011  0.007
 C         -0.008 -0.035 -0.132   -0.029 -0.088 -0.094    0.001 -0.054 -0.020
 C          0.014  0.091 -0.073    0.044  0.004 -0.019    0.037  0.006  0.005
 C         -0.068  0.071  0.064    0.034  0.025 -0.016    0.034  0.014 -0.001
 C          0.026 -0.011  0.140   -0.070  0.043 -0.094   -0.029  0.044 -0.027
 N          0.031 -0.097  0.001   -0.022 -0.000  0.173   -0.095 -0.028  0.019
 H          0.070 -0.138  0.008   -0.583 -0.197 -0.042    0.782  0.253  0.047
 H          0.470  0.123  0.405    0.454  0.161  0.164    0.267  0.084  0.118
 H          0.146  0.096  0.026    0.011  0.096  0.075   -0.178  0.020 -0.128
 H         -0.181 -0.011 -0.040    0.054 -0.063  0.084   -0.111 -0.127 -0.104
 H         -0.460 -0.223 -0.407    0.433  0.140  0.143    0.258  0.102  0.116
 C         -0.002  0.003 -0.000    0.010  0.003  0.002    0.004  0.002  0.006
 H          0.031 -0.072  0.005   -0.170 -0.059 -0.044    0.161  0.052  0.045
 TransDip   0.023 -0.070  0.003    0.006  0.001  0.036    0.250  0.078 -0.044

 Mode:                16                     17                     18
 Frequency:       868.95                 877.75                 990.49
 Force Cnst:      0.7715                 0.6944                 0.9505
 Red. Mass:       1.7341                 1.5296                 1.6444
 IR Active:          YES                    YES                    YES
 IR Intens:        2.379                  0.045                  5.192
 Raman Active:       YES                    YES                    YES
               X      Y      Z        X      Y      Z        X      Y      Z
 C         -0.013 -0.005 -0.002   -0.001  0.002 -0.000   -0.015 -0.005 -0.005
 C          0.083 -0.072  0.028   -0.059  0.008 -0.020    0.004  0.087 -0.039
 C         -0.018 -0.002 -0.105    0.045 -0.028  0.117    0.012 -0.114  0.026
 C         -0.008 -0.007 -0.081   -0.020 -0.064 -0.127   -0.059  0.102  0.013
 C          0.014  0.100  0.014    0.047  0.058  0.021    0.056 -0.071 -0.029
 N         -0.082 -0.021  0.117   -0.009  0.011  0.008   -0.054 -0.013  0.082
 H          0.191  0.064  0.007    0.006 -0.013  0.000    0.104  0.034  0.000
 H         -0.228 -0.164 -0.370    0.201  0.139  0.130    0.078  0.202 -0.253
 H          0.308  0.227  0.409   -0.421 -0.138 -0.344    0.367 -0.452 -0.145
 H          0.284  0.007  0.346    0.477  0.182  0.417    0.037  0.555 -0.198
 H         -0.217 -0.035 -0.345   -0.289 -0.029 -0.201    0.191 -0.144 -0.236
 C          0.009  0.003  0.005    0.000  0.001  0.000    0.001  0.000  0.007
 H          0.016  0.006  0.007    0.001 -0.009  0.000    0.005  0.002  0.008
 TransDip   0.046  0.013 -0.013    0.001  0.007  0.000    0.015 -0.001 -0.071

 Mode:                19                     20                     21
 Frequency:      1050.75                1070.95                1085.37
 Force Cnst:      2.5831                 2.1610                 0.8930
 Red. Mass:       3.9710                 3.1979                 1.2866
 IR Active:          YES                    YES                    YES
 IR Intens:        6.466                 54.622                 11.479
 Raman Active:       YES                    YES                    YES
               X      Y      Z        X      Y      Z        X      Y      Z
 C          0.002 -0.005  0.000   -0.005 -0.002 -0.001    0.001 -0.003  0.000
 C          0.025 -0.222  0.068   -0.026  0.226 -0.062    0.072 -0.062 -0.030
 C          0.134  0.133 -0.085   -0.060  0.173 -0.009   -0.026  0.004  0.021
 C         -0.190  0.041  0.074    0.049 -0.175  0.013    0.020  0.017 -0.023
 C          0.109 -0.198 -0.042    0.115 -0.206 -0.037   -0.022 -0.091  0.039
 N         -0.077  0.241 -0.015   -0.083 -0.019  0.098   -0.016  0.046 -0.002
 H         -0.024  0.077 -0.003    0.069  0.023  0.002   -0.001  0.006 -0.000
 H         -0.130 -0.370  0.220    0.046  0.358 -0.272    0.229  0.121 -0.313
 H         -0.092  0.015 -0.401   -0.217  0.362  0.095   -0.368  0.361  0.239
 H          0.058  0.118  0.394    0.031 -0.412  0.148    0.096  0.483 -0.289
 H          0.319 -0.241 -0.177    0.262 -0.295 -0.242   -0.264 -0.006  0.303
 C         -0.001  0.005 -0.000    0.011  0.004  0.004   -0.000  0.001  0.000
 H          0.003 -0.011  0.000   -0.020 -0.007 -0.005    0.000 -0.000  0.000
 TransDip  -0.024  0.078 -0.004    0.187  0.053 -0.135   -0.033  0.103 -0.007

 Mode:                22                     23                     24
 Frequency:      1140.93                1286.77                1382.59
 Force Cnst:      1.2320                 1.2449                 3.2059
 Red. Mass:       1.6063                 1.2761                 2.8465
 IR Active:          YES                    YES                    YES
 IR Intens:        8.773                  0.444                118.348
 Raman Active:       YES                    YES                    YES
               X      Y      Z        X      Y      Z        X      Y      Z
 C         -0.001 -0.000 -0.002    0.000 -0.001  0.000   -0.008 -0.003 -0.010
 C         -0.048  0.028  0.011    0.034  0.054 -0.059   -0.063  0.121  0.012
 C          0.043  0.104 -0.074    0.024 -0.060 -0.006    0.148 -0.186 -0.082
 C          0.099 -0.067 -0.064    0.016 -0.062  0.012    0.014  0.227 -0.105
 C         -0.023 -0.049  0.015   -0.062  0.030  0.054    0.019 -0.132  0.027
 N         -0.058 -0.015  0.079   -0.008  0.024 -0.001   -0.024 -0.005  0.050
 H          0.018  0.006 -0.001   -0.000 -0.000 -0.000    0.025  0.008 -0.012
 H         -0.245 -0.211  0.403   -0.257 -0.290  0.433   -0.247 -0.065  0.290
 H          0.327 -0.176 -0.257   -0.249  0.235  0.179   -0.337  0.321  0.222
 H          0.170  0.303 -0.285    0.072  0.319 -0.214   -0.094 -0.432  0.267
 H         -0.340  0.070  0.390    0.392 -0.130 -0.407   -0.249 -0.060  0.291
 C          0.004  0.002  0.002    0.000 -0.000  0.000   -0.007 -0.002  0.009
 H         -0.007 -0.003 -0.001   -0.001  0.003 -0.000    0.001  0.001  0.015
 TransDip   0.080  0.023 -0.044    0.006 -0.020  0.001   -0.284 -0.082  0.185

 Mode:                25                     26                     27
 Frequency:      1444.85                1512.73                1904.97
 Force Cnst:      3.5369                 4.8712                 9.0976
 Red. Mass:       2.8756                 3.6130                 4.2550
 IR Active:          YES                    YES                    YES
 IR Intens:       20.047                  3.117                 84.786
 Raman Active:       YES                    YES                    YES
               X      Y      Z        X      Y      Z        X      Y      Z
 C          0.006  0.002  0.003   -0.001  0.004 -0.000   -0.132 -0.027  0.355
 C         -0.162 -0.040  0.181   -0.140  0.059  0.114    0.002  0.004  0.000
 C          0.094  0.034 -0.105    0.207 -0.037 -0.172    0.006 -0.010 -0.002
 C          0.101  0.017 -0.105   -0.151 -0.134  0.182   -0.001  0.011 -0.003
 C         -0.161 -0.044  0.181    0.082  0.118 -0.123    0.004 -0.002  0.001
 N          0.046  0.012 -0.053    0.038 -0.115  0.006   -0.027 -0.009  0.000
 H         -0.036 -0.012  0.003    0.001 -0.003  0.000   -0.179 -0.033  0.558
 H          0.207  0.412 -0.412   -0.009  0.282 -0.183   -0.006 -0.003  0.010
 H          0.123  0.035 -0.133   -0.273  0.440  0.034   -0.011 -0.000  0.001
 H          0.125  0.025 -0.132   -0.032  0.514 -0.092   -0.009 -0.007  0.001
 H          0.422 -0.254 -0.370   -0.158  0.249  0.147   -0.007 -0.001  0.009
 C         -0.002 -0.001 -0.006   -0.000  0.000 -0.000    0.153  0.034 -0.354
 H          0.008  0.003 -0.004    0.002 -0.006  0.000    0.223  0.048 -0.554
 TransDip  -0.106 -0.029  0.092   -0.016  0.054 -0.004    0.249  0.073 -0.141

 Mode:                28                     29                     30
 Frequency:      3233.49                3244.63                3264.96
 Force Cnst:      6.7027                 6.7675                 6.8948
 Red. Mass:       1.0881                 1.0911                 1.0978
 IR Active:          YES                    YES                    YES
 IR Intens:        2.444                  9.255                  6.003
 Raman Active:       YES                    YES                    YES
               X      Y      Z        X      Y      Z        X      Y      Z
 C         -0.000  0.000  0.000   -0.000 -0.000  0.000    0.000 -0.000  0.000
 C         -0.010  0.017  0.003   -0.014  0.022  0.005    0.039 -0.053 -0.019
 C         -0.025 -0.043  0.036   -0.019 -0.038  0.029   -0.014 -0.017  0.017
 C          0.041 -0.020 -0.029   -0.044  0.025  0.030    0.012 -0.003 -0.010
 C         -0.002  0.015 -0.004    0.002 -0.026  0.008   -0.001 -0.047  0.019
 N         -0.000  0.000 -0.000    0.000 -0.000  0.000   -0.000  0.001 -0.000
 H          0.000  0.000 -0.000    0.000  0.000 -0.001    0.000 -0.001  0.000
 H          0.132 -0.200 -0.059    0.176 -0.262 -0.077   -0.411  0.606  0.185
 H          0.281  0.506 -0.404    0.225  0.415 -0.326    0.114  0.198 -0.160
 H         -0.475  0.253  0.319    0.504 -0.274 -0.336   -0.123  0.062  0.083
 H          0.006 -0.194  0.070   -0.008  0.320 -0.115   -0.010  0.529 -0.195
 C          0.000 -0.000 -0.000    0.000  0.000 -0.000   -0.000  0.000 -0.000
 H          0.000 -0.000 -0.000    0.000  0.000 -0.001    0.000 -0.000  0.000
 TransDip   0.011 -0.048  0.007   -0.071 -0.015  0.065    0.017 -0.076  0.008

 Mode:                31                     32                     33
 Frequency:      3270.35                3402.29                3481.65
 Force Cnst:      6.9622                 7.4273                 8.4336
 Red. Mass:       1.1049                 1.0890                 1.1808
 IR Active:          YES                    YES                    YES
 IR Intens:        2.147                 84.057                  5.998
 Raman Active:       YES                    YES                    YES
               X      Y      Z        X      Y      Z        X      Y      Z
 C         -0.000 -0.000  0.000    0.007 -0.001 -0.076   -0.014 -0.001  0.072
 C         -0.027  0.037  0.012   -0.000  0.000  0.000   -0.000  0.000 -0.000
 C          0.012  0.020 -0.017   -0.000  0.000  0.000    0.000 -0.000 -0.000
 C          0.027 -0.013 -0.019   -0.000 -0.000  0.000    0.000  0.000 -0.000
 C         -0.001 -0.062  0.024    0.000 -0.000  0.000    0.000 -0.000 -0.000
 N         -0.001 -0.000  0.001   -0.000 -0.000  0.000   -0.001 -0.000 -0.000
 H          0.000 -0.000 -0.002   -0.045  0.023  0.839    0.021 -0.016 -0.515
 H          0.277 -0.407 -0.124    0.001 -0.001 -0.001    0.000  0.000  0.000
 H         -0.115 -0.207  0.164    0.000  0.000 -0.000   -0.000 -0.000  0.000
 H         -0.275  0.145  0.183    0.000 -0.000 -0.000   -0.001  0.000  0.000
 H         -0.012  0.677 -0.249   -0.000  0.002 -0.001    0.000 -0.000  0.000
 C          0.000  0.000  0.000    0.008  0.001 -0.038    0.030  0.005 -0.097
 H          0.000 -0.000 -0.001   -0.130 -0.019  0.518   -0.197 -0.028  0.824
 TransDip   0.044 -0.000 -0.017   -0.078 -0.012  0.283   -0.004  0.002  0.078

 STANDARD THERMODYNAMIC QUANTITIES AT   298.15 K  AND     1.00 ATM

   This Molecule has  1 Imaginary Frequencies
   Zero point vibrational energy:       59.595 kcal/mol

   Atom    1 Element C  Has Mass   12.00000
   Atom    2 Element C  Has Mass   12.00000
   Atom    3 Element C  Has Mass   12.00000
   Atom    4 Element C  Has Mass   12.00000
   Atom    5 Element C  Has Mass   12.00000
   Atom    6 Element N  Has Mass   14.00307
   Atom    7 Element H  Has Mass    1.00783
   Atom    8 Element H  Has Mass    1.00783
   Atom    9 Element H  Has Mass    1.00783
   Atom   10 Element H  Has Mass    1.00783
   Atom   11 Element H  Has Mass    1.00783
   Atom   12 Element C  Has Mass   12.00000
   Atom   13 Element H  Has Mass    1.00783
   Molecular Mass:    92.050050 amu
   Principal axes and moments of inertia in amu*Bohr^2:
                             1           2           3
    Eigenvalues --      248.85847  1027.36907  1175.90237
          X               0.83924    -0.31036     0.44650
          Y               0.24635     0.94903     0.19663
          Z              -0.48477    -0.05502     0.87291
   Rotational Symmetry Number is   1
   The Molecule is an Asymmetric Top
   Translational Enthalpy:        0.889 kcal/mol
   Rotational Enthalpy:           0.889 kcal/mol
   Vibrational Enthalpy:         62.485 kcal/mol
   gas constant (RT):             0.592 kcal/mol
   Translational Entropy:        39.471  cal/mol.K
   Rotational Entropy:           27.199  cal/mol.K
   Vibrational Entropy:          19.507  cal/mol.K

   Total Enthalpy:               64.855 kcal/mol
   Total Entropy:                86.177  cal/mol.K
Archival summary:
1\1\c8-73\FREQ\ProcedureUnspecified\6-31+G**\166(2)\hpark21\WedMar201:36:002022WedMar201:36:002022\0\\#,FREQ,ProcedureUnspecified,6-31+G**,\\0,2\N\C,1,1.38739\H,2,1.08092,1,120.592\C,2,1.37424,1,109.053,3,-174.622,0\H,4,1.08272,2,126.779,1,170.422,0\C,1,1.38754,2,107.812,3,-176.761,0\H,6,1.08091,1,120.594,2,176.686,0\C,6,1.37421,1,109.064,2,-8.62165,0\H,8,1.08275,6,126.808,1,-170.536,0\C,1,2.14938,2,108.343,3,-59.7987,0\H,10,1.06975,1,91.3829,2,-57.552,0\C,10,1.22963,1,112.839,2,122.484,0\H,12,1.06779,10,167.495,1,-0.0638079,0\\\@

 Total job time:  575.19s(wall), 516.25s(cpu) 
 Wed Mar  2 01:36:00 2022

        *************************************************************
        *                                                           *
        *  Thank you very much for using Q-Chem.  Have a nice day.  *
        *                                                           *
        *************************************************************


