13
image # 1 Energy = -286.87239
C 1.35156   0.63146   -0.82133  
C -0.04582  -1.12802  0.25439   
C -1.26573  -1.14730  0.88410   
C -1.77812  0.18745   0.87446   
C -0.85130  0.97480   0.23925   
N 0.21305   0.17250   -0.14249  
H 1.32272   1.70637   -1.01870  
H 0.66848   -1.91065  0.04632   
H -1.74320  -2.02079  1.30768   
H -2.71939  0.52453   1.28733   
H -0.84232  2.03288   0.01941   
C 2.37854   -0.09867  -1.20853  
H 3.31152   0.07544   -1.72189  
13
image # 2 Energy = -286.86391
C 1.43961   0.63802   -0.80829  
C -0.07460  -1.09654  0.25053   
C -1.27877  -1.14848  0.90450   
C -1.82836  0.17009   0.90223   
C -0.93463  0.98855   0.24326   
N 0.16857   0.20417   -0.20558  
H 1.50770   1.72439   -0.98526  
H 0.66497   -1.85915  0.03146   
H -1.71648  -2.03235  1.33831   
H -2.77092  0.48145   1.33153   
H -0.97018  2.04367   0.02488   
C 2.43579   -0.15280  -1.24592  
H 3.35931   -0.00761  -1.79346  
13
image # 3 Energy = -286.84453
C 1.54197   0.62438   -0.79530  
C -0.08920  -1.05943  0.23453   
C -1.28117  -1.14220  0.91889   
C -1.86186  0.16127   0.92050   
C -0.99643  0.99407   0.24066   
N 0.09599   0.22871   -0.26247  
H 1.67902   1.72147   -0.92228  
H 0.65678   -1.80574  0.01391   
H -1.68726  -2.04176  1.36589   
H -2.81543  0.44208   1.37097   
H -1.08772  2.05396   0.02827   
C 2.45954   -0.18531  -1.27640  
H 3.39180   -0.07653  -1.86607  
13
image # 4 Energy = -286.82923
C 1.57429   0.61024   -0.76835  
C -0.10780  -1.00596  0.18464   
C -1.25636  -1.12888  0.92811   
C -1.87944  0.16067   0.93036   
C -1.04650  1.01102   0.20624   
N 0.07292   0.27386   -0.30550  
H 1.90543   1.66606   -0.76582  
H 0.64472   -1.72973  -0.01956  
H -1.63046  -2.04594  1.40110   
H -2.85541  0.38297   1.41100   
H -1.25464  2.05956   0.02457   
C 2.46491   -0.20834  -1.33129  
H 3.38273   -0.16794  -1.94395  
13
image # 5 Energy = -286.81803
C 1.61596   0.59744   -0.75144  
C -0.12249  -0.96136  0.14738   
C -1.23819  -1.11272  0.92904   
C -1.89297  0.15672   0.93487   
C -1.10577  1.03197   0.19395   
N 0.05853   0.32115   -0.33695  
H 2.09796   1.58767   -0.57742  
H 0.64704   -1.67023  -0.06512  
H -1.56316  -2.03188  1.42360   
H -2.86628  0.33119   1.43037   
H -1.39738  2.06479   0.01033   
C 2.43566   -0.23182  -1.38794  
H 3.35307   -0.23335  -2.01497  
13
image # 6 Energy = -286.80594
C 1.65240   0.59713   -0.72807  
C -0.12431  -0.91290  0.11040   
C -1.20656  -1.09433  0.91571   
C -1.89899  0.15168   0.93233   
C -1.15886  1.06384   0.18382   
N 0.05242   0.38400   -0.35910  
H 2.28793   1.44622   -0.32651  
H 0.65727   -1.60658  -0.12630  
H -1.47854  -2.00878  1.44238   
H -2.87047  0.27993   1.44151   
H -1.54474  2.06406   -0.01461  
C 2.37374   -0.23799  -1.46612  
H 3.29124   -0.28851  -2.08791  
13
image # 7 Energy = -286.79648
C 1.69747   0.61295   -0.68763  
C -0.09997  -0.85919  0.07888   
C -1.17204  -1.08150  0.89911   
C -1.89594  0.15232   0.92361   
C -1.20243  1.09782   0.18736   
N 0.04863   0.44850   -0.36376  
H 2.43212   1.20890   -0.03367  
H 0.67754   -1.54024  -0.20257  
H -1.37811  -1.97629  1.44978   
H -2.86335  0.23606   1.43405   
H -1.67352  2.05538   -0.05842  
C 2.28000   -0.18584  -1.56860  
H 3.19347   -0.33035  -2.16062  
13
image # 8 Energy = -286.78531
C 1.75052   0.61581   -0.60675  
C -0.06078  -0.80802  0.07058   
C -1.12759  -1.05490  0.87790   
C -1.88249  0.14811   0.91689   
C -1.21996  1.12783   0.19979   
N 0.03975   0.50452   -0.35500  
H 2.48019   0.86039   0.24542   
H 0.70528   -1.47026  -0.28317  
H -1.27630  -1.95535  1.44904   
H -2.85719  0.20871   1.40351   
H -1.74751  2.03351   -0.12149  
C 2.19293   -0.01783  -1.66974  
H 3.05976   -0.34896  -2.24817  
13
image # 9 Energy = -286.75963
C 1.85790   0.57073   -0.54442  
C -0.05388  -0.77393  0.07053   
C -1.10527  -1.03916  0.88449   
C -1.89387  0.14835   0.93213   
C -1.24125  1.13260   0.21597   
N -0.01643  0.54741   -0.36296  
H 2.49032   0.55970   0.37146   
H 0.69909   -1.40774  -0.33399  
H -1.23148  -1.95532  1.44054   
H -2.88152  0.19317   1.39283   
H -1.76855  2.02557   -0.14058  
C 2.24310   0.14496   -1.69214  
H 2.97133   -0.30482  -2.37462  
13
image # 10 Energy = -286.75554
C 2.01091   0.50743   -0.54108  
C -0.08883  -0.72417  0.05789   
C -1.12665  -1.03126  0.90004   
C -1.92010  0.12699   0.96921   
C -1.27762  1.13593   0.21608   
N -0.10983  0.59346   -0.38064  
H 2.56357   0.42179   0.41006   
H 0.67416   -1.36038  -0.37059  
H -1.22376  -1.95521  1.43536   
H -2.91462  0.17309   1.42152   
H -1.81284  2.03616   -0.11163  
C 2.35550   0.17805   -1.68162  
H 2.94871   -0.26341  -2.49051  
13
image # 11 Energy = -286.78535
C 2.19148   0.43607   -0.54297  
C -0.13011  -0.67355  0.03655   
C -1.15671  -1.02283  0.91262   
C -1.95552  0.10438   1.01248   
C -1.32519  1.12743   0.20968   
N -0.20252  0.64374   -0.39633  
H 2.63220   0.34253   0.41710   
H 0.63839   -1.30765  -0.39638  
H -1.22891  -1.95913  1.43179   
H -2.94201  0.15449   1.46373   
H -1.85420  2.04783   -0.06977  
C 2.48696   0.16860   -1.68023  
H 2.93030   -0.22470  -2.59175  
13
image # 12 Energy = -286.80772
C 2.36523   0.36018   -0.53709  
C -0.15763  -0.61992  0.01707   
C -1.16786  -1.01011  0.91979   
C -1.98503  0.08682   1.03971   
C -1.37808  1.11921   0.20173   
N -0.28108  0.69280   -0.40668  
H 2.68012   0.21763   0.47756   
H 0.61982   -1.24208  -0.42120  
H -1.22285  -1.96360  1.42169   
H -2.96259  0.13875   1.50367   
H -1.88373  2.05629   -0.04117  
C 2.59415   0.17934   -1.70824  
H 2.86592   -0.17317  -2.68569  
13
image # 13 Energy = -286.82008
C 2.49722   0.31287   -0.54681  
C -0.17570  -0.59764  0.00484   
C -1.18156  -1.01066  0.93074   
C -2.00564  0.07266   1.05466   
C -1.42377  1.11082   0.19451   
N -0.33206  0.70472   -0.42107  
H 2.67884   0.20323   0.48960   
H 0.60859   -1.20836  -0.42228  
H -1.24004  -1.97334  1.41223   
H -2.97413  0.13977   1.54407   
H -1.87668  2.06970   -0.01485  
C 2.68174   0.16769   -1.72244  
H 2.82868   -0.14298  -2.73248  
13
image # 14 Energy = -286.82288
C 2.60163   0.30795   -0.54484  
C -0.18478  -0.56094  -0.01454  
C -1.18959  -0.99640  0.92164   
C -2.03322  0.07156   1.04961   
C -1.47594  1.11409   0.20103   
N -0.36505  0.73328   -0.42782  
H 2.77727   0.13899   0.49591   
H 0.60784   -1.15740  -0.44294  
H -1.21713  -1.95538  1.40297   
H -2.97969  0.11747   1.58132   
H -1.94715  2.07494   0.00423   
C 2.68815   0.12070   -1.72471  
H 2.80161   -0.15212  -2.73915  
13
image # 15 Energy = -286.82631
C 2.73600   0.22401   -0.52850  
C -0.21294  -0.49730  -0.03247  
C -1.18854  -0.96587  0.90760   
C -2.06615  0.06788   1.06499   
C -1.55375  1.13684   0.22305   
N -0.42704  0.78946   -0.42636  
H 2.90999   0.00481   0.49975   
H 0.58917   -1.07793  -0.47969  
H -1.17982  -1.93387  1.39819   
H -3.00385  0.07580   1.60993   
H -2.05679  2.07422   0.03795   
C 2.74028   0.07108   -1.73016  
H 2.79426   -0.09480  -2.78614  
13
image # 16 Energy = -286.82925
C 2.85656   0.09791   -0.53581  
C -0.23375  -0.43643  -0.05627  
C -1.19480  -0.93995  0.90628   
C -2.09931  0.06283   1.08123   
C -1.62855  1.14907   0.24954   
N -0.49307  0.85355   -0.42242  
H 3.04349   -0.11022  0.50471   
H 0.56741   -0.99062  -0.50844  
H -1.14183  -1.90671  1.39151   
H -3.02659  0.03033   1.63497   
H -2.17664  2.08473   0.07234   
C 2.79194   0.01837   -1.73830  
H 2.81179   -0.01995  -2.81605  
13
image # 17 Energy = -286.83135
C 2.95784   -0.06043  -0.55326  
C -0.26801  -0.35195  -0.06891  
C -1.18945  -0.91447  0.90760   
C -2.13231  0.04949   1.09631   
C -1.70964  1.17818   0.26414   
N -0.56511  0.91371   -0.41056  
H 3.17717   -0.21851  0.49671   
H 0.56172   -0.90318  -0.53860  
H -1.10206  -1.87722  1.38413   
H -3.05329  -0.01894  1.66065   
H -2.29411  2.08463   0.10990   
C 2.84358   -0.04425  -1.74986  
H 2.84671   0.07208   -2.82007  
13
image # 18 Energy = -286.83173
C 3.04685   -0.22367  -0.56886  
C -0.28148  -0.27586  -0.08498  
C -1.18243  -0.87791  0.90944   
C -2.17083  0.03885   1.10830   
C -1.78603  1.18448   0.27566   
N -0.65090  0.97856   -0.39600  
H 3.30043   -0.32514  0.46316   
H 0.55018   -0.79633  -0.55366  
H -1.06196  -1.85328  1.37630   
H -3.07725  -0.06832  1.68747   
H -2.40827  2.08769   0.14632   
C 2.89978   -0.10912  -1.75855  
H 2.89198   0.16032   -2.80258  
13
image # 19 Energy = -286.83034
C 3.12047   -0.37438  -0.59629  
C -0.30137  -0.18730  -0.08381  
C -1.16801  -0.85064  0.91465   
C -2.20725  0.02345   1.11945   
C -1.86007  1.18622   0.28160   
N -0.73048  1.03730   -0.38524  
H 3.39459   -0.46095  0.42746   
H 0.55158   -0.67847  -0.56418  
H -1.01675  -1.82046  1.36160   
H -3.09175  -0.11447  1.70643   
H -2.50958  2.08314   0.17360   
C 2.95703   -0.14453  -1.76052  
H 2.92769   0.22937   -2.76405  
13
image # 20 Energy = -286.83140
C 3.18314   -0.50460  -0.62210  
C -0.31023  -0.11085  -0.07572  
C -1.16171  -0.80374  0.91801   
C -2.21775  -0.00456  1.11776   
C -1.95555  1.20265   0.29136   
N -0.80244  1.10532   -0.38106  
H 3.47109   -0.62513  0.38945   
H 0.56020   -0.54065  -0.56591  
H -0.95830  -1.78237  1.34582   
H -3.10558  -0.16400  1.72325   
H -2.60891  2.05997   0.19372   
C 3.00855   -0.17348  -1.75713  
H 2.95788   0.27882   -2.71756  
13
image # 21 Energy = -286.83092
C 3.23875   -0.60755  -0.63662  
C -0.31298  -0.03369  -0.06942  
C -1.13568  -0.77913  0.91674   
C -2.25235  -0.01378  1.12115   
C -2.03724  1.21397   0.29536   
N -0.87775  1.16868   -0.37629  
H 3.53240   -0.79252  0.35497   
H 0.56856   -0.39155  -0.55615  
H -0.89564  -1.73267  1.32735   
H -3.10373  -0.21382  1.73149   
H -2.70897  2.02882   0.20901   
C 3.05488   -0.20405  -1.75409  
H 2.98067   0.30588   -2.67397  
13
image # 22 Energy = -286.83373
C 3.27945   -0.70710  -0.64997  
C -0.34207  0.05921   -0.04094  
C -1.11494  -0.73169  0.89862   
C -2.25551  -0.01646  1.10611   
C -2.09832  1.18511   0.30259   
N -0.94445  1.21917   -0.37350  
H 3.59582   -0.94036  0.34114   
H 0.57735   -0.24382  -0.54776  
H -0.82732  -1.69372  1.31677   
H -3.10249  -0.26333  1.74114   
H -2.81597  2.00974   0.21722   
C 3.08902   -0.24035  -1.74726  
H 3.00062   0.32519   -2.64659  
13
image # 23 Energy = -286.83520
C 3.34082   -0.77376  -0.65578  
C -0.35980  0.13646   -0.04111  
C -1.08782  -0.69623  0.88689   
C -2.26751  -0.02197  1.10562   
C -2.17812  1.17993   0.31184   
N -1.01032  1.27518   -0.38127  
H 3.63960   -1.10194  0.32232   
H 0.59086   -0.09266  -0.52112  
H -0.76410  -1.64045  1.30216   
H -3.09595  -0.31353  1.74644   
H -2.91778  1.97307   0.22733   
C 3.13454   -0.25571  -1.72640  
H 3.00258   0.30715   -2.63105  
13
image # 24 Energy = -286.83297
C 3.42504   -0.83630  -0.62688  
C -0.37300  0.23085   -0.06262  
C -1.07974  -0.65095  0.88452   
C -2.27397  -0.04647  1.11587   
C -2.23801  1.18665   0.30639   
N -1.09660  1.31929   -0.37767  
H 3.67577   -1.25636  0.28014   
H 0.60699   0.05327   -0.49271  
H -0.70084  -1.58112  1.28783   
H -3.08624  -0.36518  1.74890   
H -3.02619  1.92936   0.23873   
C 3.17943   -0.25449  -1.72553  
H 3.00201   0.25995   -2.60199  
13
image # 25 Energy = -286.83800
C 3.49771   -0.88468  -0.65179  
C -0.40116  0.31791   -0.05983  
C -1.05436  -0.59694  0.87266   
C -2.27946  -0.05042  1.11214   
C -2.31392  1.17142   0.31308   
N -1.17845  1.37205   -0.38082  
H 3.73737   -1.40081  0.25065   
H 0.59538   0.20845   -0.47759  
H -0.63336  -1.51030  1.27303   
H -3.07204  -0.42094  1.74955   
H -3.13792  1.87621   0.24857   
C 3.23317   -0.29973  -1.67210  
H 3.00704   0.21777   -2.57756  
