
Running Job 1 of 1 optimize.in
qchem optimize.in_21173.0 ./optimize.d/ 1
/home/leeping/opt/qchem/5.0.2-openmp/exe/qcprog.exe_s optimize.in_21173.0 ./optimize.d/
Check license passed

                  Welcome to Q-Chem
     A Quantum Leap Into The Future Of Chemistry


 Q-Chem 5.0, Q-Chem, Inc., Pleasanton, CA (2017)

 Yihan Shao,  Zhengting Gan,  E. Epifanovsky,  A. T. B. Gilbert,  M. Wormit,  
 J. Kussmann,  A. W. Lange,  A. Behn,  Jia Deng,  Xintian Feng,  D. Ghosh,  
 M. Goldey,  P. R. Horn,  L. D. Jacobson,  I. Kaliman,  T. Kus,  A. Landau,  
 Jie Liu,  E. I. Proynov,  R. M. Richard,  R. P. Steele,  E. J. Sundstrom,  
 H. L. Woodcock III,  P. M. Zimmerman,  D. Zuev,  B. Albrecht,  E. Alguire,  
 S. A. Baeppler,  D. Barton,  Z. Benda,  Y. A. Bernard,  E. J. Berquist,  
 K. B. Bravaya,  H. Burton,  D. Casanova,  Chun-Min Chang,  Yunqing Chen,  
 A. Chien,  K. D. Closser,  M. P. Coons,  S. Dasgupta,  A. L. Dempwolff,  
 M. Diedenhofen,  Hainam Do,  R. G. Edgar,  Po-Tung Fang,  S. Fatehi,  
 Qingguo Feng,  J. Fosso-Tande,  Qinghui Ge,  A. Ghysels,  G. Gidofalvi,  
 J. Gomes,  J. Gonthier,  A. Gunina,  M. W. D. Hanson-Heine,  
 P. H. P. Harbach,  A. W. Hauser,  J. E. Herr,  E. G. Hohenstein,  
 Z. C. Holden,  Kerwin Hui,  T.-C. Jagau,  Hyunjun Ji,  B. Kaduk,  
 K. Khistyaev,  Jaehoon Kim,  P. Klunzinger,  K. Koh,  D. Kosenkov,  
 L. Koulias,  T. Kowalczyk,  C. M. Krauter,  A. Kunitsa,  Ka Un Lao,  
 A. Laurent,  K. V. Lawler,  Joonho Lee,  D. Lefrancois,  S. Lehtola,  
 D. S. Levine,  Yi-Pei Li,  You-Sheng Lin,  Fenglai Liu,  E. Livshits,  
 A. Luenser,  P. Manohar,  E. Mansoor,  S. F. Manzer,  Shan-Ping Mao,  
 Yuezhi Mao,  N. Mardirossian,  A. V. Marenich,  T. Markovich,  
 L. A. Martinez-Martinez,  S. A. Maurer,  N. J. Mayhall,  S. C. McKenzie,  
 J.-M. Mewes,  A. F. Morrison,  J. W. Mullinax,  K. Nanda,  
 T. S. Nguyen-Beck,  R. Olivares-Amaya,  J. A. Parkhill,  T. M. Perrine,  
 F. Plasser,  S. Prager,  A. Prociuk,  E. Ramos,  D. R. Rehn,  F. Rob,  
 M. Schneider,  N. Sergueev,  S. M. Sharada,  S. Sharma,  D. W. Small,  
 T. Stauch,  T. Stein,  Yu-Chuan Su,  A. J. W. Thom,  A. Tkatchenko,  
 T. Tsuchimochi,  L. Vogt,  O. Vydrov,  M. A. Watson,  J. Wenzel,  
 M. de Wergifosse,  T. A. Wesolowski,  A. White,  J. Witte,  A. Yamada,  
 Jun Yang,  K. Yao,  S. Yeganeh,  S. R. Yost,  Zhi-Qiang You,  A. Zech,  
 Igor Ying Zhang,  Xing Zhang,  Yan Zhao,  Ying Zhu,  B. R. Brooks,  
 G. K. L. Chan,  C. J. Cramer,  M. S. Gordon,  W. J. Hehre,  A. Klamt,  
 M. W. Schmidt,  C. D. Sherrill,  D. G. Truhlar,  A. Aspuru-Guzik,  R. Baer,  
 A. T. Bell,  N. A. Besley,  Jeng-Da Chai,  R. A. DiStasio Jr.,  A. Dreuw,  
 B. D. Dunietz,  T. R. Furlani,  Chao-Ping Hsu,  Yousung Jung,  Jing Kong,  
 D. S. Lambrecht,  WanZhen Liang,  C. Ochsenfeld,  V. A. Rassolov,  
 L. V. Slipchenko,  J. E. Subotnik,  T. Van Voorhis,  J. M. Herbert,  
 A. I. Krylov,  P. M. W. Gill,  M. Head-Gordon

 Contributors to earlier versions of Q-Chem not listed above: 
 R. D. Adamson,  B. Austin,  J. Baker,  G. J. O. Beran,  K. Brandhorst,  
 S. T. Brown,  E. F. C. Byrd,  A. K. Chakraborty,  C.-L. Cheng,  
 Siu Hung Chien,  D. M. Chipman,  D. L. Crittenden,  H. Dachsel,  
 R. J. Doerksen,  A. D. Dutoi,  L. Fusti-Molnar,  W. A. Goddard III,  
 A. Golubeva-Zadorozhnaya,  S. R. Gwaltney,  G. Hawkins,  A. Heyden,  
 S. Hirata,  G. Kedziora,  F. J. Keil,  C. Kelley,  Jihan Kim,  R. A. King,  
 R. Z. Khaliullin,  P. P. Korambath,  W. Kurlancheek,  A. M. Lee,  M. S. Lee,  
 S. V. Levchenko,  Ching Yeh Lin,  D. Liotard,  R. C. Lochan,  I. Lotan,  
 P. E. Maslen,  N. Nair,  D. P. O'Neill,  D. Neuhauser,  E. Neuscamman,  
 C. M. Oana,  R. Olson,  B. Peters,  R. Peverati,  P. A. Pieniazek,  
 Y. M. Rhee,  J. Ritchie,  M. A. Rohrdanz,  E. Rosta,  N. J. Russ,  
 H. F. Schaefer III,  N. E. Schultz,  N. Shenvi,  A. C. Simmonett,  A. Sodt,  
 D. Stuck,  K. S. Thanthiriwatte,  V. Vanovschi,  Tao Wang,  A. Warshel,  
 C. F. Williams,  Q. Wu,  X. Xu,  W. Zhang

 Please cite Q-Chem as follows:
 Y. Shao et al., Mol. Phys. 113, 184-215 (2015)
 DOI: 10.1080/00268976.2014.952696

 Q-Chem 5.0.2 for Intel X86 EM64T Linux

 Parts of Q-Chem use Armadillo 5.200.1 (Boston Tea Smuggler).
 http://arma.sourceforge.net/

 Q-Chem begins on Wed Mar  2 12:36:47 2022  

Host: 
0

     Scratch files written to ./optimize.d//
 Dec517 15110_ 26548  26544 5633   
Processing $rem in /home/leeping/opt/qchem/5.0.2-openmp/config/preferences.
 MEM_STATIC 2000
 MEM_TOTAL  8000
 SYMMETRY   OFF
 SYM_IGNORE TRUE 

Checking the input file for inconsistencies... 	...done.

--------------------------------------------------------------
User input:
--------------------------------------------------------------
$molecule
0 2
C        0.6455232724   -0.6307381018   -0.1578628102
C        2.1508691917   -0.6164544241   -0.0659897120
C        1.6140500978   -1.7879296993   -0.1723049311
C       -1.8195522293    1.1302946111   -0.0187399738
C       -1.1651661912    0.3077349072    1.0464160902
N       -0.1185780605   -0.4222655639    1.0324703093
H        0.1627977157   -0.3273151687   -1.0921254974
H        3.0149516643    0.0186619170    0.0653946067
H        1.6969695952   -2.8638913167   -0.2042568870
H       -2.8840797087    1.2945177200    0.1714752514
H       -1.7040315566    0.3526681359    1.9989322650
C       -1.2834849863    1.7103654072   -1.0743443976
H       -0.3102688045    1.8343515761   -1.5290643137
$end

$rem
method                b3lyp
basis                 6-31g(d)
unrestricted          true
symmetry              off
sym_ignore            true
incdft                false
incfock               0
scf_convergence       8
thresh                14
jobtype               opt
scf_guess             read
scf_algorithm         diis
max_scf_cycles        100
geom_opt_tol_gradient 600
geom_opt_tol_displacement 2400
geom_opt_tol_energy   200
geom_opt_max_cycles   100
$end

--------------------------------------------------------------
 ----------------------------------------------------------------
             Standard Nuclear Orientation (Angstroms)
    I     Atom           X                Y                Z
 ----------------------------------------------------------------
    1      C       0.6455232724    -0.6307381018    -0.1578628102
    2      C       2.1508691917    -0.6164544241    -0.0659897120
    3      C       1.6140500978    -1.7879296993    -0.1723049311
    4      C      -1.8195522293     1.1302946111    -0.0187399738
    5      C      -1.1651661912     0.3077349072     1.0464160902
    6      N      -0.1185780605    -0.4222655639     1.0324703093
    7      H       0.1627977157    -0.3273151687    -1.0921254974
    8      H       3.0149516643     0.0186619170     0.0653946067
    9      H       1.6969695952    -2.8638913167    -0.2042568870
   10      H      -2.8840797087     1.2945177200     0.1714752514
   11      H      -1.7040315566     0.3526681359     1.9989322650
   12      C      -1.2834849863     1.7103654072    -1.0743443976
   13      H      -0.3102688045     1.8343515761    -1.5290643137
 ----------------------------------------------------------------
 Nuclear Repulsion Energy =   247.1314614895 hartrees
 There are       25 alpha and       24 beta electrons
 Requested basis set is 6-31G(d)
 There are 40 shells and 117 basis functions

 Total QAlloc Memory Limit   8000 MB
 Mega-Array Size      1956 MB
 MEM_STATIC part      2000 MB
 A cutoff of  1.0D-14 yielded    770 shell pairs
 There are      6958 function pairs
 
 -------------------------------------------------------
 OpenMP Integral Computing Module                       
 Release: version 1.0, May 2013, Q-Chem Inc. Pittsburgh 
 -------------------------------------------------------
 Integral Job Info:
 Integral job number is                      11
 Integral operator is                         1
 short-range coefficients                     0
 long-range coefficients              100000000
 Omega coefficients                           0
 if combine SR and LR in K                    0
 Integral screening is                        0
 Integral computing path is                   2
 max size of driver memory is            800000
 size of driver memory is                593474
 size of scratch memory is              2361544
 max col of scratch BK array               1296
 max len of scratch array in speh3          155
 max len of scratch index in speh4           18
 max int batch size is                      520
 min int batch size is                       52
 fixed nKL is                                52
 max L of basis functions is                  2
 order of int derivative is                   0
 number of shells is                         40
 number of basis is                         117
 number of cartesian basis is               117
 number of contracted shell pairs           770
 number of primitive shell pairs           3213
 maxK2 (contraction) of shell pair           36
 max number of K2 of shell pair               1
 max number of CS2 of shell pair             85
 max number of PS2 of shell pair            444
 mem total for path MDJ                  527820
 -------------------------------------------------------
 Smallest overlap matrix eigenvalue = 2.27E-03

 Scale SEOQF with 1.000000e-01/1.000000e-01/1.000000e-01

 Standard Electronic Orientation quadrupole field applied
 Nucleus-field energy     =     0.0000000053 hartrees
 Guess MOs from SCF MO coefficient file
 Reading MOs from coefficient file
 Reading MOs from coefficient file
 An unrestricted hybrid HF-DFT SCF calculation will be
 performed using Pulay DIIS extrapolation
 Exchange:     0.2000 Hartree-Fock + 0.0800 Slater + 0.7200 B88
 Correlation:  0.1900 VWN1RPA + 0.8100 LYP
 Using SG-1 standard quadrature grid
 SCF converges when DIIS error is below 1.0E-08
Using Q-Chem read-in guess as SCF_GUESS READ specified.

 using 4 threads for integral computing
 -------------------------------------------------------
 OpenMP Integral computing Module                
 Release: version 1.0, May 2013, Q-Chem Inc. Pittsburgh 
 -------------------------------------------------------
 -------------------------------------------------------
 OpenMP BLAS3 based DFT computing Module                
 Release: version 1.0, May 2013, Q-Chem Inc. Pittsburgh 
 -------------------------------------------------------
 ---------------------------------------
  Cycle       Energy         DIIS Error
 ---------------------------------------
    1    -286.7674702274      1.36E-09
    2    -286.7674702274      2.34E-09 Convergence criterion met
 ---------------------------------------
 <S^2> = 0.7642
 SCF time:  CPU 4.82 s  wall 3.34 s
 SCF   energy in the final basis set = -286.76747023
 Total energy in the final basis set = -286.76747023
 
 --------------------------------------------------------------
 
                    Orbital Energies (a.u.)
 --------------------------------------------------------------
 
 Alpha MOs
 -- Occupied --
-14.324 -10.231 -10.231 -10.218 -10.210 -10.208 -10.204  -0.927
 -0.861  -0.776  -0.662  -0.593  -0.572  -0.542  -0.512  -0.481
 -0.457  -0.419  -0.373  -0.351  -0.307  -0.278  -0.270  -0.249
 -0.217
 -- Virtual --
 -0.044   0.012   0.069   0.111   0.125   0.129   0.139   0.172
  0.179   0.196   0.240   0.249   0.303   0.327   0.362   0.435
  0.487   0.510   0.518   0.535   0.556   0.565   0.577   0.587
  0.606   0.622   0.646   0.657   0.672   0.688   0.730   0.735
  0.836   0.841   0.855   0.869   0.872   0.884   0.902   0.932
  0.950   1.013   1.034   1.066   1.085   1.143   1.197   1.285
  1.322   1.405   1.445   1.459   1.506   1.572   1.573   1.662
  1.679   1.695   1.719   1.737   1.816   1.883   1.904   1.938
  1.997   2.046   2.078   2.118   2.201   2.263   2.318   2.358
  2.382   2.413   2.421   2.441   2.486   2.615   2.670   2.700
  2.819   2.832   2.929   2.978   3.172   3.950   4.051   4.109
  4.182   4.303   4.424   4.492
 
 Beta MOs
 -- Occupied --
-14.324 -10.231 -10.230 -10.211 -10.208 -10.206 -10.203  -0.927
 -0.860  -0.762  -0.653  -0.581  -0.572  -0.537  -0.509  -0.476
 -0.448  -0.412  -0.373  -0.351  -0.303  -0.275  -0.253  -0.236
 -- Virtual --
 -0.077  -0.034   0.013   0.072   0.119   0.126   0.130   0.143
  0.174   0.181   0.198   0.240   0.251   0.307   0.334   0.368
  0.445   0.489   0.512   0.521   0.536   0.564   0.576   0.589
  0.607   0.621   0.631   0.651   0.660   0.674   0.690   0.731
  0.737   0.837   0.843   0.864   0.871   0.874   0.885   0.913
  0.936   0.955   1.022   1.034   1.072   1.087   1.149   1.199
  1.287   1.322   1.407   1.446   1.461   1.517   1.576   1.578
  1.664   1.691   1.710   1.753   1.778   1.825   1.885   1.907
  1.944   2.006   2.057   2.084   2.127   2.205   2.267   2.323
  2.360   2.384   2.415   2.429   2.444   2.492   2.619   2.671
  2.714   2.820   2.839   2.929   2.981   3.178   3.950   4.062
  4.129   4.188   4.303   4.425   4.493
 --------------------------------------------------------------
 
          Ground-State Mulliken Net Atomic Charges

     Atom                 Charge (a.u.)    Spin (a.u.)
  --------------------------------------------------------
      1 C                    -0.020565       0.010353
      2 C                    -0.123173      -0.001152
      3 C                    -0.116385      -0.000303
      4 C                    -0.159445      -0.164827
      5 C                     0.024883       0.078584
      6 N                    -0.337714      -0.020689
      7 H                     0.131404      -0.001884
      8 H                     0.152270      -0.000401
      9 H                     0.153930      -0.000548
     10 H                     0.153389       0.047891
     11 H                     0.138167       0.014466
     12 C                    -0.169744       1.037313
     13 H                     0.172984       0.001196
  --------------------------------------------------------
  Sum of atomic charges =     0.000000
  Sum of spin   charges =     1.000000

 -----------------------------------------------------------------
                    Cartesian Multipole Moments
 -----------------------------------------------------------------
    Charge (ESU x 10^10)
                -0.0000
    Dipole Moment (Debye)
         X       0.5700      Y       0.1614      Z      -0.8837
       Tot       1.0639
    Quadrupole Moments (Debye-Ang)
        XX     -36.0703     XY      -0.2590     YY     -39.3197
        XZ      -2.8255     YZ       1.4347     ZZ     -42.9265
    Octopole Moments (Debye-Ang^2)
       XXX       3.6235    XXY       3.2016    XYY       8.9935
       YYY     -12.8655    XXZ       4.4290    XYZ      -2.5950
       YYZ      -4.7618    XZZ      -1.7703    YZZ       4.7635
       ZZZ      -9.2805
    Hexadecapole Moments (Debye-Ang^3)
      XXXX    -520.2145   XXXY     165.6761   XXYY    -153.7938
      XYYY     153.8796   YYYY    -335.4306   XXXZ       5.7272
      XXYZ      15.5264   XYYZ      -0.8673   YYYZ      31.2545
      XXZZ    -130.8091   XYZZ      59.9785   YYZZ     -94.7063
      XZZZ       4.3521   YZZZ      31.1965   ZZZZ    -185.6825
 -----------------------------------------------------------------
 Calculating analytic gradient of the SCF energy
 Gradient of SCF Energy
            1           2           3           4           5           6
    1  -0.0000646   0.0001430   0.0001924   0.0000003  -0.0002564  -0.0001356
    2   0.0002879  -0.0002466  -0.0002286   0.0002032  -0.0002650  -0.0000181
    3  -0.0000309  -0.0001190  -0.0000010   0.0003631  -0.0000267  -0.0003397
            7           8           9          10          11          12
    1  -0.0000692   0.0000477  -0.0000666   0.0004146  -0.0000428   0.0001682
    2   0.0001468   0.0001624  -0.0000143  -0.0002779   0.0002519  -0.0000241
    3   0.0002981  -0.0000174   0.0000638  -0.0000890  -0.0000227  -0.0002380
           13
    1  -0.0003313
    2   0.0000222
    3   0.0001594
 Max gradient component =       4.146E-04
 RMS gradient           =       1.904E-04
 Gradient time:  CPU 6.97 s  wall 2.68 s
 Geometry Optimization Parameters
   NAtoms,    NIC,     NZ,  NCons,   NDum,   NFix, NCnnct, MaxDiis
       13      83       0       0       0       0       0       0


** GEOMETRY OPTIMIZATION IN DELOCALIZED INTERNAL COORDINATES **
   Searching for a Minimum

   Optimization Cycle:   1

                       Coordinates (Angstroms)
     ATOM                X               Y               Z
      1  C         0.6455232724   -0.6307381018   -0.1578628102
      2  C         2.1508691917   -0.6164544241   -0.0659897120
      3  C         1.6140500978   -1.7879296993   -0.1723049311
      4  C        -1.8195522293    1.1302946111   -0.0187399738
      5  C        -1.1651661912    0.3077349072    1.0464160902
      6  N        -0.1185780605   -0.4222655639    1.0324703093
      7  H         0.1627977157   -0.3273151687   -1.0921254974
      8  H         3.0149516643    0.0186619170    0.0653946067
      9  H         1.6969695952   -2.8638913167   -0.2042568870
     10  H        -2.8840797087    1.2945177200    0.1714752514
     11  H        -1.7040315566    0.3526681359    1.9989322650
     12  C        -1.2834849863    1.7103654072   -1.0743443976
     13  H        -0.3102688045    1.8343515761   -1.5290643137
   Point Group: c1    Number of degrees of freedom:    33


   Energy is   -286.767470227


 Attempting to Generate Delocalized Internal Coordinates

 33 Hessian modes will be used to form the next step
  Hessian Eigenvalues:
     0.009647    0.011709    0.017233    0.017383    0.018059    0.020538
     0.024944    0.032034    0.033202    0.039032    0.110911    0.144839
     0.156902    0.158708    0.159916    0.159999    0.160000    0.220001
     0.220058    0.250000    0.272065    0.294163    0.327519    0.342073
     0.342974    0.343787    0.358331    0.359455    0.360397    0.410243
     0.558385    0.623343    0.742916

 Minimum Search - Taking Simple RFO Step
 Searching for Lamda that Minimizes Along All modes
 Value Taken    Lamda =  -0.00001490
 Step Taken.  Stepsize is  0.028211

                             Maximum     Tolerance    Cnvgd?
         Gradient           0.000446      0.000600     YES
         Displacement       0.015483      0.002400      NO
         Energy change     *********      0.000002      NO


 New Cartesian Coordinates Obtained by Inverse Iteration

 Displacement from previous Coordinates is:  0.063215
 ----------------------------------------------------------------
             Standard Nuclear Orientation (Angstroms)
    I     Atom           X                Y                Z
 ----------------------------------------------------------------
    1      C       0.6413085743    -0.6361414323    -0.1596217059
    2      C       2.1462310193    -0.6117670990    -0.0674348712
    3      C       1.6169890713    -1.7868273127    -0.1715737870
    4      C      -1.8179928369     1.1333061460    -0.0179305383
    5      C      -1.1668020664     0.3057161372     1.0459127112
    6      N      -0.1221874525    -0.4271021347     1.0311704373
    7      H       0.1569873988    -0.3392727033    -1.0954985072
    8      H       3.0063972057     0.0285715409     0.0627238900
    9      H       1.7072969189    -2.8622315360    -0.2017318611
   10      H      -2.8804610845     1.3102875762     0.1764128985
   11      H      -1.7069061649     0.3467790281     1.9978846843
   12      C      -1.2776257558     1.7115829125    -1.0723171052
   13      H      -0.3032348274     1.8270988771    -1.5279962455
 ----------------------------------------------------------------
 Nuclear Repulsion Energy =   247.1667595988 hartrees
 There are       25 alpha and       24 beta electrons
 Applying Cartesian multipole field
    Component          Value
    ---------          -----
     (2,0,0)        1.00000E-11
     (0,2,0)        2.00000E-11
     (0,0,2)       -3.00000E-11
 Nucleus-field energy     =     0.0000000053 hartrees
 Requested basis set is 6-31G(d)
 There are 40 shells and 117 basis functions
 A cutoff of  1.0D-14 yielded    770 shell pairs
 There are      6958 function pairs
 Smallest overlap matrix eigenvalue = 2.26E-03
 Guess MOs from SCF MO coefficient file
 Reading MOs from coefficient file
 Reading MOs from coefficient file
 An unrestricted hybrid HF-DFT SCF calculation will be
 performed using Pulay DIIS extrapolation
 Exchange:     0.2000 Hartree-Fock + 0.0800 Slater + 0.7200 B88
 Correlation:  0.1900 VWN1RPA + 0.8100 LYP
 Using SG-1 standard quadrature grid
 SCF converges when DIIS error is below 1.0E-08
 Geometry optimization detected.  Setting ReadMinima to 0
 Setting SaveMinima to 0
Using Q-Chem read-in guess as SCF_GUESS READ specified.

 using 4 threads for integral computing
 -------------------------------------------------------
 OpenMP Integral computing Module                
 Release: version 1.0, May 2013, Q-Chem Inc. Pittsburgh 
 -------------------------------------------------------
 -------------------------------------------------------
 OpenMP BLAS3 based DFT computing Module                
 Release: version 1.0, May 2013, Q-Chem Inc. Pittsburgh 
 -------------------------------------------------------
 ---------------------------------------
  Cycle       Energy         DIIS Error
 ---------------------------------------
    1    -286.7670017656      2.14E-04
    2    -286.7674759797      2.17E-05
    3    -286.7674759823      3.42E-05
    4    -286.7674784439      4.51E-06
    5    -286.7674786027      2.50E-06
    6    -286.7674786490      9.56E-07
    7    -286.7674786661      6.33E-07
    8    -286.7674786706      4.08E-07
    9    -286.7674786719      1.20E-07
   10    -286.7674786720      4.73E-08
   11    -286.7674786720      2.54E-08
   12    -286.7674786720      9.19E-09 Convergence criterion met
 ---------------------------------------
 <S^2> = 0.7642
 SCF time:  CPU 28.70 s  wall 17.35 s
 SCF   energy in the final basis set = -286.76747867
 Total energy in the final basis set = -286.76747867
 
 --------------------------------------------------------------
 
                    Orbital Energies (a.u.)
 --------------------------------------------------------------
 
 Alpha MOs
 -- Occupied --
-14.324 -10.231 -10.231 -10.218 -10.210 -10.208 -10.204  -0.927
 -0.861  -0.776  -0.662  -0.592  -0.572  -0.542  -0.512  -0.481
 -0.458  -0.419  -0.373  -0.351  -0.307  -0.278  -0.270  -0.249
 -0.217
 -- Virtual --
 -0.044   0.012   0.069   0.111   0.125   0.129   0.139   0.172
  0.179   0.195   0.240   0.249   0.303   0.327   0.362   0.435
  0.487   0.510   0.518   0.535   0.556   0.565   0.577   0.587
  0.606   0.622   0.646   0.657   0.672   0.688   0.730   0.735
  0.835   0.841   0.855   0.869   0.872   0.884   0.902   0.932
  0.949   1.013   1.034   1.069   1.084   1.142   1.198   1.286
  1.320   1.405   1.445   1.459   1.506   1.571   1.573   1.662
  1.678   1.696   1.717   1.738   1.816   1.883   1.904   1.938
  1.997   2.047   2.078   2.117   2.200   2.264   2.318   2.358
  2.382   2.413   2.421   2.441   2.486   2.614   2.669   2.700
  2.819   2.831   2.929   2.978   3.172   3.950   4.051   4.109
  4.182   4.303   4.424   4.492
 
 Beta MOs
 -- Occupied --
-14.324 -10.231 -10.230 -10.210 -10.208 -10.206 -10.203  -0.927
 -0.860  -0.762  -0.652  -0.580  -0.572  -0.537  -0.509  -0.476
 -0.448  -0.412  -0.373  -0.350  -0.303  -0.275  -0.253  -0.236
 -- Virtual --
 -0.077  -0.034   0.013   0.072   0.119   0.126   0.130   0.143
  0.174   0.181   0.198   0.240   0.251   0.307   0.334   0.368
  0.445   0.489   0.512   0.521   0.536   0.564   0.576   0.589
  0.607   0.621   0.631   0.651   0.660   0.674   0.690   0.731
  0.737   0.837   0.843   0.864   0.871   0.874   0.885   0.913
  0.936   0.954   1.022   1.034   1.074   1.086   1.148   1.200
  1.287   1.321   1.407   1.446   1.462   1.517   1.575   1.577
  1.664   1.691   1.710   1.752   1.779   1.825   1.885   1.908
  1.943   2.006   2.058   2.083   2.126   2.204   2.268   2.323
  2.359   2.384   2.415   2.429   2.445   2.493   2.619   2.671
  2.714   2.820   2.839   2.929   2.980   3.178   3.950   4.062
  4.129   4.188   4.303   4.425   4.493
 --------------------------------------------------------------
 
          Ground-State Mulliken Net Atomic Charges

     Atom                 Charge (a.u.)    Spin (a.u.)
  --------------------------------------------------------
      1 C                    -0.020582       0.010275
      2 C                    -0.123206      -0.001169
      3 C                    -0.116542      -0.000230
      4 C                    -0.159348      -0.164874
      5 C                     0.025131       0.078784
      6 N                    -0.337901      -0.021021
      7 H                     0.131520      -0.001806
      8 H                     0.152177      -0.000389
      9 H                     0.153859      -0.000542
     10 H                     0.153284       0.047875
     11 H                     0.138167       0.014499
     12 C                    -0.169588       1.037393
     13 H                     0.173030       0.001205
  --------------------------------------------------------
  Sum of atomic charges =     0.000000
  Sum of spin   charges =     1.000000

 -----------------------------------------------------------------
                    Cartesian Multipole Moments
 -----------------------------------------------------------------
    Charge (ESU x 10^10)
                 0.0000
    Dipole Moment (Debye)
         X       0.5705      Y       0.1694      Z      -0.8831
       Tot       1.0649
    Quadrupole Moments (Debye-Ang)
        XX     -36.0796     XY      -0.2857     YY     -39.3338
        XZ      -2.8289     YZ       1.4507     ZZ     -42.9161
    Octopole Moments (Debye-Ang^2)
       XXX       3.5738    XXY       3.2796    XYY       9.0222
       YYY     -12.8273    XXZ       4.4322    XYZ      -2.6122
       YYZ      -4.7126    XZZ      -1.7518    YZZ       4.7474
       ZZZ      -9.2617
    Hexadecapole Moments (Debye-Ang^3)
      XXXX    -519.7621   XXXY     165.1499   XXYY    -153.1507
      XYYY     153.3123   YYYY    -336.1079   XXXZ       5.9510
      XXYZ      15.5333   XYYZ      -0.7589   YYYZ      31.3406
      XXZZ    -130.5257   XYZZ      59.9138   YYZZ     -94.8264
      XZZZ       4.7326   YZZZ      31.2174   ZZZZ    -185.3954
 -----------------------------------------------------------------
 Calculating analytic gradient of the SCF energy
 Gradient of SCF Energy
            1           2           3           4           5           6
    1  -0.0001435  -0.0000437   0.0001338   0.0000859   0.0001047   0.0000799
    2  -0.0000097  -0.0001554  -0.0000157  -0.0001144   0.0000127   0.0001614
    3  -0.0000059   0.0000825  -0.0001132  -0.0002328   0.0001291  -0.0000221
            7           8           9          10          11          12
    1   0.0000372  -0.0000446  -0.0000454  -0.0000340  -0.0000384  -0.0001171
    2   0.0000210   0.0000558   0.0000045   0.0000413  -0.0000575  -0.0000293
    3   0.0000195  -0.0000201   0.0000238   0.0000683  -0.0000044   0.0000460
           13
    1   0.0000252
    2   0.0000854
    3   0.0000292
 Max gradient component =       2.328E-04
 RMS gradient           =       8.291E-05
 Gradient time:  CPU 6.50 s  wall 1.74 s
 Geometry Optimization Parameters
   NAtoms,    NIC,     NZ,  NCons,   NDum,   NFix, NCnnct, MaxDiis
       13      83       0       0       0       0       0       0

 Cartesian Hessian Update
 Hessian Updated using BFGS Update


** GEOMETRY OPTIMIZATION IN DELOCALIZED INTERNAL COORDINATES **
   Searching for a Minimum

   Optimization Cycle:   2

                       Coordinates (Angstroms)
     ATOM                X               Y               Z
      1  C         0.6413085743   -0.6361414323   -0.1596217059
      2  C         2.1462310193   -0.6117670990   -0.0674348712
      3  C         1.6169890713   -1.7868273127   -0.1715737870
      4  C        -1.8179928369    1.1333061460   -0.0179305383
      5  C        -1.1668020664    0.3057161372    1.0459127112
      6  N        -0.1221874525   -0.4271021347    1.0311704373
      7  H         0.1569873988   -0.3392727033   -1.0954985072
      8  H         3.0063972057    0.0285715409    0.0627238900
      9  H         1.7072969189   -2.8622315360   -0.2017318611
     10  H        -2.8804610845    1.3102875762    0.1764128985
     11  H        -1.7069061649    0.3467790281    1.9978846843
     12  C        -1.2776257558    1.7115829125   -1.0723171052
     13  H        -0.3032348274    1.8270988771   -1.5279962455
   Point Group: c1    Number of degrees of freedom:    33


   Energy is   -286.767478672

 Hessian Updated using BFGS Update

 33 Hessian modes will be used to form the next step
  Hessian Eigenvalues:
     0.006129    0.010638    0.017212    0.017412    0.020320    0.022077
     0.025300    0.032712    0.034828    0.043314    0.111396    0.147598
     0.154675    0.157443    0.159810    0.159968    0.161923    0.211518
     0.221374    0.250106    0.271697    0.294995    0.330773    0.342037
     0.342636    0.349940    0.359328    0.360378    0.366024    0.409776
     0.558879    0.623805    0.743119

 Minimum Search - Taking Simple RFO Step
 Searching for Lamda that Minimizes Along All modes
 Value Taken    Lamda =  -0.00000662
 Step Taken.  Stepsize is  0.028657

                             Maximum     Tolerance    Cnvgd?
         Gradient           0.000223      0.000600     YES
         Displacement       0.017858      0.002400      NO
         Energy change     -0.000008      0.000002      NO


 New Cartesian Coordinates Obtained by Inverse Iteration

 Displacement from previous Coordinates is:  0.071884
 ----------------------------------------------------------------
             Standard Nuclear Orientation (Angstroms)
    I     Atom           X                Y                Z
 ----------------------------------------------------------------
    1      C       0.6367647462    -0.6396223688    -0.1610649285
    2      C       2.1414346023    -0.6056719226    -0.0684118562
    3      C       1.6194013637    -1.7839920790    -0.1724344172
    4      C      -1.8150893763     1.1381968519    -0.0148985920
    5      C      -1.1703811947     0.3016821234     1.0459451461
    6      N      -0.1282008124    -0.4346455326     1.0296722992
    7      H       0.1509916005    -0.3465093805    -1.0975771948
    8      H       2.9980093925     0.0393387548     0.0617829175
    9      H       1.7169250125    -2.8587681274    -0.2027083935
   10      H      -2.8752887806     1.3274617742     0.1814572390
   11      H      -1.7098796900     0.3425893372     1.9982371461
   12      C      -1.2697389381     1.7093028734    -1.0706974006
   13      H      -0.2949479256     1.8106376960    -1.5293019653
 ----------------------------------------------------------------
 Nuclear Repulsion Energy =   247.2469448133 hartrees
 There are       25 alpha and       24 beta electrons
 Applying Cartesian multipole field
    Component          Value
    ---------          -----
     (2,0,0)        1.00000E-11
     (0,2,0)        2.00000E-11
     (0,0,2)       -3.00000E-11
 Nucleus-field energy     =     0.0000000053 hartrees
 Requested basis set is 6-31G(d)
 There are 40 shells and 117 basis functions
 A cutoff of  1.0D-14 yielded    772 shell pairs
 There are      6966 function pairs
 Smallest overlap matrix eigenvalue = 2.26E-03
 Guess MOs from SCF MO coefficient file
 Reading MOs from coefficient file
 Reading MOs from coefficient file
 An unrestricted hybrid HF-DFT SCF calculation will be
 performed using Pulay DIIS extrapolation
 Exchange:     0.2000 Hartree-Fock + 0.0800 Slater + 0.7200 B88
 Correlation:  0.1900 VWN1RPA + 0.8100 LYP
 Using SG-1 standard quadrature grid
 SCF converges when DIIS error is below 1.0E-08
 Geometry optimization detected.  Setting ReadMinima to 0
 Setting SaveMinima to 0
Using Q-Chem read-in guess as SCF_GUESS READ specified.

 using 4 threads for integral computing
 -------------------------------------------------------
 OpenMP Integral computing Module                
 Release: version 1.0, May 2013, Q-Chem Inc. Pittsburgh 
 -------------------------------------------------------
 -------------------------------------------------------
 OpenMP BLAS3 based DFT computing Module                
 Release: version 1.0, May 2013, Q-Chem Inc. Pittsburgh 
 -------------------------------------------------------
 ---------------------------------------
  Cycle       Energy         DIIS Error
 ---------------------------------------
    1    -286.7672312858      2.75E-04
    2    -286.7674779249      2.63E-05
    3    -286.7674781361      3.98E-05
    4    -286.7674813753      6.60E-06
    5    -286.7674815797      2.62E-06
    6    -286.7674816329      1.34E-06
    7    -286.7674816483      8.64E-07
    8    -286.7674816549      4.09E-07
    9    -286.7674816574      1.48E-07
   10    -286.7674816576      6.43E-08
   11    -286.7674816576      3.29E-08
   12    -286.7674816576      1.16E-08
   13    -286.7674816576      2.50E-09 Convergence criterion met
 ---------------------------------------
 <S^2> = 0.7643
 SCF time:  CPU 31.36 s  wall 18.15 s
 SCF   energy in the final basis set = -286.76748166
 Total energy in the final basis set = -286.76748166
 
 --------------------------------------------------------------
 
                    Orbital Energies (a.u.)
 --------------------------------------------------------------
 
 Alpha MOs
 -- Occupied --
-14.324 -10.231 -10.231 -10.218 -10.210 -10.208 -10.204  -0.927
 -0.861  -0.776  -0.662  -0.592  -0.572  -0.542  -0.512  -0.481
 -0.458  -0.419  -0.373  -0.351  -0.307  -0.278  -0.270  -0.249
 -0.217
 -- Virtual --
 -0.044   0.012   0.069   0.111   0.125   0.129   0.139   0.172
  0.179   0.195   0.240   0.249   0.303   0.327   0.362   0.435
  0.488   0.510   0.518   0.535   0.556   0.565   0.577   0.587
  0.605   0.622   0.646   0.657   0.672   0.688   0.729   0.735
  0.835   0.841   0.855   0.869   0.872   0.884   0.902   0.931
  0.949   1.013   1.034   1.070   1.084   1.140   1.200   1.286
  1.319   1.404   1.445   1.461   1.505   1.571   1.574   1.662
  1.678   1.696   1.717   1.739   1.816   1.883   1.904   1.937
  1.998   2.048   2.078   2.117   2.200   2.264   2.318   2.357
  2.382   2.413   2.422   2.441   2.486   2.614   2.669   2.700
  2.819   2.831   2.929   2.978   3.172   3.950   4.051   4.108
  4.181   4.303   4.424   4.492
 
 Beta MOs
 -- Occupied --
-14.324 -10.231 -10.230 -10.210 -10.208 -10.206 -10.203  -0.927
 -0.860  -0.762  -0.652  -0.580  -0.572  -0.537  -0.510  -0.476
 -0.448  -0.412  -0.373  -0.350  -0.304  -0.275  -0.253  -0.236
 -- Virtual --
 -0.077  -0.035   0.013   0.072   0.119   0.126   0.130   0.143
  0.174   0.181   0.198   0.240   0.251   0.307   0.334   0.368
  0.445   0.489   0.513   0.522   0.536   0.564   0.576   0.589
  0.607   0.621   0.631   0.651   0.660   0.674   0.690   0.731
  0.737   0.837   0.843   0.865   0.871   0.874   0.885   0.913
  0.936   0.954   1.022   1.034   1.076   1.086   1.147   1.202
  1.287   1.320   1.407   1.445   1.464   1.515   1.576   1.578
  1.664   1.691   1.711   1.752   1.779   1.825   1.884   1.908
  1.943   2.006   2.059   2.083   2.125   2.204   2.268   2.323
  2.358   2.384   2.415   2.429   2.445   2.493   2.619   2.671
  2.713   2.820   2.838   2.929   2.980   3.178   3.951   4.062
  4.128   4.188   4.303   4.425   4.493
 --------------------------------------------------------------
 
          Ground-State Mulliken Net Atomic Charges

     Atom                 Charge (a.u.)    Spin (a.u.)
  --------------------------------------------------------
      1 C                    -0.020617       0.010355
      2 C                    -0.123355      -0.001188
      3 C                    -0.116591      -0.000080
      4 C                    -0.159147      -0.164825
      5 C                     0.025469       0.078867
      6 N                    -0.338113      -0.021287
      7 H                     0.131544      -0.001792
      8 H                     0.152150      -0.000378
      9 H                     0.153839      -0.000538
     10 H                     0.153200       0.047805
     11 H                     0.138161       0.014566
     12 C                    -0.169664       1.037382
     13 H                     0.173124       0.001114
  --------------------------------------------------------
  Sum of atomic charges =    -0.000000
  Sum of spin   charges =     1.000000

 -----------------------------------------------------------------
                    Cartesian Multipole Moments
 -----------------------------------------------------------------
    Charge (ESU x 10^10)
                 0.0000
    Dipole Moment (Debye)
         X       0.5746      Y       0.1764      Z      -0.8830
       Tot       1.0681
    Quadrupole Moments (Debye-Ang)
        XX     -36.0827     XY      -0.3203     YY     -39.3748
        XZ      -2.8244     YZ       1.4879     ZZ     -42.8946
    Octopole Moments (Debye-Ang^2)
       XXX       3.5620    XXY       3.3735    XYY       9.0495
       YYY     -12.8031    XXZ       4.4251    XYZ      -2.6255
       YYZ      -4.6683    XZZ      -1.7212    YZZ       4.7528
       ZZZ      -9.2564
    Hexadecapole Moments (Debye-Ang^3)
      XXXX    -518.9715   XXXY     164.2969   XXYY    -152.3088
      XYYY     152.4371   YYYY    -336.2793   XXXZ       6.4428
      XXYZ      15.5306   XYYZ      -0.6072   YYYZ      31.5026
      XXZZ    -130.1927   XYZZ      59.7156   YYZZ     -94.8811
      XZZZ       5.3215   YZZZ      31.1923   ZZZZ    -185.1481
 -----------------------------------------------------------------
 Calculating analytic gradient of the SCF energy
 Gradient of SCF Energy
            1           2           3           4           5           6
    1  -0.0001066  -0.0000951   0.0000585   0.0001098   0.0000051   0.0001349
    2   0.0000771  -0.0000815   0.0000800   0.0000898  -0.0002722   0.0001145
    3   0.0000108   0.0001292  -0.0000960  -0.0002253   0.0000051   0.0001112
            7           8           9          10          11          12
    1   0.0000631  -0.0000596  -0.0000257  -0.0002321   0.0000989  -0.0001383
    2   0.0000294  -0.0000128   0.0000074   0.0000488   0.0000410  -0.0001063
    3  -0.0001440  -0.0000407   0.0000086   0.0000360   0.0000653   0.0001885
           13
    1   0.0001870
    2  -0.0000152
    3  -0.0000487
 Max gradient component =       2.722E-04
 RMS gradient           =       1.093E-04
 Gradient time:  CPU 6.79 s  wall 2.52 s
 Geometry Optimization Parameters
   NAtoms,    NIC,     NZ,  NCons,   NDum,   NFix, NCnnct, MaxDiis
       13      83       0       0       0       0       0       0

 Cartesian Hessian Update
 Hessian Updated using BFGS Update


** GEOMETRY OPTIMIZATION IN DELOCALIZED INTERNAL COORDINATES **
   Searching for a Minimum

   Optimization Cycle:   3

                       Coordinates (Angstroms)
     ATOM                X               Y               Z
      1  C         0.6367647462   -0.6396223688   -0.1610649285
      2  C         2.1414346023   -0.6056719226   -0.0684118562
      3  C         1.6194013637   -1.7839920790   -0.1724344172
      4  C        -1.8150893763    1.1381968519   -0.0148985920
      5  C        -1.1703811947    0.3016821234    1.0459451461
      6  N        -0.1282008124   -0.4346455326    1.0296722992
      7  H         0.1509916005   -0.3465093805   -1.0975771948
      8  H         2.9980093925    0.0393387548    0.0617829175
      9  H         1.7169250125   -2.8587681274   -0.2027083935
     10  H        -2.8752887806    1.3274617742    0.1814572390
     11  H        -1.7098796900    0.3425893372    1.9982371461
     12  C        -1.2697389381    1.7093028734   -1.0706974006
     13  H        -0.2949479256    1.8106376960   -1.5293019653
   Point Group: c1    Number of degrees of freedom:    33


   Energy is   -286.767481658

 Hessian Updated using BFGS Update

 33 Hessian modes will be used to form the next step
  Hessian Eigenvalues:
     0.003585    0.010766    0.017229    0.018275    0.020451    0.023021
     0.025222    0.032543    0.039714    0.045228    0.112031    0.146335
     0.155407    0.157504    0.159877    0.160756    0.162656    0.218863
     0.240065    0.270929    0.291510    0.302214    0.330981    0.342047
     0.343727    0.351366    0.359353    0.360394    0.381030    0.409321
     0.558895    0.624528    0.744407

 Minimum Search - Taking Simple RFO Step
 Searching for Lamda that Minimizes Along All modes
 Value Taken    Lamda =  -0.00000416
 Step Taken.  Stepsize is  0.023116

                             Maximum     Tolerance    Cnvgd?
         Gradient           0.000486      0.000600     YES
         Displacement       0.011180      0.002400      NO
         Energy change     -0.000003      0.000002      NO


 New Cartesian Coordinates Obtained by Inverse Iteration

 Displacement from previous Coordinates is:  0.057648
 ----------------------------------------------------------------
             Standard Nuclear Orientation (Angstroms)
    I     Atom           X                Y                Z
 ----------------------------------------------------------------
    1      C       0.6335296547    -0.6453623341    -0.1625915302
    2      C       2.1381711132    -0.6022308575    -0.0712531173
    3      C       1.6226765852    -1.7839714581    -0.1699818912
    4      C      -1.8124898314     1.1431422750    -0.0128803432
    5      C      -1.1721890335     0.2995836303     1.0448586197
    6      N      -0.1327393405    -0.4407857631     1.0275122236
    7      H       0.1451951949    -0.3590496196    -1.0998229677
    8      H       2.9915463968     0.0477255046     0.0557010157
    9      H       1.7268205274    -2.8582480106    -0.1961855023
   10      H      -2.8713506641     1.3375232272     0.1844192690
   11      H      -1.7137269524     0.3374884984     1.9960859932
   12      C      -1.2649243043     1.7139050826    -1.0678910249
   13      H      -0.2905193459     1.8102798249    -1.5279707446
 ----------------------------------------------------------------
 Nuclear Repulsion Energy =   247.2317975520 hartrees
 There are       25 alpha and       24 beta electrons
 Applying Cartesian multipole field
    Component          Value
    ---------          -----
     (2,0,0)        1.00000E-11
     (0,2,0)        2.00000E-11
     (0,0,2)       -3.00000E-11
 Nucleus-field energy     =     0.0000000053 hartrees
 Requested basis set is 6-31G(d)
 There are 40 shells and 117 basis functions
 A cutoff of  1.0D-14 yielded    772 shell pairs
 There are      6966 function pairs
 Smallest overlap matrix eigenvalue = 2.25E-03
 Guess MOs from SCF MO coefficient file
 Reading MOs from coefficient file
 Reading MOs from coefficient file
 An unrestricted hybrid HF-DFT SCF calculation will be
 performed using Pulay DIIS extrapolation
 Exchange:     0.2000 Hartree-Fock + 0.0800 Slater + 0.7200 B88
 Correlation:  0.1900 VWN1RPA + 0.8100 LYP
 Using SG-1 standard quadrature grid
 SCF converges when DIIS error is below 1.0E-08
 Geometry optimization detected.  Setting ReadMinima to 0
 Setting SaveMinima to 0
Using Q-Chem read-in guess as SCF_GUESS READ specified.

 using 4 threads for integral computing
 -------------------------------------------------------
 OpenMP Integral computing Module                
 Release: version 1.0, May 2013, Q-Chem Inc. Pittsburgh 
 -------------------------------------------------------
 -------------------------------------------------------
 OpenMP BLAS3 based DFT computing Module                
 Release: version 1.0, May 2013, Q-Chem Inc. Pittsburgh 
 -------------------------------------------------------
 ---------------------------------------
  Cycle       Energy         DIIS Error
 ---------------------------------------
    1    -286.7671332008      2.34E-04
    2    -286.7674814766      2.06E-05
    3    -286.7674812762      3.18E-05
    4    -286.7674832694      5.49E-06
    5    -286.7674833627      2.73E-06
    6    -286.7674833895      1.58E-06
    7    -286.7674833993      5.57E-07
    8    -286.7674834036      2.49E-07
    9    -286.7674834052      1.09E-07
   10    -286.7674834053      3.97E-08
   11    -286.7674834053      2.25E-08
   12    -286.7674834053      8.21E-09 Convergence criterion met
 ---------------------------------------
 <S^2> = 0.7643
 SCF time:  CPU 28.52 s  wall 20.09 s
 SCF   energy in the final basis set = -286.76748341
 Total energy in the final basis set = -286.76748341
 
 --------------------------------------------------------------
 
                    Orbital Energies (a.u.)
 --------------------------------------------------------------
 
 Alpha MOs
 -- Occupied --
-14.324 -10.232 -10.231 -10.218 -10.210 -10.208 -10.204  -0.927
 -0.861  -0.776  -0.662  -0.593  -0.572  -0.542  -0.512  -0.481
 -0.458  -0.419  -0.373  -0.350  -0.307  -0.278  -0.270  -0.249
 -0.217
 -- Virtual --
 -0.044   0.012   0.069   0.111   0.124   0.129   0.139   0.172
  0.179   0.195   0.240   0.249   0.303   0.327   0.362   0.435
  0.488   0.510   0.518   0.535   0.556   0.565   0.577   0.587
  0.605   0.621   0.646   0.657   0.672   0.688   0.729   0.735
  0.835   0.842   0.855   0.869   0.872   0.884   0.902   0.931
  0.949   1.013   1.034   1.071   1.084   1.139   1.200   1.286
  1.318   1.404   1.445   1.462   1.504   1.571   1.574   1.663
  1.678   1.695   1.717   1.740   1.816   1.882   1.905   1.937
  1.998   2.048   2.077   2.117   2.200   2.264   2.318   2.356
  2.382   2.413   2.422   2.441   2.486   2.614   2.669   2.699
  2.819   2.831   2.928   2.978   3.172   3.951   4.051   4.108
  4.181   4.304   4.424   4.492
 
 Beta MOs
 -- Occupied --
-14.324 -10.231 -10.230 -10.210 -10.208 -10.206 -10.203  -0.927
 -0.860  -0.762  -0.652  -0.581  -0.572  -0.537  -0.509  -0.476
 -0.448  -0.412  -0.373  -0.350  -0.304  -0.275  -0.253  -0.236
 -- Virtual --
 -0.077  -0.035   0.013   0.072   0.119   0.126   0.130   0.143
  0.174   0.181   0.198   0.240   0.251   0.307   0.334   0.368
  0.445   0.489   0.513   0.522   0.536   0.564   0.576   0.589
  0.606   0.621   0.631   0.651   0.659   0.674   0.690   0.731
  0.737   0.837   0.844   0.865   0.871   0.874   0.885   0.912
  0.936   0.954   1.022   1.034   1.076   1.085   1.146   1.202
  1.287   1.319   1.407   1.445   1.465   1.515   1.575   1.578
  1.664   1.690   1.711   1.752   1.780   1.825   1.884   1.908
  1.943   2.006   2.059   2.083   2.125   2.203   2.268   2.323
  2.357   2.384   2.415   2.429   2.445   2.493   2.619   2.671
  2.713   2.821   2.838   2.928   2.980   3.178   3.951   4.062
  4.128   4.188   4.304   4.425   4.493
 --------------------------------------------------------------
 
          Ground-State Mulliken Net Atomic Charges

     Atom                 Charge (a.u.)    Spin (a.u.)
  --------------------------------------------------------
      1 C                    -0.020712       0.010186
      2 C                    -0.123503      -0.001269
      3 C                    -0.116605       0.000023
      4 C                    -0.159083      -0.164949
      5 C                     0.025674       0.078968
      6 N                    -0.338219      -0.021592
      7 H                     0.131630      -0.001708
      8 H                     0.152099      -0.000365
      9 H                     0.153805      -0.000528
     10 H                     0.153201       0.047776
     11 H                     0.138129       0.014562
     12 C                    -0.169557       1.037811
     13 H                     0.173141       0.001084
  --------------------------------------------------------
  Sum of atomic charges =     0.000000
  Sum of spin   charges =     1.000000

 -----------------------------------------------------------------
                    Cartesian Multipole Moments
 -----------------------------------------------------------------
    Charge (ESU x 10^10)
                -0.0000
    Dipole Moment (Debye)
         X       0.5764      Y       0.1833      Z      -0.8841
       Tot       1.0712
    Quadrupole Moments (Debye-Ang)
        XX     -36.0825     XY      -0.3373     YY     -39.3884
        XZ      -2.8168     YZ       1.4897     ZZ     -42.8858
    Octopole Moments (Debye-Ang^2)
       XXX       3.5054    XXY       3.3906    XYY       9.1151
       YYY     -12.7917    XXZ       4.3914    XYZ      -2.6526
       YYZ      -4.6367    XZZ      -1.7149    YZZ       4.7567
       ZZZ      -9.2637
    Hexadecapole Moments (Debye-Ang^3)
      XXXX    -518.6408   XXXY     164.1191   XXYY    -152.0048
      XYYY     152.1695   YYYY    -337.7037   XXXZ       6.6792
      XXYZ      15.5324   XYYZ      -0.4232   YYYZ      31.5557
      XXZZ    -129.9376   XYZZ      59.7141   YYZZ     -95.0699
      XZZZ       5.7704   YZZZ      31.3076   ZZZZ    -184.6519
 -----------------------------------------------------------------
 Calculating analytic gradient of the SCF energy
 Gradient of SCF Energy
            1           2           3           4           5           6
    1  -0.0001212  -0.0000424   0.0000430  -0.0000834  -0.0000389   0.0002075
    2   0.0000362  -0.0000498   0.0000673   0.0001455  -0.0000648  -0.0000092
    3  -0.0000157   0.0001168  -0.0000602   0.0000239  -0.0000046   0.0000552
            7           8           9          10          11          12
    1   0.0001160  -0.0000231  -0.0000118  -0.0001061   0.0000457  -0.0000351
    2  -0.0001031  -0.0000175   0.0000056  -0.0000040  -0.0000318   0.0000374
    3  -0.0000657  -0.0000546   0.0000045  -0.0000225   0.0000105   0.0000378
           13
    1   0.0000498
    2  -0.0000117
    3  -0.0000254
 Max gradient component =       2.075E-04
 RMS gradient           =       6.784E-05
 Gradient time:  CPU 6.92 s  wall 2.44 s
 Geometry Optimization Parameters
   NAtoms,    NIC,     NZ,  NCons,   NDum,   NFix, NCnnct, MaxDiis
       13      83       0       0       0       0       0       0

 Cartesian Hessian Update
 Hessian Updated using BFGS Update


** GEOMETRY OPTIMIZATION IN DELOCALIZED INTERNAL COORDINATES **
   Searching for a Minimum

   Optimization Cycle:   4

                       Coordinates (Angstroms)
     ATOM                X               Y               Z
      1  C         0.6335296547   -0.6453623341   -0.1625915302
      2  C         2.1381711132   -0.6022308575   -0.0712531173
      3  C         1.6226765852   -1.7839714581   -0.1699818912
      4  C        -1.8124898314    1.1431422750   -0.0128803432
      5  C        -1.1721890335    0.2995836303    1.0448586197
      6  N        -0.1327393405   -0.4407857631    1.0275122236
      7  H         0.1451951949   -0.3590496196   -1.0998229677
      8  H         2.9915463968    0.0477255046    0.0557010157
      9  H         1.7268205274   -2.8582480106   -0.1961855023
     10  H        -2.8713506641    1.3375232272    0.1844192690
     11  H        -1.7137269524    0.3374884984    1.9960859932
     12  C        -1.2649243043    1.7139050826   -1.0678910249
     13  H        -0.2905193459    1.8102798249   -1.5279707446
   Point Group: c1    Number of degrees of freedom:    33


   Energy is   -286.767483405

 Hessian Updated using BFGS Update

 33 Hessian modes will be used to form the next step
  Hessian Eigenvalues:
     0.003110    0.011526    0.017227    0.017637    0.020471    0.022979
     0.026223    0.033093    0.039585    0.045760    0.110320    0.140118
     0.155811    0.157523    0.159457    0.160042    0.160841    0.217536
     0.234000    0.270743    0.294310    0.322634    0.340687    0.342059
     0.343756    0.357099    0.359409    0.360392    0.408707    0.439548
     0.557945    0.626396    0.773177

 Minimum Search - Taking Simple RFO Step
 Searching for Lamda that Minimizes Along All modes
 Value Taken    Lamda =  -0.00000196
 Step Taken.  Stepsize is  0.009372

                             Maximum     Tolerance    Cnvgd?
         Gradient           0.000484      0.000600     YES
         Displacement       0.003769      0.002400      NO
         Energy change     -0.000002      0.000002     YES


                       Distance Matrix (Angstroms)
             C (  1)   C (  2)   C (  3)   C (  4)   C (  5)   N (  6)
   C (  2)  1.508028
   C (  3)  1.508276  1.293056
   C (  4)  3.033838  4.319428  4.515866
   C (  5)  2.368856  3.607972  3.691655  1.496793
   N (  6)  1.430163  2.527921  2.513886  2.532352  1.276285
   H (  7)  1.094919  2.255891  2.253432  2.696397  2.601722  2.146971
   H (  8)  2.467441  1.080190  2.297793  4.927820  4.287022  3.308205
   H (  9)  2.468456  2.296613  1.079631  5.345226  4.462774  3.286263
   H ( 10)  4.041836  5.378041  5.483212  1.094485  2.169061  3.372415
   H ( 11)  3.336989  4.471474  4.508218  2.166744  1.095232  2.010813
   C ( 12)  3.160670  4.235426  4.623810  1.318577  2.544134  3.211736
   H ( 13)  2.957753  3.720319  4.292213  2.248770  3.111108  3.409206
             H (  7)   H (  8)   H (  9)   H ( 10)   H ( 11)   C ( 12)
   H (  8)  3.098777
   H (  9)  3.092587  3.179255
   H ( 10)  3.691502  6.004474  6.236388
   H ( 11)  3.677691  5.097907  5.182292  2.371139
   C ( 12)  2.507309  4.707033  5.533082  2.071364  3.388791
   H ( 13)  2.253697  4.048033  5.257230  3.133124  4.075980  1.081862

 
 Final energy is   -286.767483405290     


 ******************************
 **  OPTIMIZATION CONVERGED  **
 ******************************

                       Coordinates (Angstroms)
     ATOM                X               Y               Z
      1  C         0.6335296547   -0.6453623341   -0.1625915302
      2  C         2.1381711132   -0.6022308575   -0.0712531173
      3  C         1.6226765852   -1.7839714581   -0.1699818912
      4  C        -1.8124898314    1.1431422750   -0.0128803432
      5  C        -1.1721890335    0.2995836303    1.0448586197
      6  N        -0.1327393405   -0.4407857631    1.0275122236
      7  H         0.1451951949   -0.3590496196   -1.0998229677
      8  H         2.9915463968    0.0477255046    0.0557010157
      9  H         1.7268205274   -2.8582480106   -0.1961855023
     10  H        -2.8713506641    1.3375232272    0.1844192690
     11  H        -1.7137269524    0.3374884984    1.9960859932
     12  C        -1.2649243043    1.7139050826   -1.0678910249
     13  H        -0.2905193459    1.8102798249   -1.5279707446

Z-matrix Print:
$molecule
0 2
N 
C  1 1.276285
H  2 1.095232 1 115.758440
C  1 1.430163 2 122.049794 3 176.563598 0
H  4 1.094919 1 115.844716 2 -15.623734 0
C  2 1.496793 1 131.737988 3 -179.723616 0
H  6 1.094485 2 112.740641 1 157.554959 0
C  6 1.318577 2 129.177342 1 -26.307731 0
H  8 1.081862 6 138.837356 2 -1.009158 0
C  4 1.508028 1 118.691628 2 136.622852 0
H  10 1.080190 4 144.348511 1 -72.857841 0
C  10 1.293056 4 64.625557 1 103.602354 0
H  12 1.079631 10 150.783062 4 -176.777288 0
$end

 
 --------------------------------------------------------------
 
                    Orbital Energies (a.u.)
 --------------------------------------------------------------
 
 Alpha MOs
 -- Occupied --
-14.324 -10.232 -10.231 -10.218 -10.210 -10.208 -10.204  -0.927
 -0.861  -0.776  -0.662  -0.593  -0.572  -0.542  -0.512  -0.481
 -0.458  -0.419  -0.373  -0.350  -0.307  -0.278  -0.270  -0.249
 -0.217
 -- Virtual --
 -0.044   0.012   0.069   0.111   0.124   0.129   0.139   0.172
  0.179   0.195   0.240   0.249   0.303   0.327   0.362   0.435
  0.488   0.510   0.518   0.535   0.556   0.565   0.577   0.587
  0.605   0.621   0.646   0.657   0.672   0.688   0.729   0.735
  0.835   0.842   0.855   0.869   0.872   0.884   0.902   0.931
  0.949   1.013   1.034   1.071   1.084   1.139   1.200   1.286
  1.318   1.404   1.445   1.462   1.504   1.571   1.574   1.663
  1.678   1.695   1.717   1.740   1.816   1.882   1.905   1.937
  1.998   2.048   2.077   2.117   2.200   2.264   2.318   2.356
  2.382   2.413   2.422   2.441   2.486   2.614   2.669   2.699
  2.819   2.831   2.928   2.978   3.172   3.951   4.051   4.108
  4.181   4.304   4.424   4.492
 
 Beta MOs
 -- Occupied --
-14.324 -10.231 -10.230 -10.210 -10.208 -10.206 -10.203  -0.927
 -0.860  -0.762  -0.652  -0.581  -0.572  -0.537  -0.509  -0.476
 -0.448  -0.412  -0.373  -0.350  -0.304  -0.275  -0.253  -0.236
 -- Virtual --
 -0.077  -0.035   0.013   0.072   0.119   0.126   0.130   0.143
  0.174   0.181   0.198   0.240   0.251   0.307   0.334   0.368
  0.445   0.489   0.513   0.522   0.536   0.564   0.576   0.589
  0.606   0.621   0.631   0.651   0.659   0.674   0.690   0.731
  0.737   0.837   0.844   0.865   0.871   0.874   0.885   0.912
  0.936   0.954   1.022   1.034   1.076   1.085   1.146   1.202
  1.287   1.319   1.407   1.445   1.465   1.515   1.575   1.578
  1.664   1.690   1.711   1.752   1.780   1.825   1.884   1.908
  1.943   2.006   2.059   2.083   2.125   2.203   2.268   2.323
  2.357   2.384   2.415   2.429   2.445   2.493   2.619   2.671
  2.713   2.821   2.838   2.928   2.980   3.178   3.951   4.062
  4.128   4.188   4.304   4.425   4.493
 --------------------------------------------------------------
 
          Ground-State Mulliken Net Atomic Charges

     Atom                 Charge (a.u.)    Spin (a.u.)
  --------------------------------------------------------
      1 C                    -0.020712       0.010186
      2 C                    -0.123503      -0.001269
      3 C                    -0.116605       0.000023
      4 C                    -0.159083      -0.164949
      5 C                     0.025674       0.078968
      6 N                    -0.338219      -0.021592
      7 H                     0.131630      -0.001708
      8 H                     0.152099      -0.000365
      9 H                     0.153805      -0.000528
     10 H                     0.153201       0.047776
     11 H                     0.138129       0.014562
     12 C                    -0.169557       1.037811
     13 H                     0.173141       0.001084
  --------------------------------------------------------
  Sum of atomic charges =     0.000000
  Sum of spin   charges =     1.000000

 -----------------------------------------------------------------
                    Cartesian Multipole Moments
 -----------------------------------------------------------------
    Charge (ESU x 10^10)
                -0.0000
    Dipole Moment (Debye)
         X       0.5764      Y       0.1833      Z      -0.8841
       Tot       1.0712
    Quadrupole Moments (Debye-Ang)
        XX     -36.0825     XY      -0.3373     YY     -39.3884
        XZ      -2.8168     YZ       1.4897     ZZ     -42.8858
    Octopole Moments (Debye-Ang^2)
       XXX       3.5054    XXY       3.3906    XYY       9.1151
       YYY     -12.7917    XXZ       4.3914    XYZ      -2.6526
       YYZ      -4.6367    XZZ      -1.7149    YZZ       4.7567
       ZZZ      -9.2637
    Hexadecapole Moments (Debye-Ang^3)
      XXXX    -518.6408   XXXY     164.1191   XXYY    -152.0048
      XYYY     152.1695   YYYY    -337.7037   XXXZ       6.6792
      XXYZ      15.5324   XYYZ      -0.4232   YYYZ      31.5557
      XXZZ    -129.9376   XYZZ      59.7141   YYZZ     -95.0699
      XZZZ       5.7704   YZZZ      31.3076   ZZZZ    -184.6519
 -----------------------------------------------------------------
Archival summary:
1\1\c8-66\OPT\ProcedureUnspecified\6-31G*\166(2)\hpark21\WedMar212:38:082022WedMar212:38:082022\0\\#,OPT,ProcedureUnspecified,6-31G*,\\0,2\N\C,1,1.27628\H,2,1.09523,1,115.758\C,1,1.43016,2,122.05,3,176.564,0\H,4,1.09492,1,115.845,2,-15.6237,0\C,2,1.49679,1,131.738,3,-179.724,0\H,6,1.09448,2,112.741,1,157.555,0\C,6,1.31858,2,129.177,1,-26.3077,0\H,8,1.08186,6,138.837,2,-1.00916,0\C,4,1.50803,1,118.692,2,136.623,0\H,10,1.08019,4,144.349,1,-72.8578,0\C,10,1.29306,4,64.6256,1,103.602,0\H,12,1.07963,10,150.783,4,-176.777,0\\\@

 Total job time:  81.31s(wall), 125.71s(cpu) 
 Wed Mar  2 12:38:08 2022

        *************************************************************
        *                                                           *
        *  Thank you very much for using Q-Chem.  Have a nice day.  *
        *                                                           *
        *************************************************************


