13   
From optimize.out: Frame 37 / 38, Energy=    -286.8549868008
C        1.6972674499    0.2878043459   -0.2177946769
C        1.0901877441   -0.9150443011   -0.1130997488
C       -0.3619637773   -1.0474732349    0.0889831806
C       -1.1404209314    0.3810042155   -0.0222865165
C       -0.2577572752    1.5000476524   -0.4006826261
N        1.0305620919    1.4987760097   -0.4081843795
H        2.7791612696    0.3569904953   -0.2962301170
H        1.6743188469   -1.8289541903   -0.1884936329
H       -0.8372409141   -1.9446421130   -0.3118803428
H       -2.1404458750    0.4184069429   -0.4587273145
H       -0.7545360329    2.4046352209   -0.7599226703
C       -0.9922145815   -0.3754667208    1.2230969943
H       -1.7869180147   -0.7360843224    1.8652218504
13   
From optimize.out: Frame 36 / 38, Energy=    -286.8549864661
C        1.6971649354    0.2878316097   -0.2174891492
C        1.0901032816   -0.9150604578   -0.1132457738
C       -0.3622513011   -1.0472143615    0.0884770239
C       -1.1402427334    0.3809503192   -0.0219407557
C       -0.2578037938    1.4999794419   -0.4011293983
N        1.0304891336    1.4986328113   -0.4086663739
H        2.7791158716    0.3570341504   -0.2952971141
H        1.6743884255   -1.8288888876   -0.1880102106
H       -0.8379014868   -1.9439906471   -0.3128300672
H       -2.1404563242    0.4185572284   -0.4580026196
H       -0.7546439271    2.4043885401   -0.7607026999
C       -0.9917439676   -0.3757031545    1.2232851161
H       -1.7862181134   -0.7365165925    1.8655520224
13   
From optimize.out: Frame 35 / 38, Energy=    -286.8549853474
C        1.6969864573    0.2878370718   -0.2163522343
C        1.0898565798   -0.9151285099   -0.1140783834
C       -0.3626033190   -1.0465907693    0.0875098960
C       -1.1405249899    0.3808016359   -0.0219043587
C       -0.2580390907    1.4995280838   -0.4018468676
N        1.0301750918    1.4984176584   -0.4085632525
H        2.7790346963    0.3571175422   -0.2923362016
H        1.6741857415   -1.8289233763   -0.1892754105
H       -0.8387645353   -1.9431942815   -0.3135121685
H       -2.1408204087    0.4185141977   -0.4576816839
H       -0.7545891549    2.4037275713   -0.7623604907
C       -0.9910150466   -0.3757682744    1.2231560649
H       -1.7838820216   -0.7363385499    1.8672450908
13   
From optimize.out: Frame 34 / 38, Energy=    -286.8549818804
C        1.6967661342    0.2878716315   -0.2143204479
C        1.0893248167   -0.9150123349   -0.1152109495
C       -0.3629655321   -1.0462894881    0.0862764018
C       -1.1411687051    0.3802512199   -0.0223892298
C       -0.2585688230    1.4987825921   -0.4025509710
N        1.0295348609    1.4982723601   -0.4076336204
H        2.7788512503    0.3565717020   -0.2893828559
H        1.6739794190   -1.8285847922   -0.1916106821
H       -0.8394267438   -1.9428280280   -0.3144952626
H       -2.1412132625    0.4167825060   -0.4587989245
H       -0.7540500412    2.4035754657   -0.7631126523
C       -0.9900916749   -0.3750327981    1.2229204719
H       -1.7809716985   -0.7343600359    1.8703087225
13   
From optimize.out: Frame 33 / 38, Energy=    -286.8549673691
C        1.6967788481    0.2881570141   -0.2130677818
C        1.0883248278   -0.9152031149   -0.1177385161
C       -0.3635539682   -1.0471767884    0.0833829251
C       -1.1419944191    0.3792442774   -0.0247391095
C       -0.2590459162    1.4983732795   -0.4022921682
N        1.0292826039    1.4992826802   -0.4052390471
H        2.7792289369    0.3563110930   -0.2840593103
H        1.6725043789   -1.8291299253   -0.1957394408
H       -0.8394656526   -1.9456267070   -0.3138310167
H       -2.1419766991    0.4116142232   -0.4614810104
H       -0.7544295558    2.4041436715   -0.7604924382
C       -0.9888195831   -0.3739636291    1.2198597070
H       -1.7768338013   -0.7260260742    1.8754372070
13   
From optimize.out: Frame 32 / 38, Energy=    -286.8549273700
C        1.6991385306    0.2871143668   -0.2109986931
C        1.0894374788   -0.9154523049   -0.1169446539
C       -0.3621318004   -1.0421400773    0.0899398011
C       -1.1421429144    0.3786867269   -0.0256026186
C       -0.2576318300    1.4991968706   -0.3990090231
N        1.0304025351    1.4991933881   -0.3984583355
H        2.7806022369    0.3583402003   -0.2938612366
H        1.6696979771   -1.8316325370   -0.1958490086
H       -0.8461333535   -1.9341801921   -0.3114892234
H       -2.1382683964    0.4057873254   -0.4721912629
H       -0.7573005519    2.4008734637   -0.7623134435
C       -0.9909893669   -0.3730206937    1.2212606289
H       -1.7746805450   -0.7327665368    1.8755170694
13   
From optimize.out: Frame 31 / 38, Energy=    -286.8548103960
C        1.6998637438    0.2868945926   -0.1986722218
C        1.0906481079   -0.9159276701   -0.1252052544
C       -0.3604961935   -1.0443761350    0.0867504035
C       -1.1459843772    0.3860258117   -0.0173555398
C       -0.2575723488    1.4985417442   -0.4027260867
N        1.0296851687    1.4995760372   -0.3909635669
H        2.7803879550    0.3635518494   -0.2859153448
H        1.6660391629   -1.8339059424   -0.2144928225
H       -0.8419073344   -1.9415306461   -0.3051091208
H       -2.1385857665    0.4144214010   -0.4715957281
H       -0.7541455712    2.3956439774   -0.7819840942
C       -0.9949897078   -0.3717441603    1.2250917731
H       -1.7729428389   -0.7371708596    1.8821776036
13   
From optimize.out: Frame 30 / 38, Energy=    -286.8545123250
C        1.6969258883    0.2799072839   -0.2170248491
C        1.0953913814   -0.9187807565   -0.1105207751
C       -0.3641981031   -1.0426306116    0.0952148317
C       -1.1464920909    0.3747106474   -0.0383995122
C       -0.2617923841    1.4993341415   -0.3939652980
N        1.0238603058    1.5021529877   -0.3819505076
H        2.7747184700    0.3597627475   -0.3287901018
H        1.6679254583   -1.8384897695   -0.2009098307
H       -0.8354718411   -1.9532795628   -0.2790880997
H       -2.1204427274    0.3832232535   -0.5324296870
H       -0.7536755068    2.4242820763   -0.7062906919
C       -1.0022515919   -0.3583040512    1.2144591541
H       -1.7744972586   -0.7118883862    1.8796953674
13   
From optimize.out: Frame 29 / 38, Energy=    -286.8541598187
C        1.7016361771    0.2791744306   -0.2443199378
C        1.1002543460   -0.9177181235   -0.1106717969
C       -0.3585613784   -1.0376729247    0.1050000093
C       -1.1459764388    0.3613753864   -0.0450262919
C       -0.2590688955    1.4988964662   -0.3857902295
N        1.0268880785    1.5042441099   -0.3794149728
H        2.7787267079    0.3554976309   -0.3661008955
H        1.6763303475   -1.8364893972   -0.1854218321
H       -0.8330268560   -1.9478640678   -0.2697888016
H       -2.1039745026    0.3564096542   -0.5694999828
H       -0.7516467161    2.4363469717   -0.6572677279
C       -1.0268402238   -0.3511418689    1.2244159676
H       -1.8047406458   -0.7010582676    1.8838864920
13   
From optimize.out: Frame 28 / 38, Energy=    -286.8536784279
C        1.7007069272    0.2757725999   -0.2771405047
C        1.1011481378   -0.9142772191   -0.0983973933
C       -0.3602229078   -1.0242484891    0.1089573922
C       -1.1446366282    0.3469317234   -0.0665930888
C       -0.2576202103    1.5017524547   -0.3649081388
N        1.0275694749    1.5043138971   -0.3825463383
H        2.7767302360    0.3445404056   -0.4118004318
H        1.6779196047   -1.8342419779   -0.1504183871
H       -0.8181888793   -1.9483679536   -0.2543341784
H       -2.0894384416    0.3383600069   -0.6122381244
H       -0.7517549825    2.4498040875   -0.5939729254
C       -1.0422992511   -0.3451837658    1.2213330758
H       -1.8199130798   -0.6951557698    1.8820590431
13   
From optimize.out: Frame 27 / 38, Energy=    -286.8532551546
C        1.7020002336    0.2748029331   -0.2972035272
C        1.1051288577   -0.9132387192   -0.0908843372
C       -0.3565901563   -1.0203770370    0.1176446376
C       -1.1431192775    0.3349897977   -0.0799823647
C       -0.2546511857    1.4996318040   -0.3533332837
N        1.0300860039    1.5038883351   -0.3895028165
H        2.7768469507    0.3412941118   -0.4425779161
H        1.6848980553   -1.8325805436   -0.1295117101
H       -0.8115561150   -1.9434170571   -0.2530689551
H       -2.0854634115    0.3226217184   -0.6289929057
H       -0.7514768992    2.4543293950   -0.5470470617
C       -1.0539698817   -0.3447450848    1.2153325827
H       -1.8421331743   -0.6771996536    1.8791276577
13   
From optimize.out: Frame 26 / 38, Energy=    -286.8527398702
C        1.7044467229    0.2781101006   -0.2970090492
C        1.1025664328   -0.9122795188   -0.0897354204
C       -0.3593439117   -1.0180283533    0.1126457365
C       -1.1354714620    0.3316812322   -0.0870538875
C       -0.2499587328    1.5084966014   -0.3345433665
N        1.0348512399    1.5073314081   -0.3845846635
H        2.7769575373    0.3374905746   -0.4623323339
H        1.6863822107   -1.8301096965   -0.1119854873
H       -0.8252053505   -1.9376548466   -0.2514972149
H       -2.0790718929    0.3108809886   -0.6340906927
H       -0.7594370495    2.4526353761   -0.5476299505
C       -1.0544933176   -0.3536975121    1.2074528963
H       -1.8422224266   -0.6748563543    1.8803634336
13   
From optimize.out: Frame 25 / 38, Energy=    -286.8519680798
C        1.7011277866    0.2734265125   -0.3146152611
C        1.1113006045   -0.9159614030   -0.0869702735
C       -0.3534513260   -1.0372652331    0.0982385479
C       -1.1364699008    0.3269235075   -0.0995631738
C       -0.2545384991    1.5066370584   -0.3346863997
N        1.0299085821    1.5035081202   -0.3665652664
H        2.7741397327    0.3390713154   -0.4735166611
H        1.7007538284   -1.8293129335   -0.1112917401
H       -0.8136759950   -1.9676292149   -0.2429832666
H       -2.0800856240    0.3224913339   -0.6461091457
H       -0.7611943974    2.4589938131   -0.5151396030
C       -1.0656893878   -0.3355783926    1.2106539523
H       -1.8521254044   -0.6453044840    1.8825482909
13   
From optimize.out: Frame 24 / 38, Energy=    -286.8511441466
C        1.7094363235    0.2700924504   -0.3297480184
C        1.1133795538   -0.9012867677   -0.0670781480
C       -0.3554238427   -1.0078560620    0.1329529672
C       -1.1510073104    0.3078601855   -0.1295256066
C       -0.2516811848    1.4843963410   -0.3349934198
N        1.0273631611    1.4920167136   -0.4101529769
H        2.7807866109    0.3346211353   -0.4975557836
H        1.6855950535   -1.8239154620   -0.0905954013
H       -0.7897513472   -1.9490245423   -0.2129921853
H       -2.0859326885    0.3634099392   -0.6866539744
H       -0.7554207042    2.4492308305   -0.4465640023
C       -1.0807731060   -0.3245221866    1.2041409115
H       -1.8465705190   -0.6950225750    1.8687656379
13   
From optimize.out: Frame 23 / 38, Energy=    -286.8477215543
C        1.7067139575    0.2715177011   -0.3068703566
C        1.0995164700   -0.9071054801   -0.0691587433
C       -0.3701222602   -1.0027464213    0.1164663462
C       -1.1339141483    0.2802865330   -0.1578937926
C       -0.2528496838    1.4836437805   -0.3394267114
N        1.0255600233    1.4929518097   -0.4282612271
H        2.7814200460    0.3413528120   -0.4495534752
H        1.6701838245   -1.8316384188   -0.1115382722
H       -0.8173575054   -1.9420541869   -0.2068229312
H       -2.0832177105    0.3390011112   -0.6992507390
H       -0.7648828324    2.4458614044   -0.4240683846
C       -1.0811808921   -0.2667014287    1.1897197137
H       -1.7798692887   -0.7043692162    1.8866585734
13   
From optimize.out: Frame 22 / 38, Energy=    -286.8450721206
C        1.7117453071    0.2712319259   -0.3360159301
C        1.1016070182   -0.9105708150   -0.0797209034
C       -0.3572708976   -1.0046975664    0.1494430233
C       -1.1594549339    0.3005527410   -0.1624227636
C       -0.2429349039    1.4966794615   -0.3188320202
N        1.0333426911    1.4981148247   -0.4181794618
H        2.7829393917    0.3424275795   -0.5009774644
H        1.6702210370   -1.8370430751   -0.1052481160
H       -0.7871932889   -1.9719702471   -0.1129339274
H       -2.0793553605    0.3808590942   -0.7478533536
H       -0.7477471590    2.4631264528   -0.4071179905
C       -1.1339268831   -0.2395505436    1.1880215363
H       -1.7919720182   -0.7891598323    1.8518373715
13   
From optimize.out: Frame 21 / 38, Energy=    -286.8396047926
C        1.7222729625    0.2598353309   -0.3527014545
C        1.1241230607   -0.8924752634   -0.0747747425
C       -0.3443376954   -0.9932532693    0.1459289658
C       -1.1535857422    0.2998548329   -0.1726360273
C       -0.2413287627    1.4897832033   -0.3274842332
N        1.0309036735    1.4846074974   -0.4713976146
H        2.7945461536    0.3287205485   -0.5110123473
H        1.7067667280   -1.8115440478   -0.0984977541
H       -0.8086432465   -1.9597016158   -0.0109321844
H       -2.0929392104    0.4205552053   -0.7256918945
H       -0.7418541712    2.4592191300   -0.3506214524
C       -1.1757914024   -0.2458983796    1.1687705501
H       -1.8201323477   -0.8397031725    1.7810501888
13   
From optimize.out: Frame 20 / 38, Energy=    -286.8346790211
C        1.7206711801    0.2638238882   -0.3247587863
C        1.0992012547   -0.8864356180   -0.0678361292
C       -0.3696314203   -0.9597174888    0.1220965879
C       -1.1600353018    0.3033725094   -0.1682544162
C       -0.2430193939    1.4897300334   -0.3589000546
N        1.0320598670    1.4825137827   -0.4875581957
H        2.7970529019    0.3231312437   -0.4573605759
H        1.6700141755   -1.8132709317   -0.0776029645
H       -0.8455127673   -1.9231121672   -0.0191188045
H       -2.1030556413    0.4139341542   -0.7184033275
H       -0.7383274737    2.4614442129   -0.3945445883
C       -1.1551511199   -0.2290897466    1.1788964797
H       -1.7042662611   -0.9263238721    1.7733447750
13   
From optimize.out: Frame 19 / 38, Energy=    -286.8254385880
C        1.7179027285    0.2621577830   -0.3221316242
C        1.0971740117   -0.8886205669   -0.0754852062
C       -0.3671031118   -0.9532728772    0.0601327155
C       -1.1415379350    0.3105149016   -0.1355789529
C       -0.2430633859    1.4953978153   -0.3714288194
N        1.0314017457    1.4777725581   -0.5121164617
H        2.7966386794    0.3223397737   -0.4324080195
H        1.6730138709   -1.8123827571   -0.0595451152
H       -0.8695212694   -1.9088738269   -0.0180352590
H       -2.0932391144    0.3969514993   -0.6779908016
H       -0.7360371393    2.4666815327   -0.4256849230
C       -1.1771406268   -0.1909558002    1.2312569244
H       -1.6884884536   -0.9777100354    1.7390155428
13   
From optimize.out: Frame 18 / 38, Energy=    -286.8115270321
C        1.7119273033    0.2663406432   -0.3060081393
C        1.0819527181   -0.8957872148   -0.0961637630
C       -0.3684113283   -0.9389250690   -0.0092798901
C       -1.1139185473    0.3108224162   -0.0970217964
C       -0.2428343186    1.5015821683   -0.3899755686
N        1.0338855952    1.4779125375   -0.5209476501
H        2.7935193129    0.3263610561   -0.3806722852
H        1.6561582656   -1.8196874724   -0.0593436326
H       -0.9002557434   -1.8818309164   -0.0290630951
H       -2.0717213137    0.3624175857   -0.6350549168
H       -0.7412824255    2.4662648489   -0.4896444898
C       -1.1922679930   -0.1481599601    1.2987436847
H       -1.6467515253   -1.0273106231    1.7144315424
13   
From optimize.out: Frame 17 / 38, Energy=    -286.7934016227
C        1.6922547732    0.2668483205   -0.2914254462
C        1.0449296522   -0.8906833206   -0.0931370678
C       -0.3946154677   -0.8955726813   -0.0068380480
C       -1.0907628699    0.3258774752   -0.0951579297
C       -0.2409200710    1.5303750871   -0.4146145732
N        1.0364011396    1.4886808662   -0.5315279754
H        2.7754133811    0.3129320667   -0.3431329457
H        1.6070846227   -1.8196365585   -0.0181156666
H       -0.9735055097   -1.8063263255    0.0801841779
H       -2.0528488235    0.3510079484   -0.6267479904
H       -0.7460572905    2.4884469627   -0.5401106731
C       -1.1606991430   -0.1844915590    1.2927850907
H       -1.4966743936   -1.1674582818    1.5878390476
13   
From optimize.out: Frame 16 / 38, Energy=    -286.7926216580
C        1.7194273971    0.2816129698   -0.2712662720
C        1.0780269807   -0.9340256440   -0.1907845099
C       -0.3228110563   -0.9610099146   -0.1796442066
C       -1.0911775390    0.2921000969   -0.0114493373
C       -0.2451078272    1.4874862719   -0.3952857890
N        1.0407182727    1.4742719225   -0.4848894246
H        2.8023960019    0.3568509479   -0.2647242169
H        1.6549478342   -1.8551754877   -0.1508271858
H       -0.8884549502   -1.8863393910   -0.1432349666
H       -2.0298838956    0.2774596862   -0.5878067897
H       -0.7577100074    2.4275187243   -0.6025001983
C       -1.3093636394   -0.0084010289    1.4378476297
H       -1.6510075717   -0.9523491533    1.8445652669
13   
From optimize.out: Frame 15 / 38, Energy=    -286.7892457551
C        1.7423458732    0.2936735994   -0.2731904727
C        1.1088658385   -0.9549449096   -0.2568547367
C       -0.2714047323   -1.0081897349   -0.2016342231
C       -1.0602247197    0.2487861415    0.0314801226
C       -0.2390686540    1.4646349962   -0.3667484177
N        1.0511649053    1.4712976626   -0.4515523772
H        2.8248825827    0.3785449732   -0.2740243083
H        1.7088890599   -1.8616004167   -0.2790339069
H       -0.8210781451   -1.9439802683   -0.2168618569
H       -1.9938636363    0.2243031363   -0.5584481791
H       -0.7753483885    2.3868462876   -0.5915964996
C       -1.3993798740    0.0785916290    1.4837570957
H       -1.8757801097   -0.7779630964    1.9547077599
13   
From optimize.out: Frame 14 / 38, Energy=    -286.7875546129
C        1.7569275442    0.2999253542   -0.2823049719
C        1.1318377114   -0.9655105149   -0.2937898916
C       -0.2369722086   -1.0404898281   -0.2054374639
C       -1.0383528230    0.2183042989    0.0606321995
C       -0.2360511864    1.4474936474   -0.3449839364
N        1.0557759990    1.4686404081   -0.4348377492
H        2.8388256490    0.3934680268   -0.2892112228
H        1.7455457523   -1.8606449575   -0.3592521653
H       -0.7743981980   -1.9824556249   -0.2489967842
H       -1.9766988634    0.1966815633   -0.5238027150
H       -0.7883627312    2.3591732990   -0.5727985316
C       -1.4224359613    0.1074304580    1.5102179616
H       -2.0556406840   -0.6420161305    1.9845652708
13   
From optimize.out: Frame 13 / 38, Energy=    -286.7861329053
C        1.7641271302    0.3040018768   -0.2817681308
C        1.1464681225   -0.9735043191   -0.3219149739
C       -0.2140869330   -1.0683956260   -0.2154346811
C       -1.0208409316    0.1873165561    0.0807586869
C       -0.2376506590    1.4290287926   -0.3305881575
N        1.0556974752    1.4651915752   -0.4164652638
H        2.8454364645    0.4057210076   -0.2803372091
H        1.7709540909   -1.8573006778   -0.4254033467
H       -0.7400431685   -2.0144485545   -0.2943981247
H       -1.9727384118    0.1799560811   -0.4820327007
H       -0.8028178732    2.3300295027   -0.5683565643
C       -1.4150211912    0.1159903127    1.5317648326
H       -2.1794841149   -0.5035865272    2.0041756331
13   
From optimize.out: Frame 12 / 38, Energy=    -286.7848872124
C        1.7637172120    0.3056690952   -0.2771113609
C        1.1520738169   -0.9798903655   -0.3370959075
C       -0.2037712010   -1.0907010042   -0.2347339588
C       -1.0149723844    0.1702442887    0.0868602484
C       -0.2415141102    1.4193885927   -0.3235538610
N        1.0526418510    1.4632498909   -0.4026443687
H        2.8442710351    0.4129387431   -0.2550775728
H        1.7848677988   -1.8543510727   -0.4638854170
H       -0.7189291953   -2.0398816509   -0.3386723832
H       -1.9824296195    0.1731636168   -0.4487842044
H       -0.8138670498    2.3121366170   -0.5737649296
C       -1.3811123680    0.0951631541    1.5473039809
H       -2.2409757858   -0.3871299053    2.0211597346
13   
From optimize.out: Frame 11 / 38, Energy=    -286.7832659628
C        1.7535304890    0.3048277286   -0.2479396191
C        1.1467285453   -0.9848375438   -0.3469545352
C       -0.2089031557   -1.1083598952   -0.2754379222
C       -1.0150719566    0.1524553135    0.0708180068
C       -0.2529498638    1.4072891348   -0.3398444663
N        1.0435675497    1.4599880757   -0.3834942826
H        2.8310018095    0.4161920021   -0.1705149666
H        1.7848689606   -1.8509966482   -0.4985156228
H       -0.7181931491   -2.0584928342   -0.3949160517
H       -2.0115949683    0.2044362581   -0.4031312290
H       -0.8316849077    2.2877985109   -0.6162757170
C       -1.3120267716    0.0636549344    1.5449684725
H       -2.2092725812   -0.2939550367    2.0612379332
13   
From optimize.out: Frame 10 / 38, Energy=    -286.7825549808
C        1.7665433876    0.3022447286   -0.2375648477
C        1.1649899681   -0.9817709942   -0.4056600285
C       -0.1833663885   -1.0983688357   -0.2746392994
C       -1.0192861765    0.1387125226    0.1064152660
C       -0.2573140977    1.3827591644   -0.3283928796
N        1.0438408352    1.4527540647   -0.3341335893
H        2.8394662765    0.4135091924   -0.1164747816
H        1.7824717998   -1.8415715174   -0.6526248690
H       -0.6990619484   -2.0502744236   -0.3480538301
H       -1.9864173095    0.1179876472   -0.4234840398
H       -0.8281013494    2.2592877591   -0.6314690277
C       -1.3551228648    0.0953537111    1.5651297107
H       -2.2686421324   -0.1906230192    2.0809522159
13   
From optimize.out: Frame 9 / 38, Energy=    -286.7806565999
C        1.7439835147    0.3005132752   -0.1955200156
C        1.1414794279   -0.9743774393   -0.4205809358
C       -0.2097508003   -1.0924830823   -0.3305251504
C       -1.0259340382    0.1405169599    0.0858176413
C       -0.2668133864    1.3778491755   -0.3653594327
N        1.0334026436    1.4575282251   -0.3020244404
H        2.8064846753    0.3975272957    0.0013404275
H        1.7547978115   -1.8336994017   -0.6808192734
H       -0.7088107029   -2.0551319948   -0.3811673100
H       -2.0165604775    0.1304344029   -0.3980082191
H       -0.8290522520    2.2469586023   -0.7035869937
C       -1.2667767487    0.0627746317    1.5567319860
H       -2.1564496669   -0.1584106505    2.1337017162
13   
From optimize.out: Frame 8 / 38, Energy=    -286.7760530325
C        1.7445790172    0.2977560113   -0.1588664831
C        1.1313201529   -0.9556236503   -0.4532199887
C       -0.2206117128   -1.0740282189   -0.3330381029
C       -1.0325463689    0.1319061488    0.0694815572
C       -0.2650922988    1.3596974092   -0.3924330081
N        1.0309048210    1.4557875901   -0.2443101276
H        2.8027245471    0.3808416764    0.0703789076
H        1.7268962148   -1.8057388215   -0.7818948702
H       -0.7172124818   -2.0414889902   -0.3081785070
H       -2.0238528449    0.1108696654   -0.4159579861
H       -0.8277705905    2.2262918144   -0.7382055017
C       -1.2345062633    0.0488366031    1.5351030130
H       -2.1148321919   -0.1351072377    2.1511410975
13   
From optimize.out: Frame 7 / 38, Energy=    -286.7702806283
C        1.7404583965    0.2877240299   -0.1722123330
C        1.1403210322   -0.9637891264   -0.4891009985
C       -0.2163730989   -1.1110754991   -0.3664000732
C       -1.0743253767    0.1572526077    0.0377901246
C       -0.2768562798    1.3664007270   -0.4104822630
N        1.0194172915    1.4398877701   -0.2402945235
H        2.7856879691    0.3726392198    0.1177595324
H        1.7552604121   -1.8115241401   -0.7893208912
H       -0.6795264867   -2.0796858340   -0.1745412409
H       -2.0755444835    0.1775091235   -0.4307969674
H       -0.8162276536    2.2697482399   -0.6952732958
C       -1.2245851807    0.0249690802    1.4870165638
H       -2.0777065416   -0.1300561985    2.1258563658
13   
From optimize.out: Frame 6 / 38, Energy=    -286.7610579461
C        1.7321603568    0.2846676439   -0.1463567731
C        1.1200463696   -0.9389915913   -0.5383697512
C       -0.2370052211   -1.1109712771   -0.3753451918
C       -1.0753299951    0.1488886425    0.0278099598
C       -0.2711858987    1.3437085471   -0.4340165063
N        1.0152161598    1.4337852941   -0.1966565818
H        2.7698298982    0.3532328215    0.1821445334
H        1.7361318405   -1.7769368862   -0.8639604687
H       -0.6704511277   -2.0692725010   -0.0740000861
H       -2.0804330002    0.1663871353   -0.4358154079
H       -0.8069811272    2.2538655045   -0.7048127761
C       -1.2005725556    0.0203296404    1.4605487329
H       -2.0314256993   -0.1086929737    2.0988303167
13   
From optimize.out: Frame 5 / 38, Energy=    -286.7416072366
C        1.6508850244    0.2606543395   -0.1193241548
C        1.0904451271   -0.9440294157   -0.6003734093
C       -0.2866602140   -1.2035067671   -0.5035549024
C       -1.0250465646    0.1984174849    0.0675040859
C       -0.2755402285    1.4030272469   -0.4757162081
N        0.9800611073    1.4391437353   -0.1639674101
H        2.6558284017    0.3007723532    0.2948333229
H        1.7743100653   -1.7433986633   -0.8712604826
H       -0.6238242838   -2.1774401197   -0.1542378446
H       -2.0138203066    0.1343883361   -0.4203402740
H       -0.7966666487    2.3125477082   -0.7780611891
C       -1.1521419921    0.0907526283    1.5176238318
H       -1.9778294874   -0.0713288665    2.2068746344
13   
From optimize.out: Frame 4 / 38, Energy=    -286.7206759512
C        1.6673963872    0.2179070730   -0.1211800820
C        1.1973194794   -0.9540545572   -0.6983380869
C       -0.1980449788   -1.1366857861   -0.6486848500
C       -1.0902662679    0.1760675907    0.1412698225
C       -0.2955244924    1.3369819664   -0.4995622348
N        0.9517811236    1.3681993791   -0.1716525884
H        2.6236749584    0.2653246004    0.3876478133
H        1.9043473735   -1.7457975662   -0.9198034597
H       -0.5768298073   -2.0641006408   -0.2405052488
H       -2.0713082470    0.1348184313   -0.3613135512
H       -0.7791012785    2.2599989283   -0.8223984093
C       -1.2436895653    0.1234565869    1.6109778826
H       -2.0897546850    0.0178839943    2.3435429927
13   
From optimize.out: Frame 3 / 38, Energy=    -286.7030998932
C        1.6746502478    0.1994481733   -0.1972937510
C        1.2081080655   -0.9843722133   -0.7036632655
C       -0.1514759771   -1.1645739059   -0.3786720414
C       -1.1653736704    0.2322367975    0.0120895551
C       -0.2958618917    1.4147197008   -0.5082181151
N        0.9402362876    1.3458608588   -0.1901933881
H        2.6578127363    0.2665538075    0.2439421362
H        1.9124268816   -1.7635848962   -0.9635707982
H       -0.3965654393   -2.0412757142    0.1907576277
H       -2.1386981408    0.3536998912   -0.4880238913
H       -0.7095475203    2.4011567642   -0.7192682627
C       -1.3359674813   -0.0483110817    1.4746135998
H       -2.1997440979   -0.2115581819    2.2275005944
13   
From optimize.out: Frame 2 / 38, Energy=    -286.6493259635
C        1.5776914521    0.2267451427   -0.1275002550
C        1.0711407030   -0.8875779065   -0.6993571881
C       -0.3348039802   -0.9308021678   -0.4450755381
C       -0.9104065760    0.1365380953    0.0091146119
C       -0.2417424814    1.4126295918   -0.5952291961
N        0.9101108146    1.4129858114   -0.1561815984
H        2.5084106902    0.2082087487    0.4028076033
H        1.7295048668   -1.7133577449   -0.9129603899
H       -0.6595442178   -1.7649899648    0.1181666880
H       -1.8613577657    0.0910493579   -0.5329804604
H       -0.7473183897    2.3329310227   -0.8817953926
C       -1.0924986431   -0.1217814899    1.5137065720
H       -1.9491864727   -0.4025784966    2.3072845432
13   
From optimize.out: Frame 1 / 38, Energy=    -286.6166929194
C        1.5171783426    0.1443881440   -0.1238423697
C        1.2266141678   -1.0041929768   -0.7782170546
C       -0.1688642768   -1.3175780447   -0.7266156312
C       -1.0676038281    0.2940483867    0.1147279961
C       -0.3025453662    1.4523452563   -0.5904518213
N        0.8183307517    1.3332021675   -0.1407084308
H        2.3934061411    0.1687419267    0.4846673137
H        2.0297352618   -1.7062112759   -0.9118483726
H       -0.3806244349   -2.2178144093   -0.2300407795
H       -2.0317847120    0.3403294297   -0.3989938120
H       -0.7279609278    2.4109017313   -0.8776860965
C       -1.2257773021    0.1247220371    1.6581290377
H       -2.0801038171   -0.0228823728    2.5208800205
13   
C5H5N+CH->C6H6N atoms 1-13 frame 154 charge +0.000 sz -1.000 sz^2 3.931
C        1.5171783426    0.1443881440   -0.1238423697
C        1.2266141678   -1.0041929768   -0.7782170546
C       -0.1688642768   -1.3175780447   -0.7266156312
C       -1.0676038281    0.2940483867    0.1147279961
C       -0.3025453662    1.4523452563   -0.5904518213
N        0.8183307517    1.3332021675   -0.1407084308
H        2.3934061411    0.1687419267    0.4846673137
H        2.0297352618   -1.7062112759   -0.9118483726
H       -0.3806244349   -2.2178144093   -0.2300407795
H       -2.0317847120    0.3403294297   -0.3989938120
H       -0.7279609278    2.4109017313   -0.8776860965
C       -1.2257773021    0.1247220371    1.6581290377
H       -2.0801038171   -0.0228823728    2.5208800205
13   
C5H5N+CH->C6H6N atoms 1-13 frame 155 charge -0.000 sz -1.000 sz^2 4.018
C        1.5203603365    0.1454583287   -0.1230221834
C        1.2232438987   -0.9962628420   -0.7864497300
C       -0.1691080703   -1.3129913368   -0.7214471880
C       -1.0636235950    0.2835509983    0.1320797679
C       -0.2997960562    1.4388670089   -0.5804940395
N        0.8235444575    1.3337377510   -0.1403346182
H        2.3951080293    0.1700093385    0.4863183991
H        2.0328592889   -1.6906905353   -0.9185217098
H       -0.3910001542   -2.2082676520   -0.2630470392
H       -2.0172628761    0.3352650642   -0.3990987437
H       -0.7303681942    2.3854869737   -0.8921390452
C       -1.2451389468    0.1097126245    1.6834586591