13   
From optimize.out: Frame 1 / 1, Energy=    -286.8549868008
C        1.6972674499    0.2878043459   -0.2177946769
C        1.0901877441   -0.9150443011   -0.1130997488
C       -0.3619637773   -1.0474732349    0.0889831806
C       -1.1404209314    0.3810042155   -0.0222865165
C       -0.2577572752    1.5000476524   -0.4006826261
N        1.0305620919    1.4987760097   -0.4081843795
H        2.7791612696    0.3569904953   -0.2962301170
H        1.6743188469   -1.8289541903   -0.1884936329
H       -0.8372409141   -1.9446421130   -0.3118803428
H       -2.1404458750    0.4184069429   -0.4587273145
H       -0.7545360329    2.4046352209   -0.7599226703
C       -0.9922145815   -0.3754667208    1.2230969943
H       -1.7869180147   -0.7360843224    1.8652218504
13   
From optimize.out: Frame 37 / 38, Energy=    -286.8549868008
C        1.6998544767    0.2799993434   -0.2351168377
C        1.0975198498   -0.9171402081   -0.1107647501
C       -0.3607601798   -1.0377940321    0.1000434371
C       -1.1458909023    0.3665171393   -0.0425649956
C       -0.2593576770    1.4994637238   -0.3871302877
N        1.0265825257    1.5029292114   -0.3824927499
H        2.7774968087    0.3560634080   -0.3508798659
H        1.6726007642   -1.8362625723   -0.1882834275
H       -0.8325266532   -1.9485025962   -0.2752759742
H       -2.1115532108    0.3699888937   -0.5510550741
H       -0.7526350752    2.4288802182   -0.6797329305
C       -1.0175415281   -0.3553707753    1.2211474635
H       -1.7937891986   -0.7087717539    1.8821059925
13   
From optimize.out: Frame 36 / 38, Energy=    -286.8549864661
C        1.7024984687    0.2770301085   -0.2813494417
C        1.1026505561   -0.9142097578   -0.0964473140
C       -0.3583464211   -1.0245206033    0.1119044396
C       -1.1417075137    0.3420925203   -0.0716677815
C       -0.2546997016    1.5023735693   -0.3572535738
N        1.0304226579    1.5050705748   -0.3846387562
H        2.7773458441    0.3441370291   -0.4255121977
H        1.6823569755   -1.8330206690   -0.1408697740
H       -0.8219260617   -1.9433785186   -0.2569993834
H       -2.0887046482    0.3294969587   -0.6134399030
H       -0.7539621889    2.4487113698   -0.5807354517
C       -1.0458658141   -0.3491358522    1.2159557045
H       -1.8300621528   -0.6846467296    1.8810534329
13   
From optimize.out: Frame 35 / 38, Energy=    -286.8549853474
C        1.7057939206    0.2715614109   -0.3227191805
C        1.1121777719   -0.9077422814   -0.0757009645
C       -0.3548971363   -1.0204239940    0.1176217995
C       -1.1443625989    0.3154723861   -0.1172314871
C       -0.2529389276    1.4939693992   -0.3349587020
N        1.0284209609    1.4969921177   -0.3917579641
H        2.7779345987    0.3366882336   -0.4861332720
H        1.6917916393   -1.8264128455   -0.0999804935
H       -0.8006751911   -1.9568928572   -0.2257876800
H       -2.0833517732    0.3452291637   -0.6694495623
H       -0.7581186174    2.4533661569   -0.4756365134
C       -1.0742783703   -0.3280156039    1.2066314842
H       -1.8474962767   -0.6737912862    1.8751025357
13   
From optimize.out: Frame 34 / 38, Energy=    -286.8549818804
C        1.7082348322    0.2713355637   -0.3162160921
C        1.1011078705   -0.9075731851   -0.0717639999
C       -0.3656539116   -1.0036417133    0.1263323064
C       -1.1418813004    0.2876641643   -0.1569403286
C       -0.2501688701    1.4871093780   -0.3337070236
N        1.0277311068    1.4942314914   -0.4242601769
H        2.7817696260    0.3411265733   -0.4666184871
H        1.6713549364   -1.8324697618   -0.1083151284
H       -0.8073890540   -1.9504026431   -0.1827354760
H       -2.0824122889    0.3517865826   -0.7110112412
H       -0.7596887222    2.4506302045   -0.4213310416
C       -1.0949434584   -0.2639586952    1.1903624057
H       -1.7880607662   -0.7258379592    1.8762042833
13   
From optimize.out: Frame 31 / 38, Energy=    -286.8548103960
C        1.7149168835    0.2674851248   -0.3397567891
C        1.1089168250   -0.9043836042   -0.0774457491
C       -0.3537797498   -1.0007991496    0.1462795206
C       -1.1559651808    0.2990913540   -0.1655210124
C       -0.2430065930    1.4936099833   -0.3229405686
N        1.0320644296    1.4933399398   -0.4363690953
H        2.7866806869    0.3378350362   -0.5011686082
H        1.6822893775   -1.8282928002   -0.1034005881
H       -0.7961099869   -1.9661011022   -0.0849463699
H       -2.0840765235    0.3914279788   -0.7375817916
H       -0.7468415184    2.4607873115   -0.3894873551
C       -1.1445506792   -0.2432961772    1.1817663075
H       -1.8005379709   -0.8007038949    1.8305720995
13   
From optimize.out: Frame 30 / 38, Energy=    -286.8545123250
C        1.7209888915    0.2620982898   -0.3408306239
C        1.1130541291   -0.8912780513   -0.0724002338
C       -0.3549462989   -0.9809909042    0.1369233699
C       -1.1564529539    0.3012607873   -0.1702955141
C       -0.2420846143    1.4901975174   -0.3391018895
N        1.0315051302    1.4846486869   -0.4742984158
H        2.7947847344    0.3274209411   -0.4896071102
H        1.6902325212   -1.8138206967   -0.0908335985
H       -0.8215653501   -1.9463089443   -0.0205343596
H       -2.0959993575    0.4154883640   -0.7242675453
H       -0.7408603671    2.4603270256   -0.3711900644
C       -1.1651599757   -0.2389902510    1.1739050439
H       -1.7734964889   -0.8700527645    1.7825309414
13   
From optimize.out: Frame 29 / 38, Energy=    -286.8541598187
C        1.7189953186    0.2627300552   -0.3246481572
C        1.0992561762   -0.8883435355   -0.0733888300
C       -0.3664764500   -0.9578602712    0.0858804366
C       -1.1480597174    0.3072398984   -0.1485267293
C       -0.2429203351    1.4931914699   -0.3645349316
N        1.0316842003    1.4799412420   -0.5008315739
H        2.7965390459    0.3231956039   -0.4450338662
H        1.6737179362   -1.8128829028   -0.0686729801
H       -0.8577633404   -1.9165727566   -0.0182954033
H       -2.0960115387    0.4035025277   -0.6942903285
H       -0.7374293530    2.4642833375   -0.4114987505
C       -1.1696990929   -0.2069468534    1.2104826668
H       -1.7018328497   -0.9514778149    1.7533584472
13   
From optimize.out: Frame 28 / 38, Energy=    -286.8536784279
C        1.7135487682    0.2648967937   -0.3112797180
C        1.0863878516   -0.8931743295   -0.0888969856
C       -0.3685661646   -0.9429088579    0.0149331190
C       -1.1229911912    0.3110659229   -0.1103966071
C       -0.2428694668    1.5001003432   -0.3840948134
N        1.0330797642    1.4781145406   -0.5181206640
H        2.7941833208    0.3246489520   -0.3978027233
H        1.6608815815   -1.8171441861   -0.0584538467
H       -0.8912653558   -1.8894841110   -0.0226817326
H       -2.0787702800    0.3741700224   -0.6498035482
H       -0.7395681952    2.4669263205   -0.4685610312
C       -1.1862685335   -0.1638991657    1.2751190056
H       -1.6577820992   -1.0133122451    1.7200395454
13   
From optimize.out: Frame 27 / 38, Energy=    -286.8532551546
C        1.7038604204    0.2665488204   -0.3000283859
C        1.0667711051   -0.8936943210   -0.0949226417
C       -0.3791565514   -0.9211480655   -0.0082785927
C       -1.1044233711    0.3169958671   -0.0962575025
C       -0.2420493656    1.5133889417   -0.4000789953
N        1.0349171149    1.4823281793   -0.5252861996
H        2.7860948265    0.3208543885   -0.3652789700
H        1.6360352144   -1.8196665948   -0.0424377657
H       -0.9302924131   -1.8508696373    0.0157346485
H       -2.0639824937    0.3577389700   -0.6316485933
H       -0.7432403982    2.4753608073   -0.5103385637
C       -1.1793229262   -0.1630580313    1.2963003141
H       -1.5852111620   -1.0847793243    1.6625212477
13   
From optimize.out: Frame 26 / 38, Energy=    -286.8527398702
C        1.6962152594    0.2690003095   -0.2884871900
C        1.0497536807   -0.8970005859   -0.1073694565
C       -0.3841497733   -0.9051103417   -0.0320250306
C       -1.0908233091    0.3209543275   -0.0829571675
C       -0.2415304482    1.5241239219   -0.4117973487
N        1.0370303739    1.4865807222   -0.5247302757
H        2.7793461738    0.3193333668   -0.3317046534
H        1.6140608201   -1.8248164572   -0.0374587429
H       -0.9611091520   -1.8179884544    0.0476202106
H       -2.0495016208    0.3402880828   -0.6210722011
H       -0.7477557067    2.4795665010   -0.5492041215
C       -1.1823674105   -0.1588258701    1.3139283628
H       -1.5191688874   -1.1361055227    1.6252576145
13   
From optimize.out: Frame 25 / 38, Energy=    -286.8519680798
C        1.7042385021    0.2733598578   -0.2825348039
C        1.0595263071   -0.9097982452   -0.1362017524
C       -0.3629481320   -0.9244319505   -0.0830493912
C       -1.0909457481    0.3109809033   -0.0582405865
C       -0.2427669642    1.5114601697   -0.4060901513
N        1.0383050909    1.4823262029   -0.5109593415
H        2.7873133145    0.3323012660   -0.3085529597
H        1.6281933590   -1.8353100134   -0.0766443858
H       -0.9359963293   -1.8416138595   -0.0183486131
H       -2.0427207817    0.3185715358   -0.6095740584
H       -0.7511963967    2.4615762602   -0.5676258355
C       -1.2262634785   -0.1068317352    1.3567608832
H       -1.5647387433   -1.0725903920    1.7010609962
13   
From optimize.out: Frame 24 / 38, Energy=    -286.8511441466
C        1.7122616953    0.2777193792   -0.2765824545
C        1.0692988731   -0.9225958254   -0.1650338702
C       -0.3417466217   -0.9437534399   -0.1340734366
C       -1.0910681865    0.3010075407   -0.0335241583
C       -0.2440034726    1.4987964957   -0.4003829892
N        1.0395798001    1.4780717099   -0.4971884924
H        2.7952804059    0.3452690850   -0.2854014091
H        1.6423258107   -1.8458035048   -0.1158297866
H       -0.9108836617   -1.8652391187   -0.0843170291
H       -2.0359399844    0.2968551231   -0.5980759868
H       -0.7546370655    2.4435861305   -0.5860474357
C       -1.2701592752   -0.0548379216    1.3995931389
H       -1.6103083175   -1.0090756537    1.7768639095
13   
From optimize.out: Frame 23 / 38, Energy=    -286.8477215543
C        1.7206788964    0.2822623074   -0.2718175402
C        1.0797798982   -0.9347993351   -0.1940083664
C       -0.3202197873   -0.9633973535   -0.1779274292
C       -1.0887493797    0.2893853888   -0.0097574914
C       -0.2445524133    1.4865525175   -0.3934390381
N        1.0414491589    1.4743258914   -0.4832104423
H        2.8036175133    0.3576737464   -0.2670103367
H        1.6582133160   -1.8549711589   -0.1582117265
H       -0.8848784756   -1.8892548660   -0.1445488403
H       -2.0275244259    0.2747662570   -0.5862857951
H       -0.7588572935    2.4255503834   -0.6004072235
C       -1.3134452203   -0.0051011561    1.4385525300
H       -1.6655117873   -0.9429926222    1.8480716996
13   
From optimize.out: Frame 20 / 38, Energy=    -286.8346790211
C        1.7307853868    0.2875900036   -0.2722198717
C        1.0933101709   -0.9443928605   -0.2235277409
C       -0.2973349951   -0.9843913956   -0.1905420682
C       -1.0758378715    0.2706344699    0.0098257406
C       -0.2421149202    1.4761615855   -0.3811431746
N        1.0458954383    1.4727979321   -0.4683681760
H        2.8135399520    0.3676021216   -0.2693331770
H        1.6816801476   -1.8583595684   -0.2143641598
H       -0.8550642022   -1.9149051860   -0.1797231458
H       -2.0120328949    0.2511162442   -0.5732571837
H       -0.7664512758    2.4073621871   -0.5970965188
C       -1.3539740866    0.0347109874    1.4605995457
H       -1.7624008495   -0.8659265207    1.8991499303
13   
From optimize.out: Frame 19 / 38, Energy=    -286.8254385880
C        1.7408792057    0.2927718268   -0.2737885488
C        1.1071986013   -0.9533553557   -0.2521602731
C       -0.2745367382   -1.0053790847   -0.1992957553
C       -1.0620064218    0.2512907707    0.0289009114
C       -0.2395305317    1.4658594853   -0.3682448883
N        1.0503103182    1.4714180831   -0.4540967206
H        2.8234102994    0.3772590782   -0.2742764655
H        1.7056507150   -1.8607282694   -0.2707057301
H       -0.8250414768   -1.9404562433   -0.2108055685
H       -1.9966945913    0.2282714958   -0.5588675666
H       -0.7743834277    2.3892849982   -0.5912101532
C       -1.3904917478    0.0706014133    1.4805678806
H       -1.8647642044   -0.7868381984    1.9439828779
13   
From optimize.out: Frame 18 / 38, Energy=    -286.8115270321
C        1.7505749028    0.2972211321   -0.2782353580
C        1.1218942955   -0.9609619806   -0.2778927020
C       -0.2518576411   -1.0266525328   -0.2039398007
C       -1.0477498540    0.2312713985    0.0480442694
C       -0.2374263686    1.4547652674   -0.3543942502
N        1.0537209376    1.4697561539   -0.4419211436
H        2.8327458580    0.3870624704   -0.2822737716
H        1.7297192879   -1.8610048703   -0.3248249668
H       -0.7945129743   -1.9659483805   -0.2355762029
H       -1.9842654054    0.2086546007   -0.5384125729
H       -0.7828504004    2.3709256606   -0.5810829621
C       -1.4120226457    0.0947551623    1.4988564047
H       -1.9779699924   -0.6998440818    1.9716530568
13   
From optimize.out: Frame 17 / 38, Energy=    -286.7934016227
C        1.7589077115    0.3010465571   -0.2821573196
C        1.1358616457   -0.9677091232   -0.3015253874
C       -0.2306778643   -1.0481650120   -0.2081870890
C       -1.0335363691    0.2097814597    0.0661677694
C       -0.2364911038    1.4424150914   -0.3410245351
N        1.0557544019    1.4676918444   -0.4297845984
H        2.8406438814    0.3968380750   -0.2867705226
H        1.7525340375   -1.8597251500   -0.3774463230
H       -0.7649492236   -1.9912549297   -0.2614839255
H       -1.9756095846    0.1920814026   -0.5123143302
H       -0.7923384597    2.3511576171   -0.5715768171
C       -1.4203966100    0.1097847523    1.5161441924
H       -2.0897024629   -0.6039425847    1.9899588861
13   
From optimize.out: Frame 16 / 38, Energy=    -286.7926216580
C        1.7633473120    0.3039902332   -0.2807653226
C        1.1463408074   -0.9741869448   -0.3226672114
C       -0.2139358911   -1.0707813728   -0.2188489745
C       -1.0211837223    0.1864093995    0.0802191347
C       -0.2383724995    1.4286088264   -0.3303697251
N        1.0550133427    1.4650811962   -0.4150902030
H        2.8445418246    0.4061854414   -0.2754666334
H        1.7716787488   -1.8569521837   -0.4278009657
H       -0.7385425216   -2.0171522223   -0.3000868735
H       -1.9753099040    0.1800147029   -0.4784930532
H       -0.8039393895    2.3287606408   -0.5700046054
C       -1.4080536626    0.1104593444    1.5332258895
H       -2.1815844451   -0.4904370613    2.0061485435
13   
From optimize.out: Frame 15 / 38, Energy=    -286.7892457551
C        1.7614642142    0.3053617987   -0.2709076217
C        1.1504768381   -0.9805436758   -0.3382228796
C       -0.2056560062   -1.0930678692   -0.2424779837
C       -1.0154128601    0.1674753906    0.0828314150
C       -0.2438008534    1.4173647816   -0.3277048000
N        1.0508265990    1.4626574785   -0.3993388519
H        2.8413812760    0.4131532895   -0.2379322818
H        1.7838766271   -1.8538097325   -0.4689018084
H       -0.7202687858   -2.0422389970   -0.3481182717
H       -1.9882731937    0.1806538601   -0.4409253781
H       -0.8170715987    2.3079589425   -0.5829035584
C       -1.3680508104    0.0895881900    1.5456734857
H       -2.2294914461   -0.3745534570    2.0289285345
13   
From optimize.out: Frame 14 / 38, Energy=    -286.7875546129
C        1.7572488821    0.3044186245   -0.2492597601
C        1.1509183943   -0.9836687001   -0.3573168248
C       -0.2033132493   -1.1043747087   -0.2706049896
C       -1.0158856917    0.1518081837    0.0796313352
C       -0.2524905372    1.4038761166   -0.3357305028
N        1.0446636249    1.4589463595   -0.3760292868
H        2.8341837410    0.4152929151   -0.1696490619
H        1.7843994454   -1.8495365347   -0.5247126129
H       -0.7145316855   -2.0547453346   -0.3792781421
H       -2.0033141352    0.1839160122   -0.4123616165
H       -0.8289360929    2.2850121482   -0.6143665329
C       -1.3284026794    0.0734818272    1.5491845219
H       -2.2245400168   -0.2844269090    2.0604934733
13   
From optimize.out: Frame 13 / 38, Energy=    -286.7861329053
C        1.7603713990    0.3023842855   -0.2319908216
C        1.1577531464   -0.9810034830   -0.3982171649
C       -0.1923512873   -1.0990505138   -0.2845461127
C       -1.0197268237    0.1413809745    0.0967194997
C       -0.2582275521    1.3861007333   -0.3368161500
N        1.0419692187    1.4548272771   -0.3369715836
H        2.8322511085    0.4111745475   -0.1051306795
H        1.7780442123   -1.8418090391   -0.6311677798
H       -0.7040418280   -2.0525307638   -0.3618663939
H       -1.9959978362    0.1349650678   -0.4155455631
H       -0.8288811534    2.2620138709   -0.6414754841
C       -1.3322992461    0.0842308087    1.5602096612
H       -2.2388633581   -0.2026837656    2.0867985723
13   
From optimize.out: Frame 11 / 38, Energy=    -286.7832659628
C        1.7483376857    0.3007581381   -0.2024315546
C        1.1456735822   -0.9752006253   -0.4187537173
C       -0.2050267491   -1.0930260484   -0.3198659772
C       -1.0248672603    0.1398958287    0.0892552142
C       -0.2649331227    1.3782142930   -0.3591184910
N        1.0353288951    1.4565553381   -0.3063555975
H        2.8127027352    0.4000667540   -0.0190995043
H        1.7592266719   -1.8343211757   -0.6786220955
H       -0.7072050658   -2.0537638105   -0.3724783049
H       -2.0110004170    0.1274191547   -0.4034757235
H       -0.8288286826    2.2486692756   -0.6908316351
C       -1.2827253931    0.0685910229    1.5576565197
H       -2.1766828795   -0.1638581453    2.1241208669
13   
From optimize.out: Frame 9 / 38, Energy=    -286.7806565999
C        1.7444264856    0.2984622549   -0.1682548935
C        1.1339223425   -0.9604272328   -0.4448598443
C       -0.2178298062   -1.0787552348   -0.3323944370
C       -1.0308526911    0.1341117160    0.0736658705
C       -0.2655331369    1.3643467901   -0.3854984013
N        1.0315446116    1.4562334351   -0.2590930316
H        2.8036876637    0.3851155193    0.0526954392
H        1.7340429104   -1.8129006251   -0.7560054369
H       -0.7150604560   -2.0449834999   -0.3268738084
H       -2.0219849830    0.1158809637   -0.4113603452
H       -0.8280988744    2.2315853911   -0.7293383411
C       -1.2427720031    0.0524066801    1.5406430432
H       -2.1254920631   -0.1410761577    2.1466741865
13   
From optimize.out: Frame 8 / 38, Energy=    -286.7760530325
C        1.7420522009    0.2916155682   -0.1671435445
C        1.1368633856   -0.9606779994   -0.4751211346
C       -0.2179850299   -1.0967812455   -0.3534763929
C       -1.0581318217    0.1474621980    0.0501041220
C       -0.2723061759    1.3638540956   -0.4034213565
N        1.0238716858    1.4460484620   -0.2420042005
H        2.7922942071    0.3758598017    0.0992295864
H        1.7443533943   -1.8093592671   -0.7861743814
H       -0.6940950225   -2.0649335803   -0.2264782414
H       -2.0555111762    0.1517604860   -0.4250034928
H       -0.8207002354    2.2529784608   -0.7118026567
C       -1.2285130098    0.0342474146    1.5056925170
H       -2.0921924022   -0.1320743945    2.1355991760
13   
From optimize.out: Frame 7 / 38, Energy=    -286.7702806283
C        1.7353905495    0.2861179191   -0.1556204266
C        1.1273552751   -0.9480179648   -0.5188415436
C       -0.2294168868   -1.1098767291   -0.3709782439
C       -1.0736758777    0.1512418927    0.0325129823
C       -0.2729471212    1.3519920912   -0.4246606107
N        1.0171391946    1.4365545827   -0.2131034414
H        2.7762833217    0.3607432987    0.1566098163
H        1.7424195595   -1.7896982038   -0.8358122305
H       -0.6749990978   -2.0719991915   -0.1156992184
H       -2.0770227052    0.1685086598   -0.4334840916
H       -0.8107932285    2.2584772508   -0.7025578625
C       -1.2098587058    0.0227954270    1.4719210668
H       -2.0498742776   -0.1168390328    2.1097138038
13   
From optimize.out: Frame 6 / 38, Energy=    -286.7610579461
C        1.7019041190    0.2757282495   -0.1362933836
C        1.1090267624   -0.9408670141   -0.5614517537
C       -0.2554902058   -1.1454193158   -0.4230736154
C       -1.0566110629    0.1673266654    0.0425868285
C       -0.2728068781    1.3657910244   -0.4495399875
N        1.0021290447    1.4357800724   -0.1844874362
H        2.7273907437    0.3337034470    0.2240950086
H        1.7503443871   -1.7644516656   -0.8666780332
H       -0.6530934272   -2.1095398872   -0.1038700679
H       -2.0556351995    0.1544749935   -0.4300545046
H       -0.8031413728    2.2757110345   -0.7320808455
C       -1.1825433873    0.0465458933    1.4817959886
H       -2.0114735233   -0.0947834973    2.1390518018
13   
From optimize.out: Frame 5 / 38, Energy=    -286.7416072366
C        1.6642480725    0.2638568105   -0.1237118472
C        1.0968913584   -0.9433741111   -0.5919101215
C       -0.2772664978   -1.1875404251   -0.4851553296
C       -1.0341752792    0.1900816949    0.0622589903
C       -0.2751510683    1.3924287944   -0.4693660959
N        0.9852865591    1.4371689109   -0.1693584175
H        2.6737060906    0.3086758282    0.2781171236
H        1.7701904909   -1.7488437955   -0.8708435459
H       -0.6306063692   -2.1582249262   -0.1426514062
H       -2.0254608225    0.1395544300   -0.4219111796
H       -0.7980546748    2.3022632107   -0.7669451400
C       -1.1613842010    0.0799099853    1.5098830119
H       -1.9882236588   -0.0759564072    2.1915939575
13   
From optimize.out: Frame 4 / 38, Energy=    -286.7206759512
C        1.6569261565    0.2450140869   -0.1200031963
C        1.1295480221   -0.9476973870   -0.6362164569
C       -0.2542379148   -1.1790584898   -0.5566546496
C       -1.0489089708    0.1902401669    0.0944932913
C       -0.2828520162    1.3788627808   -0.4844409270
N        0.9697141044    1.4131868088   -0.1667792421
H        2.6440641881    0.2878028266    0.3287920341
H        1.8218877591   -1.7442763673   -0.8890212540
H       -0.6066300736   -2.1359717820   -0.1858011259
H       -2.0348538366    0.1345456981   -0.3987437385
H       -0.7902398792    2.2933213047   -0.7942831697
C       -1.1856371672    0.1027182630    1.5517799559
H       -2.0187803718   -0.0386879096    2.2568784786
13   
From optimize.out: Frame 3 / 38, Energy=    -286.7030998932
C        1.6639700165    0.2267830029   -0.1220125105
C        1.1745565824   -0.9523931960   -0.6773990395
C       -0.2163105445   -1.1514778354   -0.6131710281
C       -1.0774833074    0.1817725675    0.1233494119
C       -0.2912409303    1.3524135962   -0.4945843708
N        0.9576638883    1.3830642285   -0.1703029995
H        2.6311277254    0.2729522644    0.3654042901
H        1.8765694433   -1.7455703328   -0.9100928896
H       -0.5840009010   -2.0880564558   -0.2150171007
H       -2.0600598845    0.1382654064   -0.3760307399
H       -0.7817464795    2.2735594365   -0.8112151664
C       -1.2255337686    0.1136602127    1.5887372684
H       -2.0675118401   -0.0049728950    2.3123348745
13   
From optimize.out: Frame 1 / 38, Energy=    -286.6166929194
C        1.6686193545    0.2147949880   -0.1340124940
C        1.1991383850   -0.9591659736   -0.6992358873
C       -0.1901936609   -1.1413875939   -0.6031619412
C       -1.1029290281    0.1855374588    0.1194906278
C       -0.2955813763    1.3500881883   -0.5010215761
N        0.9498347177    1.3644332080   -0.1747784814
H        2.6294304296    0.2655318391    0.3634197018
H        1.9057095412   -1.7487964276   -0.9271824302
H       -0.5464380699   -2.0602524639   -0.1677963256
H       -2.0826698709    0.1717208315   -0.3826763276
H       -0.7673748370    2.2837974855   -0.8050111443
C       -1.2592471945    0.0944973536    1.5879874962
H       -2.1082983905   -0.0207988937    2.3239787819
13   
C5H5N+CH->C6H6N atoms 1-13 frame 154 charge +0.000 sz -1.000 sz^2 3.931
C        1.6703440104    0.2104062561   -0.1521090489
C        1.2017034465   -0.9663742075   -0.7005019856
C       -0.1791215564   -1.1480181886   -0.5389645156
C       -1.1207863361    0.1988920789    0.0887771196
C       -0.2956615954    1.3685708760   -0.5030795719
N        0.9470898525    1.3591220693   -0.1791866856
H        2.6375469241    0.2658240916    0.3292526763
H        1.9076305005   -1.7530254892   -0.9375884198
H       -0.5035789610   -2.0548256786   -0.0652605733
H       -2.0986922875    0.2237614229   -0.4128025934
H       -0.7508379466    2.3173587441   -0.7804912338
C       -1.2811869116    0.0536583942    1.5555659383
H       -2.1344491394   -0.0753503690    2.2963888935
13   
C5H5N+CH->C6H6N atoms 1-13 frame 156 charge -0.000 sz -1.000 sz^2 4.105
C        1.6720687172    0.2060173945   -0.1702061380
C        1.2042685837   -0.9735826541   -0.7017681213
C       -0.1680491250   -1.1546489791   -0.4747651945
C       -1.1386441713    0.2122470932    0.0580627046
C       -0.2957418168    1.3870541095   -0.5051376285
N        0.9443449063    1.3538107737   -0.1835950200
H        2.6456636581    0.2661163528    0.2950846420
H        1.9095515165   -1.7572546757   -0.9479947165
H       -0.4607185867   -2.0493987332    0.0372782063
H       -2.1147151771    0.2758035508   -0.4429297486
H       -0.7343005680    2.3509209935   -0.7559705993
C       -1.3031272766    0.0128182290    1.5231434232
H       -2.1606006604   -0.1299034549    2.2687981906
13   
C5H5N+CH->C6H6N atoms 1-13 frame 157 charge -0.000 sz -1.000 sz^2 4.183
C        1.6737934677    0.2016284216   -0.1883036867
C        1.2068337860   -0.9807912838   -0.7030342891
C       -0.1569764125   -1.1612799379   -0.4105642435
C       -1.1565024599    0.2256024467    0.0273475098
C       -0.2958220402    1.4055378122   -0.5071957374
N        0.9415998905    1.3484993433   -0.1880034663
H        2.6537805982    0.2664086214    0.2609157402
H        1.9114725813   -1.7614839695   -0.9584012775
H       -0.4178571242   -2.0439716499    0.1398195893
H       -2.1307384735    0.3278470000   -0.4730576688
H       -0.7177627695    2.3844840951   -0.7314493422
C       -1.3250681986   -0.0280229730    1.4907200849
H       -2.1867528454   -0.1844579259    2.2412067872
13   
C5H5N+CH->C6H6N atoms 1-13 frame 158 charge -0.000 sz -1.000 sz^2 4.256
C        1.6638787891    0.2025401705   -0.1892832731
C        1.1928899665   -0.9735354053   -0.7031667598
C       -0.1719615178   -1.1385657828   -0.3870094820
C       -1.1368455218    0.2214277261    0.0122279877
C       -0.2898630452    1.4142063656   -0.5178294941
N        0.9369395570    1.3533807335   -0.1863569440
H        2.6411319876    0.2600834343    0.2620686913
H        1.8921258111   -1.7579541630   -0.9578034456
H       -0.4263625256   -2.0107398747    0.1811501459
H       -2.1077185061    0.3237992415   -0.4925468989
H       -0.7139854134    2.3930843218   -0.7376535737
C       -1.3086513707   -0.0558307731    1.4794401183
H       -2.1715782107   -0.2318959944    2.2367629280
13   
From optimize.out: Frame 1 / 100, Energy=    -286.6293955782
C        1.6441279355    0.2080411702   -0.1753229863
C        1.1649911870   -0.9539016816   -0.7023077264
C       -0.2091870339   -1.0909833261   -0.3995756454
C       -1.0851108616    0.2021111585    0.0111530527
C       -0.2788252780    1.4140617413   -0.5356089193
N        0.9307528871    1.3669915747   -0.1794865878
H        2.6107814600    0.2481869735    0.2939524665
H        1.8548436287   -1.7477735530   -0.9476388069
H       -0.4793503001   -1.9543018624    0.1679062369
H       -2.0513922963    0.2710183609   -0.5021760724
H       -0.7214376666    2.3796795236   -0.7704312725
C       -1.2593242861   -0.0714393263    1.4869199398
H       -2.1208693756   -0.2716907532    2.2526163210
13   
From optimize.out: Frame 2 / 100, Energy=    -286.6785180785
C        1.6244650441    0.2135768963   -0.1611691190
C        1.1372147037   -0.9342721479   -0.7014344695
C       -0.2463652866   -1.0435752672   -0.4130420332
C       -1.0334044615    0.1827038095    0.0105497450
C       -0.2678500583    1.4136378748   -0.5532544503
N        0.9246435506    1.3806042711   -0.1725891204
H        2.5804832680    0.2363548076    0.3261698059
H        1.8177477088   -1.7375876692   -0.9373752000
H       -0.5326814406   -1.8982721166    0.1531850582
H       -1.9951486762    0.2177537873   -0.5112931013
H       -0.7290974617    2.3658435912   -0.8033911838
C       -1.2099496905   -0.0863388581    1.4948478525
H       -2.0700571998   -0.3104289788    2.2687962158
13   
From optimize.out: Frame 3 / 100, Energy=    -286.7143931898
C        1.6048006013    0.2191130593   -0.1470141349
C        1.1094360287   -0.9146410655   -0.7005611438
C       -0.2835464729   -0.9961634677   -0.4265094835
C       -0.9816939816    0.1632949292    0.0099463898
C       -0.2568739726    1.4132139749   -0.5709013736
N        0.9185337322    1.3942180416   -0.1656911088
H        2.5501826854    0.2245217082    0.3583896873
H        1.7806488620   -1.7274009818   -0.9271107833
H       -0.5860167891   -1.8422379498    0.1384627179
H       -1.9389006183    0.1644850110   -0.5204108495
H       -0.7367578611    2.3520065670   -0.8363536957
C       -1.1605711992   -0.1012395654    1.5027763907
H       -2.0192410148   -0.3491702610    2.2849773873
13   
From optimize.out: Frame 5 / 100, Energy=    -286.7565870835
C        1.5851122972    0.2246397225   -0.1328484852
C        1.0816629618   -0.8950150464   -0.6997000639
C       -0.3207270315   -0.9487810510   -0.4400324506
C       -0.9299723679    0.1438979429    0.0093598376
C       -0.2459000003    1.4127962535   -0.5885600700
N        0.9124045925    1.4078284781   -0.1587856659
H        2.5198417849    0.2126737520    0.3906458439
H        1.7435726128   -1.7172058823   -0.9168388839
H       -0.6393445665   -1.7862378093    0.1236730905
H       -1.8826403575    0.1112190170   -0.5295132215
H       -0.7444205511    2.3381724224   -0.8693389839
C       -1.1111793302   -0.1161106516    1.5107341332