13   
From optimize.out: Frame 37 / 38, Energy=    -286.8549868008
C        1.6972674499    0.2878043459   -0.2177946769
C        1.0901877441   -0.9150443011   -0.1130997488
C       -0.3619637773   -1.0474732349    0.0889831806
C       -1.1404209314    0.3810042155   -0.0222865165
C       -0.2577572752    1.5000476524   -0.4006826261
N        1.0305620919    1.4987760097   -0.4081843795
H        2.7791612696    0.3569904953   -0.2962301170
H        1.6743188469   -1.8289541903   -0.1884936329
H       -0.8372409141   -1.9446421130   -0.3118803428
H       -2.1404458750    0.4184069429   -0.4587273145
H       -0.7545360329    2.4046352209   -0.7599226703
C       -0.9922145815   -0.3754667208    1.2230969943
H       -1.7869180147   -0.7360843224    1.8652218504
13   
From optimize.out: Frame 36 / 38, Energy=    -286.8549864661
C        1.6979682254    0.2823863476   -0.2105134247
C        1.0937084907   -0.9177684951   -0.1157307581
C       -0.3628846833   -1.0432499150    0.0922116931
C       -1.1463119565    0.3787252136   -0.0309332115
C       -0.2602951358    1.4990530027   -0.3970735839
N        1.0259269393    1.5012386980   -0.3851482979
H        2.7767299761    0.3611071027   -0.3135783431
H        1.6672562098   -1.8368634496   -0.2057290112
H       -0.8377551233   -1.9491111034   -0.2883202336
H       -2.1268797909    0.3942922070   -0.5108460894
H       -0.7538422834    2.4141214158   -0.7331463490
C       -0.9996751102   -0.3630725376    1.2182315565
H       -1.7739457579   -0.7208584868    1.8805760529
13   
From optimize.out: Frame 35 / 38, Energy=    -286.8549853474
C        1.7013459427    0.2781119303   -0.2545708479
C        1.1005335057   -0.9166434193   -0.1068381090
C       -0.3590803270   -1.0334800452    0.1062360262
C       -1.1455579732    0.3568641696   -0.0517622907
C       -0.2586164249    1.4997884825   -0.3792680864
N        1.0271009003    1.5042659067   -0.3803929981
H        2.7781031461    0.3520753399   -0.3803743187
H        1.6768267232   -1.8357874565   -0.1744891395
H       -0.8283924825   -1.9480214474   -0.2649618297
H       -2.0994344270    0.3507721735   -0.5828484679
H       -0.7516805311    2.4405500583   -0.6374987418
C       -1.0316685712   -0.3492809632    1.2234530821
H       -1.8094794810   -0.6992147292    1.8833157214
13   
From optimize.out: Frame 34 / 38, Energy=    -286.8549818804
C        1.7031767886    0.2763934016   -0.2971099997
C        1.1038965475   -0.9127774247   -0.0903318051
C       -0.3579144804   -1.0192475183    0.1152405879
C       -1.1394413234    0.3333986568   -0.0833831706
C       -0.2523945117    1.5038950237   -0.3442969187
N        1.0323776804    1.5055441628   -0.3871375998
H        2.7769001335    0.3394649313   -0.4520781245
H        1.6856118089   -1.8313922746   -0.1210830755
H       -0.8181202458   -1.9406459199   -0.2523130807
H       -2.0823896302    0.3169754178   -0.6314445112
H       -0.7553050600    2.4535147148   -0.5473273820
C       -1.0542216102   -0.3490504471    1.2115431183
H       -1.8421760971   -0.6760727243    1.8797219616
13   
From optimize.out: Frame 33 / 38, Energy=    -286.8549673691
C        1.7057633784    0.2715663353   -0.3230582982
C        1.1124605152   -0.9077739664   -0.0758718364
C       -0.3545518546   -1.0208569396    0.1176068048
C       -1.1445807749    0.3162874858   -0.1162801493
C       -0.2529443143    1.4942282687   -0.3348576958
N        1.0284884124    1.4970967062   -0.3908842091
H        2.7778482333    0.3365884212   -0.4869288371
H        1.6922962753   -1.8263015159   -0.0997446074
H       -0.8003276880   -1.9572490879   -0.2262503072
H       -2.0833478836    0.3453210996   -0.6687303698
H       -0.7579730739    2.4535467407   -0.4768791373
C       -1.0741050645   -0.3294097905    1.2070201237
H       -1.8490261606   -0.6730437571    1.8748585191
13   
From optimize.out: Frame 31 / 38, Energy=    -286.8548103960
C        1.7070027504    0.2713665082   -0.3092972556
C        1.1009870881   -0.9064882218   -0.0689380304
C       -0.3685630285   -1.0032884602    0.1182152733
C       -1.1357274183    0.2832115901   -0.1548844501
C       -0.2527257276    1.4837236134   -0.3389564208
N        1.0257513030    1.4928526132   -0.4263402749
H        2.7813528502    0.3406387050   -0.4546456368
H        1.6718186723   -1.8308191552   -0.1093166189
H       -0.8144290000   -1.9427936133   -0.2074773756
H       -2.0835057197    0.3415904387   -0.6979144541
H       -0.7638790747    2.4462188385   -0.4264547557
C       -1.0811376335   -0.2728351472    1.1912495374
H       -1.7869450619   -0.7033777095    1.8847604622
13   
From optimize.out: Frame 30 / 38, Energy=    -286.8545123250
C        1.7112570393    0.2712596590   -0.3331874955
C        1.1014041408   -0.9102345213   -0.0786958977
C       -0.3585180592   -1.0045082174    0.1462427989
C       -1.1569763263    0.2985860051   -0.1619832492
C       -0.2438970845    1.4954144128   -0.3208306337
N        1.0325874215    1.4976137795   -0.4191578476
H        2.7827919466    0.3423232786   -0.4959870191
H        1.6702174257   -1.8365185798   -0.1058585448
H       -0.7901205778   -1.9690670405   -0.1220453936
H       -2.0797301826    0.3767969827   -0.7431367088
H       -0.7494100919    2.4614509647   -0.4087629429
C       -1.1288081440   -0.2421854035    1.1881863361
H       -1.7907975078   -0.7809313199    1.8552165980
13   
From optimize.out: Frame 29 / 38, Energy=    -286.8541598187
C        1.7210387259    0.2611714398   -0.3507452844
C        1.1214833349   -0.8945967416   -0.0753546183
C       -0.3458539524   -0.9945949707    0.1463409453
C       -1.1542738319    0.2999366540   -0.1714386492
C       -0.2415170628    1.4905917037   -0.3264698689
N        1.0311896180    1.4861910635   -0.4651584485
H        2.7931854052    0.3303275273   -0.5098358821
H        1.7024822006   -1.8145334914   -0.0992891500
H       -0.8061285059   -1.9611399602   -0.0228906194
H       -2.0913466731    0.4159013303   -0.7282900498
H       -0.7425450507    2.4596772150   -0.3572449684
C       -1.1708833085   -0.2451541748    1.1710274886
H       -1.8168308995   -0.8337775948    1.7893491051
13   
From optimize.out: Frame 28 / 38, Energy=    -286.8536784279
C        1.7209308804    0.2631772150   -0.3292891902
C        1.1032418798   -0.8874148385   -0.0689611013
C       -0.3655304952   -0.9651547158    0.1259605817
C       -1.1589896210    0.3028021811   -0.1689648161
C       -0.2427452882    1.4897386539   -0.3538065410
N        1.0318724109    1.4828532411   -0.4849380465
H        2.7966464775    0.3240374495   -0.4660592510
H        1.6759729446   -1.8129909484   -0.0809906809
H       -0.8395350339   -1.9290444918   -0.0177914905
H       -2.1014154430    0.4150076392   -0.7195850383
H       -0.7388992646    2.4610834555   -0.3874232374
C       -1.1584975725   -0.2318149658    1.1772547413
H       -1.7230518747   -0.9122798749    1.7745940701
13   
From optimize.out: Frame 27 / 38, Energy=    -286.8532551546
C        1.7175591765    0.2623982730   -0.3212046181
C        1.0962988764   -0.8890326072   -0.0766741022
C       -0.3671783266   -0.9524479622    0.0561418968
C       -1.1399499818    0.3105325819   -0.1333621420
C       -0.2430502159    1.4957533794   -0.3724951490
N        1.0315445525    1.4777806061   -0.5126242033
H        2.7964593341    0.3225709739   -0.4294335174
H        1.6720447723   -1.8128027354   -0.0595335312
H       -0.8712883218   -1.9073190178   -0.0186692950
H       -2.0920019668    0.3949660013   -0.6755222394
H       -0.7363387126    2.4666575758   -0.4293622239
C       -1.1780103618   -0.1884952897    1.2351370183
H       -1.6860888244   -0.9805617790    1.7376021066
13   
From optimize.out: Frame 26 / 38, Energy=    -286.8527398702
C        1.7112011475    0.2663593827   -0.3054698604
C        1.0805861164   -0.8955988190   -0.0960520411
C       -0.3693785799   -0.9373248383   -0.0091897564
C       -1.1130638210    0.3113781311   -0.0969529970
C       -0.2427636596    1.5026449774   -0.3908850478
N        1.0339784494    1.4783100199   -0.5213381929
H        2.7928509836    0.3258653630   -0.3792866267
H        1.6543468510   -1.8196855931   -0.0578218189
H       -0.9029595512   -1.8790438781   -0.0250305412
H       -2.0710246892    0.3619964312   -0.6347482901
H       -0.7414586761    2.4670836388   -0.4915073061
C       -1.1911027182   -0.1495010383    1.2985237400
H       -1.6412118527   -1.0324837774    1.7097587387
13   
From optimize.out: Frame 25 / 38, Energy=    -286.8519680798
C        1.6998930608    0.2666512037   -0.2970874939
C        1.0593046626   -0.8926650185   -0.0943122480
C       -0.3844411408   -0.9124051884   -0.0077861463
C       -1.0997535651    0.3200320212   -0.0958816165
C       -0.2416633193    1.5191956103   -0.4050479439
N        1.0354244248    1.4844998284   -0.5274199341
H        2.7824434028    0.3181461638   -0.3577084105
H        1.6261385316   -1.8196563270   -0.0341233209
H       -0.9450646952   -1.8356426247    0.0377665487
H       -2.0601764782    0.3554379881   -0.6299733352
H       -0.7442033454    2.4798342747   -0.5205160801
C       -1.1729564354   -0.1703850257    1.2950986443
H       -1.5549451032   -1.1130429060    1.6369913363
13   
From optimize.out: Frame 24 / 38, Energy=    -286.8511441466
C        1.6948418494    0.2682540468   -0.2895061130
C        1.0480808131   -0.8948098964   -0.1024339752
C       -0.3877790473   -0.9018028896   -0.0232907357
C       -1.0908023501    0.3226615675   -0.0871881251
C       -0.2413187828    1.5262916894   -0.4127743006
N        1.0368121692    1.4873090062   -0.5270875694
H        2.7779823673    0.3171135359   -0.3356677353
H        1.6116416274   -1.8230201816   -0.0307509870
H       -0.9654079378   -1.8139442830    0.0589126825
H       -2.0506623575    0.3440054978   -0.6230404408
H       -0.7471667331    2.4826460510   -0.5460507124
C       -1.1748533290   -0.1677261699    1.3065963383
H       -1.5113682887   -1.1469779741    1.6122816735
13   
From optimize.out: Frame 23 / 38, Energy=    -286.8477215543
C        1.7028136429    0.2725856394   -0.2835918967
C        1.0577907724   -0.9075254905   -0.1310813836
C       -0.3667133619   -0.9210005982   -0.0739879017
C       -1.0909240040    0.3127520980   -0.0626300396
C       -0.2425473696    1.5137091436   -0.4071037007
N        1.0380787121    1.4830817691   -0.5134049415
H        2.7858984185    0.3299982782   -0.3126645023
H        1.6256835412   -1.8334464477   -0.0696853513
H       -0.9404561515   -1.8374181899   -0.0066331149
H       -2.0439250006    0.3224282086   -0.6116160301
H       -0.7505853597    2.4647711729   -0.5643542969
C       -1.2184679127   -0.1160654483    1.3491541944
H       -1.5566459271   -1.0838701352    1.6875989648
13   
From optimize.out: Frame 21 / 38, Energy=    -286.8396047926
C        1.7107854365    0.2769172320   -0.2776776803
C        1.0675007316   -0.9202410846   -0.1597287919
C       -0.3456476765   -0.9401983069   -0.1246850678
C       -1.0910456580    0.3028426285   -0.0380719541
C       -0.2437759564    1.5011265979   -0.4014331008
N        1.0393452550    1.4788545320   -0.4997223137
H        2.7938144698    0.3428830205   -0.2896612692
H        1.6397254550   -1.8438727138   -0.1086197155
H       -0.9155043652   -1.8608920967   -0.0721789124
H       -2.0371876437    0.3008509194   -0.6001916195
H       -0.7540039862    2.4468962948   -0.5826578813
C       -1.2620824964   -0.0644047267    1.3917120505
H       -1.6019235655   -1.0207622963    1.7629162561
13   
From optimize.out: Frame 20 / 38, Energy=    -286.8346790211
C        1.7187572301    0.2812488246   -0.2717634640
C        1.0772106909   -0.9329566787   -0.1883762003
C       -0.3245819911   -0.9593960155   -0.1753822339
C       -1.0911673119    0.2929331590   -0.0135138687
C       -0.2450045432    1.4885440522   -0.3957625009
N        1.0406117979    1.4746272948   -0.4860396858
H        2.8017305210    0.3557677627   -0.2666580361
H        1.6537673688   -1.8542989799   -0.1475540798
H       -0.8905525789   -1.8843660036   -0.1377247099
H       -2.0304502869    0.2792736302   -0.5887672088
H       -0.7574226127    2.4290214167   -0.6009614658
C       -1.3056970801   -0.0127440051    1.4342699066
H       -1.6472012039   -0.9576544575    1.8382335473
13   
From optimize.out: Frame 19 / 38, Energy=    -286.8254385880
C        1.7286725971    0.2864781681   -0.2720424850
C        1.0904672235   -0.9424643724   -0.2174369128
C       -0.3020739992   -0.9800420210   -0.1885148705
C       -1.0786913247    0.2746274614    0.0058681946
C       -0.2426716545    1.4782681802   -0.3837739545
N        1.0449323927    1.4730721208   -0.4714414244
H        2.8114669775    0.3656022105   -0.2684758278
H        1.6767074581   -1.8577672723   -0.2025451435
H       -0.8612754800   -1.9095914360   -0.1729356902
H       -2.0153535010    0.2560165967   -0.5759636713
H       -0.7648252431    2.4111116644   -0.5981017001
C       -1.3456757436    0.0266913794    1.4563672814
H       -1.7416797026   -0.8820026798    1.8889962042
13   
From optimize.out: Frame 18 / 38, Energy=    -286.8115270321
C        1.7387663516    0.2917899102   -0.2728899414
C        1.1040492722   -0.9516776345   -0.2465355598
C       -0.2794336278   -1.0008209558   -0.1981997128
C       -1.0650590851    0.2555511307    0.0247751858
C       -0.2400118821    1.4682040222   -0.3712055264
N        1.0495332982    1.4717621973   -0.4567591232
H        2.8213705166    0.3751566923   -0.2725717737
H        1.7004642508   -1.8605969394   -0.2590099431
H       -0.8316013898   -1.9349776292   -0.2053624427
H       -1.9994894597    0.2326053909   -0.5630335530
H       -0.7725935383    2.3931987112   -0.5932994935
C       -1.3853206905    0.0650046827    1.4765867268
H       -1.8406740159   -0.8051995787    1.9375051571
13   
From optimize.out: Frame 17 / 38, Energy=    -286.7934016227
C        1.7484624818    0.2962960380   -0.2770137536
C        1.1185019052   -0.9593768894   -0.2723480148
C       -0.2569612389   -1.0217387325   -0.2032295776
C       -1.0510500627    0.2359998498    0.0437086143
C       -0.2378029096    1.4574446735   -0.3576188185
N        1.0530991319    1.4701830177   -0.4445410521
H        2.8307313142    0.3848047823   -0.2803947998
H        1.7242655307   -1.8611996279   -0.3126832524
H       -0.8014971956   -1.9601196185   -0.2303415720
H       -1.9866634878    0.2127166488   -0.5439153631
H       -0.7808075461    2.3752382327   -0.5837112708
C       -1.4090512663    0.0906887219    1.4948566986
H       -1.9512266566   -0.7209370962    1.9672321617
13   
From optimize.out: Frame 16 / 38, Energy=    -286.7926216580
C        1.7575339630    0.3002687184   -0.2822597539
C        1.1330700261   -0.9661838304   -0.2961588580
C       -0.2350445894   -1.0428403242   -0.2062795262
C       -1.0368778022    0.2156942115    0.0623274469
C       -0.2361859095    1.4459383587   -0.3437713847
N        1.0557693850    1.4683499140   -0.4332902408
H        2.8393824758    0.3945000914   -0.2884637675
H        1.7476858883   -1.8603632699   -0.3648240575
H       -0.7715044852   -1.9851503788   -0.2528209241
H       -1.9763652758    0.1952727814   -0.5202844405
H       -0.7895802831    2.3567185266   -0.5724243861
C       -1.4218114176    0.1081514518    1.5120328474
H       -2.0660719754   -0.6303562506    1.9862170451
13   
From optimize.out: Frame 15 / 38, Energy=    -286.7892457551
C        1.7632099976    0.3034825814   -0.2818365173
C        1.1446044005   -0.9724860136   -0.3183322083
C       -0.2170022162   -1.0648407943   -0.2141611671
C       -1.0230717163    0.1912639870    0.0781948370
C       -0.2374469072    1.4313809723   -0.3324219904
N        1.0557074781    1.4656309111   -0.4188056769
H        2.8445943335    0.4041601390   -0.2814676418
H        1.7677174027   -1.8577266951   -0.4169765560
H       -0.7444195475   -2.0103730759   -0.2886145909
H       -1.9732429212    0.1820866876   -0.4873536513
H       -0.8009764782    2.3337420392   -0.5689224125
C       -1.4159657354    0.1148998998    1.5290200446
H       -2.1637080903   -0.5212206384    2.0016775308
13   
From optimize.out: Frame 14 / 38, Energy=    -286.7875546129
C        1.7637573115    0.3055060026   -0.2775669011
C        1.1515254499   -0.9792656620   -0.3356108599
C       -0.2047803189   -1.0885190207   -0.2328460416
C       -1.0155464645    0.1719143525    0.0862633741
C       -0.2411361750    1.4203316279   -0.3242419784
N        1.0529407619    1.4634398327   -0.4039963730
H        2.8443850412    0.4122326811   -0.2575485513
H        1.7835067154   -1.8546396125   -0.4601209776
H       -0.7209946318   -2.0373937039   -0.3343413334
H       -1.9814815945    0.1738280774   -0.4520366788
H       -0.8127861840    2.3138869564   -0.5732358660
C       -1.3844294377    0.0972005335    1.5457838916
H       -2.2349604736   -0.3985220651    2.0194982954
13   
From optimize.out: Frame 13 / 38, Energy=    -286.7861329053
C        1.7553139616    0.3049750335   -0.2530469535
C        1.1476643855   -0.9839714010   -0.3452285050
C       -0.2080046626   -1.1052682094   -0.2683115478
C       -1.0150545237    0.1555697743    0.0736266527
C       -0.2509477133    1.4094074855   -0.3369923374
N        1.0451562616    1.4605591482   -0.3868470441
H        2.8333249609    0.4156224276   -0.1853200308
H        1.7848687572   -1.8515839346   -0.4924526306
H       -0.7183220147   -2.0552344227   -0.3850690146
H       -2.0064887532    0.1989611021   -0.4111240672
H       -0.8285653902    2.2920595813   -0.6088330073
C       -1.3241221496    0.0691713351    1.5453773690
H       -2.2148231194   -0.3102679198    2.0542211165
13   
From optimize.out: Frame 11 / 38, Energy=    -286.7832659628
C        1.7609425301    0.3033564729   -0.2420302338
C        1.1571301030   -0.9830908621   -0.3803927062
C       -0.1943576211   -1.1026690691   -0.2749830332
C       -1.0174723419    0.1446275317    0.0910939158
C       -0.2554356959    1.3933170634   -0.3333217358
N        1.0437232109    1.4558676419   -0.3553788336
H        2.8358231010    0.4146638956   -0.1397341173
H        1.7835035573   -1.8456281704   -0.5862949945
H       -0.7072961730   -2.0538116944   -0.3682237119
H       -1.9972539789    0.1551958332   -0.4147240243
H       -0.8296437421    2.2715590188   -0.6249297031
C       -1.3365739554    0.0817102995    1.5564521496
H       -2.2430889942   -0.2350979609    2.0724670281
13   
From optimize.out: Frame 10 / 38, Energy=    -286.7825549808
C        1.7599941208    0.3017420773   -0.2253589800
C        1.1581647169   -0.9796246007   -0.4099916577
C       -0.1910259420   -1.0966601661   -0.2908632982
C       -1.0212160907    0.1392363616    0.1004356516
C       -0.2600717984    1.3813337651   -0.3391244924
N        1.0408105654    1.4541400322   -0.3248121102
H        2.8298915193    0.4088695517   -0.0822723175
H        1.7744378745   -1.8392861948   -0.6608098742
H       -0.7018920705   -2.0516846057   -0.3576668725
H       -1.9951680526    0.1216010152   -0.4160882557
H       -0.8283774021    2.2557085307   -0.6524053072
C       -1.3294754558    0.0858958084    1.5626918007
H       -2.2360719846   -0.1812715748    2.0962657133
13   
From optimize.out: Frame 9 / 38, Energy=    -286.7806565999
C        1.7440095362    0.3003927918   -0.1939183751
C        1.1410355005   -0.9735579595   -0.4220071566
C       -0.2102253870   -1.0916766646   -0.3306349583
C       -1.0262229756    0.1401406953    0.0851038074
C       -0.2667381804    1.3770560022   -0.3665424601
N        1.0332934968    1.4574521650   -0.2995025121
H        2.8063203699    0.3967981883    0.0043571851
H        1.7535786022   -1.8324776150   -0.6852359491
H       -0.7091778334   -2.0545358397   -0.3779779360
H       -2.0168791303    0.1295794874   -0.3987925657
H       -0.8289962475    2.2460555307   -0.7050997102
C       -1.2653666332    0.0621655851    1.5557868701
H       -2.1546311182   -0.1573923669    2.1344637606
13   
From optimize.out: Frame 8 / 38, Energy=    -286.7760530325
C        1.7445725464    0.2977859721   -0.1592647658
C        1.1314305450   -0.9558274317   -0.4528653279
C       -0.2204936965   -1.0742287521   -0.3330107968
C       -1.0324745183    0.1319997151    0.0696590675
C       -0.2651110003    1.3598946490   -0.3921388227
N        1.0309319627    1.4558065041   -0.2449372598
H        2.8027654052    0.3810229848    0.0696287254
H        1.7271993976   -1.8060426453   -0.7807965679
H       -0.7171211869   -2.0416372371   -0.3089716141
H       -2.0237736049    0.1110822587   -0.4157629413
H       -0.8277845172    2.2265163827   -0.7378293320
C       -1.2348569191    0.0489880558    1.5353380366
H       -2.1152844135   -0.1353604560    2.1509515986
13   
From optimize.out: Frame 7 / 38, Energy=    -286.7702806283
C        1.7412252455    0.2895909853   -0.1697286654
C        1.1386459652   -0.9622695283   -0.4824235293
C       -0.2171619065   -1.1041809865   -0.3601913982
C       -1.0665502878    0.1525356223    0.0436879120
C       -0.2746669985    1.3651532371   -0.4071232899
N        1.0215551250    1.4428467325   -0.2410418289
H        2.7888584825    0.3741657000    0.1089419806
H        1.7499818245   -1.8104474901   -0.7879389060
H       -0.6865398643   -2.0725773872   -0.1994111857
H       -2.0659246504    0.1651074956   -0.4280354275
H       -0.8183757984    2.2616609830   -0.7032629953
C       -1.2264314978    0.0294108350    1.4959654698
H       -2.0846156389   -0.1309961987    2.1305618638
13   
From optimize.out: Frame 6 / 38, Energy=    -286.7610579461
C        1.7342425094    0.2854345554   -0.1528444767
C        1.1251337087   -0.9452138142   -0.5260071852
C       -0.2318281878   -1.1109974286   -0.3731006735
C       -1.0750779152    0.1509873373    0.0303141930
C       -0.2726087165    1.3494024922   -0.4281112698
N        1.0162703121    1.4353165336   -0.2076062589
H        2.7738090216    0.3581022949    0.1659889829
H        1.7409316013   -1.7856155554   -0.8452318293
H       -0.6727283261   -2.0718854252   -0.0992279758
H       -2.0792063686    0.1691778760   -0.4345561757
H       -0.8093012751    2.2578508168   -0.7024191199
C       -1.2065978282    0.0214937734    1.4671900682
H       -2.0430385358   -0.1140534560    2.1056117207
13   
From optimize.out: Frame 5 / 38, Energy=    -286.7416072366
C        1.7035061070    0.2762015669   -0.1368262135
C        1.1096102216   -0.9407677154   -0.5602296225
C       -0.2545114746   -1.1435953829   -0.4205465212
C       -1.0576021811    0.1663504206    0.0418044323
C       -0.2727210515    1.3646218155   -0.4487180601
N        1.0028219730    1.4356744541   -0.1851317604
H        2.7296377851    0.3347374759    0.2218738415
H        1.7495918702   -1.7651127252   -0.8665341453
H       -0.6540124717   -2.1074078352   -0.1022885311
H       -2.0569481777    0.1551057100   -0.4303595292
H       -0.8033446777    2.2745543712   -0.7306370731
C       -1.1834979843    0.0451578118    1.4806710024
H       -2.0125299385   -0.0955199674    2.1369221801
13   
From optimize.out: Frame 4 / 38, Energy=    -286.7206759512
C        1.6648228001    0.2647723424   -0.1239599349
C        1.0955213965   -0.9431654873   -0.5897405019
C       -0.2781449594   -1.1876380051   -0.4815684258
C       -1.0336695890    0.1899238636    0.0606970042
C       -0.2747935115    1.3928547787   -0.4685651935
N        0.9860897906    1.4382248249   -0.1695732234
H        2.6753783346    0.3097687143    0.2755085041
H        1.7677629431   -1.7491500790   -0.8700086150
H       -0.6318202461   -2.1588906292   -0.1404780007
H       -2.0252436101    0.1398757585   -0.4229940798
H       -0.7984354620    2.3024843917   -0.7654999369
C       -1.1604472714    0.0786759036    1.5078361151
H       -1.9870206153   -0.0777363770    2.1883462885
13   
From optimize.out: Frame 3 / 38, Energy=    -286.7030998932
C        1.6552094842    0.2494584839   -0.1198102372
C        1.1184363864   -0.9466550816   -0.6260311526
C       -0.2634511655   -1.1860058105   -0.5415656122
C       -1.0421281337    0.1925638664    0.0868239304
C       -0.2807742692    1.3857294525   -0.4819616758
N        0.9726543503    1.4205628333   -0.1659802206
H        2.6474071543    0.2914882993    0.3191421904
H        1.8083678906   -1.7440269554   -0.8839742819
H       -0.6115160494   -2.1477555913   -0.1768319771
H       -2.0288768643    0.1345009815   -0.4048806968
H       -0.7920661359    2.2987847567   -0.7896734665
C       -1.1761190437    0.0993180602    1.5420740146
H       -2.0071436040   -0.0479632950    2.2426691854
13   
From optimize.out: Frame 1 / 38, Energy=    -286.6166929194
C        1.6619696707    0.2319566280   -0.1205701026
C        1.1621935588   -0.9507596383   -0.6661404697
C       -0.2271697562   -1.1586475424   -0.6009856321
C       -1.0688307966    0.1834132316    0.1170255642
C       -0.2889563528    1.3586887766   -0.4917248667
N        0.9610757807    1.3915163468   -0.1691267349
H        2.6342426884    0.2769750565    0.3571428853
H        1.8616085867   -1.7450091294   -0.9038490542
H       -0.5922752740   -2.1013514260   -0.2121521227
H       -2.0524139399    0.1346770738   -0.3807136031
H       -0.7848744110    2.2772699033   -0.8078262913
C       -1.2136010294    0.1127079215    1.5802956197
H       -2.0529687254   -0.0114372020    2.2986248079
13   
C5H5N+CH->C6H6N atoms 1-13 frame 154 charge +0.000 sz -1.000 sz^2 3.931
C        1.6677344133    0.2170468979   -0.1247269389
C        1.1978222218   -0.9554673441   -0.6985862374
C       -0.1958748878   -1.1379853579   -0.6361023949
C       -1.0937662334    0.1786850462    0.1352500899
C       -0.2955402150    1.3406045040   -0.4999655942
N        0.9512431403    1.3671584158   -0.1725165800
H        2.6252657609    0.2653818808    0.3809512042
H        1.9047238744   -1.7466264464   -0.9218429947
H       -0.5684295824   -2.0630370112   -0.2204086254
H       -2.0744485806    0.1450181923   -0.3672181865
H       -0.7758601099    2.2665768093   -0.8175925987
C       -1.2479896677    0.1154523038    1.6046233787
H       -2.0948801339    0.0071921094    2.3381354779
13   
C5H5N+CH->C6H6N atoms 1-13 frame 155 charge -0.000 sz -1.000 sz^2 4.018
C        1.6694480774    0.2126861369   -0.1427081584
C        1.2003709353   -0.9626296374   -0.6998442664
C       -0.1848733496   -1.1445736936   -0.5723141211
C       -1.1115097308    0.1919545528    0.1047323292
C       -0.2956199228    1.3589693953   -0.5020104738
N        0.9485157691    1.3618811267   -0.1768966892
H        2.6333305262    0.2656722708    0.3470019367
H        1.9066325908   -1.7508285548   -0.9321826633
H       -0.5258436291   -2.0576448127   -0.1185263679
H       -2.0903688810    0.1967271115   -0.3971524474
H       -0.7594286146    2.2999241706   -0.7932289617
C       -1.2697895557    0.0748736248    1.5724084543
H       -2.1208642153   -0.0470116909    2.3107214292
13   
C5H5N+CH->C6H6N atoms 1-13 frame 156 charge -0.000 sz -1.000 sz^2 4.105
C        1.6711617414    0.2083253758   -0.1606893778
C        1.2029196488   -0.9697919308   -0.7011022955
C       -0.1738718113   -1.1511620292   -0.5085258472
C       -1.1292532282    0.2052240594    0.0742145685
C       -0.2956996305    1.3773342867   -0.5040553533
N        0.9457883979    1.3566038376   -0.1812767985
H        2.6413952915    0.2659626607    0.3130526691
H        1.9085413072   -1.7550306631   -0.9425223320
H       -0.4832576757   -2.0522526142   -0.0166441105
H       -2.1062891813    0.2484360308   -0.4270867084
H       -0.7429971194    2.3332715320   -0.7688653248
C       -1.2915894436    0.0342949458    1.5401935299
H       -2.1468482966   -0.1012154913    2.2833073805
13   
C5H5N+CH->C6H6N atoms 1-13 frame 157 charge -0.000 sz -1.000 sz^2 4.183
C        1.6728754055    0.2039646147   -0.1786705973
C        1.2054683623   -0.9769542242   -0.7023603245
C       -0.1628702731   -1.1577503649   -0.4447375734
C       -1.1469967255    0.2184935660    0.0436968078
C       -0.2957793383    1.3956991780   -0.5061002328
N        0.9430610267    1.3513265485   -0.1856569078
H        2.6494600568    0.2662530506    0.2791034015
H        1.9104500236   -1.7592327715   -0.9528620007
H       -0.4406717223   -2.0468604156    0.0852381470
H       -2.1222094816    0.3001449500   -0.4570209694
H       -0.7265656242    2.3666188933   -0.7445016879
C       -1.3133893316   -0.0062837332    1.5079786055
H       -2.1728323780   -0.1554192917    2.2558933318
13   
C5H5N+CH->C6H6N atoms 1-13 frame 158 charge -0.000 sz -1.000 sz^2 4.256
C        1.6745890695    0.1996038537   -0.1966518167
C        1.2080170757   -0.9841165175   -0.7036183535
C       -0.1518687349   -1.1643387006   -0.3809492995
C       -1.1647402229    0.2317630726    0.0131790472
C       -0.2958590461    1.4140640694   -0.5081451124
N        0.9403336554    1.3460492594   -0.1900370171
H        2.6575248220    0.2665434405    0.2451541339
H        1.9123587400   -1.7634348799   -0.9632016693
H       -0.3980857690   -2.0414682171    0.1871204045
H       -2.1381297819    0.3518538692   -0.4869552303
H       -0.7101341289    2.3999662547   -0.7201380509
C       -1.3351892196   -0.0468624122    1.4757636811
H       -2.1988164594   -0.2096230921    2.2284792831
13   
From optimize.out: Frame 1 / 100, Energy=    -286.6293955782
C        1.6558099802    0.2047523049   -0.1837320299
C        1.1814936491   -0.9655639079   -0.7028265425
C       -0.1870988271   -1.1191492276   -0.3915750446
C       -1.1158304778    0.2136413813    0.0115114876
C       -0.2853458352    1.4143135673   -0.5251254213
N        0.9343825435    1.3589040495   -0.1835844857
H        2.6287821103    0.2552166564    0.2748116194
H        1.8768829201   -1.7538251528   -0.9537365833
H       -0.4476653990   -1.9875900489    0.1766523295
H       -2.0848075490    0.3026637134   -0.4967594968
H       -0.7168868574    2.3878996768   -0.7508492513
C       -1.2886585391   -0.0625872713    1.4822098375