13   
From optimize.out: Frame 1 / 2, Energy=    -286.9243467336
C        1.4629484605    0.2996723053   -0.7918750363
C        1.0986505075   -0.9937212313   -0.4650932294
C       -0.0970096582   -1.4396112442    0.2028982483
C       -1.2273061996    0.7713911062    0.5557735790
C       -0.3287818779    1.6580387231   -0.0053682909
N        0.8719902540    1.5028071833   -0.6125140210
H        2.4253875089    0.3886458143   -1.3006651847
H        1.8071156735   -1.7677382196   -0.7502039795
H       -0.1790523155   -2.5131541553    0.3611347128
H       -2.1259249268    1.2166819695    0.9760708924
H       -0.6306107870    2.7066734920    0.0393456134
C       -1.1223441956   -0.6625062657    0.6524318172
H       -1.9550624436   -1.1671794777    1.1380648789
