13   
From optimize.out: Frame 1 / 2, Energy=    -286.9243467336
C        0.0364370000   -0.1153040000   -0.0000000000
C       -0.1321390000    0.3516540000   -0.0000000000
C       -0.1107460000    0.0880370000    0.0000000000
C       -0.1310030000    0.3423810000    0.0000000000
C        0.0349420000   -0.1098430000   -0.0000000000
N       -0.4233800000    0.3867750000   -0.0000000000
H        0.1425150000    0.0035330000   -0.0000000000
H        0.1342820000   -0.0185510000   -0.0000000000
H        0.1419840000   -0.0063650000    0.0000000000
H        0.1344020000   -0.0181220000    0.0000000000
H        0.1426390000    0.0032650000    0.0000000000
C       -0.1118530000    0.0994490000    0.0000000000
H        0.1419210000   -0.0069090000    0.0000000000
