13   
From optimize.out: Frame 1 / 2, Energy=    -286.8516702428
C       -0.0945110000   -0.0450340000    0.0000000000
C       -0.0878070000    0.0400650000   -0.0000000000
C       -0.0958090000    0.0796800000   -0.0000000000
C       -0.2464360000   -0.0439590000    0.0000000000
C        0.0923040000   -0.0088180000   -0.0000000000
N       -0.3252360000    0.0220380000   -0.0000000000
H        0.1397740000    0.0030330000    0.0000000000
H        0.1460640000    0.0008760000   -0.0000000000
H        0.1455760000    0.0003280000   -0.0000000000
H        0.1339970000    0.0028540000    0.0000000000
H        0.1496840000   -0.0001750000   -0.0000000000
C       -0.0964480000    0.9757070000    0.0000000000
H        0.1388480000   -0.0265950000    0.0000000000
