13   
From optimize.out: Frame 53 / 54, Energy=    -286.9243082817
C        1.3917926526    0.8452961317   -0.4535025930
C        0.3320571785   -1.4191549484   -0.0108989053
C       -0.9372591919   -1.0635990874    0.3355769777
C       -1.4735453263    0.2709161228    0.4088277573
C       -0.8285738633    1.4661756562    0.1474827301
N        0.4314529297    1.7764552369   -0.2354434273
H        2.3396145720    1.2992120474   -0.7509214815
H        0.5705480365   -2.4807056323   -0.0106180559
H       -1.6290252401   -1.8659895641    0.5846124860
H       -2.5160373095    0.3540411315    0.7062609095
H       -1.4481548325    2.3572705780    0.2719537962
C        1.4089889628   -0.5338951732   -0.3753636075
H        2.3581414318   -1.0060224992   -0.6179665861
13   
From optimize.out: Frame 52 / 54, Energy=    -286.9243021355
C        1.3917182206    0.8442583288   -0.4549175044
C        0.3322187490   -1.4195847064   -0.0119923748
C       -0.9371653241   -1.0631856537    0.3346342928
C       -1.4736230813    0.2710854970    0.4098321821
C       -0.8285597263    1.4668044830    0.1470197673
N        0.4300117010    1.7758917270   -0.2370113604
H        2.3393643522    1.3002220309   -0.7495890489
H        0.5712721453   -2.4810438219   -0.0089899455
H       -1.6297375124   -1.8655619953    0.5818680698
H       -2.5154619555    0.3541256091    0.7093549397
H       -1.4483115957    2.3578996083    0.2720455071
C        1.4095433913   -0.5340863235   -0.3753784662
H        2.3587306359   -1.0068247833   -0.6168760586
13   
From optimize.out: Frame 51 / 54, Energy=    -286.9242915517
C        1.3916996282    0.8450855459   -0.4573721240
C        0.3324030372   -1.4205303783   -0.0108218328
C       -0.9375208863   -1.0640911047    0.3319584696
C       -1.4731842053    0.2703469821    0.4076914797
C       -0.8267467722    1.4671393664    0.1489772655
N        0.4304326149    1.7769609055   -0.2342276106
H        2.3387624470    1.3000273761   -0.7553912493
H        0.5716594186   -2.4819728607   -0.0014489486
H       -1.6306811826   -1.8662996380    0.5778815757
H       -2.5151918902    0.3545132777    0.7063692578
H       -1.4475233866    2.3571772634    0.2770368343
C        1.4088187625   -0.5323839063   -0.3736264372
H        2.3570724148   -1.0059728291   -0.6170266802
13   
From optimize.out: Frame 50 / 54, Energy=    -286.9242782000
C        1.3903821423    0.8447278166   -0.4557375607
C        0.3328237303   -1.4193837323   -0.0093253333
C       -0.9378042532   -1.0640590572    0.3320210599
C       -1.4743211414    0.2700170958    0.4023222378
C       -0.8264177913    1.4679478868    0.1506975316
N        0.4331693878    1.7771233746   -0.2228394909
H        2.3383012573    1.2980641640   -0.7539124291
H        0.5754716269   -2.4800293183    0.0104967941
H       -1.6286476361   -1.8665877018    0.5824824875
H       -2.5180326787    0.3552834609    0.6952356268
H       -1.4476831890    2.3573299795    0.2794699679
C        1.4077510049   -0.5338317837   -0.3809454581
H        2.3550075400   -1.0066021849   -0.6299654336
13   
From optimize.out: Frame 49 / 54, Energy=    -286.9242382420
C        1.3906810126    0.8452737728   -0.4523958029
C        0.3335490946   -1.4207060508   -0.0049475728
C       -0.9382699273   -1.0656553149    0.3313308369
C       -1.4755404230    0.2693246789    0.3917473115
C       -0.8239219292    1.4683675709    0.1572597147
N        0.4398223905    1.7788910283   -0.2037681380
H        2.3343176809    1.2987891204   -0.7641079960
H        0.5798957783   -2.4803109599    0.0283053328
H       -1.6270878562   -1.8673817413    0.5891731772
H       -2.5228972693    0.3554086251    0.6716820911
H       -1.4450446949    2.3574463900    0.2874299632
C        1.4051644899   -0.5332723049   -0.3855784505
H        2.3493316530   -1.0061748145   -0.6461304671
13   
From optimize.out: Frame 48 / 54, Energy=    -286.9241790586
C        1.3916677340    0.8457189854   -0.4479990589
C        0.3335849777   -1.4198550232   -0.0029019041
C       -0.9385854481   -1.0658370052    0.3325836197
C       -1.4780392975    0.2685972561    0.3817445760
C       -0.8227640523    1.4678400022    0.1624904916
N        0.4457420609    1.7807951098   -0.1869301336
H        2.3322497889    1.2974464872   -0.7712099899
H        0.5847323904   -2.4780528097    0.0392767091
H       -1.6254061296   -1.8662631432    0.5995453985
H       -2.5281340835    0.3520576909    0.6517653735
H       -1.4424469907    2.3580912080    0.2922247443
C        1.4027019511   -0.5337233727   -0.3916859479
H        2.3446970987   -1.0068153856   -0.6589038782
13   
From optimize.out: Frame 47 / 54, Energy=    -286.9241168729
C        1.3948052100    0.8438783677   -0.4457081940
C        0.3332851266   -1.4191359223   -0.0016591075
C       -0.9393440644   -1.0648199067    0.3319458487
C       -1.4802690857    0.2685855779    0.3752985111
C       -0.8221033690    1.4661690013    0.1639193569
N        0.4462015753    1.7789974209   -0.1836606857
H        2.3284936913    1.3000382287   -0.7813612584
H        0.5894636992   -2.4760625180    0.0432375018
H       -1.6276073094   -1.8635158824    0.6009001638
H       -2.5304319754    0.3501379740    0.6441290617
H       -1.4383374745    2.3578052204    0.3020804044
C        1.4017588516   -0.5346288321   -0.3921957657
H        2.3440851243   -1.0074487293   -0.6569258371
13   
From optimize.out: Frame 46 / 54, Energy=    -286.9238530001
C        1.3916932598    0.8449433214   -0.4385025705
C        0.3402232858   -1.4195329177   -0.0010574717
C       -0.9321668776   -1.0630465211    0.3266603767
C       -1.4799832579    0.2711784246    0.3691678096
C       -0.8229859504    1.4699687070    0.1648808947
N        0.4431762960    1.7875361257   -0.1835320669
H        2.3297862126    1.2915732793   -0.7729451278
H        0.6033096218   -2.4748429192    0.0441215602
H       -1.6185013931   -1.8589924573    0.6111653245
H       -2.5311133510    0.3458933790    0.6341843265
H       -1.4402124024    2.3607522438    0.3055403901
C        1.3924463468   -0.5335506349   -0.3935763666
H        2.3243282097   -1.0218800306   -0.6661070789
13   
From optimize.out: Frame 45 / 54, Energy=    -286.9233656800
C        1.3919739268    0.8430829895   -0.4372700344
C        0.3300380808   -1.4195715298   -0.0178186721
C       -0.9254237869   -1.0614032723    0.3457713100
C       -1.4847105267    0.2759295216    0.3718405191
C       -0.8366280579    1.4608528340    0.1596165114
N        0.4676738307    1.7771847073   -0.1352720243
H        2.3356253918    1.3119940701   -0.7281180776
H        0.5759681790   -2.4781392423    0.0467256454
H       -1.6009704458   -1.8537634607    0.6629994715
H       -2.5426722780    0.3411426198    0.6136944912
H       -1.4457069875    2.3608048914    0.2599145920
C        1.4003311523   -0.5399736468   -0.4305159474
H        2.3345015213   -1.0181404818   -0.7115677850
13   
From optimize.out: Frame 44 / 54, Energy=    -286.9226481733
C        1.3955142380    0.8513036246   -0.4162183405
C        0.3329978187   -1.4102724023   -0.0355819611
C       -0.9130685527   -1.0549613963    0.3772158358
C       -1.4845958188    0.2768824884    0.3778767782
C       -0.8511766629    1.4571041192    0.1400023093
N        0.4810004267    1.7657212863   -0.0893170362
H        2.3691291478    1.3039629492   -0.6277028167
H        0.5766044385   -2.4695178460    0.0403509935
H       -1.5704794461   -1.8479979095    0.7268595603
H       -2.5468335438    0.3358905968    0.6053787096
H       -1.4629265661    2.3586964769    0.1790982451
C        1.3759718419   -0.5432807630   -0.4812752554
H        2.2978626789   -1.0235312242   -0.7966870218
13   
From optimize.out: Frame 43 / 54, Energy=    -286.9215745734
C        1.3964818024    0.8605623484   -0.3950160097
C        0.3335960114   -1.4040896126   -0.0483238176
C       -0.9095627895   -1.0510566246    0.4186145257
C       -1.4825041182    0.2754331356    0.3899961585
C       -0.8563125226    1.4527076988    0.1247211748
N        0.4952701435    1.7506662095   -0.0387396865
H        2.3882962485    1.3038183050   -0.5380778728
H        0.5768012066   -2.4639770573    0.0382087449
H       -1.5544172874   -1.8474699097    0.7791377957
H       -2.5513388446    0.3371043677    0.5910748690
H       -1.4694711915    2.3521844967    0.0947688861
C        1.3588580601   -0.5472767875   -0.5343143251
H        2.2743032813   -1.0186065700   -0.8820504431
13   
From optimize.out: Frame 42 / 54, Energy=    -286.9204874066
C        1.4003568208    0.8715207299   -0.3675178115
C        0.3331310951   -1.3967031719   -0.0563083439
C       -0.9068412728   -1.0497288787    0.4563105018
C       -1.4779361458    0.2724400544    0.3961889256
C       -0.8561846313    1.4492063572    0.1069469159
N        0.5019266918    1.7420022151   -0.0024563623
H        2.4117533692    1.2840561489   -0.4613684253
H        0.5897370987   -2.4548726700    0.0295779614
H       -1.5421815250   -1.8493339840    0.8235863022
H       -2.5500176325    0.3410840618    0.5809271568
H       -1.4753369664    2.3407126335    0.0244227449
C        1.3309266362   -0.5473372624   -0.5734013063
H        2.2406664621   -1.0030462338   -0.9569082592
13   
From optimize.out: Frame 41 / 54, Energy=    -286.9195079527
C        1.4028557553    0.8790486518   -0.3503445443
C        0.3344555878   -1.3969218372   -0.0439012700
C       -0.9086256957   -1.0507636672    0.4776179637
C       -1.4725057174    0.2699598779    0.4024300429
C       -0.8479485895    1.4473689729    0.1099392896
N        0.5074927132    1.7406193481    0.0157292762
H        2.4225905511    1.2712616126   -0.4321430594
H        0.6031918474   -2.4532254249    0.0408867535
H       -1.5468675103   -1.8529811906    0.8327302837
H       -2.5482164229    0.3441715736    0.5580966022
H       -1.4756393044    2.3298924037   -0.0061017281
C        1.3128906087   -0.5436298744   -0.5971560273
H        2.2163261766   -0.9848004463   -1.0077835826
13   
From optimize.out: Frame 40 / 54, Energy=    -286.9182240747
C        1.4087989143    0.8800814365   -0.3323323241
C        0.3219742667   -1.4169172639   -0.0650756270
C       -0.9028312812   -1.0472965310    0.4768612866
C       -1.4729886281    0.2723434486    0.3861278861
C       -0.8557519032    1.4512635254    0.0792916435
N        0.4952311221    1.7478623404    0.0059308301
H        2.4320463849    1.2689597788   -0.3568837935
H        0.6024539705   -2.4691290571    0.0218037842
H       -1.5255555172   -1.8347615170    0.8921087363
H       -2.5414801539    0.3506314566    0.5796215568
H       -1.4920631301    2.3310700306   -0.0229346972
C        1.3053554042   -0.5481355120   -0.6414570386
H        2.2248105510   -0.9859721358   -1.0230622431
13   
From optimize.out: Frame 39 / 54, Energy=    -286.9166826295
C        1.4112317457    0.8844419520   -0.3190105460
C        0.3312282957   -1.4106937834   -0.0471661875
C       -0.8898739501   -1.0407945937    0.4728487678
C       -1.4738838765    0.2662610520    0.3662883265
C       -0.8477906617    1.4443259048    0.0604310495
N        0.4931127687    1.7473657013   -0.0092862949
H        2.4406327557    1.2472315894   -0.2956902265
H        0.6251073738   -2.4554650501    0.0551240448
H       -1.5087056429   -1.8217488251    0.9089768956
H       -2.5426224092    0.3358099413    0.5589482773
H       -1.4819159945    2.3295054604   -0.0017898967
C        1.2688592993   -0.5369748231   -0.6756434713
H        2.1746202961   -0.9892645257   -1.0740307385
13   
From optimize.out: Frame 38 / 54, Energy=    -286.9144578814
C        1.4229284521    0.8915299629   -0.3183033137
C        0.3297909296   -1.4167749303   -0.0620531032
C       -0.8788844691   -1.0388455735    0.4600912508
C       -1.4736779523    0.2615696753    0.3521591666
C       -0.8527324586    1.4410948860    0.0467633727
N        0.4869424158    1.7503738634   -0.0323763567
H        2.4536607729    1.2421603756   -0.2365805505
H        0.6080425041   -2.4645503598    0.0527155162
H       -1.4808630556   -1.8034931462    0.9473944105
H       -2.5378053709    0.3211289057    0.5724496979
H       -1.4840448373    2.3278210555   -0.0059520632
C        1.2588637694   -0.5110340441   -0.6917380754
H        2.1477793000   -1.0009806704   -1.0845699520
13   
From optimize.out: Frame 37 / 54, Energy=    -286.9116939528
C        1.4088724199    0.8536181701   -0.3346860351
C        0.3383646287   -1.4181164429   -0.0390074584
C       -0.8913594163   -1.0364669089    0.4259038846
C       -1.4963311022    0.2634551219    0.3158395081
C       -0.8609676546    1.4477633056    0.0565506824
N        0.4833455930    1.7219341614   -0.0569485875
H        2.4267780893    1.2379865859   -0.2034521852
H        0.5993986270   -2.4621954635    0.1303383509
H       -1.4763111725   -1.7904928397    0.9502834409
H       -2.5582591798    0.3238672913    0.5482864356
H       -1.4653977129    2.3531176469    0.0702366303
C        1.2871861538   -0.5265807383   -0.7404433552
H        2.2046807266   -0.9678898897   -1.1229013113
13   
From optimize.out: Frame 36 / 54, Energy=    -286.9092606497
C        1.3948273535    0.8332767212   -0.3049131910
C        0.3253421149   -1.4055125761   -0.0915219278
C       -0.8886122935   -1.0295016306    0.4223629690
C       -1.4992820558    0.2638373550    0.3153766489
C       -0.8644858637    1.4438977402    0.0294537878
N        0.4804884793    1.7006820314   -0.0775771687
H        2.4002952396    1.2101300132   -0.0883573471
H        0.6065214669   -2.4425136180    0.0968326244
H       -1.4305378061   -1.7700001424    1.0077764282
H       -2.5474469897    0.3310360080    0.6025600628
H       -1.4637242540    2.3514692740    0.0027195179
C        1.2875371072   -0.5165316750   -0.7680780493
H        2.1990775015   -0.9702695010   -1.1466343551
13   
From optimize.out: Frame 35 / 54, Energy=    -286.9059062464
C        1.4078674793    0.8094087151   -0.2885062162
C        0.3579651807   -1.3846876309   -0.0806336130
C       -0.8688883223   -1.0110200444    0.3990400316
C       -1.5237393627    0.2647462158    0.2632699346
C       -0.8865512437    1.4526076119    0.0176836645
N        0.4642052259    1.6714318543   -0.0732809073
H        2.4109704117    1.1762366121   -0.0271686744
H        0.6682874665   -2.4066243306    0.1315536066
H       -1.3745277600   -1.7358837271    1.0391027500
H       -2.5640169477    0.3259615750    0.5803634702
H       -1.4688900793    2.3713007635    0.0424316719
C        1.2473267774   -0.5271968349   -0.7922273416
H        2.1299911741   -1.0062807800   -1.2116283770
13   
From optimize.out: Frame 34 / 54, Energy=    -286.9007618269
C        1.3905783264    0.7563734332   -0.2448819852
C        0.3733082232   -1.3329633126   -0.0837422386
C       -0.8724653168   -0.9921068284    0.4118673172
C       -1.5372219226    0.2636711528    0.2626251728
C       -0.8928600626    1.4567213272    0.0041286742
N        0.4533119679    1.6538610441   -0.0593742217
H        2.3899634730    1.0823860071    0.0731417434
H        0.7295376167   -2.3378430212    0.1428279312
H       -1.3561971434   -1.7216344921    1.0635301952
H       -2.5753643230    0.3271821381    0.5850282738
H       -1.4751790582    2.3765140444    0.0005066803
C        1.2475452693   -0.5299061137   -0.8591400056
H        2.1250429501   -1.0022553788   -1.2965175369
13   
From optimize.out: Frame 33 / 54, Energy=    -286.8874583412
C        1.3903654162    0.7107220077   -0.2026529379
C        0.4141674120   -1.2751423008   -0.0594216092
C       -0.8577991146   -0.9673970048    0.4149187023
C       -1.5515725416    0.2615503186    0.2435461192
C       -0.9026633879    1.4638715157   -0.0042974612
N        0.4363635135    1.6390588002   -0.0383287751
H        2.3904797208    0.9965400501    0.1518214261
H        0.8158822479   -2.2588232713    0.1794037639
H       -1.3220871336   -1.7068493129    1.0705867677
H       -2.5922095223    0.3186045353    0.5590243896
H       -1.4809283236    2.3865916154   -0.0057511587
C        1.2068006286   -0.5414666085   -0.9131422667
H        2.0532010844   -1.0272603446   -1.3957069600
13   
From optimize.out: Frame 31 / 54, Energy=    -286.8723535359
C        1.3329263234    0.6184620532   -0.1269706371
C        0.4451117107   -1.2114955436   -0.0064919570
C       -0.8534414836   -0.9464142560    0.4242406954
C       -1.5462926766    0.2428894335    0.2126436482
C       -0.8592121545    1.4444652162   -0.0245373412
N        0.4520209619    1.5857645558   -0.0017124710
H        2.3161627358    0.8364368810    0.2945161378
H        0.9200433805   -2.1488671845    0.2774529129
H       -1.3087785681   -1.6958613883    1.0714546045
H       -2.5911350786    0.3114590376    0.5067122830
H       -1.4169082392    2.3784900979   -0.0361595729
C        1.1504503896   -0.4748994382   -1.0200023476
H        1.9590526986   -0.9404294647   -1.5711459549
13   
From optimize.out: Frame 30 / 54, Energy=    -286.8650395991
C        1.3176529663    0.5670836534   -0.1009156556
C        0.4749973360   -1.1570868377    0.0094943054
C       -0.8545305595   -0.9341104993    0.4256371552
C       -1.5524276923    0.2399221027    0.2099463480
C       -0.8562969892    1.4508520834   -0.0215549209
N        0.4484726591    1.5836120752    0.0149798648
H        2.2993743454    0.7444111653    0.3414227775
H        0.9827486462   -2.0644319848    0.3346043606
H       -1.3055536787   -1.7076107641    1.0461262928
H       -2.6007144044    0.3067505923    0.4907807897
H       -1.4169016266    2.3842028322   -0.0385566357
C        1.1344935656   -0.4765881699   -1.0680216115
H        1.9286854319   -0.9370062488   -1.6439430704
13   
From optimize.out: Frame 29 / 54, Energy=    -286.8610532660
C        1.2963495364    0.5226206703   -0.0854289890
C        0.4990907767   -1.1167927244    0.0210524854
C       -0.8577093438   -0.9256401198    0.4218007569
C       -1.5535485788    0.2369456939    0.2089615861
C       -0.8484724948    1.4560915330   -0.0176127359
N        0.4500243285    1.5835972864    0.0251810925
H        2.2744926478    0.6673521514    0.3741894960
H        1.0280291624   -1.9883919714    0.4082669427
H       -1.3123374270   -1.7253643448    1.0037922488
H       -2.6036706557    0.3025630229    0.4814829168
H       -1.4117923944    2.3889983178   -0.0300204040
C        1.1267149614   -0.4740779637   -1.1099214027
H        1.9128294815   -0.9279015515   -1.7017439937
13   
From optimize.out: Frame 28 / 54, Energy=    -286.8594187776
C        1.2819673082    0.4936964963   -0.0845299882
C        0.5185284333   -1.0852210072    0.0325168467
C       -0.8645180942   -0.9236923634    0.4165796365
C       -1.5534367516    0.2398449503    0.2320526932
C       -0.8461904141    1.4667534592   -0.0012285335
N        0.4490575475    1.5932456699    0.0179156617
H        2.2609555682    0.6258600696    0.3775742746
H        1.0571900511   -1.9244191383    0.4770163758
H       -1.3351636429   -1.7590659895    0.9316417296
H       -2.6074161303    0.3022607701    0.4894889935
H       -1.4155790001    2.3968396045   -0.0228051053
C        1.1333909115   -0.4880593266   -1.1364037364
H        1.9212142134   -0.9380431948   -1.7298188481
13   
From optimize.out: Frame 27 / 54, Energy=    -286.8584901287
C        1.2719577984    0.4759759130   -0.0882936186
C        0.5331697386   -1.0637745318    0.0442676320
C       -0.8690919310   -0.9234824712    0.4099112469
C       -1.5526171088    0.2412488481    0.2490342516
C       -0.8438510290    1.4738835043    0.0134286270
N        0.4487266842    1.6005728704    0.0095743670
H        2.2532407691    0.6032716711    0.3707430830
H        1.0748306561   -1.8757596794    0.5351284907
H       -1.3519648481   -1.7841446439    0.8687279914
H       -2.6096061247    0.3009735309    0.4939658572
H       -1.4177178096    2.4019466964   -0.0086031761
C        1.1364262118   -0.5012065201   -1.1527762739
H        1.9264969932   -0.9495051878   -1.7451084782
13   
From optimize.out: Frame 26 / 54, Energy=    -286.8579220533
C        1.2735012427    0.4694597887   -0.0926564807
C        0.5443336803   -1.0594449568    0.0474741256
C       -0.8707954877   -0.9269782010    0.3910904941
C       -1.5510206774    0.2381810067    0.2456749971
C       -0.8413050395    1.4736098035    0.0174823105
N        0.4491750338    1.6020284075    0.0019568923
H        2.2548058909    0.5979956939    0.3666599482
H        1.0752659325   -1.8420304792    0.5970059442
H       -1.3579430531   -1.7961562115    0.8282955305
H       -2.6053724599    0.2987767456    0.5005308955
H       -1.4162361492    2.4016059271    0.0157307792
C        1.1295764845   -0.5064430457   -1.1600157706
H        1.9160146020   -0.9506044789   -1.7592296659
13   
From optimize.out: Frame 25 / 54, Energy=    -286.8574061373
C        1.2648323843    0.4555910765   -0.0988808153
C        0.5591619708   -1.0359961552    0.1086009616
C       -0.8731921981   -0.9279467840    0.3923573057
C       -1.5509079986    0.2349858029    0.2377953295
C       -0.8293136584    1.4757377670    0.0431777763
N        0.4581237441    1.6039618975    0.0089750008
H        2.2648430960    0.5954974768    0.3145545735
H        1.0961894997   -1.8213181802    0.6454920929
H       -1.3729973178   -1.8137952771    0.7792698512
H       -2.6164176171    0.2899471980    0.4418527475
H       -1.4011456507    2.4055236018    0.0684190512
C        1.1035130148   -0.5370066456   -1.1555412777
H        1.8973107310   -0.9251817785   -1.7860725972
13   
From optimize.out: Frame 24 / 54, Energy=    -286.8568588268
C        1.2553548966    0.4566778515   -0.1253136066
C        0.5744692307   -1.0085633917    0.1164124994
C       -0.8719562601   -0.9162622482    0.4000945435
C       -1.5594150263    0.2371269195    0.2376520625
C       -0.8379317041    1.4863795486    0.0662880952
N        0.4439388914    1.6126018707    0.0094773157
H        2.2670092733    0.6254257912    0.2465551327
H        1.1104915447   -1.7874798721    0.6625264017
H       -1.3675148907   -1.8224151842    0.7416299756
H       -2.6331687401    0.2824454242    0.3959525035
H       -1.4091592316    2.4144249421    0.1427480533
C        1.1174408605   -0.5563299364   -1.1611918864
H        1.9104411556   -1.0240317153   -1.7328310899
13   
From optimize.out: Frame 23 / 54, Energy=    -286.8552383622
C        1.2571950778    0.4589877655   -0.1316970073
C        0.5930568002   -0.9763218682    0.1697243356
C       -0.8660912655   -0.9132933239    0.3970575010
C       -1.5579026383    0.2321376738    0.2150070452
C       -0.8348165429    1.4872042772    0.0862265008
N        0.4461054547    1.6171708728    0.0291887194
H        2.2870881555    0.6452471189    0.1779766770
H        1.1328834815   -1.7622948838    0.7009985959
H       -1.3612794381   -1.8316984736    0.7035868212
H       -2.6369487464    0.2687800096    0.3330590360
H       -1.4074323127    2.4095556044    0.2101086589
C        1.0918227264   -0.5567641190   -1.1642818758
H        1.8563192478   -1.0787106535   -1.7269550078
13   
From optimize.out: Frame 22 / 54, Energy=    -286.8516350449
C        1.2456455404    0.4649290576   -0.1332302905
C        0.6198446537   -0.9346335889    0.2102420099
C       -0.8483597622   -0.9047291973    0.3902184202
C       -1.5502999258    0.2290274827    0.1975268630
C       -0.8278887202    1.4945055571    0.1103505783
N        0.4475982939    1.6261071382    0.0540943895
H        2.2919267481    0.6611670774    0.1071717365
H        1.1807939014   -1.7275726775    0.7024066696
H       -1.3352495993   -1.8342004497    0.6774192488
H       -2.6333411730    0.2498922135    0.2681983310
H       -1.4063256981    2.4099720700    0.2582454697
C        1.0501112534   -0.5709629948   -1.1434832345
H        1.7655444878   -1.1635016882   -1.6991601915
13   
From optimize.out: Frame 21 / 54, Energy=    -286.8474082391
C        1.2359699274    0.4705036677   -0.1364083444
C        0.6311395728   -0.9121138676    0.2366078224
C       -0.8387258755   -0.9009690759    0.3880491175
C       -1.5439923354    0.2295736049    0.1881306502
C       -0.8274586495    1.4997487876    0.1255318787
N        0.4446521745    1.6323521428    0.0735678043
H        2.2875641999    0.6760600990    0.0681897541
H        1.2053746339   -1.7118234342    0.7013458869
H       -1.3226248538   -1.8354837732    0.6627649680
H       -2.6276425964    0.2416217154    0.2328435789
H       -1.4098941738    2.4107550578    0.2855830463
C        1.0429955489   -0.5638327987   -1.1616490723
H        1.7226424270   -1.2363921254   -1.6645570903
13   
From optimize.out: Frame 20 / 54, Energy=    -286.8408354994
C        1.2242256105    0.4735606021   -0.1325565449
C        0.6512869517   -0.8805284358    0.2681465615
C       -0.8146798303   -0.8966560296    0.3763130228
C       -1.5277691197    0.2256282838    0.1745761480
C       -0.8165286283    1.5013940975    0.1451838995
N        0.4534640583    1.6381527794    0.1027844229
H        2.2852636208    0.6796131465    0.0154748287
H        1.2488887205   -1.6792154086    0.6963953393
H       -1.2970645477   -1.8338552213    0.6471546348
H       -2.6117809169    0.2203858208    0.1827537308
H       -1.4041710561    2.4083824273    0.3074334048
C        0.9855746227   -0.5615545920   -1.1554803396
H        1.6232905144   -1.2953074701   -1.6281791086
13   
From optimize.out: Frame 19 / 54, Energy=    -286.8337935326
C        1.2112159392    0.4721524811   -0.1314237914
C        0.6628890013   -0.8626010733    0.2867918175
C       -0.7939418429   -0.8966817783    0.3689405490
C       -1.5148228559    0.2258057669    0.1722861711
C       -0.8095631686    1.5034636823    0.1646577274
N        0.4613105185    1.6423518425    0.1311831820
H        2.2781168043    0.6725824483   -0.0224111591
H        1.2818201050   -1.6593206202    0.6810783441
H       -1.2785056703   -1.8326020880    0.6427012267
H       -2.5980959742    0.2059271793    0.1459800230
H       -1.3999883497    2.4107043331    0.3116252616
C        0.9415283275   -0.5462084684   -1.1704223863
H        1.5580371658   -1.3355737053   -1.5809869656
13   
From optimize.out: Frame 18 / 54, Energy=    -286.8262148477
C        1.2043240177    0.4610282399   -0.1258461830
C        0.6709525440   -0.8517999145    0.3053029132
C       -0.7693373171   -0.9037521282    0.3606051439
C       -1.5018269429    0.2252036031    0.1687511649
C       -0.8001155883    1.4999192323    0.1841324017
N        0.4788797371    1.6400632362    0.1666846045
H        2.2801879749    0.6342389989   -0.0479812805
H        1.3079636473   -1.6404931020    0.6781752685
H       -1.2588165951   -1.8341487332    0.6470455283
H       -2.5841062796    0.1922208500    0.1053624472
H       -1.3919425212    2.4093007992    0.3061613835
C        0.8730253639   -0.5028188207   -1.2000196557
H        1.4908119592   -1.3289622609   -1.5483737365
13   
From optimize.out: Frame 17 / 54, Energy=    -286.8183558252
C        1.2005500225    0.4432840316   -0.1203446972
C        0.6657768776   -0.8550076997    0.3286507620
C       -0.7576786534   -0.9163506457    0.3610360306
C       -1.4939595663    0.2265136271    0.1636144803
C       -0.7957543049    1.4941328135    0.1973673916
N        0.4921541823    1.6309266046    0.2013590677
H        2.2820680590    0.5909330871   -0.0457610559
H        1.3102072291   -1.6396949430    0.6968878154
H       -1.2561567138   -1.8382850505    0.6583089149
H       -2.5745752701    0.1888990589    0.0709871045
H       -1.3857727077    2.4067171421    0.2996915111
C        0.8467891529   -0.4335244239   -1.2732129227
H        1.4663516926   -1.2985436022   -1.5385844025
13   
From optimize.out: Frame 16 / 54, Energy=    -286.8077879506
C        1.1965564198    0.4077478800   -0.1120512433
C        0.6424811004   -0.8755230704    0.3590087871
C       -0.7603000238   -0.9363097090    0.3718408113
C       -1.4926423506    0.2301365801    0.1593605129
C       -0.7938027096    1.4837029598    0.2079253726
N        0.5047898992    1.6068252410    0.2456520513
H        2.2817658037    0.5281301202   -0.0171027657
H        1.2854124592   -1.6588945130    0.7373827989
H       -1.2752039580   -1.8432189538    0.6837530322
H       -2.5704026356    0.1946742423    0.0330246899
H       -1.3745448934    2.4044830285    0.2828126468
C        0.8569768304   -0.3298116275   -1.3820953224
H        1.4989140584   -1.2119421781   -1.5695113715
13   
From optimize.out: Frame 15 / 54, Energy=    -286.7942036334
C        1.1921653872    0.3587552433   -0.0994068701
C        0.6059566049   -0.9149578633    0.3901378788
C       -0.7757027970   -0.9634494602    0.3931872472
C       -1.4941745582    0.2359669297    0.1546911637
C       -0.7932792920    1.4694585397    0.2157873004
N        0.5157968955    1.5687723427    0.3071339141
H        2.2786640361    0.4546253051    0.0231002397
H        1.2366980105   -1.6988867764    0.7977717730
H       -1.3134914349   -1.8498071994    0.7190922511
H       -2.5667593141    0.2096727418   -0.0124294271
H       -1.3573547594    2.4024967500    0.2523737915
C        0.9030166943   -0.1963346434   -1.4926892878
H        1.5684645270   -1.0763119094   -1.6487499745
13   
From optimize.out: Frame 14 / 54, Energy=    -286.7796002471
C        1.1801242432    0.3139874739   -0.0906203673
C        0.5751395391   -0.9563918468    0.4082421194
C       -0.7883070503   -0.9918479944    0.4116408908
C       -1.4886744299    0.2432789273    0.1525503644
C       -0.7906293077    1.4585382071    0.2285503232
N        0.5239082210    1.5279965554    0.3831197672
H        2.2684412153    0.3928575242    0.0396420538
H        1.1963331321   -1.7363288463    0.8508294178
H       -1.3461037340   -1.8585088585    0.7487895548
H       -2.5524179027    0.2280665039   -0.0631090460
H       -1.3359146215    2.4033984956    0.2161458077
C        0.9381851104   -0.0738145743   -1.5725476395
H        1.6199155851   -0.9512315669   -1.7132332463
13   