13   
From optimize.out: Frame 1 / 2, Energy=    -286.9243082816
C        1.3917926526    0.8452961317   -0.4535025930
C        0.3320571785   -1.4191549484   -0.0108989053
C       -0.9372591919   -1.0635990874    0.3355769777
C       -1.4735453263    0.2709161228    0.4088277573
C       -0.8285738633    1.4661756562    0.1474827301
N        0.4314529297    1.7764552369   -0.2354434273
H        2.3396145720    1.2992120474   -0.7509214815
H        0.5705480365   -2.4807056323   -0.0106180559
H       -1.6290252401   -1.8659895641    0.5846124860
H       -2.5160373095    0.3540411315    0.7062609095
H       -1.4481548325    2.3572705780    0.2719537962
C        1.4089889628   -0.5338951732   -0.3753636075
H        2.3581414318   -1.0060224992   -0.6179665861
13   
From optimize.out: Frame 53 / 54, Energy=    -286.9243082817
C        1.3926199432    0.8446707948   -0.4387162829
C        0.3363719219   -1.4189873417   -0.0061718765
C       -0.9314681156   -1.0627087925    0.3340602561
C       -1.4811930371    0.2718187970    0.3714632435
C       -0.8268533577    1.4667261225    0.1623990210
N        0.4504839435    1.7825682340   -0.1694742636
H        2.3326151897    1.2979995988   -0.7587931989
H        0.5936470874   -2.4754793304    0.0442426078
H       -1.6146793998   -1.8584150031    0.6247817430
H       -2.5339935311    0.3453975142    0.6309404838
H       -1.4420100897    2.3600150027    0.2895856246
C        1.3951778077   -0.5355194838   -0.4048411820
H        2.3292816377   -1.0180861126   -0.6794761759
13   
From optimize.out: Frame 52 / 54, Energy=    -286.9243021355
C        1.3935933676    0.8471112280   -0.4270501821
C        0.3313839011   -1.4151787288   -0.0262454294
C       -0.9197672138   -1.0583746561    0.3614081996
C       -1.4845793440    0.2763001164    0.3750016540
C       -0.8433273164    1.4590092460    0.1502654095
N        0.4741758086    1.7714855430   -0.1127984775
H        2.3513334143    1.3083987294   -0.6798096976
H        0.5762600966   -2.4740739055    0.0437944116
H       -1.5867277081   -1.8511661571    0.6935413631
H       -2.5447044310    0.3388413984    0.6094309837
H       -1.4536539586    2.3596136767    0.2205690001
C        1.3887890308   -0.5416045491   -0.4552310132
H        2.3172243528   -1.0203619414   -0.7528762216
13   
From optimize.out: Frame 50 / 54, Energy=    -286.9242782000
C        1.3960164531    0.8552628019   -0.4070739881
C        0.3332156030   -1.4076263183   -0.0408005993
C       -0.9116157056   -1.0533984016    0.3945522811
C       -1.4836335669    0.2762213152    0.3827950445
C       -0.8531716942    1.4552793036    0.1334779678
N        0.4867707597    1.7595801875   -0.0684535029
H        2.3773503057    1.3032661879   -0.5903295423
H        0.5771002620   -2.4670659905    0.0392373967
H       -1.5638305775   -1.8478527926    0.7486497969
H       -2.5485444514    0.3364920422    0.5994819510
H       -1.4656642155    2.3557898512    0.1439925449
C        1.3684049510   -0.5448382086   -0.5031878953
H        2.2876018765   -1.0211099781   -0.8323414550
13   
From optimize.out: Frame 49 / 54, Energy=    -286.9242382420
C        1.3982195569    0.8655263492   -0.3827447857
C        0.3335626435   -1.4013142964   -0.0500116749
C       -0.9087239312   -1.0506650765    0.4351956473
C       -1.4801877300    0.2740315896    0.3930156227
C       -0.8553760969    1.4511828636    0.1183087224
N        0.4983925598    1.7472341306   -0.0230304288
H        2.3983530939    1.2949505351   -0.5058599889
H        0.5831535292   -2.4603495996    0.0361575951
H       -1.5502860940   -1.8485694719    0.7969662061
H       -2.5506440106    0.3389452434    0.5847682037
H       -1.4717264643    2.3466709674    0.0648221420
C        1.3463296589   -0.5468999927   -0.5516863804
H        2.2589332848   -1.0107432420   -0.9159008808
13   
From optimize.out: Frame 47 / 54, Energy=    -286.9241168729
C        1.4039325104    0.8763809797   -0.3509444613
C        0.3295492107   -1.4038400599   -0.0563137055
C       -0.9058772570   -1.0491323708    0.4687778161
C       -1.4748603568    0.2717931871    0.3942062228
C       -0.8539973304    1.4494730304    0.0979963659
N        0.5009563589    1.7437137529    0.0049773242
H        2.4215424570    1.2756041271   -0.4175343810
H        0.5975185477   -2.4594608390    0.0296491165
H       -1.5375141376   -1.8451293876    0.8498560535
H       -2.5465809753    0.3451925161    0.5748267289
H       -1.4812723959    2.3346595473    0.0002844723
C        1.3175087913   -0.5467006185   -0.6031188204
H        2.2290945769   -0.9925538647   -0.9926627320
13   
From optimize.out: Frame 46 / 54, Energy=    -286.9238530001
C        1.4123006101    0.8838080924   -0.3257575326
C        0.3269615376   -1.4142392358   -0.0580201372
C       -0.8939259781   -1.0435822154    0.4721385807
C       -1.4734019636    0.2680925328    0.3732926104
C       -0.8523222804    1.4468140396    0.0675370055
N        0.4932427461    1.7479845550   -0.0065318566
H        2.4389498425    1.2565410026   -0.3149063116
H        0.6108901675   -2.4632851558    0.0394857504
H       -1.5116284828   -1.8247338491    0.9069822264
H       -2.5413080833    0.3395808244    0.5708124814
H       -1.4866190132    2.3298594913   -0.0121029110
C        1.2843110951   -0.5367531884   -0.6613399747
H        2.1925498026   -0.9900868936   -1.0515899310
13   
From optimize.out: Frame 44 / 54, Energy=    -286.9226481733
C        1.4140916713    0.8712503777   -0.3267243154
C        0.3343530655   -1.4165722793   -0.0481882621
C       -0.8868156810   -1.0379210806    0.4445869406
C       -1.4852098651    0.2632088130    0.3357715451
C       -0.8561956150    1.4449503070    0.0537191865
N        0.4860129128    1.7354966081   -0.0414969801
H        2.4381178615    1.2407781797   -0.2283504678
H        0.6061337326   -2.4620342760    0.0924780308
H       -1.4825983314   -1.7995454915    0.9432779400
H       -2.5488907330    0.3246529506    0.5582187530
H       -1.4742674924    2.3409100310    0.0333371384
C        1.2746969569   -0.5226978412   -0.7141287680
H        2.1805715173   -0.9824762985   -1.1025007410
13   
From optimize.out: Frame 42 / 54, Energy=    -286.9204874066
C        1.4001581092    0.8384494576   -0.3135883769
C        0.3315083233   -1.4083579866   -0.0738469095
C       -0.8883275741   -1.0306585513    0.4221211429
C       -1.4997827577    0.2637675886    0.3124215819
C       -0.8646601115    1.4456700653    0.0375376998
N        0.4804444596    1.7058292940   -0.0706329785
H        2.4095176231    1.2171418603   -0.1220268806
H        0.6078928592   -2.4467561286    0.1097648884
H       -1.4420406382   -1.7746111948    0.9910029296
H       -2.5519399361    0.3284093825    0.5836408120
H       -1.4645746614    2.3531855018    0.0269763364
C        1.2850271144   -0.5204253239   -0.7605574701
H        2.1967771902   -0.9716439650   -1.1428127754
13   
From optimize.out: Frame 40 / 54, Energy=    -286.9182240747
C        1.4017177499    0.8106230369   -0.2884909834
C        0.3495287477   -1.3851007500   -0.0844252675
C       -0.8755132311   -1.0145873753    0.4078933129
C       -1.5176494178    0.2643330059    0.2795745431
C       -0.8803625633    1.4503572679    0.0197764822
N        0.4680325022    1.6785437542   -0.0729824211
H        2.4051232917    1.1757625842   -0.0345095704
H        0.6561331094   -2.4097506038    0.1219751513
H       -1.3899622020   -1.7449193416    1.0321512557
H       -2.5601533900    0.3277015923    0.5878947082
H       -1.4680118499    2.3656844488    0.0249754716
C        1.2599938246   -0.5241652512   -0.7925702404
H        2.1511234285   -0.9944823684   -1.2012624423
13   
From optimize.out: Frame 39 / 54, Energy=    -286.9166826295
C        1.3970399313    0.7730182387   -0.2582429355
C        0.3704448992   -1.3482579610   -0.0808609128
C       -0.8700900509   -0.9974475608    0.4072775285
C       -1.5331842860    0.2639241673    0.2615198987
C       -0.8911887610    1.4556850392    0.0086116579
N        0.4561962510    1.6593982865   -0.0630981452
H        2.3978692576    1.1114831450    0.0411188424
H        0.7126880329   -2.3580308979    0.1411864110
H       -1.3606560632   -1.7259286544    1.0548776373
H       -2.5723026356    0.3261194067    0.5814451708
H       -1.4732290093    2.3752724980    0.0157703215
C        1.2445872226   -0.5297072644   -0.8378861308
H        2.1218252114   -1.0055284428   -1.2717193437
13   
From optimize.out: Frame 37 / 54, Energy=    -286.9116939528
C        1.3904789180    0.7350586433   -0.2251651141
C        0.3923855032   -1.3059665057   -0.0723868625
C       -0.8656176222   -0.9805697363    0.4132920182
C       -1.5439222704    0.2626809288    0.2537171044
C       -0.8974372651    1.4600597720    0.0001944859
N        0.4453986828    1.6469498313   -0.0495480385
H        2.3902045107    1.0423042677    0.1098775274
H        0.7698521886   -2.3009484588    0.1599052991
H       -1.3402710757   -1.7147312468    1.0668249304
H       -2.5832293980    0.3231772291    0.5728869809
H       -1.4778634077    2.3812192931   -0.0024151238
C        1.2285214722   -0.5353037440   -0.8843538261
H        2.0914997637   -1.0139302737   -1.3428293813
13   
From optimize.out: Frame 36 / 54, Energy=    -286.9092606497
C        1.3822792396    0.6999558305   -0.1940557109
C        0.4165255468   -1.2690062502   -0.0531533502
C       -0.8579041079   -0.9656510697    0.4160830881
C       -1.5501245228    0.2590238869    0.2401257609
C       -0.8960577346    1.4607853502   -0.0067372498
N        0.4394017575    1.6322723572   -0.0341994284
H        2.3799786768    0.9781818693    0.1680771509
H        0.8263303805   -2.2471990622    0.1914310624
H       -1.3218839463   -1.7060255344    1.0703630366
H       -2.5912319633    0.3180179597    0.5529257284
H       -1.4716220989    2.3849554109   -0.0097306399
C        1.2008556534   -0.5315163580   -0.9255569452
H        2.0434531192   -1.0137943901   -1.4155725028
13   
From optimize.out: Frame 34 / 54, Energy=    -286.9007618269
C        1.3596417756    0.6613730094   -0.1621711736
C        0.4307192318   -1.2410982377   -0.0311100267
C       -0.8554682580   -0.9561735261    0.4199049504
C       -1.5487483905    0.2515687834    0.2270166726
C       -0.8794217241    1.4534912652   -0.0151235863
N        0.4447385382    1.6105522007   -0.0187430520
H        2.3507282513    0.9109023424    0.2281475105
H        0.8715970765   -2.2000087752    0.2318493489
H       -1.3149685047   -1.7009719734    1.0710509656
H       -2.5916348123    0.3147824745    0.5310431266
H       -1.4466845712    2.3822581885   -0.0220163388
C        1.1766594058   -0.5058604434   -0.9703007378
H        2.0028419817   -0.9808153083   -1.4895476594
13   
From optimize.out: Frame 33 / 54, Energy=    -286.8874583412
C        1.3374472737    0.6210159805   -0.1318874818
C        0.4464739742   -1.2099317586   -0.0103226883
C       -0.8541786405   -0.9468865968    0.4233171806
C       -1.5480302823    0.2447079964    0.2160438978
C       -0.8641470340    1.4480175637   -0.0214775198
N        0.4494362592    1.5920668819   -0.0033747051
H        2.3225334479    0.8403662012    0.2848566568
H        0.9179840689   -2.1478422532    0.2751857444
H       -1.3098811171   -1.6992989664    1.0669042487
H       -2.5929495815    0.3115289640    0.5104752168
H       -1.4249312192    2.3805073120   -0.0327685976
C        1.1547150123   -0.4835389608   -1.0150294124
H        1.9655278386   -0.9507123638   -1.5619225402
13   
From optimize.out: Frame 30 / 54, Energy=    -286.8650395991
C        1.3193729283    0.5770306023   -0.1070402091
C        0.4689407020   -1.1686594065    0.0060510935
C       -0.8546618255   -0.9368256190    0.4245950195
C       -1.5505991972    0.2404340940    0.2106749975
C       -0.8560503050    1.4495715526   -0.0219240849
N        0.4498667576    1.5843115058    0.0110988887
H        2.3010407866    0.7626222379    0.3311442718
H        0.9692342890   -2.0803244930    0.3272424534
H       -1.3076427607   -1.7064965313    1.0479067913
H       -2.5980438669    0.3076448885    0.4945519336
H       -1.4161221616    2.3830741453   -0.0364693206
C        1.1385053880   -0.4756536392   -1.0587775942
H        1.9361592654   -0.9367293374   -1.6290542404
13   
From optimize.out: Frame 29 / 54, Energy=    -286.8610532660
C        1.3013648076    0.5332922856   -0.0908587598
C        0.4940107761   -1.1254632969    0.0190149084
C       -0.8578313903   -0.9283381101    0.4222127686
C       -1.5531225642    0.2385627147    0.2136279918
C       -0.8508746237    1.4561880416   -0.0159791466
N        0.4492830131    1.5854037167    0.0201376486
H        2.2809590342    0.6874593832    0.3629779503
H        1.0171062413   -2.0039343585    0.3944755263
H       -1.3141464902   -1.7252385494    1.0056252113
H       -2.6033013073    0.3040201797    0.4863381050
H       -1.4143459585    2.3887287603   -0.0317588926
C        1.1307727188   -0.4775951987   -1.0997204184
H        1.9201257431   -0.9330855681   -1.6860928928
13   
From optimize.out: Frame 28 / 54, Energy=    -286.8594187776
C        1.2829423607    0.4965052238   -0.0861352740
C        0.5176023850   -1.0875466048    0.0330667598
C       -0.8639985048   -0.9242275087    0.4158658806
C       -1.5531833319    0.2394324052    0.2308077385
C       -0.8460808474    1.4659284983   -0.0011942969
N        0.4492434141    1.5928069752    0.0172524919
H        2.2624737466    0.6308856363    0.3741124801
H        1.0542791716   -1.9273007617    0.4759671136
H       -1.3339380546   -1.7573523897    0.9320649813
H       -2.6070155841    0.3019023700    0.4885609236
H       -1.4151475847    2.3961847988   -0.0200642482
C        1.1323715234   -0.4883135769   -1.1338841873
H        1.9204513060   -0.9389050657   -1.7264203630
13   
From optimize.out: Frame 26 / 54, Energy=    -286.8579220533
C        1.2718920612    0.4716448213   -0.0913582888
C        0.5402824698   -1.0588756041    0.0574820891
C       -0.8699724229   -0.9254166528    0.4016331906
C       -1.5518940793    0.2389382798    0.2440478671
C       -0.8403242938    1.4734857925    0.0193396441
N        0.4508551541    1.6009607462    0.0081496587
H        2.2568790460    0.6024159245    0.3585013244
H        1.0776739045   -1.8597610246    0.5697798846
H       -1.3563728814   -1.7912220890    0.8449330857
H       -2.6096325522    0.2981757790    0.4844294708
H       -1.4136161104    2.4020928329    0.0129341422
C        1.1273084521   -0.5088672175   -1.1537496658
H        1.9169212523   -0.9435715881   -1.7561224027
13   
From optimize.out: Frame 25 / 54, Energy=    -286.8574061373
C        1.2634885305    0.4588177541   -0.1063402963
C        0.5611614745   -1.0317666118    0.0985489377
C       -0.8722877717   -0.9238803008    0.3946555605
C       -1.5537461481    0.2363548127    0.2393768882
C       -0.8346442265    1.4788190685    0.0455126308
N        0.4515802095    1.6064210324    0.0076903560
H        2.2634848620    0.6059167903    0.3028262626
H        1.0965963153   -1.8144034152    0.6411049633
H       -1.3680710917   -1.8130009585    0.7769504266
H       -2.6196769619    0.2892902994    0.4387955385
H       -1.4069168905    2.4076590288    0.0821212223
C        1.1135096439   -0.5370820366   -1.1583359964
H        1.9055220547   -0.9631454632   -1.7629064940
13   
From optimize.out: Frame 23 / 54, Energy=    -286.8552383622
C        1.2572974760    0.4574794732   -0.1245751213
C        0.5800924883   -0.9989205229    0.1370909085
C       -0.8697288401   -0.9165288946    0.3978850135
C       -1.5577279908    0.2348296150    0.2284683457
C       -0.8355793875    1.4853730703    0.0714765345
N        0.4466075518    1.6133692412    0.0174236966
H        2.2748952162    0.6297071136    0.2272610184
H        1.1177874299   -1.7815119637    0.6760120266
H       -1.3656722891   -1.8251007300    0.7309164276
H       -2.6325929330    0.2778382439    0.3761824395
H       -1.4074472305    2.4113241029    0.1607493298
C        1.1052750804   -0.5540702851   -1.1617351299
H        1.8867934284   -1.0337884638   -1.7371554896
13   
From optimize.out: Frame 22 / 54, Energy=    -286.8516350449
C        1.2523812709    0.4611263092   -0.1316486534
C        0.6018513079   -0.9629793331    0.1804129111
C       -0.8596021736   -0.9101732879    0.3946350159
C       -1.5550163573    0.2314102363    0.2103589640
C       -0.8323666394    1.4900412271    0.0938146684
N        0.4464782802    1.6202739060    0.0371132803
H        2.2869423336    0.6495635593    0.1567484336
H        1.1497381521   -1.7510087656    0.6975718934
H       -1.3515071873   -1.8317370846    0.6970585159
H       -2.6351126795    0.2626371424    0.3136204537
H       -1.4071684821    2.4102273483    0.2223898231
C        1.0777839334   -0.5624024833   -1.1556362920
H        1.8255982411   -1.1069787739   -1.7164390141
13   
From optimize.out: Frame 20 / 54, Energy=    -286.8408354994
C        1.2415731471    0.4673479353   -0.1347979572
C        0.6232444004   -0.9266622433    0.2204185514
C       -0.8449391907   -0.9035614147    0.3897378980
C       -1.5476525887    0.2296402400    0.1942096227
C       -0.8283605595    1.4966062829    0.1161293459
N        0.4458484308    1.6285848030    0.0621215768
H        2.2890681132    0.6676244891    0.0932349890
H        1.1892498249   -1.7225645273    0.7016880079
H       -1.3310514282   -1.8346418553    0.6721343110
H       -2.6306175360    0.2473288061    0.2556239364
H       -1.4083738073    2.4103543619    0.2681736163
C        1.0504971418   -0.5656505614   -1.1554529230
H        1.7515140522   -1.1944063163   -1.6832209753
13   
From optimize.out: Frame 19 / 54, Energy=    -286.8337935326
C        1.2289449742    0.4721478666   -0.1337212803
C        0.6435107663   -0.8930095721    0.2554498927
C       -0.8237287538   -0.8984016671    0.3805767510
C       -1.5338625951    0.2269846968    0.1799161199
C       -0.8204035952    1.5004984552    0.1373477499
N        0.4505386310    1.6357334095    0.0913212052
H        2.2863368993    0.6774636678    0.0363896701
H        1.2320825771   -1.6916482946    0.6982026645
H       -1.3068271134   -1.8343513158    0.6535357096
H       -2.6177103442    0.2283629123    0.2025253714
H       -1.4059712315    2.4091707280    0.2980899057
C        1.0062246896   -0.5627869216   -1.1565570053
H        1.6608650956   -1.2701639651   -1.6430767544
13   
From optimize.out: Frame 16 / 54, Energy=    -286.8077879506
C        1.2134346406    0.4714576499   -0.1313409586
C        0.6607149576   -0.8661014427    0.2837463195
C       -0.7966384645   -0.8973621005    0.3700423059
C       -1.5167272211    0.2258672915    0.1729053364
C       -0.8104799373    1.5027685054    0.1619545982
N        0.4609233274    1.6412246478    0.1277572539
H        2.2796315480    0.6708221610   -0.0157141029
H        1.2763754492   -1.6626032158    0.6837716167
H       -1.2812367319   -1.8330000206    0.6443737588
H       -2.6000447244    0.2082245197    0.1512509184
H       -1.4003303573    2.4102667681    0.3096957038
C        0.9462536119   -0.5457590686   -1.1702005529
H        1.5681239017   -1.3258056950   -1.5882421973
13   
From optimize.out: Frame 15 / 54, Energy=    -286.7942036334
C        1.2039997635    0.4568246798   -0.1248108775
C        0.6683027710   -0.8541728375    0.3103462645
C       -0.7687528395   -0.9068409214    0.3617906246
C       -1.5009783670    0.2256931512    0.1675739168
C       -0.7999276018    1.4985379709    0.1858605511
N        0.4808602371    1.6374657888    0.1731661629
H        2.2805209994    0.6253892159   -0.0440608970
H        1.3053808528   -1.6426113370    0.6844506400
H       -1.2604553189   -1.8352603677    0.6500558533
H       -2.5828574007    0.1928973212    0.0996194628
H       -1.3910068809    2.4086615160    0.3048059193
C        0.8733635836   -0.4863965285   -1.2194097158
H        1.4915502013   -1.3201876518   -1.5493879049
13   
From optimize.out: Frame 13 / 54, Energy=    -286.7666607320
C        1.1990860369    0.4292757174   -0.1171597178
C        0.6561936303   -0.8635308247    0.3401104259
C       -0.7595155202   -0.9240553740    0.3656028692
C       -1.4938870611    0.2279727127    0.1621242413
C       -0.7951948479    1.4900572220    0.2010359109
N        0.4967035842    1.6212463085    0.2180411878
H        2.2818230606    0.5669164838   -0.0337148616
H        1.2995269736   -1.6479068941    0.7129443222
H       -1.2644192652   -1.8401263439    0.6684282860
H       -2.5733918994    0.1915601489    0.0569778240
H       -1.3813816284    2.4059274264    0.2929165406
C        0.8527460400   -0.3937257935   -1.3149677651
H        1.4817108967   -1.2636107894   -1.5523392634
13   
From optimize.out: Frame 11 / 54, Energy=    -286.7539106231
C        1.1957182476    0.3979669921   -0.1094851702
C        0.6350373326   -0.8837804526    0.3648534779
C       -0.7637816578   -0.9417148766    0.3763248970
C       -1.4930637289    0.2313293691    0.1584695591
C       -0.7937729665    1.4808638578    0.2092640326
N        0.5067661176    1.5990619331    0.2579406519
H        2.2810539524    0.5139067771   -0.0090527475
H        1.2751859097   -1.6673449887    0.7495961283
H       -1.2832625313   -1.8445268501    0.6908171262
H       -2.5697480405    0.1979112465    0.0241876629
H       -1.3710540501    2.4041242168    0.2764885762
C        0.8672717966   -0.3034922702   -1.4028111858
H        1.5136496186   -1.1843049544   -1.5865930086
13   
From optimize.out: Frame 9 / 54, Energy=    -286.7409247229
C        1.1928713636    0.3666321244   -0.1014397924
C        0.6118288977   -0.9086176620    0.3851330419
C       -0.7732263879   -0.9590860169    0.3897552347
C       -1.4939282147    0.2350295445    0.1554418869
C       -0.7933634454    1.4717487125    0.2145232845
N        0.5140272254    1.5748903673    0.2972490547
H        2.2791627285    0.4664431768    0.0166365276
H        1.2445301655   -1.6924569468    0.7880626248
H       -1.3073356954   -1.8487479621    0.7134105232
H       -2.5673450758    0.2072613305   -0.0051214580
H       -1.3601185348    2.4028160976    0.2572676544
C        0.8956145506   -0.2177946507   -1.4749083399
H        1.5572824227   -1.0981181150   -1.6360102425
13   
From optimize.out: Frame 8 / 54, Energy=    -286.7318495863
C        1.1855644302    0.3345292210   -0.0946813323
C        0.5893070374   -0.9374369167    0.3998256122
C       -0.7825080243   -0.9788553539    0.4031622881
C       -1.4911251986    0.2399447941    0.1535551549
C       -0.7918222898    1.4635711784    0.2227529947
N        0.5201657443    1.5466430782    0.3484630172
H        2.2730538331    0.4212568375    0.0318382600
H        1.2148984810   -1.7191580079    0.8264613921
H       -1.3311144395   -1.8545444496    0.7351354726
H       -2.5588820187    0.2196760872   -0.0399513533
H       -1.3456918336    2.4030134590    0.2326800824
C        0.9219750558   -0.1300272088   -1.5356803525
H        1.5961792225   -1.0086127183   -1.6835612361
13   
From optimize.out: Frame 7 / 54, Energy=    -286.7214160013
C        1.1737736957    0.3062712049   -0.0872545329
C        0.5733646157   -0.9664109037    0.4108166861
C       -0.7851970993   -1.0004836448    0.4173629400
C       -1.4784756703    0.2427938318    0.1511304656
C       -0.7832216726    1.4546908083    0.2348644157
N        0.5276734296    1.5146018294    0.4175758564
H        2.2634960885    0.3830953822    0.0327889244
H        1.1957338550   -1.7425053493    0.8623752233
H       -1.3469384434   -1.8635640383    0.7546414380
H       -2.5362627172    0.2295625036   -0.0885183405
H       -1.3204721498    2.4029696768    0.1985721556
C        0.9221359235   -0.0372404351   -1.5835623259
H        1.5943901447   -0.9237808658   -1.7207929058
13   
From optimize.out: Frame 5 / 54, Energy=    -286.7000759993
C        1.1651266920    0.2868598724   -0.0816640427
C        0.5662424620   -0.9912273728    0.4164744021
C       -0.7814431150   -1.0214803086    0.4211625211
C       -1.4599688529    0.2398448286    0.1364053207
C       -0.7695900911    1.4418638035    0.2482356000
N        0.5367789936    1.4819994961    0.4902053296
H        2.2569723585    0.3558531264    0.0273106720
H        1.1855476684   -1.7533610422    0.8998504029
H       -1.3495990311   -1.8687463588    0.7819214857
H       -2.5062946286    0.2330504556   -0.1488479657
H       -1.2873363481    2.3984697844    0.1706242658
C        0.8977093606    0.0487235807   -1.6006454955
H        1.5458545317   -0.8518498652   -1.7610324960
13   
From optimize.out: Frame 4 / 54, Energy=    -286.6845410421
C        1.1646890009    0.2677116317   -0.0852534209
C        0.5546723083   -1.0145905945    0.4189748702
C       -0.7854690523   -1.0399309558    0.4093184508
C       -1.4541509560    0.2362018662    0.1017492856
C       -0.7677883462    1.4237761044    0.2603953070
N        0.5422190729    1.4437993635    0.5485547225
H        2.2557334530    0.3220691558    0.0393431717
H        1.1639702046   -1.7524625452    0.9499918544
H       -1.3523200391   -1.8590071167    0.8330061935
H       -2.4931014487    0.2379795209   -0.2094938767
H       -1.2626149043    2.3904193699    0.1705819040
C        0.9070954473    0.1231052572   -1.6035524797
H        1.5270652596   -0.7790710573   -1.8336159823
13   
From optimize.out: Frame 2 / 54, Energy=    -286.6297173087
C        1.1607040894    0.2507876626   -0.1037564439
C        0.5391935897   -1.0304861678    0.4164632260
C       -0.7992948651   -1.0489432993    0.3971981566
C       -1.4634060656    0.2392508042    0.0633269559
C       -0.7844534187    1.4068478148    0.2747030193
N        0.5360530347    1.3921590838    0.6013933154
H        2.2477609330    0.2818394551    0.0588895810
H        1.1419588118   -1.7380629693    0.9930892049
H       -1.3571568545   -1.8351940934    0.8922903386
H       -2.4962810207    0.2486755010   -0.2645166334
H       -1.2495625233    2.3875511791    0.1895094090
C        0.9638412840    0.1701082064   -1.6141827919
H        1.5606430053   -0.7245331773   -1.9044073378
13   
From optimize.out: Frame 1 / 54, Energy=    -286.5811491054
C        1.1671950862    0.2352324813   -0.1047033759
C        0.5292845434   -1.0480957750    0.4189504581
C       -0.8046475755   -1.0639150519    0.3828493204
C       -1.4600743583    0.2281189376    0.0349507816
C       -0.7775341598    1.3831397030    0.2826576930
N        0.5420491134    1.3449197362    0.6499846739
H        2.2535575175    0.2452271568    0.0699402376
H        1.1160406733   -1.7305340685    1.0374952851
H       -1.3566966785   -1.8151934949    0.9370461898
H       -2.4866480366    0.2456959728   -0.3134397252
H       -1.2188243256    2.3730589727    0.1841489466
C        0.9611323066    0.2391930909   -1.6043893633
H        1.5351658938   -0.6368476607   -1.9754911217
13   
C5H5N+CH->C6H6N atoms 1-13 frame 205 charge +0.000 sz -1.000 sz^2 1.279
C        1.1786665187    0.2172803005   -0.1140782493
C        0.5146855318   -1.0594847057    0.4270985756
C       -0.8214843241   -1.0702870078    0.3784180981
C       -1.4706834035    0.2196686301    0.0098032408
C       -0.7788433567    1.3570149820    0.2853711148
N        0.5425680271    1.2852354056    0.6843987352
H        2.2602440430    0.1970489832    0.0880574596
H        1.0880769074   -1.7230176148    1.0746750382
H       -1.3709187263   -1.7907038406    0.9763363303
H       -2.4930779192    0.2469924114   -0.3495295504
H       -1.1942329738    2.3578692540    0.1899214212
C        0.9972382504    0.3030024186   -1.5974198194
H        1.5477614252   -0.5406192165   -2.0530523947
13   
C5H5N+CH->C6H6N atoms 1-13 frame 206 charge +0.000 sz -1.000 sz^2 0.758
C        1.1911348266    0.1987668627   -0.1244977857
C        0.5003852905   -1.0689454827    0.4362699232
C       -0.8398044008   -1.0756315780    0.3744789243
C       -1.4823949080    0.2108056407   -0.0146413287
C       -0.7796039398    1.3300891882    0.2876007457
N        0.5426035616    1.2234094601    0.7146346307
H        2.2671510786    0.1473000560    0.1045248159
H        1.0607682213   -1.7141309377    1.1106058958
H       -1.3874340811   -1.7652560771    1.0124181409
H       -2.5009974735    0.2485091156   -0.3832224783
H       -1.1695925077    2.3415741502    0.1988443633
C        1.0352310686    0.3641233528   -1.5889538561
H        1.5625532636   -0.4406137507   -2.1280619910
13   
C5H5N+CH->C6H6N atoms 1-13 frame 208 charge +0.000 sz -1.000 sz^2 0.654
C        1.2046251795    0.1793038202   -0.1352606913
C        0.4876581951   -1.0761627465    0.4462252340
C       -0.8586481034   -1.0811381999    0.3688971341
C       -1.4930264410    0.2002373089   -0.0388758869
C       -0.7770858014    1.3015349717    0.2902123283
N        0.5430027432    1.1588925980    0.7400270229
H        2.2743548890    0.0961365953    0.1157247296
H        1.0348328214   -1.7021436091    1.1462322581
H       -1.4052714150   -1.7382391308    1.0436424635
H       -2.5080469910    0.2494866487   -0.4156743043
H       -1.1427845313    2.3227341466    0.2119702972
C        1.0679666839    0.4218728177   -1.5762346720
H        1.5724227710   -0.3325152208   -2.1968859131
13   
From optimize.out: Frame 1 / 90, Energy=    -286.5638254698
C        1.2169312182    0.1594627493   -0.1460390075
C        0.4759839355   -1.0852821589    0.4539547780
C       -0.8754756510   -1.0888134915    0.3601217183
C       -1.5001341223    0.1890084429   -0.0639578939
C       -0.7720719742    1.2720713874    0.2941861397
N        0.5442914933    1.0927341159    0.7646471757
H        2.2805334431    0.0444159271    0.1209557758
H        1.0087583570   -1.6891739950    1.1809589915
H       -1.4197419009   -1.7082610161    1.0734704588
H       -2.5112657231    0.2504484865   -0.4495009226
H       -1.1137531584    2.3021725576    0.2271430758
C        1.0927915887    0.4782885368   -1.5591219080