13   
From optimize.out: Frame 53 / 54, Energy=    -286.9243082817
C        1.3917926526    0.8452961317   -0.4535025930
C        0.3320571785   -1.4191549484   -0.0108989053
C       -0.9372591919   -1.0635990874    0.3355769777
C       -1.4735453263    0.2709161228    0.4088277573
C       -0.8285738633    1.4661756562    0.1474827301
N        0.4314529297    1.7764552369   -0.2354434273
H        2.3396145720    1.2992120474   -0.7509214815
H        0.5705480365   -2.4807056323   -0.0106180559
H       -1.6290252401   -1.8659895641    0.5846124860
H       -2.5160373095    0.3540411315    0.7062609095
H       -1.4481548325    2.3572705780    0.2719537962
C        1.4089889628   -0.5338951732   -0.3753636075
H        2.3581414318   -1.0060224992   -0.6179665861
13   
From optimize.out: Frame 52 / 54, Energy=    -286.9243021355
C        1.3925925778    0.8446355619   -0.4405849134
C        0.3382182370   -1.4194181906   -0.0012313376
C       -0.9342410026   -1.0635590093    0.3281878177
C       -1.4800658589    0.2704291215    0.3709395124
C       -0.8227308945    1.4688706355    0.1646030213
N        0.4440505672    1.7850685376   -0.1835692362
H        2.3294126887    1.2940195530   -0.7753772934
H        0.5993083083   -2.4751953693    0.0438660774
H       -1.6211328989   -1.8602996755    0.6081988103
H       -2.5309164412    0.3471200185    0.6370582414
H       -1.4396705697    2.3599005877    0.3045404938
C        1.3951375543   -0.5338622216   -0.3931773887
H        2.3300377324   -1.0177095494   -0.6634538049
13   
From optimize.out: Frame 50 / 54, Energy=    -286.9242782000
C        1.3927047652    0.8447800031   -0.4329242618
C        0.3306490696   -1.4176518794   -0.0214856080
C       -0.9228732540   -1.0600734540    0.3522625101
C       -1.4846868472    0.2761262458    0.3730866045
C       -0.8396313757    1.4600789741    0.1555674852
N        0.4704248851    1.7748182745   -0.1257853803
H        2.3425416857    1.3103361786   -0.7073890150
H        0.5760995242   -2.4763594982    0.0454097044
H       -1.5946760854   -1.8525732584    0.6761823261
H       -2.5435313022    0.3400584269    0.6119778362
H       -1.4492616835    2.3603696442    0.2432313996
C        1.3953025773   -0.5406563460   -0.4409943634
H        2.3269380408   -1.0192533110   -0.7291392375
13   
From optimize.out: Frame 49 / 54, Energy=    -286.9242382420
C        1.3956361790    0.8524704900   -0.4135462371
C        0.3330732082   -1.4094931930   -0.0371878014
C       -0.9126267257   -1.0544692828    0.3824332612
C       -1.4843322044    0.2766998283    0.3794041686
C       -0.8518239289    1.4565500438    0.1380764469
N        0.4827988214    1.7638239137   -0.0829428357
H        2.3715447537    1.3039447199   -0.6164074965
H        0.5766292369   -2.4688195473    0.0400810086
H       -1.5684551522   -1.8479313663    0.7334481213
H       -2.5474013413    0.3360435668    0.6035760143
H       -1.4637513771    2.3578757801    0.1684703209
C        1.3738150132   -0.5437843770   -0.4879597034
H        2.2948935174   -1.0229105762   -0.8074452676
13   
From optimize.out: Frame 47 / 54, Energy=    -286.9241168729
C        1.3968987602    0.8617414869   -0.3920571619
C        0.3335459857   -1.4032948204   -0.0491829647
C       -0.9092699502   -1.0509137572    0.4226706698
C       -1.4820125974    0.2751110756    0.3906625096
C       -0.8562987613    1.4523309491    0.1228086376
N        0.4959863982    1.7497339506   -0.0348355459
H        2.3908202702    1.3016918671   -0.5298238202
H        0.5781931281   -2.4629974114    0.0372800595
H       -1.5531007008   -1.8476704869    0.7839205222
H       -2.5511966802    0.3375325888    0.5899829598
H       -1.4701023578    2.3509501068    0.0871995349
C        1.3558525966   -0.5472832947   -0.5385201434
H        2.2706839086   -1.0169322543   -0.8901052574
13   
From optimize.out: Frame 46 / 54, Energy=    -286.9238530001
C        1.4012429700    0.8741902124   -0.3614279853
C        0.3336007745   -1.3967807130   -0.0519086614
C       -0.9074740485   -1.0500958259    0.4638663581
C       -1.4760104572    0.2715605570    0.3984020933
C       -0.8532640419    1.4485548009    0.1080080440
N        0.5039004631    1.7415118355    0.0039924617
H        2.4155963510    1.2795190680   -0.4510047947
H        0.5945082980   -2.4542885391    0.0335881813
H       -1.5438432260   -1.8506273229    0.8268288568
H       -2.5493789041    0.3421789268    0.5728311953
H       -1.4754441787    2.3368756631    0.0135984368
C        1.3245308659   -0.5460225825   -0.5818249871
H        2.2320351338   -0.9965760803   -0.9749491988
13   
From optimize.out: Frame 44 / 54, Energy=    -286.9226481733
C        1.4083877297    0.8800099821   -0.3335785211
C        0.3228378018   -1.4155338564   -0.0636106538
C       -0.9032321747   -1.0475364090    0.4769136382
C       -1.4729552173    0.2721785384    0.3872557703
C       -0.8552120216    1.4509940762    0.0814120376
N        0.4960794550    1.7473612253    0.0066087473
H        2.4313921717    1.2691190339   -0.3620906958
H        0.6025050214   -2.4680287453    0.0231240622
H       -1.5270300130   -1.8360220669    0.8880005671
H       -2.5419462107    0.3501845219    0.5781323270
H       -1.4909268281    2.3309885551   -0.0217700881
C        1.3058767363   -0.5478237841   -0.6383920201
H        2.2242235494   -0.9858910710   -1.0220051707
13   
From optimize.out: Frame 43 / 54, Energy=    -286.9215745734
C        1.4158148018    0.8872192083   -0.3187334351
C        0.3306651004   -1.4130765257   -0.0529992458
C       -0.8855680022   -1.0400309198    0.4678500601
C       -1.4738031903    0.2644228557    0.3607521755
C       -0.8497269788    1.4430599125    0.0550757189
N        0.4906950732    1.7485443729   -0.0183335468
H        2.4457374520    1.2452445636   -0.2725296073
H        0.6184209398   -2.4590248970    0.0541803243
H       -1.4977962351   -1.8145958029    0.9240298191
H       -2.5407349756    0.3300575519    0.5642384647
H       -1.4827501273    2.3288454693   -0.0034207355
C        1.2649428058   -0.5268105904   -0.6819497315
H        2.1641033362   -0.9938551983   -1.0781602606
13   
From optimize.out: Frame 42 / 54, Energy=    -286.9204874066
C        1.4135506036    0.8662361213   -0.3292334737
C        0.3355110966   -1.4176699554   -0.0466776001
C       -0.8872074556   -1.0372585854    0.4372822576
C       -1.4887915922    0.2628276002    0.3279275590
C       -0.8582267845    1.4455438961    0.0532932317
N        0.4845427016    1.7313995743   -0.0487703615
H        2.4357252893    1.2393757229   -0.2144780974
H        0.6022755160   -2.4629792293    0.1045036153
H       -1.4778261481   -1.7948196526    0.9493219025
H       -2.5514516631    0.3229558911    0.5563285471
H       -1.4716039218    2.3446983364    0.0448792112
C        1.2777597870   -0.5214064267   -0.7242330734
H        2.1857425712   -0.9789032928   -1.1101437183
13   
From optimize.out: Frame 40 / 54, Energy=    -286.9182240747
C        1.3999250208    0.8406596652   -0.3157192669
C        0.3300686460   -1.4100871589   -0.0724617621
C       -0.8896093638   -1.0320296835    0.4236481469
C       -1.4982110050    0.2636986232    0.3155446440
C       -0.8632089271    1.4453007500    0.0392886258
N        0.4815254709    1.7083955078   -0.0700900098
H        2.4099072096    1.2202405770   -0.1301311043
H        0.6039362268   -2.4496571585    0.1089935528
H       -1.4471512835   -1.7774379821    0.9869093057
H       -2.5513712821    0.3284341169    0.5828614094
H       -1.4643316372    2.3520675522    0.0272249041
C        1.2874097284   -0.5201789900   -0.7580480165
H        2.2011111963   -0.9694058193   -1.1380204292
13   
From optimize.out: Frame 39 / 54, Energy=    -286.9166826295
C        1.4021092382    0.8199483170   -0.2957511859
C        0.3435595314   -1.3938834820   -0.0854416603
C       -0.8775980068   -1.0191811182    0.4093389427
C       -1.5129395382    0.2643448823    0.2862791469
C       -0.8768076431    1.4487615186    0.0228810996
N        0.4713955629    1.6843481079   -0.0751780446
H        2.4062564837    1.1912032143   -0.0541882857
H        0.6410129200   -2.4224722736    0.1162215623
H       -1.3992606004   -1.7509488076    1.0252697152
H       -2.5567000081    0.3282023363    0.5901650115
H       -1.4666089611    2.3625436012    0.0248956327
C        1.2650828004   -0.5224873280   -0.7815635298
H        2.1604982211   -0.9903789682   -1.1829284048
13   
From optimize.out: Frame 37 / 54, Energy=    -286.9116939528
C        1.4007502097    0.7875761591   -0.2705478226
C        0.3642813126   -1.3633947474   -0.0819133128
C       -0.8703608314   -1.0032342114    0.4043205245
C       -1.5292896065    0.2643036543    0.2630045113
C       -0.8891483383    1.4543010680    0.0121036039
N        0.4597208966    1.6641986374   -0.0675560675
H        2.4023226748    1.1376019802    0.0141252104
H        0.6935017633   -2.3783097494    0.1361948061
H       -1.3669817604   -1.7300178730    1.0491585760
H       -2.5686882193    0.3264640332    0.5822837878
H       -1.4714790065    2.3734468678    0.0251727888
C        1.2474167220   -0.5283121393   -0.8197726744
H        2.1279541834   -1.0046236794   -1.2465739316
13   
From optimize.out: Frame 36 / 54, Energy=    -286.9092606497
C        1.3905369548    0.7475026837   -0.2366762546
C        0.3812477700   -1.3217278319   -0.0790163794
C       -0.8696154560   -0.9873053430    0.4124602466
C       -1.5400104608    0.2632590432    0.2589178295
C       -0.8947649942    1.4581107149    0.0024913510
N        0.4500186316    1.6509847484   -0.0552847791
H        2.3900637876    1.0657048635    0.0884303735
H        0.7463156601   -2.3224883110    0.1499351583
H       -1.3495690622   -1.7187615123    1.0649013919
H       -2.5786375952    0.3255153826    0.5799753332
H       -1.4762962258    2.3784722660   -0.0007093107
C        1.2396279809   -0.5321524894   -0.8696334464
H        2.1110830093   -1.0071142148   -1.3157915140
13   
From optimize.out: Frame 34 / 54, Energy=    -286.9007618269
C        1.3903821517    0.7143103685   -0.2059722879
C        0.4109557377   -1.2796872334   -0.0613332952
C       -0.8589519291   -0.9693392829    0.4146788528
C       -1.5504445330    0.2617170235    0.2450457992
C       -0.9018928124    1.4633094860   -0.0036351377
N        0.4376957210    1.6402223081   -0.0399830204
H        2.3904391419    1.0032878409    0.1456369293
H        0.8090952596   -2.2650344986    0.1765287762
H       -1.3247682990   -1.7080114794    1.0700320965
H       -2.5908854310    0.3192787647    0.5610683854
H       -1.4804764113    2.3857994833   -0.0052592708
C        1.2100032991   -0.5405579134   -0.9088975011
H        2.0588481049   -1.0252948673   -1.3879103263
13   
From optimize.out: Frame 33 / 54, Energy=    -286.8874583412
C        1.3688373733    0.6761431840   -0.1742873816
C        0.4257652656   -1.2512876392   -0.0395836945
C       -0.8561658843   -0.9595327177    0.4184125644
C       -1.5495936600    0.2545562608    0.2319639425
C       -0.8863779633    1.4565980783   -0.0118833228
N        0.4422318900    1.6190842372   -0.0246050666
H        2.3626258818    0.9365337421    0.2053030834
H        0.8549216064   -2.2176119771    0.2161523646
H       -1.3170991131   -1.7027310635    1.0709120309
H       -2.5918068232    0.3159264188    0.5394179296
H       -1.4569337398    2.3835551849   -0.0171481640
C        1.1856806857   -0.5165173827   -0.9531931849
H        2.0179144810   -0.9947163260   -1.4614611010
13   
From optimize.out: Frame 30 / 54, Energy=    -286.8650395991
C        1.3446998687    0.6373729846   -0.1424835735
C        0.4387689207   -1.2245415013   -0.0173411822
C       -0.8543346865   -0.9507151829    0.4223299252
C       -1.5473749139    0.2467144378    0.2189778645
C       -0.8681185463    1.4484430114   -0.0203886834
N        0.4488115853    1.5966885131   -0.0092178771
H        2.3313958173    0.8692539367    0.2652673707
H        0.8986930119   -2.1714053706    0.2573553446
H       -1.3115064837   -1.6981136319    1.0712767201
H       -2.5913553121    0.3129236819    0.5174349272
H       -1.4300307194    2.3801507018   -0.0299266256
C        1.1620007477   -0.4885440059   -0.9980987635
H        1.9783507102   -0.9582275747   -1.5351854471
13   
From optimize.out: Frame 29 / 54, Energy=    -286.8610532660
C        1.3260326117    0.5952721365   -0.1152105813
C        0.4586007482   -1.1869378820    0.0007235284
C       -0.8539330438   -0.9408608893    0.4248709950
C       -1.5490617489    0.2415501128    0.2114262073
C       -0.8578963790    1.4473479630   -0.0231912098
N        0.4504194164    1.5847930221    0.0058217044
H        2.3085852056    0.7949005800    0.3156877015
H        0.9483457389   -2.1107569036    0.3032485257
H       -1.3073229969   -1.7011645321    1.0600225350
H       -2.5954587587    0.3093338555    0.4995215180
H       -1.4169052546    2.3810685712   -0.0372415000
C        1.1432481914   -0.4756616563   -1.0416761002
H        1.9453462697   -0.9388843778   -1.6040033239
13   
From optimize.out: Frame 28 / 54, Energy=    -286.8594187776
C        1.3096222429    0.5503225063   -0.0950776691
C        0.4840798059   -1.1418972235    0.0138513760
C       -0.8557288613   -0.9309174324    0.4241909537
C       -1.5528502313    0.2388000901    0.2095751237
C       -0.8533474007    1.4528271912   -0.0200688410
N        0.4490575897    1.5836065003    0.0188254070
H        2.2899947275    0.7153623391    0.3537748005
H        0.9998179776   -2.0357672898    0.3623728387
H       -1.3081109386   -1.7143033060    1.0301676888
H       -2.6018288182    0.3051720103    0.4872757839
H       -1.4149756066    2.3860105795   -0.0353387446
C        1.1315612763   -0.4756419011   -1.0838165158
H        1.9227082370   -0.9335740641   -1.6657322017
13   
From optimize.out: Frame 26 / 54, Energy=    -286.8579220533
C        1.2899551078    0.5097608017   -0.0850292877
C        0.5077328804   -1.1027557416    0.0261496121
C       -0.8607365568   -0.9247741351    0.4194794142
C       -1.5534988597    0.2382347214    0.2192280367
C       -0.8474578675    1.4608318920   -0.0103282171
N        0.4495944916    1.5878870180    0.0219508365
H        2.2684739776    0.6489045124    0.3756943897
H        1.0409942758   -1.9599492498    0.4388333704
H       -1.3224861053   -1.7403483068    0.9717136769
H       -2.6053359171    0.3024286394    0.4850424686
H       -1.4134759430    2.3924846029   -0.0268124371
C        1.1296831306   -0.4802941651   -1.1216956139
H        1.9165573857   -0.9324105895   -1.7142262495
13   
From optimize.out: Frame 25 / 54, Energy=    -286.8574061373
C        1.2739091054    0.4794304576   -0.0875599165
C        0.5303154848   -1.0679554216    0.0419768715
C       -0.8682002830   -0.9235233887    0.4112112182
C       -1.5527768943    0.2409751648    0.2457237764
C       -0.8443070812    1.4724935354    0.0105712823
N        0.4487911844    1.5991444671    0.0112004633
H        2.2547447330    0.6076751735    0.3720747918
H        1.0713917028   -1.8852456127    0.5237998063
H       -1.3486895319   -1.7792556778    0.8809927297
H       -2.6091791956    0.3012244721    0.4930931136
H       -1.4173008587    2.4009510928   -0.0113717756
C        1.1358344942   -0.4986435364   -1.1495845245
H        1.9254671400   -0.9472707260   -1.7421278365
13   
From optimize.out: Frame 23 / 54, Energy=    -286.8552383622
C        1.2697861949    0.4635163386   -0.0953239254
C        0.5506883587   -1.0493959500    0.0736700908
C       -0.8718226002   -0.9273932882    0.3916333874
C       -1.5509723888    0.2368116990    0.2422981579
C       -0.8361661214    1.4745217443    0.0284941274
N        0.4530100123    1.6028570065    0.0049645095
H        2.2591073450    0.5969250805    0.3443301390
H        1.0842327477   -1.8331542032    0.6177847305
H       -1.3643945729   -1.8037154503    0.8072855278
H       -2.6101058728    0.2949928344    0.4753843179
H       -1.4097691013    2.4032848504    0.0383103896
C        1.1184069591   -0.5195411063   -1.1580982223
H        1.9079990398   -0.9397095558   -1.7707332303
13   
From optimize.out: Frame 22 / 54, Energy=    -286.8516350449
C        1.2599188887    0.4561545026   -0.1125845951
C        0.5670978454   -1.0217739512    0.1126507644
C       -0.8725514401   -0.9218890694    0.3963685886
C       -1.5553183703    0.2360958404    0.2377210543
C       -0.8337815861    1.4812548775    0.0551590581
N        0.4507697687    1.6084411933    0.0092354202
H        2.2659661260    0.6110134708    0.2793010374
H        1.1036042321   -1.8037750945    0.6543233364
H       -1.3701550159   -1.8182641698    0.7597558861
H       -2.6251020462    0.2860579888    0.4180562884
H       -1.4053002005    2.4101384003    0.1069540763
C        1.1107337479   -0.5470245858   -1.1584707715
H        1.9041180502   -0.9764294031   -1.7584701437
13   
From optimize.out: Frame 20 / 54, Energy=    -286.8408354994
C        1.2563678323    0.4579493536   -0.1288273771
C        0.5847008387   -0.9908159058    0.1457582300
C       -0.8687278484   -0.9146279910    0.3984227903
C       -1.5585825257    0.2343805676    0.2251870148
C       -0.8362169502    1.4868335241    0.0772632767
N        0.4451314855    1.6151168977    0.0203275430
H        2.2780617808    0.6363365267    0.2088058254
H        1.1228172831   -1.7736166865    0.6837035872
H       -1.3640825589   -1.8275252110    0.7206889568
H       -2.6352494609    0.2749232377    0.3613325225
H       -1.4082086416    2.4117445941    0.1798269897
C        1.1033392479   -0.5565689341   -1.1628927844
H        1.8806495176   -1.0541299731   -1.7295965751
13   
From optimize.out: Frame 19 / 54, Energy=    -286.8337935326
C        1.2511856306    0.4620791344   -0.1324948041
C        0.6069950371   -0.9546306523    0.1908064632
C       -0.8568652223   -0.9088372437    0.3934989954
C       -1.5539468003    0.2305193814    0.2059117692
C       -0.8312118631    1.4910032740    0.0987787237
N        0.4468822077    1.6218205841    0.0421476200
H        2.2896057685    0.6535305804    0.1411355005
H        1.1578121972   -1.7442282500    0.7017312438
H       -1.3477356108   -1.8330003000    0.6899713285
H       -2.6350716564    0.2589523249    0.2993107599
H       -1.4068565198    2.4097722994    0.2351551701
C        1.0701194423   -0.5641520680   -1.1534599415
H        1.8090873890   -1.1228290646   -1.7124928287
13   
From optimize.out: Frame 18 / 54, Energy=    -286.8262148477
C        1.2389842709    0.4687669519   -0.1354182525
C        0.6276207502   -0.9191296685    0.2283938090
C       -0.8417272196   -0.9021405053    0.3887249427
C       -1.5459574041    0.2294034658    0.1910579492
C       -0.8275926338    1.4981153099    0.1208022916
N        0.4455700095    1.6304065721    0.0675010506
H        2.2889233095    0.6714203224    0.0803342129
H        1.1977167449   -1.7167299583    0.7016763634
H       -1.3265579709   -1.8350839662    0.6673303672
H       -2.6294179327    0.2441983089    0.2438580093
H       -1.4087824498    2.4105111255    0.2770662892
C        1.0452123777   -0.5660541422   -1.1559896816
H        1.7360081483   -1.2136838161   -1.6753373512
13   
From optimize.out: Frame 16 / 54, Energy=    -286.8077879506
C        1.2265347272    0.4729595609   -0.1333138690
C        0.6473256614   -0.8867386265    0.2619455513
C       -0.8194076595   -0.8975040421    0.3786205229
C       -1.5309588581    0.2264039957    0.1772411755
C       -0.8186776417    1.5010706038    0.1413200043
N        0.4517315039    1.6370122833    0.0970399780
H        2.2857159507    0.6789145617    0.0258394089
H        1.2403331694   -1.6856266573    0.6973686945
H       -1.3020901043   -1.8341754201    0.6502238708
H       -2.6148995716    0.2245611303    0.1926021797
H       -1.4052963107    2.4088489236    0.3031372820
C        0.9968644764   -0.5620025231   -1.1566932091
H        1.6428246569   -1.2837237903   -1.6353315897
13   
From optimize.out: Frame 15 / 54, Energy=    -286.7942036334
C        1.2105829050    0.4711307015   -0.1309114790
C        0.6636296508   -0.8616089692    0.2884920917
C       -0.7916818772   -0.8973312015    0.3681749285
C       -1.5136291602    0.2257504572    0.1719614750
C       -0.8086953930    1.5031381188    0.1664465079
N        0.4629242798    1.6421416303    0.1344440455
H        2.2783070447    0.6690605401   -0.0247598163
H        1.2842214319   -1.6575912820    0.6808116919
H       -1.2766971967   -1.8327441499    0.6431002579
H       -2.5968109979    0.2046682306    0.1422492325
H       -1.3992493273    2.4105754162    0.3111233955
C        0.9352362188   -0.5422230586   -1.1731409437
H        1.5518624212   -1.3349664334   -1.5779913875
13   
From optimize.out: Frame 13 / 54, Energy=    -286.7666607320
C        1.2029402680    0.4545222585   -0.1238290423
C        0.6690548663   -0.8529760611    0.3138634907
C       -0.7650626238   -0.9083714225    0.3607631302
C       -1.4989423394    0.2256839283    0.1668677800
C       -0.7985165072    1.4977976198    0.1889850610
N        0.4837468629    1.6367132555    0.1793981281
H        2.2808773149    0.6183607218   -0.0471672267
H        1.3087862651   -1.6402004540    0.6850362949
H       -1.2578413395   -1.8356653296    0.6511752918
H       -2.5806116988    0.1910029027    0.0927585972
H       -1.3896803356    2.4083534915    0.3037891802
C        0.8634057575   -0.4774117668   -1.2268562451
H        1.4818435095   -1.3178091441   -1.5447844400
13   
From optimize.out: Frame 11 / 54, Energy=    -286.7539106231
C        1.1986680608    0.4265378298   -0.1164364560
C        0.6547988801   -0.8646754471    0.3429568022
C       -0.7589139588   -0.9257562365    0.3661277198
C       -1.4933388362    0.2282209223    0.1616098233
C       -0.7948346271    1.4892178065    0.2023427779
N        0.4981086893    1.6195689792    0.2222318749
H        2.2819256229    0.5613375596   -0.0322560058
H        1.2985228401   -1.6487426271    0.7159708374
H       -1.2651326152   -1.8406101233    0.6702993050
H       -2.5726089407    0.1916205800    0.0530975406
H       -1.3804816665    2.4056643292    0.2917374459
C        0.8515900358   -0.3846503806   -1.3245231110
H        1.4816965153   -1.2577331921   -1.5531585541
13   
From optimize.out: Frame 9 / 54, Energy=    -286.7409247229
C        1.1954267378    0.3951435323   -0.1087982223
C        0.6330844345   -0.8856684692    0.3670173761
C       -0.7642626991   -0.9432919595    0.3773326141
C       -1.4930365420    0.2316365556    0.1581592283
C       -0.7936680498    1.4800382943    0.2099480127
N        0.5076216718    1.5970353625    0.2614695052
H        2.2809678112    0.5092195184   -0.0067597287
H        1.2728796811   -1.6691833324    0.7529190850
H       -1.2850541865   -1.8449139134    0.6928447617
H       -2.5694653174    0.1985329099    0.0213306981
H       -1.3701223835    2.4039720181    0.2749816350
C        0.8688215174   -0.2954719712   -1.4105478589
H        1.5168073245   -1.1770485457   -1.5898971063
13   
From optimize.out: Frame 8 / 54, Energy=    -286.7318495863
C        1.1926069211    0.3636816258   -0.1006783065
C        0.6096292718   -0.9109925557    0.3870077387
C       -0.7741539938   -0.9607204624    0.3910407877
C       -1.4940204893    0.2353806675    0.1551606833
C       -0.7933319235    1.4708908664    0.2149967558
N        0.5146901032    1.5725986959    0.3009516958
H        2.2789759298    0.4620164737    0.0190576856
H        1.2415964203   -1.6948654132    0.7916994485
H       -1.3096414939   -1.8491447280    0.7155387679
H       -2.5671256629    0.2081645897   -0.0078588552
H       -1.3590832880    2.4026964773    0.2554345259
C        0.8983872234   -0.2097562253   -1.4815686742
H        1.5614709819   -1.0899500117   -1.6407822532
13   
From optimize.out: Frame 7 / 54, Energy=    -286.7214160013
C        1.1848156768    0.3314297548   -0.0940437376
C        0.5871463897   -0.9402484653    0.4011884008
C       -0.7833962199   -0.9807834447    0.4044510388
C       -1.4908173730    0.2404300492    0.1533844560
C       -0.7916617864    1.4627929536    0.2235776334
N        0.5207479112    1.5438834925    0.3535143923
H        2.2724241994    0.4169232974    0.0331970830
H        1.2120599722   -1.7217407820    0.8301572611
H       -1.3333974301   -1.8551185448    0.7372189825
H       -2.5580055594    0.2208999827   -0.0433634085
H       -1.3442680622    2.4030471603    0.2302608436
C        0.9244829000   -0.1215504676   -1.5414334736
H        1.5998693818   -0.9999649861   -1.6881094718
13   
From optimize.out: Frame 5 / 54, Energy=    -286.7000759993
C        1.1734620875    0.3055612225   -0.0870629394
C        0.5729756896   -0.9671492161    0.4110883994
C       -0.7852479207   -1.0010395908    0.4177273180
C       -1.4781273835    0.2428605385    0.1510668573
C       -0.7829834899    1.4544621632    0.2351829323
N        0.5278688700    1.5137754916    0.4193836914
H        2.2632441343    0.3821407477    0.0327774060
H        1.1952731267   -1.7430913321    0.8632844245
H       -1.3473205752   -1.8638023728    0.7551331053
H       -2.5356491273    0.2298069628   -0.0897926271
H       -1.3198006216    2.4029674902    0.1976778907
C        0.9220696911   -0.0348611791   -1.5847512156
H        1.5942355189   -0.9216309256   -1.7217152428
13   
From optimize.out: Frame 4 / 54, Energy=    -286.6845410421
C        1.1651288967    0.2870919203   -0.0816323372
C        0.5663786991   -0.9909406732    0.4164405095
C       -0.7814020560   -1.0212511270    0.4213051136
C       -1.4600502786    0.2398942138    0.1368194241
C       -0.7696261412    1.4420827927    0.2480910279
N        0.5367046152    1.4824497254    0.4894990284
H        2.2569817668    0.3562551457    0.0271715789
H        1.1858073974   -1.7533619789    0.8992415730
H       -1.3495681153   -1.8688535010    0.7813129207
H       -2.5064657985    0.2329959494   -0.1481140421
H       -1.2876432599    2.3985710210    0.1706395353
C        0.8976331689    0.0478073997   -1.6006170894
H        1.5461211054   -0.8527408879   -1.7601572426
13   
From optimize.out: Frame 2 / 54, Energy=    -286.6297173087
C        1.1649537014    0.2686523551   -0.0841517960
C        0.5555526915   -1.0137231002    0.4191337653
C       -0.7846647815   -1.0394629159    0.4099740790
C       -1.4535798314    0.2359698477    0.1039129229
C       -0.7667614421    1.4246809380    0.2595793702
N        0.5426150540    1.4466724962    0.5456248706
H        2.2562341367    0.3243088960    0.0382245362
H        1.1651681734   -1.7532875453    0.9476219124
H       -1.3520248189   -1.8603395022    0.8296722109
H       -2.4928638750    0.2373272604   -0.2064348817
H       -1.2632546744    2.3905263059    0.1694261555
C        0.9036877027    0.1206112250   -1.6028743670
H        1.5249379637   -0.7819362607   -1.8297087783
13   
From optimize.out: Frame 1 / 54, Energy=    -286.5811491054
C        1.1602487646    0.2519314031   -0.1037327013
C        0.5399042595   -1.0291424364    0.4163094728
C       -0.7989603485   -1.0477821223    0.3983205712
C       -1.4637313236    0.2400938763    0.0654552040
C       -0.7850142192    1.4085979121    0.2740822934
N        0.5355766613    1.3956038042    0.5977017235
H        2.2473346993    0.2844984813    0.0581077982
H        1.1438747956   -1.7386235252    0.9897466065
H       -1.3572722293   -1.8366569259    0.8889323114
H       -2.4970866442    0.2489209082   -0.2608071963
H       -1.2518830379    2.3886255636    0.1899690860
C        0.9642588928    0.1649415697   -1.6149275273
H        1.5627497298   -0.7310085087   -1.8991576421
13   
C5H5N+CH->C6H6N atoms 1-13 frame 205 charge +0.000 sz -1.000 sz^2 1.279
C        1.1663977536    0.2364856231   -0.1040533367
C        0.5303069347   -1.0472890185    0.4183858519
C       -0.8034778688   -1.0634633756    0.3831627889
C       -1.4593388374    0.2287085075    0.0367140235
C       -0.7774408220    1.3849635149    0.2824649603
N        0.5420099032    1.3490841656    0.6475552688
H        2.2530908229    0.2485893442    0.0686654784
H        1.1180001636   -1.7310534312    1.0348871272
H       -1.3557141365   -1.8169019294    0.9342811914
H       -2.4862070055    0.2456067779   -0.3109017328
H       -1.2205453702    2.3741164109    0.1837613232
C        0.9586192455    0.2347150325   -1.6048701595
H        1.5342992169   -0.6435616219   -1.9700527846
13   
C5H5N+CH->C6H6N atoms 1-13 frame 206 charge +0.000 sz -1.000 sz^2 0.758
C        1.1777291613    0.2186764169   -0.1132914636
C        0.5157770722   -1.0587543556    0.4264098357
C       -0.8201013264   -1.0698824389    0.3787078847
C       -1.4697917991    0.2203297484    0.0116554549
C       -0.7787673062    1.3590441464    0.2852040100
N        0.5425671441    1.2899007702    0.6820811127
H        2.2597233210    0.2008071277    0.0867819038
H        1.0901525824   -1.7236724328    1.0719533429
H       -1.3696776746   -1.7926222652    0.9735763677
H       -2.4924747830    0.2468743841   -0.3469707805
H       -1.1960864935    2.3590884741    0.1892700890
C        0.9943339799    0.2983556110   -1.5980372537
H        1.5466161219   -0.5481451864   -2.0473405035
13   
C5H5N+CH->C6H6N atoms 1-13 frame 208 charge +0.000 sz -1.000 sz^2 0.654
C        1.1901452513    0.2001836765   -0.1237131042
C        0.5013186976   -1.0684284592    0.4355327774
C       -0.8384202984   -1.0752412955    0.3748694169
C       -1.4816018513    0.2115726784   -0.0128786858
C       -0.7797746585    1.3321661504    0.2874174539
N        0.5425788397    1.2281040768    0.7127799797
H        2.2666207236    0.1510273301    0.1036777173
H        1.0626585149   -1.7149988164    1.1080044952
H       -1.3861164523   -1.7672111113    1.0101344031
H       -2.5004638314    0.2484377560   -0.3808638485
H       -1.1715350598    2.3429388742    0.1978975339
C        1.0328034942    0.3599065007   -1.5898588148