13   
Frame   0 IRC: Energy =  -286.8764979468 ; +0.0000 kcal/mol
C       -0.2519170000   -0.0357490000   -0.0000000000
C        0.0857090000    0.0467960000   -0.0000000000
C       -0.1502170000   -0.0270310000   -0.0000000000
C       -0.0166420000    0.0283140000    0.0000000000
C       -0.0528420000   -0.0479020000   -0.0000000000
N       -0.1825320000    0.0164040000   -0.0000000000
H        0.1249910000    0.0008490000   -0.0000000000
H        0.1326030000    0.0030850000   -0.0000000000
H        0.1442820000    0.0170280000   -0.0000000000
H        0.1442270000    0.0227480000   -0.0000000000
H        0.1284370000    0.0050570000   -0.0000000000
C       -0.2547710000    0.9921990000    0.0000000000
H        0.1486730000   -0.0217970000    0.0000000000
13   
Frame   1 IRC: Energy =  -286.8764974457 ; +0.0003 kcal/mol
C       -0.2519340000   -0.0357050000   -0.0000000000
C        0.0858490000    0.0467670000   -0.0000000000
C       -0.1504340000   -0.0270810000   -0.0000000000
C       -0.0162900000    0.0281440000    0.0000000000
C       -0.0529020000   -0.0478250000   -0.0000000000
N       -0.1825050000    0.0163600000   -0.0000000000
H        0.1250050000    0.0008480000   -0.0000000000
H        0.1326050000    0.0030800000   -0.0000000000
H        0.1442780000    0.0170010000   -0.0000000000
H        0.1441990000    0.0227540000   -0.0000000000
H        0.1284150000    0.0050630000   -0.0000000000
C       -0.2549630000    0.9923570000    0.0000000000
H        0.1486780000   -0.0217630000    0.0000000000
13   
Frame   2 IRC: Energy =  -286.8764942721 ; +0.0023 kcal/mol
C       -0.2524420000   -0.0352700000   -0.0000000000
C        0.0880610000    0.0456750000   -0.0000000000
C       -0.1518920000   -0.0265190000   -0.0000000000
C       -0.0153810000    0.0277590000    0.0000000000
C       -0.0537890000   -0.0470670000   -0.0000000000
N       -0.1822890000    0.0159590000   -0.0000000000
H        0.1250510000    0.0008400000   -0.0000000000
H        0.1325950000    0.0030960000   -0.0000000000
H        0.1442370000    0.0171390000   -0.0000000000
H        0.1441360000    0.0224930000   -0.0000000000
H        0.1283940000    0.0050570000   -0.0000000000
C       -0.2554060000    0.9925090000    0.0000000000
H        0.1487250000   -0.0216710000    0.0000000000
13   
Frame   3 IRC: Energy =  -286.8764888246 ; +0.0057 kcal/mol
C       -0.2526450000   -0.0347500000   -0.0000000000
C        0.0904950000    0.0444080000   -0.0000000000
C       -0.1535410000   -0.0258620000   -0.0000000000
C       -0.0142970000    0.0272000000    0.0000000000
C       -0.0547960000   -0.0460840000   -0.0000000000
N       -0.1821610000    0.0154830000   -0.0000000000
H        0.1250770000    0.0008270000   -0.0000000000
H        0.1325610000    0.0031300000   -0.0000000000
H        0.1442200000    0.0173400000   -0.0000000000
H        0.1441290000    0.0222090000   -0.0000000000
H        0.1283850000    0.0050690000   -0.0000000000
C       -0.2561670000    0.9926480000    0.0000000000
H        0.1487400000   -0.0216190000    0.0000000000
13   
Frame   4 IRC: Energy =  -286.8764508178 ; +0.0296 kcal/mol
C       -0.2523350000   -0.0333670000   -0.0000000000
C        0.0976450000    0.0401780000   -0.0000000000
C       -0.1585910000   -0.0231260000   -0.0000000000
C       -0.0126910000    0.0259770000    0.0000000000
C       -0.0568630000   -0.0427640000   -0.0000000000
N       -0.1821000000    0.0141280000   -0.0000000000
H        0.1251190000    0.0007770000   -0.0000000000
H        0.1321640000    0.0032900000   -0.0000000000
H        0.1442370000    0.0179110000   -0.0000000000
H        0.1442890000    0.0214350000   -0.0000000000
H        0.1286010000    0.0050750000   -0.0000000000
C       -0.2582440000    0.9921830000    0.0000000000
H        0.1487690000   -0.0216980000    0.0000000000
13   
Frame   5 IRC: Energy =  -286.8763960000 ; +0.0640 kcal/mol
C       -0.2516290000   -0.0328460000   -0.0000000000
C        0.1009190000    0.0381640000   -0.0000000000
C       -0.1608820000   -0.0216340000    0.0000000000
C       -0.0119860000    0.0251690000    0.0000000000
C       -0.0578500000   -0.0408760000   -0.0000000000
N       -0.1821220000    0.0134780000   -0.0000000000
H        0.1251950000    0.0007520000   -0.0000000000
H        0.1318850000    0.0033760000   -0.0000000000
H        0.1443210000    0.0181500000   -0.0000000000
H        0.1444100000    0.0210980000   -0.0000000000
H        0.1287500000    0.0050940000   -0.0000000000
C       -0.2597540000    0.9918550000    0.0000000000
H        0.1487440000   -0.0217810000    0.0000000000
13   
Frame   6 IRC: Energy =  -286.8763920000 ; +0.0665 kcal/mol
C       -0.2515630000   -0.0328160000   -0.0000000000
C        0.1011760000    0.0380000000   -0.0000000000
C       -0.1611640000   -0.0215020000    0.0000000000
C       -0.0118430000    0.0251030000    0.0000000000
C       -0.0579550000   -0.0407720000   -0.0000000000
N       -0.1822350000    0.0134330000   -0.0000000000
H        0.1252340000    0.0007510000   -0.0000000000
H        0.1318680000    0.0033880000   -0.0000000000
H        0.1443450000    0.0181450000   -0.0000000000
H        0.1444240000    0.0211060000   -0.0000000000
H        0.1287610000    0.0050970000   -0.0000000000
C       -0.2598000000    0.9918470000    0.0000000000
H        0.1487500000   -0.0217790000    0.0000000000
13   
Frame   7 IRC: Energy =  -286.8763820000 ; +0.0728 kcal/mol
C       -0.2515710000   -0.0326470000   -0.0000000000
C        0.1019740000    0.0375980000   -0.0000000000
C       -0.1616740000   -0.0213200000    0.0000000000
C       -0.0116610000    0.0248450000    0.0000000000
C       -0.0582100000   -0.0403380000   -0.0000000000
N       -0.1820710000    0.0132690000   -0.0000000000
H        0.1252120000    0.0007450000   -0.0000000000
H        0.1318300000    0.0033940000   -0.0000000000
H        0.1443190000    0.0182280000   -0.0000000000
H        0.1444250000    0.0209980000   -0.0000000000
H        0.1287730000    0.0050960000   -0.0000000000
C       -0.2600930000    0.9919210000    0.0000000000
H        0.1487470000   -0.0217870000    0.0000000000
13   
Frame   8 IRC: Energy =  -286.8763770000 ; +0.0759 kcal/mol
C       -0.2515140000   -0.0326070000   -0.0000000000
C        0.1022720000    0.0374130000   -0.0000000000
C       -0.1619480000   -0.0211780000    0.0000000000
C       -0.0115290000    0.0247630000    0.0000000000
C       -0.0583030000   -0.0402100000   -0.0000000000
N       -0.1821910000    0.0132200000   -0.0000000000
H        0.1252540000    0.0007430000   -0.0000000000
H        0.1318140000    0.0034080000   -0.0000000000
H        0.1443420000    0.0182380000   -0.0000000000
H        0.1444370000    0.0210090000   -0.0000000000
H        0.1287850000    0.0051010000   -0.0000000000
C       -0.2601740000    0.9918880000    0.0000000000
H        0.1487520000   -0.0217890000    0.0000000000
13   
Frame   9 IRC: Energy =  -286.8763660000 ; +0.0828 kcal/mol
C       -0.2515070000   -0.0324540000   -0.0000000000
C        0.1030210000    0.0370410000   -0.0000000000
C       -0.1624610000   -0.0210150000    0.0000000000
C       -0.0113460000    0.0245140000    0.0000000000
C       -0.0585750000   -0.0398040000   -0.0000000000
N       -0.1820230000    0.0130620000   -0.0000000000
H        0.1252290000    0.0007380000   -0.0000000000
H        0.1317750000    0.0034110000   -0.0000000000
H        0.1443190000    0.0183040000   -0.0000000000
H        0.1444410000    0.0208990000   -0.0000000000
H        0.1287970000    0.0050980000   -0.0000000000
C       -0.2604190000    0.9920000000    0.0000000000
H        0.1487490000   -0.0217940000    0.0000000000
13   
Frame  10 IRC: Energy =  -286.8763600000 ; +0.0866 kcal/mol
C       -0.2514650000   -0.0324000000   -0.0000000000
C        0.1033580000    0.0368380000   -0.0000000000
C       -0.1627320000   -0.0208630000    0.0000000000
C       -0.0112200000    0.0244180000    0.0000000000
C       -0.0586540000   -0.0396480000   -0.0000000000
N       -0.1821270000    0.0130110000   -0.0000000000
H        0.1252710000    0.0007360000   -0.0000000000
H        0.1317610000    0.0034280000   -0.0000000000
H        0.1443380000    0.0183330000   -0.0000000000
H        0.1444500000    0.0209150000   -0.0000000000
H        0.1288090000    0.0051060000   -0.0000000000
C       -0.2605410000    0.9919280000    0.0000000000
H        0.1487520000   -0.0218010000    0.0000000000
13   
Frame  11 IRC: Energy =  -286.8763500000 ; +0.0928 kcal/mol
C       -0.2514360000   -0.0322650000   -0.0000000000
C        0.1040550000    0.0364940000   -0.0000000000
C       -0.1632390000   -0.0207180000    0.0000000000
C       -0.0110420000    0.0241790000    0.0000000000
C       -0.0589460000   -0.0392730000   -0.0000000000
N       -0.1819790000    0.0128590000   -0.0000000000
H        0.1252480000    0.0007320000   -0.0000000000
H        0.1317210000    0.0034280000   -0.0000000000
H        0.1443180000    0.0183800000   -0.0000000000
H        0.1444570000    0.0208030000   -0.0000000000
H        0.1288220000    0.0050990000   -0.0000000000
C       -0.2607320000    0.9920860000    0.0000000000
H        0.1487510000   -0.0218030000    0.0000000000
13   
Frame  12 IRC: Energy =  -286.8763430000 ; +0.0972 kcal/mol
C       -0.2514220000   -0.0321950000   -0.0000000000
C        0.1044430000    0.0362750000   -0.0000000000
C       -0.1635260000   -0.0205560000    0.0000000000
C       -0.0109250000    0.0240680000    0.0000000000
C       -0.0590080000   -0.0390920000   -0.0000000000
N       -0.1820450000    0.0128040000   -0.0000000000
H        0.1252850000    0.0007290000   -0.0000000000
H        0.1317080000    0.0034460000   -0.0000000000
H        0.1443320000    0.0184270000   -0.0000000000
H        0.1444670000    0.0208200000   -0.0000000000
H        0.1288310000    0.0051100000   -0.0000000000
C       -0.2608910000    0.9919780000    0.0000000000
H        0.1487520000   -0.0218140000    0.0000000000
13   
Frame  13 IRC: Energy =  -286.8763330000 ; +0.1035 kcal/mol
C       -0.2513480000   -0.0320850000   -0.0000000000
C        0.1050420000    0.0359690000   -0.0000000000
C       -0.1639740000   -0.0204410000    0.0000000000
C       -0.0107580000    0.0238400000    0.0000000000
C       -0.0593160000   -0.0387480000   -0.0000000000
N       -0.1819380000    0.0126650000   -0.0000000000
H        0.1252680000    0.0007250000   -0.0000000000
H        0.1316660000    0.0034440000   -0.0000000000
H        0.1443170000    0.0184580000   -0.0000000000
H        0.1444750000    0.0207160000   -0.0000000000
H        0.1288520000    0.0051010000   -0.0000000000
C       -0.2610390000    0.9921720000    0.0000000000
H        0.1487530000   -0.0218150000    0.0000000000
13   
Frame  14 IRC: Energy =  -286.8763260000 ; +0.1079 kcal/mol
C       -0.2513180000   -0.0320320000   -0.0000000000
C        0.1054460000    0.0357710000   -0.0000000000
C       -0.1641920000   -0.0202930000    0.0000000000
C       -0.0107700000    0.0237400000    0.0000000000
C       -0.0592970000   -0.0385610000   -0.0000000000
N       -0.1820070000    0.0126180000   -0.0000000000
H        0.1253090000    0.0007230000   -0.0000000000
H        0.1316430000    0.0034640000   -0.0000000000
H        0.1443260000    0.0185140000   -0.0000000000
H        0.1444810000    0.0207280000   -0.0000000000
H        0.1288600000    0.0051150000   -0.0000000000
C       -0.2612300000    0.9920450000    0.0000000000
H        0.1487490000   -0.0218310000    0.0000000000
13   
Frame  15 IRC: Energy =  -286.8763140000 ; +0.1154 kcal/mol
C       -0.2513840000   -0.0318190000   -0.0000000000
C        0.1062190000    0.0353520000   -0.0000000000
C       -0.1650840000   -0.0200900000    0.0000000000
C       -0.0102930000    0.0234350000    0.0000000000
C       -0.0598640000   -0.0381740000   -0.0000000000
N       -0.1817560000    0.0124390000   -0.0000000000
H        0.1252660000    0.0007170000   -0.0000000000
H        0.1316530000    0.0034580000   -0.0000000000
H        0.1443210000    0.0185650000   -0.0000000000
H        0.1445170000    0.0206360000   -0.0000000000
H        0.1288720000    0.0051020000   -0.0000000000
C       -0.2612190000    0.9922330000    0.0000000000
H        0.1487520000   -0.0218540000    0.0000000000
13   
Frame  16 IRC: Energy =  -286.8763100000 ; +0.1179 kcal/mol
C       -0.2512130000   -0.0317800000   -0.0000000000
C        0.1061360000    0.0352780000   -0.0000000000
C       -0.1651470000   -0.0201110000    0.0000000000
C       -0.0101520000    0.0233140000    0.0000000000
C       -0.0601740000   -0.0380750000   -0.0000000000
N       -0.1816710000    0.0123830000   -0.0000000000
H        0.1252390000    0.0007150000   -0.0000000000
H        0.1316370000    0.0034390000   -0.0000000000
H        0.1443100000    0.0185510000   -0.0000000000
H        0.1445240000    0.0205740000   -0.0000000000
H        0.1288870000    0.0050820000   -0.0000000000
C       -0.2611380000    0.9924760000    0.0000000000
H        0.1487620000   -0.0218470000    0.0000000000
13   
Frame  17 IRC: Energy =  -286.8760870000 ; +0.2579 kcal/mol
C       -0.2503860000   -0.0301340000   -0.0000000000
C        0.1161410000    0.0306170000   -0.0000000000
C       -0.1729870000   -0.0182370000    0.0000000000
C       -0.0075270000    0.0188520000    0.0000000000
C       -0.0638750000   -0.0326280000   -0.0000000000
N       -0.1812860000    0.0105450000   -0.0000000000
H        0.1254950000    0.0006520000   -0.0000000000
H        0.1311110000    0.0036270000   -0.0000000000
H        0.1442800000    0.0195770000   -0.0000000000
H        0.1446450000    0.0199750000   -0.0000000000
H        0.1291200000    0.0051400000   -0.0000000000
C       -0.2634520000    0.9941660000    0.0000000000
H        0.1487210000   -0.0221520000    0.0000000000
13   
Frame  18 IRC: Energy =  -286.8760790000 ; +0.2629 kcal/mol
C       -0.2501290000   -0.0301070000   -0.0000000000
C        0.1160940000    0.0304990000   -0.0000000000
C       -0.1731520000   -0.0181860000    0.0000000000
C       -0.0074790000    0.0186310000    0.0000000000
C       -0.0639960000   -0.0324920000   -0.0000000000
N       -0.1811900000    0.0105480000   -0.0000000000
H        0.1254970000    0.0006490000   -0.0000000000
H        0.1310810000    0.0036190000   -0.0000000000
H        0.1442720000    0.0195720000   -0.0000000000
H        0.1446400000    0.0199340000   -0.0000000000
H        0.1291110000    0.0051400000   -0.0000000000
C       -0.2634720000    0.9943390000    0.0000000000
H        0.1487240000   -0.0221460000    0.0000000000
13   
Frame  19 IRC: Energy =  -286.8760040000 ; +0.3100 kcal/mol
C       -0.2500780000   -0.0297620000   -0.0000000000
C        0.1190600000    0.0294670000   -0.0000000000
C       -0.1754180000   -0.0177750000    0.0000000000
C       -0.0066890000    0.0175090000   -0.0000000000
C       -0.0652170000   -0.0312000000   -0.0000000000
N       -0.1810500000    0.0101500000   -0.0000000000
H        0.1255450000    0.0006420000   -0.0000000000
H        0.1309780000    0.0036550000   -0.0000000000
H        0.1442640000    0.0198890000   -0.0000000000
H        0.1447010000    0.0197910000   -0.0000000000
H        0.1291980000    0.0051570000   -0.0000000000
C       -0.2639940000    0.9947430000    0.0000000000
H        0.1487000000   -0.0222650000    0.0000000000
13   
Frame  20 IRC: Energy =  -286.8759920000 ; +0.3175 kcal/mol
C       -0.2498620000   -0.0296820000   -0.0000000000
C        0.1191230000    0.0292580000   -0.0000000000
C       -0.1757990000   -0.0176620000    0.0000000000
C       -0.0065460000    0.0172170000   -0.0000000000
C       -0.0653470000   -0.0309900000   -0.0000000000
N       -0.1809030000    0.0101230000   -0.0000000000
H        0.1255540000    0.0006370000   -0.0000000000
H        0.1309510000    0.0036510000   -0.0000000000
H        0.1442610000    0.0198900000   -0.0000000000
H        0.1447010000    0.0197620000   -0.0000000000
H        0.1291690000    0.0051580000   -0.0000000000
C       -0.2640010000    0.9949020000    0.0000000000
H        0.1487010000   -0.0222660000    0.0000000000
13   
Frame  21 IRC: Energy =  -286.8759360000 ; +0.3526 kcal/mol
C       -0.2497620000   -0.0295020000   -0.0000000000
C        0.1211560000    0.0286450000   -0.0000000000
C       -0.1770960000   -0.0174880000    0.0000000000
C       -0.0061680000    0.0164700000   -0.0000000000
C       -0.0661850000   -0.0301030000   -0.0000000000
N       -0.1808970000    0.0098560000   -0.0000000000
H        0.1255940000    0.0006340000   -0.0000000000
H        0.1308660000    0.0036760000   -0.0000000000
H        0.1442480000    0.0201230000   -0.0000000000
H        0.1447340000    0.0196550000   -0.0000000000
H        0.1292680000    0.0051650000   -0.0000000000
C       -0.2644430000    0.9952150000    0.0000000000
H        0.1486840000   -0.0223460000    0.0000000000
13   
Frame  22 IRC: Energy =  -286.8759210000 ; +0.3620 kcal/mol
C       -0.2495430000   -0.0294180000   -0.0000000000
C        0.1212640000    0.0284040000   -0.0000000000
C       -0.1775340000   -0.0173560000    0.0000000000
C       -0.0060280000    0.0161360000   -0.0000000000
C       -0.0662910000   -0.0298670000   -0.0000000000
N       -0.1807400000    0.0098310000   -0.0000000000
H        0.1256260000    0.0006290000   -0.0000000000
H        0.1308300000    0.0036740000   -0.0000000000
H        0.1442460000    0.0201300000   -0.0000000000
H        0.1447330000    0.0196280000   -0.0000000000
H        0.1292290000    0.0051700000   -0.0000000000
C       -0.2644770000    0.9953820000    0.0000000000
H        0.1486860000   -0.0223450000    0.0000000000
13   
Frame  23 IRC: Energy =  -286.8758700000 ; +0.3940 kcal/mol
C       -0.2495100000   -0.0292240000   -0.0000000000
C        0.1231400000    0.0278690000   -0.0000000000
C       -0.1788900000   -0.0171890000    0.0000000000
C       -0.0055350000    0.0154750000   -0.0000000000
C       -0.0672740000   -0.0290970000   -0.0000000000
N       -0.1806660000    0.0095900000   -0.0000000000
H        0.1256120000    0.0006260000   -0.0000000000
H        0.1307860000    0.0036930000   -0.0000000000
H        0.1442430000    0.0203570000   -0.0000000000
H        0.1447910000    0.0195500000   -0.0000000000
H        0.1293150000    0.0051740000   -0.0000000000
C       -0.2646680000    0.9956250000    0.0000000000
H        0.1486560000   -0.0224500000    0.0000000000
13   
Frame  24 IRC: Energy =  -286.8758320000 ; +0.4179 kcal/mol
C       -0.2490660000   -0.0293910000   -0.0000000000
C        0.1237710000    0.0279570000   -0.0000000000
C       -0.1792080000   -0.0172000000    0.0000000000
C       -0.0064940000    0.0154640000   -0.0000000000
C       -0.0673100000   -0.0289830000   -0.0000000000
N       -0.1808950000    0.0096440000   -0.0000000000
H        0.1255520000    0.0006180000   -0.0000000000
H        0.1306660000    0.0036920000   -0.0000000000
H        0.1442220000    0.0205400000   -0.0000000000
H        0.1448360000    0.0196420000   -0.0000000000
H        0.1292480000    0.0051430000   -0.0000000000
C       -0.2639410000    0.9957040000    0.0000000000
H        0.1486180000   -0.0228290000    0.0000000000
13   
Frame  25 IRC: Energy =  -286.8757500000 ; +0.4693 kcal/mol
C       -0.2490680000   -0.0287210000   -0.0000000000
C        0.1258730000    0.0265290000   -0.0000000000
C       -0.1813340000   -0.0168490000    0.0000000000
C       -0.0042270000    0.0134690000   -0.0000000000
C       -0.0685540000   -0.0273360000   -0.0000000000
N       -0.1801330000    0.0091980000   -0.0000000000
H        0.1258010000    0.0006220000   -0.0000000000
H        0.1306540000    0.0037140000   -0.0000000000
H        0.1441970000    0.0206120000   -0.0000000000
H        0.1447710000    0.0192620000   -0.0000000000
H        0.1294370000    0.0052140000   -0.0000000000
C       -0.2660890000    0.9966120000    0.0000000000
H        0.1486710000   -0.0223280000    0.0000000000
13   
Frame  26 IRC: Energy =  -286.8757250000 ; +0.4850 kcal/mol
C       -0.2492890000   -0.0286360000   -0.0000000000
C        0.1266310000    0.0263310000   -0.0000000000
C       -0.1816260000   -0.0169150000    0.0000000000
C       -0.0037790000    0.0131990000   -0.0000000000
C       -0.0690990000   -0.0270160000   -0.0000000000
N       -0.1801070000    0.0090150000   -0.0000000000
H        0.1258290000    0.0006270000   -0.0000000000
H        0.1306660000    0.0037070000   -0.0000000000
H        0.1441970000    0.0205690000   -0.0000000000
H        0.1447680000    0.0190720000   -0.0000000000
H        0.1295580000    0.0052000000   -0.0000000000
C       -0.2664330000    0.9970180000    0.0000000000
H        0.1486850000   -0.0221700000    0.0000000000
13   
Frame  27 IRC: Energy =  -286.8755480000 ; +0.5961 kcal/mol
C       -0.2479690000   -0.0285330000   -0.0000000000
C        0.1308500000    0.0254530000   -0.0000000000
C       -0.1853960000   -0.0166130000    0.0000000000
C       -0.0041300000    0.0113320000   -0.0000000000
C       -0.0713550000   -0.0253010000   -0.0000000000
N       -0.1799530000    0.0088640000   -0.0000000000
H        0.1257240000    0.0006060000   -0.0000000000
H        0.1303610000    0.0037380000   -0.0000000000
H        0.1441690000    0.0214150000   -0.0000000000
H        0.1449840000    0.0192220000   -0.0000000000
H        0.1295030000    0.0051940000   -0.0000000000
C       -0.2653120000    0.9976990000    0.0000000000
H        0.1485230000   -0.0230760000    0.0000000000
13   
Frame  28 IRC: Energy =  -286.8755010000 ; +0.6256 kcal/mol
C       -0.2481440000   -0.0287770000   -0.0000000000
C        0.1315760000    0.0254760000   -0.0000000000
C       -0.1874450000   -0.0165120000    0.0000000000
C       -0.0034870000    0.0113050000   -0.0000000000
C       -0.0720930000   -0.0252610000   -0.0000000000
N       -0.1800710000    0.0088220000   -0.0000000000
H        0.1257500000    0.0005930000   -0.0000000000
H        0.1302860000    0.0037190000   -0.0000000000
H        0.1442780000    0.0213680000   -0.0000000000
H        0.1450710000    0.0194250000   -0.0000000000
H        0.1295770000    0.0051160000   -0.0000000000
C       -0.2638880000    0.9979940000    0.0000000000
H        0.1485890000   -0.0232690000    0.0000000000
13   
Frame  29 IRC: Energy =  -286.8750510000 ; +0.9080 kcal/mol
C       -0.2463650000   -0.0278660000   -0.0000000000
C        0.1394840000    0.0232890000   -0.0000000000
C       -0.1933700000   -0.0170850000    0.0000000000
C       -0.0010980000    0.0049830000   -0.0000000000
C       -0.0767210000   -0.0208980000   -0.0000000000
N       -0.1784010000    0.0086230000   -0.0000000000
H        0.1260500000    0.0006180000   -0.0000000000
H        0.1299710000    0.0037470000   -0.0000000000
H        0.1440440000    0.0226410000   -0.0000000000
H        0.1451050000    0.0188120000   -0.0000000000
H        0.1298550000    0.0052730000   -0.0000000000
C       -0.2669350000    1.0014160000    0.0000000000
H        0.1483810000   -0.0235530000    0.0000000000
13   
Frame  30 IRC: Energy =  -286.8749940000 ; +0.9437 kcal/mol
C       -0.2459590000   -0.0277060000   -0.0000000000
C        0.1399050000    0.0233270000   -0.0000000000
C       -0.1909960000   -0.0175570000    0.0000000000
C       -0.0021050000    0.0047480000   -0.0000000000
C       -0.0772420000   -0.0206540000   -0.0000000000
N       -0.1784740000    0.0086050000   -0.0000000000
H        0.1260240000    0.0006380000   -0.0000000000
H        0.1299060000    0.0037450000   -0.0000000000
H        0.1438770000    0.0231170000   -0.0000000000
H        0.1451180000    0.0185580000   -0.0000000000
H        0.1298390000    0.0053230000   -0.0000000000
C       -0.2681810000    1.0014790000    0.0000000000
H        0.1482860000   -0.0236220000    0.0000000000
13   
Frame  31 IRC: Energy =  -286.8744290000 ; +1.2983 kcal/mol
C       -0.2444850000   -0.0281530000   -0.0000000000
C        0.1474190000    0.0229940000   -0.0000000000
C       -0.2012560000   -0.0186630000    0.0000000000
C        0.0015770000   -0.0010870000   -0.0000000000
C       -0.0829250000   -0.0179110000   -0.0000000000
N       -0.1768810000    0.0095780000   -0.0000000000
H        0.1262400000    0.0006660000   -0.0000000000
H        0.1295640000    0.0036770000   -0.0000000000
H        0.1439320000    0.0240570000   -0.0000000000
H        0.1453040000    0.0187600000   -0.0000000000
H        0.1301760000    0.0053340000   -0.0000000000
C       -0.2668180000    1.0053110000    0.0000000000
H        0.1481530000   -0.0245640000    0.0000000000
13   
Frame  32 IRC: Energy =  -286.8743410000 ; +1.3535 kcal/mol
C       -0.2439170000   -0.0281640000   -0.0000000000
C        0.1481540000    0.0232760000   -0.0000000000
C       -0.1991230000   -0.0193030000    0.0000000000
C        0.0004460000   -0.0014760000   -0.0000000000
C       -0.0837310000   -0.0176600000   -0.0000000000
N       -0.1769940000    0.0097170000   -0.0000000000
H        0.1261910000    0.0006920000   -0.0000000000
H        0.1294710000    0.0036770000   -0.0000000000
H        0.1437740000    0.0246780000   -0.0000000000
H        0.1453290000    0.0186430000   -0.0000000000
H        0.1301850000    0.0053830000   -0.0000000000
C       -0.2678110000    1.0053570000    0.0000000000
H        0.1480260000   -0.0248210000    0.0000000000
13   
Frame  33 IRC: Energy =  -286.8736250000 ; +1.8028 kcal/mol
C       -0.2424380000   -0.0291660000   -0.0000000000
C        0.1545510000    0.0243630000   -0.0000000000
C       -0.2079040000   -0.0216910000    0.0000000000
C        0.0049370000   -0.0077600000   -0.0000000000
C       -0.0903260000   -0.0159690000   -0.0000000000
N       -0.1749600000    0.0119470000   -0.0000000000
H        0.1264810000    0.0007810000   -0.0000000000
H        0.1291770000    0.0035110000   -0.0000000000
H        0.1437480000    0.0256610000   -0.0000000000
H        0.1454530000    0.0187270000   -0.0000000000
H        0.1306250000    0.0054360000   -0.0000000000
C       -0.2672240000    1.0098690000    0.0000000000
H        0.1478800000   -0.0257090000    0.0000000000
13   
Frame  34 IRC: Energy =  -286.8735190000 ; +1.8693 kcal/mol
C       -0.2419790000   -0.0292910000   -0.0000000000
C        0.1543560000    0.0243010000   -0.0000000000
C       -0.2115150000   -0.0214100000    0.0000000000
C        0.0061800000   -0.0087360000   -0.0000000000
C       -0.0900490000   -0.0156830000   -0.0000000000
N       -0.1744260000    0.0122980000   -0.0000000000
H        0.1264470000    0.0007600000   -0.0000000000
H        0.1292170000    0.0035000000   -0.0000000000
H        0.1438650000    0.0250870000   -0.0000000000
H        0.1453780000    0.0189230000   -0.0000000000
H        0.1307650000    0.0054060000   -0.0000000000
C       -0.2661690000    1.0105210000    0.0000000000
H        0.1479310000   -0.0256760000    0.0000000000
13   
Frame  35 IRC: Energy =  -286.8727930000 ; +2.3249 kcal/mol
C       -0.2408860000   -0.0306450000   -0.0000000000
C        0.1604810000    0.0269720000   -0.0000000000
C       -0.2124050000   -0.0251780000    0.0000000000
C        0.0080540000   -0.0133810000   -0.0000000000
C       -0.0976270000   -0.0154390000   -0.0000000000
N       -0.1731220000    0.0152010000   -0.0000000000
H        0.1266630000    0.0009380000   -0.0000000000
H        0.1288540000    0.0033080000   -0.0000000000
H        0.1435290000    0.0272970000   -0.0000000000
H        0.1455830000    0.0187850000   -0.0000000000
H        0.1310000000    0.0055650000   -0.0000000000
C       -0.2676970000    1.0135380000    0.0000000000
H        0.1475740000   -0.0269610000    0.0000000000
13   
Frame  36 IRC: Energy =  -286.8726610000 ; +2.4077 kcal/mol
C       -0.2403210000   -0.0307710000   -0.0000000000
C        0.1604560000    0.0270540000   -0.0000000000
C       -0.2150640000   -0.0252140000    0.0000000000
C        0.0090780000   -0.0145170000   -0.0000000000
C       -0.0980670000   -0.0153870000   -0.0000000000
N       -0.1724380000    0.0158360000   -0.0000000000
H        0.1267280000    0.0009310000   -0.0000000000
H        0.1288150000    0.0032640000   -0.0000000000
H        0.1435760000    0.0270890000   -0.0000000000
H        0.1455640000    0.0189020000   -0.0000000000
H        0.1309710000    0.0055690000   -0.0000000000
C       -0.2668930000    1.0143350000    0.0000000000
H        0.1475940000   -0.0270910000    0.0000000000
13   
Frame  37 IRC: Energy =  -286.8722830000 ; +2.6449 kcal/mol
C       -0.2401780000   -0.0317060000   -0.0000000000
C        0.1634600000    0.0288920000   -0.0000000000
C       -0.2150450000   -0.0273010000    0.0000000000
C        0.0104680000   -0.0165610000   -0.0000000000
C       -0.1018670000   -0.0156110000   -0.0000000000
N       -0.1718750000    0.0175910000   -0.0000000000
H        0.1267520000    0.0010430000   -0.0000000000
H        0.1286890000    0.0031600000   -0.0000000000
H        0.1434140000    0.0280500000   -0.0000000000
H        0.1456120000    0.0188380000   -0.0000000000
H        0.1312780000    0.0056420000   -0.0000000000
C       -0.2681250000    1.0155680000    0.0000000000
H        0.1474180000   -0.0276050000    0.0000000000
13   
Frame  38 IRC: Energy =  -286.8712110000 ; +3.3176 kcal/mol
C       -0.2386390000   -0.0340680000   -0.0000000000
C        0.1681240000    0.0333690000   -0.0000000000
C       -0.2203140000   -0.0314650000    0.0000000000
C        0.0153560000   -0.0225550000   -0.0000000000
C       -0.1104650000   -0.0167950000   -0.0000000000
N       -0.1691150000    0.0231500000   -0.0000000000
H        0.1269990000    0.0012720000   -0.0000000000
H        0.1283940000    0.0028160000   -0.0000000000
H        0.1432170000    0.0294570000   -0.0000000000
H        0.1456540000    0.0190330000   -0.0000000000
H        0.1316830000    0.0058140000   -0.0000000000
C       -0.2680420000    1.0190620000    0.0000000000
H        0.1471470000   -0.0290910000    0.0000000000
13   