13   
Frame   0 IRC: Energy =  -286.8764979468 ; +0.0000 kcal/mol
C        1.6725149521    0.4115838399   -0.2228126392
C        1.1374037140   -0.8319380119   -0.2301072648
C       -0.2975598819   -1.0745358811   -0.0131968397
C       -1.1635911106    0.3137787470    0.0430961933
C       -0.3580440298    1.5155271317   -0.2391698249
N        0.9295246944    1.5916632643   -0.2731297555
H        2.7448866906    0.5528844683   -0.3179307167
H        1.7717766433   -1.6945287306   -0.4168775230
H       -0.7295909377   -1.9533295151   -0.4943953016
H       -2.1764526876    0.3363431216   -0.3629426391
H       -0.9144111912    2.4190955128   -0.4963983160
C       -0.9360196711   -0.5600648597    1.1952656856
H       -1.6804371850   -1.0264790875    1.8285989419
13   
Frame   1 IRC: Energy =  -286.8764974457 ; +0.0003 kcal/mol
C        1.6725823476    0.4115124098   -0.2227697533
C        1.1374062778   -0.8319359846   -0.2303320276
C       -0.2977497978   -1.0740428726   -0.0137084613
C       -1.1636129894    0.3135425576    0.0430691604
C       -0.3580965804    1.5155145815   -0.2389552627
N        0.9294075109    1.5915621286   -0.2732816945
H        2.7449737934    0.5530476483   -0.3170923922
H        1.7715568418   -1.6947577015   -0.4166974805
H       -0.7300954440   -1.9528031776   -0.4946617922
H       -2.1765336030    0.3364743711   -0.3627723949
H       -0.9144618904    2.4188047486   -0.4971921763
C       -0.9357257160   -0.5599959005    1.1954352943
H       -1.6796507508   -1.0269228089    1.8289589811
13   
Frame   2 IRC: Energy =  -286.8764942721 ; +0.0023 kcal/mol
C        1.6731207830    0.4110670040   -0.2230830630
C        1.1379233846   -0.8321171818   -0.2310875541
C       -0.2973290799   -1.0726469588   -0.0125443624
C       -1.1643545791    0.3121925363    0.0406750774
C       -0.3580515710    1.5149085751   -0.2389405787
N        0.9293065143    1.5914510528   -0.2719649086
H        2.7453403925    0.5535102351   -0.3176653026
H        1.7711395856   -1.6953443455   -0.4184659447
H       -0.7299813148   -1.9525182339   -0.4914725659
H       -2.1768338053    0.3356144602   -0.3658692263
H       -0.9143368068    2.4191064348   -0.4944322625
C       -0.9362177324   -0.5584278030    1.1959343229
H       -1.6797257708   -1.0267957752    1.8289163685
13   
Frame   3 IRC: Energy =  -286.8764888246 ; +0.0057 kcal/mol
C        1.6735791746    0.4107313536   -0.2241584914
C        1.1386240608   -0.8322673814   -0.2308996479
C       -0.2964892288   -1.0719166008   -0.0102790082
C       -1.1647790361    0.3110414692    0.0383469832
C       -0.3578615482    1.5148956025   -0.2370750007
N        0.9294069377    1.5916090569   -0.2705102832
H        2.7454882595    0.5535268393   -0.3216123891
H        1.7711773133   -1.6956379464   -0.4197960591
H       -0.7287021369   -1.9530216152   -0.4875901627
H       -2.1762740799    0.3343527623   -0.3704304050
H       -0.9143310385    2.4197331819   -0.4901493829
C       -0.9377563787   -0.5569888953    1.1963273214
H       -1.6820822988   -1.0260578267    1.8278265256
13   
Frame   4 IRC: Energy =  -286.8764508178 ; +0.0296 kcal/mol
C        1.6745600099    0.4106598920   -0.2330785285
C        1.1411694307   -0.8322378935   -0.2280948112
C       -0.2928582604   -1.0731866085   -0.0001539978
C       -1.1643827572    0.3073687117    0.0302433952
C       -0.3566120431    1.5148093063   -0.2310481170
N        0.9305093194    1.5925591226   -0.2656161883
H        2.7450537644    0.5531743590   -0.3459898129
H        1.7734586375   -1.6951523696   -0.4201278345
H       -0.7204587858   -1.9599419394   -0.4710924224
H       -2.1702478729    0.3270364517   -0.3924981962
H       -0.9138973669    2.4254809440   -0.4606867616
C       -0.9473160918   -0.5521535656    1.1966255404
H       -1.6989779840   -1.0184164106    1.8215177349
13   
Frame   5 IRC: Energy =  -286.8763960000 ; +0.0640 kcal/mol
C        1.6752352624    0.4111237141   -0.2383780641
C        1.1428133399   -0.8321931437   -0.2246910362
C       -0.2909071209   -1.0746321711    0.0056690287
C       -1.1633875721    0.3056817571    0.0262439053
C       -0.3557813636    1.5151149968   -0.2258807406
N        0.9312041227    1.5931387548   -0.2623330277
H        2.7443678459    0.5537302951   -0.3649323824
H        1.7748087650   -1.6947758373   -0.4187891777
H       -0.7154977221   -1.9650393304   -0.4609885898
H       -2.1648288873    0.3229259622   -0.4069671415
H       -0.9134403639    2.4287169281   -0.4422542129
C       -0.9538403589   -0.5499551343    1.1964693477
H       -1.7107459470   -1.0138367915    1.8168320910
13   
Frame   6 IRC: Energy =  -286.8763920000 ; +0.0665 kcal/mol
C        1.6755206672    0.4110609417   -0.2387366277
C        1.1427751920   -0.8320777488   -0.2245494207
C       -0.2908421783   -1.0747413008    0.0059499832
C       -1.1632047993    0.3055068486    0.0258982738
C       -0.3558009271    1.5150458337   -0.2255891553
N        0.9311670785    1.5932049644   -0.2620982018
H        2.7442231278    0.5537355127   -0.3658626712
H        1.7749304751   -1.6948745205   -0.4188081199
H       -0.7152049925   -1.9651668051   -0.4602849228
H       -2.1646409406    0.3225883658   -0.4080042591
H       -0.9134296609    2.4289226798   -0.4410511892
C       -0.9541411794   -0.5496479629    1.1964001508
H       -1.7113518625   -1.0135568085    1.8167361598
13   
Frame   7 IRC: Energy =  -286.8763820000 ; +0.0728 kcal/mol
C        1.6753750137    0.4110735084   -0.2394680975
C        1.1431609894   -0.8322257845   -0.2243620656
C       -0.2905526072   -1.0745667929    0.0067931640
C       -1.1633248992    0.3050004595    0.0248908794
C       -0.3556469505    1.5150554357   -0.2249711069
N        0.9312851817    1.5932225201   -0.2615579582
H        2.7442686277    0.5537837342   -0.3680507881
H        1.7749869926   -1.6948371314   -0.4187956151
H       -0.7146523723   -1.9657245605   -0.4588124745
H       -2.1639166278    0.3218086868   -0.4102739258
H       -0.9134148986    2.4293477691   -0.4382559710
C       -0.9550378007   -0.5491839534    1.1965100132
H       -1.7125306486   -1.0127538910    1.8163539461
13   
Frame   8 IRC: Energy =  -286.8763770000 ; +0.0759 kcal/mol
C        1.6756758001    0.4109851966   -0.2398467226
C        1.1431219630   -0.8320961792   -0.2242161283
C       -0.2904779893   -1.0746267688    0.0071347752
C       -1.1631410247    0.3047853919    0.0245299430
C       -0.3556642877    1.5150096908   -0.2246694769
N        0.9312337325    1.5932948522   -0.2613013356
H        2.7441109489    0.5537892914   -0.3690350316
H        1.7751161529   -1.6949416360   -0.4188211795
H       -0.7143579071   -1.9658915360   -0.4580805196
H       -2.1637106942    0.3214461911   -0.4113855648
H       -0.9133951585    2.4295517785   -0.4369683084
C       -0.9553368605   -0.5488541021    1.1963918254
H       -1.7131746752   -1.0124521703    1.8162677238
13   
Frame   9 IRC: Energy =  -286.8763660000 ; +0.0828 kcal/mol
C        1.6755191456    0.4110185099   -0.2405390355
C        1.1434955839   -0.8322558640   -0.2240418518
C       -0.2902018858   -1.0745035641    0.0078906402
C       -1.1632660669    0.3043292224    0.0235351832
C       -0.3555241338    1.5149952488   -0.2240738721
N        0.9313612314    1.5933028862   -0.2607781500
H        2.7441551759    0.5538344682   -0.3711109794
H        1.7751599380   -1.6948992482   -0.4188173426
H       -0.7138226181   -1.9663984197   -0.4566635525
H       -2.1630115372    0.3206884387   -0.4135648290
H       -0.9133826246    2.4299664574   -0.4342975842
C       -0.9562268498   -0.5484161750    1.1965530986
H       -1.7142553586   -1.0116619606    1.8159082752
13   
Frame  10 IRC: Energy =  -286.8763600000 ; +0.0866 kcal/mol
C        1.6757967932    0.4109157767   -0.2409373310
C        1.1434746298   -0.8321272957   -0.2238941555
C       -0.2901282152   -1.0745069845    0.0083055626
C       -1.1630884567    0.3040624859    0.0231589967
C       -0.3555244560    1.5149698237   -0.2237581274
N        0.9312994821    1.5933743419   -0.2604974488
H        2.7440044026    0.5538419013   -0.3721619259
H        1.7752901837   -1.6950010331   -0.4188484725
H       -0.7135214994   -1.9666076469   -0.4558964695
H       -2.1627820112    0.3202948378   -0.4147628742
H       -0.9133547342    2.4301774397   -0.4329124572
C       -0.9565141841   -0.5480530134    1.1963654938
H       -1.7149519345   -1.0113406333    1.8158392087
13   
Frame  11 IRC: Energy =  -286.8763500000 ; +0.0928 kcal/mol
C        1.6756702961    0.4109610216   -0.2415906194
C        1.1438123793   -0.8322831828   -0.2237291233
C       -0.2898568209   -1.0744395977    0.0089655883
C       -1.1632103998    0.3036662745    0.0221862679
C       -0.3554164578    1.5149394088   -0.2231910618
N        0.9314324008    1.5933793702   -0.2599978236
H        2.7440245279    0.5538793328   -0.3741089694
H        1.7753304781   -1.6949614907   -0.4188550541
H       -0.7130063707   -1.9670632560   -0.4545458544
H       -2.1621186844    0.3195618365   -0.4168357938
H       -0.9133352008    2.4305797479   -0.4303856509
C       -0.9574020644   -0.5476500133    1.1965868568
H       -1.7159240832   -1.0105694518    1.8155012377
13   
Frame  12 IRC: Energy =  -286.8763430000 ; +0.0972 kcal/mol
C        1.6758880632    0.4108402079   -0.2420016226
C        1.1438262832   -0.8321564552   -0.2235852771
C       -0.2897872048   -1.0743968434    0.0094511636
C       -1.1630501773    0.3033540893    0.0217856810
C       -0.3553779364    1.5149276489   -0.2228563967
N        0.9313582074    1.5934492857   -0.2596973894
H        2.7438963699    0.5538896710   -0.3752307580
H        1.7754570908   -1.6950545203   -0.4188912653
H       -0.7126924127   -1.9673078783   -0.4537381745
H       -2.1618649177    0.3191307888   -0.4181231347
H       -0.9132999002    2.4308099695   -0.4289019470
C       -0.9576832821   -0.5472599262    1.1963394228
H       -1.7166701835   -1.0102260375    1.8154496980
13   
Frame  13 IRC: Energy =  -286.8763330000 ; +0.1035 kcal/mol
C        1.6758308910    0.4109179149   -0.2426278627
C        1.1441094831   -0.8323296804   -0.2234155833
C       -0.2895313062   -1.0743650819    0.0100095721
C       -1.1631629990    0.3030161488    0.0208726227
C       -0.3553348255    1.5148997503   -0.2223308905
N        0.9314950142    1.5934408714   -0.2592234600
H        2.7438889060    0.5539127306   -0.3770093540
H        1.7754979818   -1.6950128848   -0.4189100330
H       -0.7122100286   -1.9677278000   -0.4524882662
H       -2.1612441146    0.3184323464   -0.4200491366
H       -0.9132657539    2.4312007331   -0.4265693569
C       -0.9585478888   -0.5468888161    1.1965993172
H       -1.7175253596   -1.0094962323    1.8151424311
13   
Frame  14 IRC: Energy =  -286.8763260000 ; +0.1079 kcal/mol
C        1.6759620013    0.4106675853   -0.2431357578
C        1.1441329821   -0.8321633260   -0.2232089198
C       -0.2894742984   -1.0742998568    0.0105226748
C       -1.1630188207    0.3027030829    0.0204514662
C       -0.3552622673    1.5149051998   -0.2220171209
N        0.9314097466    1.5934189180   -0.2588491944
H        2.7438414434    0.5539523758   -0.3781479364
H        1.7755939195   -1.6950204176   -0.4189477105
H       -0.7118737738   -1.9679554169   -0.4516316174
H       -2.1609631682    0.3179784508   -0.4213848326
H       -0.9132728692    2.4315100701   -0.4250582855
C       -0.9587971165   -0.5465752847    1.1963098018
H       -1.7182777788   -1.0091213806    1.8150974325
13   
Frame  15 IRC: Energy =  -286.8763140000 ; +0.1154 kcal/mol
C        1.6759833566    0.4110590014   -0.2434282078
C        1.1445039188   -0.8323506631   -0.2233604456
C       -0.2890633900   -1.0744057999    0.0112291920
C       -1.1631788334    0.3023997012    0.0195360410
C       -0.3551627654    1.5149096115   -0.2213896318
N        0.9316053001    1.5937943451   -0.2586051406
H        2.7436446166    0.5538513544   -0.3800532858
H        1.7757311096   -1.6952940521   -0.4189703746
H       -0.7114384360   -1.9684585605   -0.4503765274
H       -2.1604487273    0.3171248500   -0.4234404919
H       -0.9130912220    2.4317984278   -0.4225265638
C       -0.9598698522   -0.5460202906    1.1964871397
H       -1.7192150754   -1.0084079252    1.8148982965
13   
Frame  16 IRC: Energy =  -286.8763100000 ; +0.1179 kcal/mol
C        1.6760943357    0.4114941368   -0.2434634792
C        1.1445420607   -0.8327824808   -0.2234354130
C       -0.2888950340   -1.0744599785    0.0112603396
C       -1.1633218342    0.3024244761    0.0192349486
C       -0.3552146781    1.5149240792   -0.2212655051
N        0.9317559830    1.5938414095   -0.2585819696
H        2.7435574270    0.5538063004   -0.3804073479
H        1.7756954982   -1.6952687383   -0.4189486537
H       -0.7113544584   -1.9685482276   -0.4501477830
H       -2.1602923810    0.3169588305   -0.4237870822
H       -0.9130435094    2.4318257234   -0.4220431243
C       -0.9602619556   -0.5460141137    1.1968176811
H       -1.7192614539   -1.0082014170    1.8147673885
13   
Frame  17 IRC: Energy =  -286.8760870000 ; +0.2579 kcal/mol
C        1.6766963112    0.4096464232   -0.2525926997
C        1.1471995913   -0.8330566508   -0.2215513849
C       -0.2866464774   -1.0734056098    0.0198879139
C       -1.1626187383    0.2945848457    0.0038254044
C       -0.3546897119    1.5136818054   -0.2131851713
N        0.9315312741    1.5937330079   -0.2484220099
H        2.7420274500    0.5546440501   -0.4051630009
H        1.7768552068   -1.6961791622   -0.4215022952
H       -0.7052224091   -1.9746280647   -0.4310868868
H       -2.1511817807    0.3045337219   -0.4585560322
H       -0.9137770182    2.4364214206   -0.3830145017
C       -0.9696312322   -0.5371107209    1.1949705588
H       -1.7305424655   -0.9928650664    1.8163901056
13   
Frame  18 IRC: Energy =  -286.8760790000 ; +0.2629 kcal/mol
C        1.6768263196    0.4100535405   -0.2528720746
C        1.1471029906   -0.8334934965   -0.2214821192
C       -0.2865072273   -1.0734353652    0.0200131692
C       -1.1626987047    0.2943707617    0.0033142317
C       -0.3545603710    1.5137147674   -0.2129744258
N        0.9314917813    1.5936092230   -0.2481244548
H        2.7419759048    0.5546499435   -0.4058431459
H        1.7768553909   -1.6961450745   -0.4215595023
H       -0.7050250073   -1.9747380678   -0.4305390545
H       -2.1508856757    0.3041919992   -0.4594938143
H       -0.9138094042    2.4365428649   -0.3819321626
C       -0.9699799551   -0.5369226517    1.1951080714
H       -1.7307860420   -0.9923984444    1.8163852817
13   
Frame  19 IRC: Energy =  -286.8760040000 ; +0.3100 kcal/mol
C        1.6768185651    0.4092986470   -0.2550409410
C        1.1480164473   -0.8332578574   -0.2212276826
C       -0.2859195279   -1.0731452274    0.0223219271
C       -1.1625065492    0.2923774321   -0.0008164592
C       -0.3546014474    1.5132577509   -0.2108057444
N        0.9315370808    1.5937726449   -0.2454547949
H        2.7414021924    0.5548648040   -0.4122032111
H        1.7771604354   -1.6965327261   -0.4223246646
H       -0.7035321009   -1.9763748311   -0.4256072117
H       -2.1484594012    0.3007788385   -0.4688173257
H       -0.9139258886    2.4374598300   -0.3714758701
C       -0.9724901373   -0.5344063170    1.1943641764
H       -1.7334996684   -0.9880929885    1.8170878019
13   
Frame  20 IRC: Energy =  -286.8759920000 ; +0.3175 kcal/mol
C        1.6769601552    0.4097174095   -0.2553544632
C        1.1478984684   -0.8337273798   -0.2211719818
C       -0.2857122577   -1.0731828212    0.0224995970
C       -1.1625764314    0.2920918043   -0.0014377066
C       -0.3543830537    1.5132577044   -0.2105179465
N        0.9313989339    1.5937042683   -0.2450768760
H        2.7413133506    0.5548712508   -0.4130751511
H        1.7771772811   -1.6965393054   -0.4224166446
H       -0.7032963606   -1.9765271711   -0.4249054240
H       -2.1480943146    0.3003063785   -0.4700775968
H       -0.9139451327    2.4375709779   -0.3700328882
C       -0.9728922663   -0.5340560262    1.1943908991
H       -1.7338483722   -0.9874870900    1.8171761828
13   
Frame  21 IRC: Energy =  -286.8759360000 ; +0.3526 kcal/mol
C        1.6769098603    0.4089880096   -0.2569230305
C        1.1486034383   -0.8334432977   -0.2209423040
C       -0.2854623252   -1.0729036322    0.0240464961
C       -1.1623978346    0.2906469074   -0.0044021623
C       -0.3545987264    1.5129399144   -0.2090580975
N        0.9315051133    1.5936874306   -0.2430969829
H        2.7409663124    0.5550560557   -0.4173463420
H        1.7773730153   -1.6967583218   -0.4230097449
H       -0.7022941685   -1.9776738127   -0.4215404937
H       -2.1463740276    0.2979626080   -0.4765704606
H       -0.9141052672    2.4382482376   -0.3628258850
C       -0.9745572732   -0.5323801736    1.1939136942
H       -1.7355681170   -0.9843699252    1.8177553130
13   
Frame  22 IRC: Energy =  -286.8759210000 ; +0.3620 kcal/mol
C        1.6770749259    0.4093075464   -0.2573497267
C        1.1484298762   -0.8339834343   -0.2208233744
C       -0.2852425077   -1.0729220091    0.0242521525
C       -1.1624374935    0.2902725441   -0.0051733172
C       -0.3543542282    1.5129295160   -0.2087209974
N        0.9312633722    1.5936293526   -0.2425816856
H        2.7409290533    0.5550949682   -0.4183791039
H        1.7773863620   -1.6967206872   -0.4231389707
H       -0.7020028951   -1.9778460235   -0.4206853720
H       -2.1459372875    0.2974003427   -0.4781305267
H       -0.9141567458    2.4384186526   -0.3610830692
C       -0.9749459903   -0.5319579125    1.1938905953
H       -1.7360064416   -0.9836228560    1.8179233961
13   
Frame  23 IRC: Energy =  -286.8758700000 ; +0.3940 kcal/mol
C        1.6769392501    0.4088375038   -0.2584504806
C        1.1491386388   -0.8335731648   -0.2208787415
C       -0.2849201466   -1.0728178387    0.0256997440
C       -1.1624383660    0.2892066742   -0.0075850681
C       -0.3545327457    1.5125637839   -0.2073869405
N        0.9315289212    1.5936839093   -0.2410421777
H        2.7404157722    0.5552104332   -0.4219644004
H        1.7775408073   -1.6970406926   -0.4236415751
H       -0.7012425168   -1.9788442156   -0.4179154764
H       -2.1445172082    0.2952754054   -0.4837917709
H       -0.9141744610    2.4387117078   -0.3548124358
C       -0.9764730109   -0.5304218624    1.1933371006
H       -1.7372649344   -0.9807916434    1.8184322225
13   
Frame  24 IRC: Energy =  -286.8758320000 ; +0.4179 kcal/mol
C        1.6766770709    0.4089441400   -0.2598230751
C        1.1489576724   -0.8338780177   -0.2208150658
C       -0.2836165443   -1.0726893056    0.0263215161
C       -1.1627736375    0.2900344700   -0.0079916621
C       -0.3540330778    1.5119258822   -0.2083872768
N        0.9315917049    1.5930485323   -0.2393298261
H        2.7394259515    0.5552678908   -0.4236707802
H        1.7771311269   -1.6965119162   -0.4235862379
H       -0.7006310199   -1.9781048748   -0.4154706752
H       -2.1432109491    0.2938137642   -0.4865977915
H       -0.9140972708    2.4382534879   -0.3509148795
C       -0.9776468561   -0.5312363834    1.1913935712
H       -1.7377741712   -0.9788676695    1.8188721829
13   
Frame  25 IRC: Energy =  -286.8757500000 ; +0.4693 kcal/mol
C        1.6775155854    0.4085000397   -0.2607942957
C        1.1500295619   -0.8343570809   -0.2203453564
C       -0.2851817275   -1.0722630279    0.0277278979
C       -1.1617962060    0.2852592142   -0.0141545518
C       -0.3546344055    1.5125423555   -0.2039172818
N        0.9309638311    1.5938912940   -0.2376562239
H        2.7404000030    0.5555430244   -0.4293135081
H        1.7781475669   -1.6977807879   -0.4251284995
H       -0.6996306055   -1.9815505243   -0.4125494277
H       -2.1416031859    0.2912836719   -0.4953733410
H       -0.9148230626    2.4404755675   -0.3423754720
C       -0.9792208192   -0.5262657380    1.1937508329
H       -1.7401665361   -0.9752780082    1.8201292272
13   
Frame  26 IRC: Energy =  -286.8757250000 ; +0.4850 kcal/mol
C        1.6775080027    0.4078888789   -0.2607441388
C        1.1506260581   -0.8339555150   -0.2203329085
C       -0.2856552074   -1.0723439037    0.0278348902
C       -1.1617305995    0.2844546164   -0.0155450306
C       -0.3552633882    1.5126971728   -0.2028659190
N        0.9312327277    1.5942576460   -0.2376173115
H        2.7407271974    0.5556120552   -0.4301885648
H        1.7783631914   -1.6980921529   -0.4254289889
H       -0.6995327685   -1.9823324887   -0.4123140061
H       -2.1413367087    0.2909793264   -0.4966403795
H       -0.9149402988    2.4409207447   -0.3412293693
C       -0.9796695126   -0.5253813784    1.1949490089
H       -1.7403286935   -0.9747050016    1.8201227179
13   
Frame  27 IRC: Energy =  -286.8755480000 ; +0.5961 kcal/mol
C        1.6767952707    0.4078353915   -0.2652011410
C        1.1509375188   -0.8345858377   -0.2205887086
C       -0.2826975293   -1.0720545611    0.0316115823
C       -1.1625665023    0.2834308806   -0.0213301895
C       -0.3544264990    1.5106656723   -0.2016412359
N        0.9311461244    1.5927540266   -0.2309917610
H        2.7378228246    0.5559869761   -0.4396878360
H        1.7779426607   -1.6977408712   -0.4267401137
H       -0.6970955501   -1.9829039249   -0.4028302077
H       -2.1362105451    0.2837544545   -0.5142051137
H       -0.9148465775    2.4401652281   -0.3211704930
C       -0.9840439801   -0.5230448931    1.1897653069
H       -1.7427572157   -0.9642625416    1.8230099109
13   
Frame  28 IRC: Energy =  -286.8755010000 ; +0.6256 kcal/mol
C        1.6759490072    0.4072706522   -0.2659988300
C        1.1499667452   -0.8356323839   -0.2203871039
C       -0.2807522200   -1.0726048015    0.0311729315
C       -1.1625627306    0.2843000477   -0.0214650585
C       -0.3550764155    1.5104777573   -0.2022449179
N        0.9312449840    1.5930588953   -0.2298265083
H        2.7380646199    0.5562577133   -0.4408713340
H        1.7774700742   -1.6970152906   -0.4266600764
H       -0.6965676914   -1.9819728192   -0.4010859023
H       -2.1355319461    0.2827381266   -0.5163081221
H       -0.9143476559    2.4391948425   -0.3184289314
C       -0.9841823034   -0.5228324472    1.1880681251
H       -1.7436744676   -0.9632402926    1.8240357284
13   
Frame  29 IRC: Energy =  -286.8750510000 ; +0.9080 kcal/mol
C        1.6768704965    0.4062482281   -0.2715454143
C        1.1533025256   -0.8363872825   -0.2208874601
C       -0.2822317217   -1.0712086877    0.0365066195
C       -1.1618884304    0.2732838449   -0.0416614110
C       -0.3551859325    1.5085879991   -0.1929769893
N        0.9297541920    1.5919317483   -0.2180241305
H        2.7357275402    0.5572820395   -0.4583710756
H        1.7789513840   -1.6998330031   -0.4322950716
H       -0.6934065311   -1.9894303779   -0.3872977678
H       -2.1265184509    0.2694913328   -0.5525356467
H       -0.9171578333    2.4416063415   -0.2800315994
C       -0.9920637863   -0.5111339653    1.1862601816
H       -1.7461534521   -0.9404382177    1.8328597651
13   
Frame  30 IRC: Energy =  -286.8749940000 ; +0.9437 kcal/mol
C        1.6779784888    0.4060775560   -0.2719516338
C        1.1548582865   -0.8357570967   -0.2213226488
C       -0.2836037827   -1.0700318151    0.0381190700
C       -1.1621402356    0.2723745109   -0.0435300639
C       -0.3550465612    1.5079968831   -0.1921340013
N        0.9298475072    1.5916819275   -0.2173204942
H        2.7344772198    0.5571234668   -0.4593812610
H        1.7790652621   -1.7000926692   -0.4327206780
H       -0.6934731495   -1.9908089455   -0.3867693889
H       -2.1256487358    0.2685930847   -0.5549228644
H       -0.9177080688    2.4423336022   -0.2774856669
C       -0.9929806049   -0.5110334336    1.1865683146
H       -1.7456256258   -0.9384570711    1.8328513167
13   
Frame  31 IRC: Energy =  -286.8744290000 ; +1.2983 kcal/mol
C        1.6757806298    0.4044985953   -0.2773744300
C        1.1548812323   -0.8383804209   -0.2219528521
C       -0.2806035400   -1.0710610066    0.0402407605
C       -1.1619522670    0.2649419255   -0.0610689179
C       -0.3562843349    1.5052662316   -0.1858463726
N        0.9283068617    1.5899146623   -0.2035371965
H        2.7325735806    0.5588696998   -0.4745342141
H        1.7794114933   -1.7012381620   -0.4381940229
H       -0.6900204759   -1.9944147758   -0.3728601820
H       -2.1165324640    0.2551266557   -0.5908593900
H       -0.9194689482    2.4396413729   -0.2384992897
C       -0.9994853529   -0.5004627950    1.1795263931
H       -1.7466064150   -0.9127019827    1.8449597141
13   
Frame  32 IRC: Energy =  -286.8743410000 ; +1.3535 kcal/mol
C        1.6766865112    0.4042174746   -0.2782676206
C        1.1562378360   -0.8377323245   -0.2224574560
C       -0.2815677686   -1.0698185067    0.0420114662
C       -1.1623176363    0.2639725138   -0.0631792538
C       -0.3561677798    1.5043263104   -0.1853934269
N        0.9285447940    1.5892749609   -0.2018073605
H        2.7308233275    0.5588041514   -0.4759874746
H        1.7794436187   -1.7013995791   -0.4388262488
H       -0.6899014867   -1.9955394494   -0.3714953953
H       -2.1151553668    0.2535170494   -0.5949840285
H       -0.9201068167    2.4398484172   -0.2338895871
C       -1.0006626334   -0.5003987056    1.1786385947
H       -1.7458565990   -0.9090723125    1.8456377912
13   
Frame  33 IRC: Energy =  -286.8736250000 ; +1.8028 kcal/mol
C        1.6749884974    0.4027824703   -0.2825058706
C        1.1568732387   -0.8407871343   -0.2234396113
C       -0.2799664191   -1.0710638756    0.0431162149
C       -1.1618496981    0.2553414333   -0.0828408836
C       -0.3580411538    1.5013461176   -0.1776865867
N        0.9265290081    1.5872583042   -0.1876027040
H        2.7291689698    0.5608951949   -0.4897289028
H        1.7800993076   -1.7030711282   -0.4454125573
H       -0.6869022739   -2.0005416509   -0.3594655089
H       -2.1060724134    0.2405635720   -0.6310477550
H       -0.9229214408    2.4360535272   -0.1947649828
C       -1.0071650487   -0.4888845528    1.1718771877
H       -1.7447405737   -0.8798922776    1.8595019603
13   
Frame  34 IRC: Energy =  -286.8735190000 ; +1.8693 kcal/mol
C        1.6732433075    0.4039548545   -0.2826407883
C        1.1556044254   -0.8416889382   -0.2230756072
C       -0.2791215020   -1.0730363534    0.0416439658
C       -1.1614752097    0.2542972554   -0.0842591947
C       -0.3580350964    1.5020731350   -0.1769545706
N        0.9263782211    1.5863858565   -0.1863521749
H        2.7304316291    0.5612841844   -0.4912504192
H        1.7803458158   -1.7035491989   -0.4460900731
H       -0.6861393173   -1.9997564897   -0.3578968003
H       -2.1055984756    0.2394233525   -0.6344509776
H       -0.9229035948    2.4351927793   -0.1912540618
C       -1.0076183388   -0.4869862040    1.1713524185
H       -1.7451118643   -0.8775942334    1.8612282836
13   
Frame  35 IRC: Energy =  -286.8727930000 ; +2.3249 kcal/mol
C        1.6742181511    0.4007720384   -0.2866293372
C        1.1588591737   -0.8422629131   -0.2252358805
C       -0.2795983029   -1.0708853666    0.0454398044
C       -1.1620628768    0.2473180134   -0.1017603416
C       -0.3596888699    1.4969816513   -0.1707699010
N        0.9248622274    1.5843693313   -0.1730789348
H        2.7256199671    0.5628570181   -0.5015229095
H        1.7805220650   -1.7044964886   -0.4521976214
H       -0.6842962204   -2.0060522408   -0.3484603175
H       -2.0968969960    0.2283566701   -0.6656141437
H       -0.9263935958    2.4309803746   -0.1564599358
C       -1.0137941035   -0.4794948752    1.1637438368
H       -1.7413506189   -0.8484432129    1.8725456817
13   
Frame  36 IRC: Energy =  -286.8726610000 ; +2.4077 kcal/mol
C        1.6734984999    0.4017280589   -0.2871309589
C        1.1578472773   -0.8438924163   -0.2251727987
C       -0.2786428996   -1.0720955318    0.0446850701
C       -1.1619842193    0.2463849139   -0.1042683278
C       -0.3593697520    1.4970059516   -0.1698094914
N        0.9239560694    1.5837144621   -0.1709831092
H        2.7260214219    0.5632652838   -0.5033298703
H        1.7805405388   -1.7046040343   -0.4531470688
H       -0.6836031744   -2.0059415447   -0.3465910362
H       -2.0958148172    0.2266395525   -0.6705373887
H       -0.9266350870    2.4297450152   -0.1510664155
C       -1.0145611793   -0.4777435172    1.1625263196
H       -1.7412526785   -0.8442061937    1.8748250757
13   
Frame  37 IRC: Energy =  -286.8722830000 ; +2.6449 kcal/mol
C        1.6735430500    0.3999325650   -0.2886892325
C        1.1597603653   -0.8432411129   -0.2261776214
C       -0.2796071519   -1.0709971836    0.0461048219
C       -1.1620397575    0.2425273014   -0.1123664585
C       -0.3607876504    1.4946269647   -0.1665556435
N        0.9238715016    1.5824748593   -0.1650659128
H        2.7238812801    0.5640314561   -0.5077836188
H        1.7808425871   -1.7053399019   -0.4561975462
H       -0.6826963140   -2.0091496360   -0.3425077045
H       -2.0918198188    0.2217702337   -0.6846061792
H       -0.9282978683    2.4277590504   -0.1353668827
C       -1.0174962010   -0.4739100076    1.1593269250
H       -1.7391540222   -0.8304845887    1.8798850532
13   
Frame  38 IRC: Energy =  -286.8712110000 ; +3.3176 kcal/mol
C        1.6724576055    0.3988571161   -0.2924048619
C        1.1609436179   -0.8459689537   -0.2284144818
C       -0.2785654199   -1.0720955400    0.0469999715
C       -1.1622765500    0.2342773545   -0.1325243340
C       -0.3623772775    1.4897584126   -0.1591602536
N        0.9214244496    1.5786088788   -0.1493244086
H        2.7210333414    0.5667056547   -0.5183292078
H        1.7811164122   -1.7067152355   -0.4645076159
H       -0.6796916205   -2.0149698188   -0.3307881694
H       -2.0828258372    0.2100402781   -0.7198548024
H       -0.9325616243    2.4193979813   -0.0947221360
C       -1.0244613381   -0.4640446188    1.1492900249
H       -1.7342157589   -0.7938515090    1.8937402750
13   