
Running Job 1 of 1 irc_reactant.in
qchem irc_reactant.in_34202.0 ./irc_reactant.d/ 1
/home/leeping/opt/qchem/5.0.2-openmp/exe/qcprog.exe_s irc_reactant.in_34202.0 ./irc_reactant.d/
Check license passed

                  Welcome to Q-Chem
     A Quantum Leap Into The Future Of Chemistry


 Q-Chem 5.0, Q-Chem, Inc., Pleasanton, CA (2017)

 Yihan Shao,  Zhengting Gan,  E. Epifanovsky,  A. T. B. Gilbert,  M. Wormit,  
 J. Kussmann,  A. W. Lange,  A. Behn,  Jia Deng,  Xintian Feng,  D. Ghosh,  
 M. Goldey,  P. R. Horn,  L. D. Jacobson,  I. Kaliman,  T. Kus,  A. Landau,  
 Jie Liu,  E. I. Proynov,  R. M. Richard,  R. P. Steele,  E. J. Sundstrom,  
 H. L. Woodcock III,  P. M. Zimmerman,  D. Zuev,  B. Albrecht,  E. Alguire,  
 S. A. Baeppler,  D. Barton,  Z. Benda,  Y. A. Bernard,  E. J. Berquist,  
 K. B. Bravaya,  H. Burton,  D. Casanova,  Chun-Min Chang,  Yunqing Chen,  
 A. Chien,  K. D. Closser,  M. P. Coons,  S. Dasgupta,  A. L. Dempwolff,  
 M. Diedenhofen,  Hainam Do,  R. G. Edgar,  Po-Tung Fang,  S. Fatehi,  
 Qingguo Feng,  J. Fosso-Tande,  Qinghui Ge,  A. Ghysels,  G. Gidofalvi,  
 J. Gomes,  J. Gonthier,  A. Gunina,  M. W. D. Hanson-Heine,  
 P. H. P. Harbach,  A. W. Hauser,  J. E. Herr,  E. G. Hohenstein,  
 Z. C. Holden,  Kerwin Hui,  T.-C. Jagau,  Hyunjun Ji,  B. Kaduk,  
 K. Khistyaev,  Jaehoon Kim,  P. Klunzinger,  K. Koh,  D. Kosenkov,  
 L. Koulias,  T. Kowalczyk,  C. M. Krauter,  A. Kunitsa,  Ka Un Lao,  
 A. Laurent,  K. V. Lawler,  Joonho Lee,  D. Lefrancois,  S. Lehtola,  
 D. S. Levine,  Yi-Pei Li,  You-Sheng Lin,  Fenglai Liu,  E. Livshits,  
 A. Luenser,  P. Manohar,  E. Mansoor,  S. F. Manzer,  Shan-Ping Mao,  
 Yuezhi Mao,  N. Mardirossian,  A. V. Marenich,  T. Markovich,  
 L. A. Martinez-Martinez,  S. A. Maurer,  N. J. Mayhall,  S. C. McKenzie,  
 J.-M. Mewes,  A. F. Morrison,  J. W. Mullinax,  K. Nanda,  
 T. S. Nguyen-Beck,  R. Olivares-Amaya,  J. A. Parkhill,  T. M. Perrine,  
 F. Plasser,  S. Prager,  A. Prociuk,  E. Ramos,  D. R. Rehn,  F. Rob,  
 M. Schneider,  N. Sergueev,  S. M. Sharada,  S. Sharma,  D. W. Small,  
 T. Stauch,  T. Stein,  Yu-Chuan Su,  A. J. W. Thom,  A. Tkatchenko,  
 T. Tsuchimochi,  L. Vogt,  O. Vydrov,  M. A. Watson,  J. Wenzel,  
 M. de Wergifosse,  T. A. Wesolowski,  A. White,  J. Witte,  A. Yamada,  
 Jun Yang,  K. Yao,  S. Yeganeh,  S. R. Yost,  Zhi-Qiang You,  A. Zech,  
 Igor Ying Zhang,  Xing Zhang,  Yan Zhao,  Ying Zhu,  B. R. Brooks,  
 G. K. L. Chan,  C. J. Cramer,  M. S. Gordon,  W. J. Hehre,  A. Klamt,  
 M. W. Schmidt,  C. D. Sherrill,  D. G. Truhlar,  A. Aspuru-Guzik,  R. Baer,  
 A. T. Bell,  N. A. Besley,  Jeng-Da Chai,  R. A. DiStasio Jr.,  A. Dreuw,  
 B. D. Dunietz,  T. R. Furlani,  Chao-Ping Hsu,  Yousung Jung,  Jing Kong,  
 D. S. Lambrecht,  WanZhen Liang,  C. Ochsenfeld,  V. A. Rassolov,  
 L. V. Slipchenko,  J. E. Subotnik,  T. Van Voorhis,  J. M. Herbert,  
 A. I. Krylov,  P. M. W. Gill,  M. Head-Gordon

 Contributors to earlier versions of Q-Chem not listed above: 
 R. D. Adamson,  B. Austin,  J. Baker,  G. J. O. Beran,  K. Brandhorst,  
 S. T. Brown,  E. F. C. Byrd,  A. K. Chakraborty,  C.-L. Cheng,  
 Siu Hung Chien,  D. M. Chipman,  D. L. Crittenden,  H. Dachsel,  
 R. J. Doerksen,  A. D. Dutoi,  L. Fusti-Molnar,  W. A. Goddard III,  
 A. Golubeva-Zadorozhnaya,  S. R. Gwaltney,  G. Hawkins,  A. Heyden,  
 S. Hirata,  G. Kedziora,  F. J. Keil,  C. Kelley,  Jihan Kim,  R. A. King,  
 R. Z. Khaliullin,  P. P. Korambath,  W. Kurlancheek,  A. M. Lee,  M. S. Lee,  
 S. V. Levchenko,  Ching Yeh Lin,  D. Liotard,  R. C. Lochan,  I. Lotan,  
 P. E. Maslen,  N. Nair,  D. P. O'Neill,  D. Neuhauser,  E. Neuscamman,  
 C. M. Oana,  R. Olson,  B. Peters,  R. Peverati,  P. A. Pieniazek,  
 Y. M. Rhee,  J. Ritchie,  M. A. Rohrdanz,  E. Rosta,  N. J. Russ,  
 H. F. Schaefer III,  N. E. Schultz,  N. Shenvi,  A. C. Simmonett,  A. Sodt,  
 D. Stuck,  K. S. Thanthiriwatte,  V. Vanovschi,  Tao Wang,  A. Warshel,  
 C. F. Williams,  Q. Wu,  X. Xu,  W. Zhang

 Please cite Q-Chem as follows:
 Y. Shao et al., Mol. Phys. 113, 184-215 (2015)
 DOI: 10.1080/00268976.2014.952696

 Q-Chem 5.0.2 for Intel X86 EM64T Linux

 Parts of Q-Chem use Armadillo 5.200.1 (Boston Tea Smuggler).
 http://arma.sourceforge.net/

 Q-Chem begins on Tue Mar  1 15:45:10 2022  

Host: 
0

     Scratch files written to ./irc_reactant.d//
 Dec517 15110_ 26548  26544 5633   
Processing $rem in /home/leeping/opt/qchem/5.0.2-openmp/config/preferences.
 MEM_STATIC 2000
 MEM_TOTAL  8000
 SYMMETRY   OFF
 SYM_IGNORE TRUE 

Checking the input file for inconsistencies... 	...done.

--------------------------------------------------------------
User input:
--------------------------------------------------------------
$molecule
0 2
C        1.6725149521    0.4115838399   -0.2228126392
C        1.1374037140   -0.8319380119   -0.2301072648
C       -0.2975598819   -1.0745358811   -0.0131968397
C       -1.1635911106    0.3137787470    0.0430961933
C       -0.3580440298    1.5155271317   -0.2391698249
N        0.9295246944    1.5916632643   -0.2731297555
H        2.7448866906    0.5528844683   -0.3179307167
H        1.7717766433   -1.6945287306   -0.4168775230
H       -0.7295909377   -1.9533295151   -0.4943953016
H       -2.1764526876    0.3363431216   -0.3629426391
H       -0.9144111912    2.4190955128   -0.4963983160
C       -0.9360196711   -0.5600648597    1.1952656856
H       -1.6804371850   -1.0264790875    1.8285989419
$end

$rem
method                b3lyp
basis                 6-31+g(d,p)
unrestricted          true
symmetry              off
sym_ignore            true
incdft                false
incfock               0
scf_convergence       6
thresh                14
jobtype               sp
scf_guess             read
scf_algorithm         diis
max_scf_cycles        100
stability_analysis    true
max_cis_cycles        100
cis_n_roots           4
$end

--------------------------------------------------------------
 ----------------------------------------------------------------
             Standard Nuclear Orientation (Angstroms)
    I     Atom           X                Y                Z
 ----------------------------------------------------------------
    1      C       1.6725149521     0.4115838399    -0.2228126392
    2      C       1.1374037140    -0.8319380119    -0.2301072648
    3      C      -0.2975598819    -1.0745358811    -0.0131968397
    4      C      -1.1635911106     0.3137787470     0.0430961933
    5      C      -0.3580440298     1.5155271317    -0.2391698249
    6      N       0.9295246944     1.5916632643    -0.2731297555
    7      H       2.7448866906     0.5528844683    -0.3179307167
    8      H       1.7717766433    -1.6945287306    -0.4168775230
    9      H      -0.7295909377    -1.9533295151    -0.4943953016
   10      H      -2.1764526876     0.3363431216    -0.3629426391
   11      H      -0.9144111912     2.4190955128    -0.4963983160
   12      C      -0.9360196711    -0.5600648597     1.1952656856
   13      H      -1.6804371850    -1.0264790875     1.8285989419
 ----------------------------------------------------------------
 Nuclear Repulsion Energy =   268.9517583831 hartrees
 There are       25 alpha and       24 beta electrons
 Requested basis set is 6-31+G(d,p)
 There are 53 shells and 163 basis functions

 Total QAlloc Memory Limit   8000 MB
 Mega-Array Size      1956 MB
 MEM_STATIC part      2000 MB

                       Distance Matrix (Angstroms)
             C (  1)   C (  2)   C (  3)   C (  4)   C (  5)   N (  6)
   C (  2)  1.353789
   C (  3)  2.476628  1.471402
   C (  4)  2.850223  2.584934  1.637253
   C (  5)  2.311304  2.783350  2.600605  1.474035
   N (  6)  1.395405  2.432881  2.946510  2.472675  1.290265
   H (  7)  1.085815  2.123546  3.463790  3.932392  3.249779  2.092034
   H (  8)  2.117363  1.086911  2.197613  3.586260  3.856446  3.395454
   H (  9)  3.381817  2.193863  1.091092  2.370028  3.498021  3.920280
   H ( 10)  3.852253  3.516272  2.375529  1.091451  2.170807  3.351267
   H ( 11)  3.285900  3.853579  3.580426  2.187579  1.091855  2.033370
   C ( 12)  3.124020  2.530748  1.460374  1.463860  2.588386  3.204118
   H ( 13)  4.185523  3.495189  2.303665  2.291602  3.533580  4.252509
             H (  7)   H (  8)   H (  9)   H ( 10)   H ( 11)   C ( 12)
   H (  8)  2.451041
   H (  9)  4.287685  2.515915
   H ( 10)  4.926307  4.440255  2.711695
   H ( 11)  4.111576  4.913637  4.376330  2.438938
   C ( 12)  4.132492  3.349354  2.199717  2.184087  3.426017
   H ( 13)  5.165798  4.172078  2.675717  2.627959  4.226629  1.082964

 
 A cutoff of  1.0D-14 yielded   1380 shell pairs
 There are     13440 function pairs
 Smallest overlap matrix eigenvalue = 2.88E-05

 Scale SEOQF with 1.000000e-01/1.000000e-01/1.000000e-01

 Standard Electronic Orientation quadrupole field applied
 Nucleus-field energy     =     0.0000000051 hartrees
 Guess MOs from SCF MO coefficient file
 Reading MOs from coefficient file
 Reading MOs from coefficient file
 An unrestricted hybrid HF-DFT SCF calculation will be
 performed using Pulay DIIS extrapolation
 Exchange:     0.2000 Hartree-Fock + 0.0800 Slater + 0.7200 B88
 Correlation:  0.1900 VWN1RPA + 0.8100 LYP
 Using SG-1 standard quadrature grid
 SCF converges when DIIS error is below 1.0E-06
Using Q-Chem read-in guess as SCF_GUESS READ specified.

 -------------------------------------------------------
 OpenMP BLAS3 based DFT computing Module                
 -------------------------------------------------------
 ---------------------------------------
  Cycle       Energy         DIIS Error
 ---------------------------------------
    1    -286.8764979466      3.82E-09
    2    -286.8764979467      2.91E-09 Convergence criterion met
 ---------------------------------------
 <S^2> = 0.7534
 SCF time:  CPU 6.46 s  wall 11.44 s
 SCF   energy in the final basis set = -286.87649795
 Total energy in the final basis set = -286.87649795
 
 Direct TDDFT/TDA calculation will be performed
 Exchange:     0.2000 Hartree-Fock + 0.0800 Slater + 0.7200 B88
 Correlation:  0.1900 VWN1RPA + 0.8100 LYP
 Using SG-1 standard quadrature grid
 CIS energy converged when residual is below 10e- 6
 ---------------------------------------------------
 Iter    Rts Conv    Rts Left    Ttl Dev     Max Dev
 ---------------------------------------------------
   1         0           4      0.003536    0.001816
   2         0           4      0.001427    0.000642
   3         0           4      0.000601    0.000215
   4         0           4      0.000288    0.000125
   5         0           4      0.000104    0.000044
   6         0           4      0.000026    0.000012
   7         1           3      0.000008    0.000004
   8         3           1      0.000003    0.000001
   9         4           0      0.000002    0.000001    Roots Converged
 ---------------------------------------------------
 
 ---------------------------------------------------
         TDDFT/TDA Excitation Energies              
 ---------------------------------------------------

 Excited state   1: excitation energy (eV) =    2.6873
 Total energy for state  1:                  -286.77774279 au
    <S**2>     :  0.9170
    Trans. Mom.: -0.0587 X  -0.0176 Y   0.0765 Z
    Strength   :     0.0006332415
    D( 24) --> V(  1) amplitude =  0.1751 alpha
    D( 24) --> S(  1) amplitude =  0.9579 beta

 Excited state   2: excitation energy (eV) =    3.1499
 Total energy for state  2:                  -286.76074265 au
    <S**2>     :  2.5813
    Trans. Mom.: -0.0274 X  -0.0141 Y   0.0308 Z
    Strength   :     0.0001460357
    D( 24) --> V(  1) amplitude = -0.5876 alpha
    S(  1) --> V(  1) amplitude =  0.3086 alpha
    D( 24) --> S(  1) amplitude =  0.2191 beta
    D( 24) --> V(  1) amplitude =  0.6765 beta

 Excited state   3: excitation energy (eV) =    3.6234
 Total energy for state  3:                  -286.74333920 au
    <S**2>     :  1.2308
    Trans. Mom.:  0.0444 X  -0.0630 Y   0.0229 Z
    Strength   :     0.0005738993
    D( 23) --> V(  1) amplitude =  0.1969 alpha
    D( 24) --> V(  1) amplitude = -0.2511 alpha
    S(  1) --> V(  1) amplitude = -0.5889 alpha
    D( 23) --> S(  1) amplitude =  0.6869 beta
    D( 23) --> V(  1) amplitude = -0.2272 beta

 Excited state   4: excitation energy (eV) =    3.7348
 Total energy for state  4:                  -286.73924653 au
    <S**2>     :  0.9230
    Trans. Mom.: -0.1965 X  -0.1056 Y   0.2521 Z
    Strength   :     0.0103699023
    D( 23) --> V(  1) amplitude = -0.1616 alpha
    D( 24) --> V(  1) amplitude =  0.1547 alpha
    S(  1) --> V(  1) amplitude =  0.6618 alpha
    D( 23) --> S(  1) amplitude =  0.6852 beta
 
 ---------------------------------------------------

 Stability analysis will be performed
 ---------------------------------------------------
 Iter    Rts Conv    Rts Left    Ttl Dev     Max Dev
 ---------------------------------------------------
   1         0           8      0.003415    0.000620
   2         0           8      0.001092    0.000289
   3         0           8      0.000602    0.000194
   4         1           7      0.000314    0.000116
   5         2           6      0.000130    0.000056
   6         3           5      0.000074    0.000034
   7         4           4      0.000053    0.000032
   8         6           2      0.000022    0.000014
   9         6           2      0.000008    0.000004
  10         7           1      0.000004    0.000001
  11         8           0      0.000002    0.000001    Roots Converged
 UKS-> UKS   stable,    smallest eigenvalue:      0.0693438
 UKS->CUKS   stable,    smallest eigenvalue:      0.1009193
 ---------------------------------------------------
  SETman timing summary (seconds)
  CPU time               186.82s
  System time              0.00s
  Wall time              258.57s
 
 --------------------------------------------------------------
 
                    Orbital Energies (a.u.)
 --------------------------------------------------------------
 
 Alpha MOs
 -- Occupied --
-14.337 -10.240 -10.235 -10.232 -10.230 -10.217 -10.206  -0.946
 -0.879  -0.776  -0.677  -0.651  -0.579  -0.540  -0.500  -0.492
 -0.460  -0.435  -0.387  -0.382  -0.370  -0.310  -0.267  -0.240
 -0.229
 -- Virtual --
 -0.048  -0.001   0.015   0.022   0.026   0.032   0.047   0.050
  0.068   0.073   0.075   0.092   0.099   0.113   0.116   0.121
  0.124   0.129   0.138   0.148   0.168   0.175   0.180   0.185
  0.193   0.198   0.202   0.212   0.225   0.233   0.253   0.261
  0.268   0.283   0.288   0.301   0.310   0.321   0.329   0.336
  0.353   0.385   0.463   0.506   0.591   0.629   0.649   0.666
  0.681   0.707   0.713   0.726   0.737   0.750   0.770   0.778
  0.825   0.835   0.883   0.896   0.927   0.935   0.950   0.987
  0.993   1.016   1.062   1.088   1.098   1.106   1.134   1.150
  1.182   1.205   1.239   1.312   1.350   1.371   1.441   1.477
  1.500   1.524   1.556   1.647   1.687   1.757   1.799   1.806
  1.865   1.880   1.903   1.960   1.984   2.007   2.080   2.090
  2.126   2.147   2.189   2.229   2.269   2.290   2.369   2.390
  2.405   2.417   2.436   2.454   2.475   2.505   2.520   2.527
  2.559   2.595   2.626   2.667   2.697   2.717   2.740   2.811
  2.868   2.935   3.012   3.180   3.216   3.278   3.293   3.369
  3.441   3.561   3.709   4.196   4.301   4.339   4.476   4.500
  4.576   4.735
 
 Beta MOs
 -- Occupied --
-14.337 -10.240 -10.235 -10.232 -10.217 -10.216 -10.205  -0.944
 -0.869  -0.774  -0.669  -0.649  -0.565  -0.535  -0.497  -0.483
 -0.456  -0.432  -0.385  -0.380  -0.362  -0.300  -0.262  -0.236
 -- Virtual --
 -0.090  -0.046   0.001   0.015   0.024   0.027   0.034   0.048
  0.050   0.072   0.074   0.078   0.094   0.099   0.113   0.116
  0.122   0.125   0.130   0.138   0.149   0.168   0.176   0.183
  0.188   0.193   0.201   0.206   0.213   0.228   0.235   0.257
  0.261   0.270   0.284   0.292   0.302   0.311   0.325   0.336
  0.341   0.360   0.392   0.465   0.507   0.597   0.633   0.665
  0.675   0.693   0.710   0.715   0.729   0.743   0.752   0.779
  0.791   0.830   0.840   0.885   0.899   0.928   0.937   0.952
  0.990   0.997   1.017   1.070   1.090   1.100   1.112   1.139
  1.152   1.185   1.209   1.244   1.316   1.353   1.375   1.450
  1.481   1.502   1.528   1.562   1.653   1.693   1.773   1.803
  1.817   1.882   1.889   1.907   1.967   1.988   2.012   2.088
  2.099   2.127   2.165   2.194   2.233   2.273   2.295   2.371
  2.393   2.407   2.420   2.439   2.458   2.480   2.508   2.524
  2.533   2.563   2.609   2.628   2.670   2.705   2.724   2.747
  2.819   2.874   2.940   3.016   3.181   3.217   3.283   3.294
  3.372   3.444   3.570   3.710   4.196   4.306   4.340   4.497
  4.510   4.579   4.736
 --------------------------------------------------------------
 
          Ground-State Mulliken Net Atomic Charges

     Atom                 Charge (a.u.)    Spin (a.u.)
  --------------------------------------------------------
      1 C                    -0.251917      -0.035785
      2 C                     0.085709       0.046841
      3 C                    -0.150216      -0.027042
      4 C                    -0.016643       0.028325
      5 C                    -0.052842      -0.047939
      6 N                    -0.182532       0.016430
      7 H                     0.124991       0.000851
      8 H                     0.132603       0.003082
      9 H                     0.144282       0.017028
     10 H                     0.144227       0.022748
     11 H                     0.128437       0.005060
     12 C                    -0.254771       0.992198
     13 H                     0.148673      -0.021797
  --------------------------------------------------------
  Sum of atomic charges =     0.000000
  Sum of spin   charges =     1.000000

 -----------------------------------------------------------------
                    Cartesian Multipole Moments
 -----------------------------------------------------------------
    Charge (ESU x 10^10)
                 0.0000
    Dipole Moment (Debye)
         X      -2.1292      Y      -2.2806      Z      -0.1665
       Tot       3.1245
    Quadrupole Moments (Debye-Ang)
        XX     -37.8702     XY      -3.2076     YY     -43.0661
        XZ      -0.3987     YZ       0.2901     ZZ     -43.9551
    Octopole Moments (Debye-Ang^2)
       XXX     -13.8042    XXY     -10.9953    XYY     -14.8825
       YYY     -32.2017    XXZ      -1.1565    XYZ       4.0064
       YYZ      -1.7823    XZZ      -9.2906    YZZ      -8.7787
       ZZZ      -2.1562
    Hexadecapole Moments (Debye-Ang^3)
      XXXX    -335.6551   XXXY     -17.7279   XXYY    -120.3615
      XYYY     -43.3147   YYYY    -354.0379   XXXZ      33.1057
      XXYZ       6.5808   XYYZ      15.2374   YYYZ      29.9703
      XXZZ     -81.9750   XYZZ      -2.7490   YYZZ     -79.6863
      XZZZ      35.1763   YZZZ      23.0862   ZZZZ    -128.1116
 -----------------------------------------------------------------
Archival summary:
1\1\c8-89\SP\ProcedureUnspecified\6-31+G**\166(2)\hpark21\TueMar115:49:482022TueMar115:49:482022\0\\#,ProcedureUnspecified,6-31+G**,\\0,2\N\C,1,1.29026\H,2,1.09185,1,116.966\C,1,1.3954,2,118.717,3,-167.055,0\H,4,1.08582,1,114.372,2,176.39,0\C,4,1.35379,1,124.482,2,4.64951,0\H,6,1.08691,4,119.947,1,166.023,0\C,6,1.4714,4,122.421,1,-12.9764,0\H,8,1.09109,6,116.997,4,150.609,0\C,8,1.46037,6,119.358,4,-55.37,0\H,10,1.08296,8,129.252,6,-140.048,0\C,10,1.46386,8,68.0964,6,98.5376,0\H,12,1.09145,10,116.706,8,109.216,0\\\@

 Total job time:  278.02s(wall), 193.51s(cpu) 
 Tue Mar  1 15:49:48 2022

        *************************************************************
        *                                                           *
        *  Thank you very much for using Q-Chem.  Have a nice day.  *
        *                                                           *
        *************************************************************


