
Running Job 1 of 1 irc_transition.in
qchem irc_transition.in_35289.0 ./irc_transition.d/ 1
/home/leeping/opt/qchem/5.0.2-openmp/exe/qcprog.exe_s irc_transition.in_35289.0 ./irc_transition.d/
Check license passed

                  Welcome to Q-Chem
     A Quantum Leap Into The Future Of Chemistry


 Q-Chem 5.0, Q-Chem, Inc., Pleasanton, CA (2017)

 Yihan Shao,  Zhengting Gan,  E. Epifanovsky,  A. T. B. Gilbert,  M. Wormit,  
 J. Kussmann,  A. W. Lange,  A. Behn,  Jia Deng,  Xintian Feng,  D. Ghosh,  
 M. Goldey,  P. R. Horn,  L. D. Jacobson,  I. Kaliman,  T. Kus,  A. Landau,  
 Jie Liu,  E. I. Proynov,  R. M. Richard,  R. P. Steele,  E. J. Sundstrom,  
 H. L. Woodcock III,  P. M. Zimmerman,  D. Zuev,  B. Albrecht,  E. Alguire,  
 S. A. Baeppler,  D. Barton,  Z. Benda,  Y. A. Bernard,  E. J. Berquist,  
 K. B. Bravaya,  H. Burton,  D. Casanova,  Chun-Min Chang,  Yunqing Chen,  
 A. Chien,  K. D. Closser,  M. P. Coons,  S. Dasgupta,  A. L. Dempwolff,  
 M. Diedenhofen,  Hainam Do,  R. G. Edgar,  Po-Tung Fang,  S. Fatehi,  
 Qingguo Feng,  J. Fosso-Tande,  Qinghui Ge,  A. Ghysels,  G. Gidofalvi,  
 J. Gomes,  J. Gonthier,  A. Gunina,  M. W. D. Hanson-Heine,  
 P. H. P. Harbach,  A. W. Hauser,  J. E. Herr,  E. G. Hohenstein,  
 Z. C. Holden,  Kerwin Hui,  T.-C. Jagau,  Hyunjun Ji,  B. Kaduk,  
 K. Khistyaev,  Jaehoon Kim,  P. Klunzinger,  K. Koh,  D. Kosenkov,  
 L. Koulias,  T. Kowalczyk,  C. M. Krauter,  A. Kunitsa,  Ka Un Lao,  
 A. Laurent,  K. V. Lawler,  Joonho Lee,  D. Lefrancois,  S. Lehtola,  
 D. S. Levine,  Yi-Pei Li,  You-Sheng Lin,  Fenglai Liu,  E. Livshits,  
 A. Luenser,  P. Manohar,  E. Mansoor,  S. F. Manzer,  Shan-Ping Mao,  
 Yuezhi Mao,  N. Mardirossian,  A. V. Marenich,  T. Markovich,  
 L. A. Martinez-Martinez,  S. A. Maurer,  N. J. Mayhall,  S. C. McKenzie,  
 J.-M. Mewes,  A. F. Morrison,  J. W. Mullinax,  K. Nanda,  
 T. S. Nguyen-Beck,  R. Olivares-Amaya,  J. A. Parkhill,  T. M. Perrine,  
 F. Plasser,  S. Prager,  A. Prociuk,  E. Ramos,  D. R. Rehn,  F. Rob,  
 M. Schneider,  N. Sergueev,  S. M. Sharada,  S. Sharma,  D. W. Small,  
 T. Stauch,  T. Stein,  Yu-Chuan Su,  A. J. W. Thom,  A. Tkatchenko,  
 T. Tsuchimochi,  L. Vogt,  O. Vydrov,  M. A. Watson,  J. Wenzel,  
 M. de Wergifosse,  T. A. Wesolowski,  A. White,  J. Witte,  A. Yamada,  
 Jun Yang,  K. Yao,  S. Yeganeh,  S. R. Yost,  Zhi-Qiang You,  A. Zech,  
 Igor Ying Zhang,  Xing Zhang,  Yan Zhao,  Ying Zhu,  B. R. Brooks,  
 G. K. L. Chan,  C. J. Cramer,  M. S. Gordon,  W. J. Hehre,  A. Klamt,  
 M. W. Schmidt,  C. D. Sherrill,  D. G. Truhlar,  A. Aspuru-Guzik,  R. Baer,  
 A. T. Bell,  N. A. Besley,  Jeng-Da Chai,  R. A. DiStasio Jr.,  A. Dreuw,  
 B. D. Dunietz,  T. R. Furlani,  Chao-Ping Hsu,  Yousung Jung,  Jing Kong,  
 D. S. Lambrecht,  WanZhen Liang,  C. Ochsenfeld,  V. A. Rassolov,  
 L. V. Slipchenko,  J. E. Subotnik,  T. Van Voorhis,  J. M. Herbert,  
 A. I. Krylov,  P. M. W. Gill,  M. Head-Gordon

 Contributors to earlier versions of Q-Chem not listed above: 
 R. D. Adamson,  B. Austin,  J. Baker,  G. J. O. Beran,  K. Brandhorst,  
 S. T. Brown,  E. F. C. Byrd,  A. K. Chakraborty,  C.-L. Cheng,  
 Siu Hung Chien,  D. M. Chipman,  D. L. Crittenden,  H. Dachsel,  
 R. J. Doerksen,  A. D. Dutoi,  L. Fusti-Molnar,  W. A. Goddard III,  
 A. Golubeva-Zadorozhnaya,  S. R. Gwaltney,  G. Hawkins,  A. Heyden,  
 S. Hirata,  G. Kedziora,  F. J. Keil,  C. Kelley,  Jihan Kim,  R. A. King,  
 R. Z. Khaliullin,  P. P. Korambath,  W. Kurlancheek,  A. M. Lee,  M. S. Lee,  
 S. V. Levchenko,  Ching Yeh Lin,  D. Liotard,  R. C. Lochan,  I. Lotan,  
 P. E. Maslen,  N. Nair,  D. P. O'Neill,  D. Neuhauser,  E. Neuscamman,  
 C. M. Oana,  R. Olson,  B. Peters,  R. Peverati,  P. A. Pieniazek,  
 Y. M. Rhee,  J. Ritchie,  M. A. Rohrdanz,  E. Rosta,  N. J. Russ,  
 H. F. Schaefer III,  N. E. Schultz,  N. Shenvi,  A. C. Simmonett,  A. Sodt,  
 D. Stuck,  K. S. Thanthiriwatte,  V. Vanovschi,  Tao Wang,  A. Warshel,  
 C. F. Williams,  Q. Wu,  X. Xu,  W. Zhang

 Please cite Q-Chem as follows:
 Y. Shao et al., Mol. Phys. 113, 184-215 (2015)
 DOI: 10.1080/00268976.2014.952696

 Q-Chem 5.0.2 for Intel X86 EM64T Linux

 Parts of Q-Chem use Armadillo 5.200.1 (Boston Tea Smuggler).
 http://arma.sourceforge.net/

 Q-Chem begins on Tue Mar  1 16:00:29 2022  

Host: 
0

     Scratch files written to ./irc_transition.d//
 Dec517 15110_ 26548  26544 5633   
Processing $rem in /home/leeping/opt/qchem/5.0.2-openmp/config/preferences.
 MEM_STATIC 2000
 MEM_TOTAL  8000
 SYMMETRY   OFF
 SYM_IGNORE TRUE 

Checking the input file for inconsistencies... 	...done.

--------------------------------------------------------------
User input:
--------------------------------------------------------------
$molecule
0 2
C        1.6714095739    0.4022340436   -0.3317755981
C        1.1704669718   -0.8613224022   -0.3021162924
C       -0.2648978454   -1.0449452337    0.0176595293
C       -1.1913226181    0.1363106710   -0.3556336152
C       -0.4122905654    1.3537113278    0.0009797587
N        0.9051474290    1.5085071675   -0.0475400404
H        2.7203755964    0.5994431778   -0.5350941484
H        1.7844753939   -1.7246853940   -0.5385708430
H       -0.6709013274   -2.0429146369   -0.1506274993
H       -2.0804776141    0.1163024159   -0.9806780761
H       -0.9941606087    2.2344791840    0.2694725072
C       -1.0017788403   -0.2465907358    1.0305851954
H       -1.6529310666   -0.4504388696    1.8683177860
$end

$rem
method                b3lyp
basis                 6-31+g(d,p)
unrestricted          true
symmetry              off
sym_ignore            true
incdft                false
incfock               0
scf_convergence       6
thresh                14
jobtype               sp
scf_guess             read
scf_algorithm         diis
max_scf_cycles        100
stability_analysis    true
max_cis_cycles        100
cis_n_roots           4
$end

--------------------------------------------------------------
 ----------------------------------------------------------------
             Standard Nuclear Orientation (Angstroms)
    I     Atom           X                Y                Z
 ----------------------------------------------------------------
    1      C       1.6714095739     0.4022340436    -0.3317755981
    2      C       1.1704669718    -0.8613224022    -0.3021162924
    3      C      -0.2648978454    -1.0449452337     0.0176595293
    4      C      -1.1913226181     0.1363106710    -0.3556336152
    5      C      -0.4122905654     1.3537113278     0.0009797587
    6      N       0.9051474290     1.5085071675    -0.0475400404
    7      H       2.7203755964     0.5994431778    -0.5350941484
    8      H       1.7844753939    -1.7246853940    -0.5385708430
    9      H      -0.6709013274    -2.0429146369    -0.1506274993
   10      H      -2.0804776141     0.1163024159    -0.9806780761
   11      H      -0.9941606087     2.2344791840     0.2694725072
   12      C      -1.0017788403    -0.2465907358     1.0305851954
   13      H      -1.6529310666    -0.4504388696     1.8683177860
 ----------------------------------------------------------------
 Nuclear Repulsion Energy =   273.6331616415 hartrees
 There are       25 alpha and       24 beta electrons
 Requested basis set is 6-31+G(d,p)
 There are 53 shells and 163 basis functions

 Total QAlloc Memory Limit   8000 MB
 Mega-Array Size      1956 MB
 MEM_STATIC part      2000 MB

                       Distance Matrix (Angstroms)
             C (  1)   C (  2)   C (  3)   C (  4)   C (  5)   N (  6)
   C (  2)  1.359558
   C (  3)  2.442482  1.481974
   C (  4)  2.875156  2.564408  1.546925
   C (  5)  2.314701  2.739227  2.403239  1.488667
   N (  6)  1.375423  2.398186  2.809515  2.524486  1.327388
   H (  7)  1.086536  2.142506  3.452739  3.943105  3.266480  2.087860
   H (  8)  2.139938  1.085501  2.229657  3.514562  3.820134  3.386423
   H (  9)  3.390868  2.193113  1.090460  2.249864  3.409829  3.886792
   H ( 10)  3.818310  3.461912  2.375185  1.087050  2.297320  3.423878
   H ( 11)  3.289967  3.820512  3.368955  2.198168  1.089226  2.057888
   C ( 12)  3.069680  2.621572  1.485389  1.450566  1.992122  2.806972
   H ( 13)  4.076604  3.584855  2.388516  2.345915  2.877690  3.748566
             H (  7)   H (  8)   H (  9)   H ( 10)   H ( 11)   C ( 12)
   H (  8)  2.505493
   H (  9)  4.316321  2.506121
   H ( 10)  4.845633  4.303784  2.708894
   H ( 11)  4.137445  4.903951  4.310114  2.688798
   C ( 12)  4.125719  3.522815  2.175206  2.310944  2.595199
   H ( 13)  5.099456  4.385497  2.752545  2.936115  3.193598  1.080439

 
 A cutoff of  1.0D-14 yielded   1386 shell pairs
 There are     13458 function pairs
 Smallest overlap matrix eigenvalue = 2.38E-05

 Scale SEOQF with 1.000000e-01/1.000000e-01/1.000000e-01

 Standard Electronic Orientation quadrupole field applied
 Nucleus-field energy     =     0.0000000046 hartrees
 Guess MOs from SCF MO coefficient file
 Reading MOs from coefficient file
 Reading MOs from coefficient file
 An unrestricted hybrid HF-DFT SCF calculation will be
 performed using Pulay DIIS extrapolation
 Exchange:     0.2000 Hartree-Fock + 0.0800 Slater + 0.7200 B88
 Correlation:  0.1900 VWN1RPA + 0.8100 LYP
 Using SG-1 standard quadrature grid
 SCF converges when DIIS error is below 1.0E-06
Using Q-Chem read-in guess as SCF_GUESS READ specified.

 -------------------------------------------------------
 OpenMP BLAS3 based DFT computing Module                
 -------------------------------------------------------
 ---------------------------------------
  Cycle       Energy         DIIS Error
 ---------------------------------------
    1    -286.8546157959      2.28E-09
    2    -286.8546157959      2.94E-09 Convergence criterion met
 ---------------------------------------
 <S^2> = 0.7899
 SCF time:  CPU 6.47 s  wall 10.74 s
 SCF   energy in the final basis set = -286.85461580
 Total energy in the final basis set = -286.85461580
 
 Direct TDDFT/TDA calculation will be performed
 Exchange:     0.2000 Hartree-Fock + 0.0800 Slater + 0.7200 B88
 Correlation:  0.1900 VWN1RPA + 0.8100 LYP
 Using SG-1 standard quadrature grid
 CIS energy converged when residual is below 10e- 6
 ---------------------------------------------------
 Iter    Rts Conv    Rts Left    Ttl Dev     Max Dev
 ---------------------------------------------------
   1         0           4      0.003404    0.001688
   2         0           4      0.001058    0.000314
   3         0           4      0.000494    0.000145
   4         0           4      0.000612    0.000474
   5         0           4      0.000249    0.000199
   6         0           4      0.000098    0.000083
   7         1           3      0.000067    0.000063
   8         3           1      0.000041    0.000040
   9         3           1      0.000015    0.000014
  10         3           1      0.000004    0.000004
  11         3           1      0.000002    0.000001
  12         4           0      0.000001    0.000000    Roots Converged
 ---------------------------------------------------
 
 ---------------------------------------------------
         TDDFT/TDA Excitation Energies              
 ---------------------------------------------------

 Excited state   1: excitation energy (eV) =    2.2551
 Total energy for state  1:                  -286.77174295 au
    <S**2>     :  0.8231
    Trans. Mom.: -0.3906 X   0.0907 Y   0.1238 Z
    Strength   :     0.0097303345
    S(  1) --> V(  1) amplitude =  0.3401 alpha
    D( 24) --> S(  1) amplitude =  0.9208 beta

 Excited state   2: excitation energy (eV) =    2.9654
 Total energy for state  2:                  -286.74563904 au
    <S**2>     :  0.8846
    Trans. Mom.: -0.0751 X   0.0445 Y   0.0505 Z
    Strength   :     0.0007389869
    S(  1) --> V(  1) amplitude =  0.4587 alpha
    D( 23) --> S(  1) amplitude =  0.8693 beta

 Excited state   3: excitation energy (eV) =    3.4271
 Total energy for state  3:                  -286.72867165 au
    <S**2>     :  0.9056
    Trans. Mom.:  0.5461 X  -0.1609 Y  -0.3404 Z
    Strength   :     0.0369356081
    S(  1) --> V(  1) amplitude =  0.7818 alpha
    D( 21) --> S(  1) amplitude =  0.1541 beta
    D( 23) --> S(  1) amplitude = -0.4414 beta
    D( 24) --> S(  1) amplitude = -0.3255 beta

 Excited state   4: excitation energy (eV) =    3.9630
 Total energy for state  4:                  -286.70897974 au
    <S**2>     :  2.3229
    Trans. Mom.: -0.1201 X   0.1496 Y   0.0673 Z
    Strength   :     0.0040121098
    D( 23) --> V(  1) amplitude =  0.2153 alpha
    D( 24) --> V(  1) amplitude = -0.5231 alpha
    S(  1) --> V(  1) amplitude = -0.1721 alpha
    D( 22) --> S(  1) amplitude = -0.2106 beta
    D( 24) --> V(  1) amplitude = -0.7025 beta
 
 ---------------------------------------------------

 Stability analysis will be performed
 ---------------------------------------------------
 Iter    Rts Conv    Rts Left    Ttl Dev     Max Dev
 ---------------------------------------------------
   1         0           8      0.004923    0.000770
   2         0           8      0.001934    0.000400
   3         0           8      0.000800    0.000180
   4         2           6      0.000359    0.000117
   5         3           5      0.000202    0.000110
   6         3           5      0.000106    0.000071
   7         3           5      0.000045    0.000030
   8         5           3      0.000014    0.000009
   9         7           1      0.000006    0.000003
  10         8           0      0.000003    0.000001    Roots Converged
 UKS-> UKS   stable,    smallest eigenvalue:      0.0676744
 UKS->CUKS   stable,    smallest eigenvalue:      0.0846583
 ---------------------------------------------------
  SETman timing summary (seconds)
  CPU time               194.21s
  System time              0.00s
  Wall time              263.26s
 
 --------------------------------------------------------------
 
                    Orbital Energies (a.u.)
 --------------------------------------------------------------
 
 Alpha MOs
 -- Occupied --
-14.338 -10.252 -10.231 -10.230 -10.227 -10.216 -10.204  -0.960
 -0.885  -0.777  -0.661  -0.646  -0.591  -0.544  -0.506  -0.491
 -0.461  -0.422  -0.397  -0.382  -0.360  -0.312  -0.272  -0.254
 -0.197
 -- Virtual --
 -0.033   0.000   0.016   0.022   0.025   0.039   0.048   0.058
  0.070   0.075   0.083   0.094   0.097   0.100   0.112   0.118
  0.125   0.130   0.147   0.151   0.157   0.174   0.178   0.182
  0.189   0.194   0.202   0.211   0.230   0.244   0.250   0.255
  0.271   0.274   0.279   0.302   0.306   0.319   0.326   0.339
  0.359   0.376   0.465   0.499   0.624   0.636   0.655   0.668
  0.680   0.713   0.728   0.742   0.743   0.764   0.773   0.801
  0.811   0.849   0.873   0.902   0.929   0.939   0.957   0.998
  1.004   1.010   1.043   1.065   1.093   1.109   1.120   1.187
  1.193   1.219   1.263   1.301   1.364   1.381   1.417   1.477
  1.522   1.597   1.615   1.680   1.685   1.712   1.798   1.832
  1.851   1.913   1.924   1.984   2.028   2.051   2.077   2.098
  2.148   2.171   2.199   2.260   2.276   2.312   2.351   2.397
  2.407   2.446   2.454   2.469   2.504   2.508   2.526   2.540
  2.559   2.607   2.622   2.664   2.678   2.705   2.739   2.827
  2.919   2.947   2.967   3.161   3.192   3.284   3.288   3.422
  3.438   3.590   3.719   4.212   4.301   4.460   4.518   4.593
  4.642   4.736
 
 Beta MOs
 -- Occupied --
-14.331 -10.255 -10.232 -10.226 -10.221 -10.218 -10.200  -0.952
 -0.874  -0.773  -0.653  -0.644  -0.577  -0.540  -0.504  -0.484
 -0.457  -0.418  -0.394  -0.370  -0.348  -0.302  -0.265  -0.234
 -- Virtual --
 -0.098  -0.024   0.001   0.016   0.024   0.027   0.041   0.049
  0.061   0.075   0.078   0.085   0.095   0.097   0.104   0.113
  0.119   0.127   0.133   0.148   0.152   0.158   0.176   0.181
  0.184   0.190   0.198   0.203   0.213   0.232   0.245   0.251
  0.259   0.275   0.278   0.282   0.306   0.307   0.320   0.331
  0.342   0.363   0.380   0.469   0.501   0.627   0.641   0.663
  0.674   0.692   0.718   0.724   0.747   0.751   0.766   0.778
  0.807   0.815   0.852   0.875   0.903   0.930   0.940   0.959
  1.002   1.008   1.018   1.058   1.071   1.098   1.112   1.125
  1.189   1.199   1.222   1.269   1.305   1.373   1.384   1.418
  1.486   1.531   1.602   1.628   1.688   1.690   1.723   1.807
  1.842   1.855   1.920   1.931   1.989   2.030   2.057   2.087
  2.109   2.152   2.179   2.206   2.262   2.281   2.315   2.358
  2.400   2.410   2.452   2.456   2.474   2.508   2.512   2.532
  2.541   2.561   2.613   2.627   2.670   2.685   2.710   2.742
  2.838   2.923   2.952   2.970   3.165   3.194   3.286   3.290
  3.424   3.439   3.596   3.720   4.222   4.307   4.458   4.517
  4.609   4.648   4.739
 --------------------------------------------------------------
 
          Ground-State Mulliken Net Atomic Charges

     Atom                 Charge (a.u.)    Spin (a.u.)
  --------------------------------------------------------
      1 C                    -0.305967      -0.163552
      2 C                     0.280400       0.333762
      3 C                    -0.389381      -0.049508
      4 C                     0.239457       0.022890
      5 C                    -0.362531      -0.181063
      6 N                    -0.101789       0.342435
      7 H                     0.126896       0.008453
      8 H                     0.127824      -0.014556
      9 H                     0.140077       0.017466
     10 H                     0.139004       0.002143
     11 H                     0.143893       0.009387
     12 C                    -0.181231       0.694103
     13 H                     0.143348      -0.021960
  --------------------------------------------------------
  Sum of atomic charges =    -0.000000
  Sum of spin   charges =     1.000000

 -----------------------------------------------------------------
                    Cartesian Multipole Moments
 -----------------------------------------------------------------
    Charge (ESU x 10^10)
                 0.0000
    Dipole Moment (Debye)
         X      -2.0478      Y      -2.0996      Z      -0.3628
       Tot       2.9552
    Quadrupole Moments (Debye-Ang)
        XX     -37.9834     XY      -3.3925     YY     -42.9772
        XZ      -1.5469     YZ      -0.1230     ZZ     -43.0570
    Octopole Moments (Debye-Ang^2)
       XXX     -10.9183    XXY      -8.5700    XYY     -13.0040
       YYY     -30.9291    XXZ      -2.6252    XYZ       0.6612
       YYZ      -1.1342    XZZ      -9.6046    YZZ      -7.0949
       ZZZ       2.1024
    Hexadecapole Moments (Debye-Ang^3)
      XXXX    -345.7795   XXXY     -11.5303   XXYY    -114.1747
      XYYY     -34.7869   YYYY    -310.4449   XXXZ      26.0030
      XXYZ      -0.5354   XYYZ       7.9150   YYYZ       6.9148
      XXZZ     -77.1990   XYZZ      -2.2478   YYZZ     -73.9553
      XZZZ      29.2112   YZZZ      -1.3809   ZZZZ    -118.2073
 -----------------------------------------------------------------
Archival summary:
1\1\c8-89\SP\ProcedureUnspecified\6-31+G**\166(2)\hpark21\TueMar116:05:082022TueMar116:05:082022\0\\#,ProcedureUnspecified,6-31+G**,\\0,2\N\C,1,1.32739\H,2,1.08923,1,116.418\C,1,1.37542,2,117.82,3,177.48,0\H,4,1.08654,1,115.501,2,169.65,0\C,4,1.35956,1,122.53,2,-13.2428,0\H,6,1.0855,4,121.737,1,179.37,0\C,6,1.48197,4,118.472,1,1.5012,0\H,8,1.09046,6,116.149,4,168.886,0\C,8,1.48539,6,124.127,4,-38.5205,0\H,10,1.08044,8,136.578,6,-130.154,0\C,10,1.45057,8,63.5781,6,100.673,0\H,12,1.08705,10,130.655,8,115.612,0\\\@

 Total job time:  278.50s(wall), 200.92s(cpu) 
 Tue Mar  1 16:05:08 2022

        *************************************************************
        *                                                           *
        *  Thank you very much for using Q-Chem.  Have a nice day.  *
        *                                                           *
        *************************************************************


