
Running Job 1 of 1 qcfsm.in
qchem qcfsm.in_127886.0 ./qcfsm.d/ 1
/home/leeping/opt/qchem/5.0.2-openmp/exe/qcprog.exe_s qcfsm.in_127886.0 ./qcfsm.d/
Check license passed

                  Welcome to Q-Chem
     A Quantum Leap Into The Future Of Chemistry


 Q-Chem 5.0, Q-Chem, Inc., Pleasanton, CA (2017)

 Yihan Shao,  Zhengting Gan,  E. Epifanovsky,  A. T. B. Gilbert,  M. Wormit,  
 J. Kussmann,  A. W. Lange,  A. Behn,  Jia Deng,  Xintian Feng,  D. Ghosh,  
 M. Goldey,  P. R. Horn,  L. D. Jacobson,  I. Kaliman,  T. Kus,  A. Landau,  
 Jie Liu,  E. I. Proynov,  R. M. Richard,  R. P. Steele,  E. J. Sundstrom,  
 H. L. Woodcock III,  P. M. Zimmerman,  D. Zuev,  B. Albrecht,  E. Alguire,  
 S. A. Baeppler,  D. Barton,  Z. Benda,  Y. A. Bernard,  E. J. Berquist,  
 K. B. Bravaya,  H. Burton,  D. Casanova,  Chun-Min Chang,  Yunqing Chen,  
 A. Chien,  K. D. Closser,  M. P. Coons,  S. Dasgupta,  A. L. Dempwolff,  
 M. Diedenhofen,  Hainam Do,  R. G. Edgar,  Po-Tung Fang,  S. Fatehi,  
 Qingguo Feng,  J. Fosso-Tande,  Qinghui Ge,  A. Ghysels,  G. Gidofalvi,  
 J. Gomes,  J. Gonthier,  A. Gunina,  M. W. D. Hanson-Heine,  
 P. H. P. Harbach,  A. W. Hauser,  J. E. Herr,  E. G. Hohenstein,  
 Z. C. Holden,  Kerwin Hui,  T.-C. Jagau,  Hyunjun Ji,  B. Kaduk,  
 K. Khistyaev,  Jaehoon Kim,  P. Klunzinger,  K. Koh,  D. Kosenkov,  
 L. Koulias,  T. Kowalczyk,  C. M. Krauter,  A. Kunitsa,  Ka Un Lao,  
 A. Laurent,  K. V. Lawler,  Joonho Lee,  D. Lefrancois,  S. Lehtola,  
 D. S. Levine,  Yi-Pei Li,  You-Sheng Lin,  Fenglai Liu,  E. Livshits,  
 A. Luenser,  P. Manohar,  E. Mansoor,  S. F. Manzer,  Shan-Ping Mao,  
 Yuezhi Mao,  N. Mardirossian,  A. V. Marenich,  T. Markovich,  
 L. A. Martinez-Martinez,  S. A. Maurer,  N. J. Mayhall,  S. C. McKenzie,  
 J.-M. Mewes,  A. F. Morrison,  J. W. Mullinax,  K. Nanda,  
 T. S. Nguyen-Beck,  R. Olivares-Amaya,  J. A. Parkhill,  T. M. Perrine,  
 F. Plasser,  S. Prager,  A. Prociuk,  E. Ramos,  D. R. Rehn,  F. Rob,  
 M. Schneider,  N. Sergueev,  S. M. Sharada,  S. Sharma,  D. W. Small,  
 T. Stauch,  T. Stein,  Yu-Chuan Su,  A. J. W. Thom,  A. Tkatchenko,  
 T. Tsuchimochi,  L. Vogt,  O. Vydrov,  M. A. Watson,  J. Wenzel,  
 M. de Wergifosse,  T. A. Wesolowski,  A. White,  J. Witte,  A. Yamada,  
 Jun Yang,  K. Yao,  S. Yeganeh,  S. R. Yost,  Zhi-Qiang You,  A. Zech,  
 Igor Ying Zhang,  Xing Zhang,  Yan Zhao,  Ying Zhu,  B. R. Brooks,  
 G. K. L. Chan,  C. J. Cramer,  M. S. Gordon,  W. J. Hehre,  A. Klamt,  
 M. W. Schmidt,  C. D. Sherrill,  D. G. Truhlar,  A. Aspuru-Guzik,  R. Baer,  
 A. T. Bell,  N. A. Besley,  Jeng-Da Chai,  R. A. DiStasio Jr.,  A. Dreuw,  
 B. D. Dunietz,  T. R. Furlani,  Chao-Ping Hsu,  Yousung Jung,  Jing Kong,  
 D. S. Lambrecht,  WanZhen Liang,  C. Ochsenfeld,  V. A. Rassolov,  
 L. V. Slipchenko,  J. E. Subotnik,  T. Van Voorhis,  J. M. Herbert,  
 A. I. Krylov,  P. M. W. Gill,  M. Head-Gordon

 Contributors to earlier versions of Q-Chem not listed above: 
 R. D. Adamson,  B. Austin,  J. Baker,  G. J. O. Beran,  K. Brandhorst,  
 S. T. Brown,  E. F. C. Byrd,  A. K. Chakraborty,  C.-L. Cheng,  
 Siu Hung Chien,  D. M. Chipman,  D. L. Crittenden,  H. Dachsel,  
 R. J. Doerksen,  A. D. Dutoi,  L. Fusti-Molnar,  W. A. Goddard III,  
 A. Golubeva-Zadorozhnaya,  S. R. Gwaltney,  G. Hawkins,  A. Heyden,  
 S. Hirata,  G. Kedziora,  F. J. Keil,  C. Kelley,  Jihan Kim,  R. A. King,  
 R. Z. Khaliullin,  P. P. Korambath,  W. Kurlancheek,  A. M. Lee,  M. S. Lee,  
 S. V. Levchenko,  Ching Yeh Lin,  D. Liotard,  R. C. Lochan,  I. Lotan,  
 P. E. Maslen,  N. Nair,  D. P. O'Neill,  D. Neuhauser,  E. Neuscamman,  
 C. M. Oana,  R. Olson,  B. Peters,  R. Peverati,  P. A. Pieniazek,  
 Y. M. Rhee,  J. Ritchie,  M. A. Rohrdanz,  E. Rosta,  N. J. Russ,  
 H. F. Schaefer III,  N. E. Schultz,  N. Shenvi,  A. C. Simmonett,  A. Sodt,  
 D. Stuck,  K. S. Thanthiriwatte,  V. Vanovschi,  Tao Wang,  A. Warshel,  
 C. F. Williams,  Q. Wu,  X. Xu,  W. Zhang

 Please cite Q-Chem as follows:
 Y. Shao et al., Mol. Phys. 113, 184-215 (2015)
 DOI: 10.1080/00268976.2014.952696

 Q-Chem 5.0.2 for Intel X86 EM64T Linux

 Parts of Q-Chem use Armadillo 5.200.1 (Boston Tea Smuggler).
 http://arma.sourceforge.net/

 Q-Chem begins on Tue Mar  1 08:48:46 2022  

Host: 
0

     Scratch files written to ./qcfsm.d//
 Dec517 15110_ 26548  26544 5633   
Processing $rem in /home/leeping/opt/qchem/5.0.2-openmp/config/preferences.
 MEM_STATIC 2000
 MEM_TOTAL  8000
 SYMMETRY   OFF
 SYM_IGNORE TRUE 
 Now reading second FSM geometry

Checking the input file for inconsistencies... 	...done.

--------------------------------------------------------------
User input:
--------------------------------------------------------------
$molecule
0 2
C        1.6764508560    0.4030172359   -0.1930495549
C        1.1279256972   -0.8294509037   -0.2762912259
C       -0.3111861520   -1.0650627677   -0.0780077892
C       -1.1573573628    0.3241905948    0.0596926190
C       -0.3362343017    1.5305391778   -0.1496642450
N        0.9504662972    1.5941329163   -0.1778351384
H        2.7521568091    0.5364232580   -0.2734544019
H        1.7524274039   -1.6892883233   -0.5063386061
H       -0.7536106631   -1.9073286746   -0.6131413927
H       -2.1691029248    0.3824160846   -0.3464860033
H       -0.8823441550    2.4547635607   -0.3541108086
C       -0.9438247283   -0.6178898410    1.1606941645
H       -1.7057667758   -1.1164623184    1.7479923823
****
C        1.6122399012    0.3946117159   -0.3200388425
C        1.1656878054   -0.9029043403   -0.4871024535
C       -0.1596444965   -1.4234414962   -0.2679558642
C       -1.2525584176   -0.7282459612    0.1560206471
C       -0.2976105456    1.6095363817    0.4232469982
N        1.0096526555    1.5391945836    0.0786238675
H        2.6682602442    0.5487488711   -0.5525659560
H        1.9119219593   -1.6167207379   -0.8277760291
H       -0.2900743317   -2.4854909963   -0.4657278816
H       -2.1825846434   -1.2819210144    0.2686316671
H       -0.5882882872    2.6203981789    0.7178166301
C       -1.3149130757    0.6752205706    0.4758251278
H       -2.2820887679    1.0510142446    0.8010020892
$end

$rem
method                b3lyp
basis                 6-31g(d)
unrestricted          true
symmetry              off
sym_ignore            true
incdft                false
incfock               0
scf_convergence       8
thresh                14
jobtype               fsm
scf_guess             core
scf_guess_mix         5
scf_algorithm         diis
max_scf_cycles        100
fsm_nnode             21
fsm_ngrad             6
fsm_mode              2
fsm_opt_mode          2
$end

--------------------------------------------------------------
 ----------------------------------------------------------------
             Standard Nuclear Orientation (Angstroms)
    I     Atom           X                Y                Z
 ----------------------------------------------------------------
    1      C       1.6764508560     0.4030172359    -0.1930495549
    2      C       1.1279256972    -0.8294509037    -0.2762912259
    3      C      -0.3111861520    -1.0650627677    -0.0780077892
    4      C      -1.1573573628     0.3241905948     0.0596926190
    5      C      -0.3362343017     1.5305391778    -0.1496642450
    6      N       0.9504662972     1.5941329163    -0.1778351384
    7      H       2.7521568091     0.5364232580    -0.2734544019
    8      H       1.7524274039    -1.6892883233    -0.5063386061
    9      H      -0.7536106631    -1.9073286746    -0.6131413927
   10      H      -2.1691029248     0.3824160846    -0.3464860033
   11      H      -0.8823441550     2.4547635607    -0.3541108086
   12      C      -0.9438247283    -0.6178898410     1.1606941645
   13      H      -1.7057667758    -1.1164623184     1.7479923823
 ----------------------------------------------------------------
 Nuclear Repulsion Energy =   269.1046582282 hartrees
 There are       25 alpha and       24 beta electrons
 Requested basis set is 6-31G(d)
 There are 40 shells and 117 basis functions

 Total QAlloc Memory Limit   8000 MB
 Mega-Array Size      1956 MB
 MEM_STATIC part      2000 MB
 beginning FSman 

*******************************************
*******************************************
******** Starting FSM Calculation *********
*******************************************
*******************************************
-FSM parameters:
 Maximum displacement of each coordinate during optimization (Angstrom)      0.05
 Maximum optimization steps for each new node                                6
 The scaling factor for optimization (hartrees/Angstrom^2)                   1.75
 The number of LST interpolations used for reparameterization                100
-Aligning product structure to maximum coincidence with the reactant structure
 Total R --> P Distance 3.898788
 New node interpolation distace (Angstroms): 0.19
-Performing force calculation on reactant structure in state:0
 ----------------------------------------------------------------
             Standard Nuclear Orientation (Angstroms)
    I     Atom           X                Y                Z
 ----------------------------------------------------------------
    1      C       1.6764508560     0.4030172359    -0.1930495549
    2      C       1.1279256972    -0.8294509037    -0.2762912259
    3      C      -0.3111861520    -1.0650627677    -0.0780077892
    4      C      -1.1573573628     0.3241905948     0.0596926190
    5      C      -0.3362343017     1.5305391778    -0.1496642450
    6      N       0.9504662972     1.5941329163    -0.1778351384
    7      H       2.7521568091     0.5364232580    -0.2734544019
    8      H       1.7524274039    -1.6892883233    -0.5063386061
    9      H      -0.7536106631    -1.9073286746    -0.6131413927
   10      H      -2.1691029248     0.3824160846    -0.3464860033
   11      H      -0.8823441550     2.4547635607    -0.3541108086
   12      C      -0.9438247283    -0.6178898410     1.1606941645
   13      H      -1.7057667758    -1.1164623184     1.7479923823
 ----------------------------------------------------------------
 Nuclear Repulsion Energy =   269.1046582282 hartrees
 There are       25 alpha and       24 beta electrons

                       Distance Matrix (Angstroms)
             C (  1)   C (  2)   C (  3)   C (  4)   C (  5)   N (  6)
   C (  2)  1.351587
   C (  3)  2.473701  1.471690
   C (  4)  2.846148  2.581916  1.632480
   C (  5)  2.307399  2.780171  2.596712  1.474229
   N (  6)  1.395006  2.432066  2.945005  2.472265  1.288579
   H (  7)  1.086925  2.122203  3.462229  3.929419  3.246806  2.091407
   H (  8)  2.116994  1.087311  2.198096  3.583481  3.854480  3.395867
   H (  9)  3.379256  2.194417  1.091567  2.365459  3.493988  3.918367
   H ( 10)  3.848669  3.513395  2.370470  1.091788  2.171712  3.350882
   H ( 11)  3.283753  3.851403  3.576539  2.187740  1.092806  2.032474
   C ( 12)  3.121012  2.530185  1.461019  1.464690  2.588813  3.205159
   H ( 13)  4.185195  3.494269  2.298211  2.286174  3.533177  4.255786
             H (  7)   H (  8)   H (  9)   H ( 10)   H ( 11)   C ( 12)
   H (  8)  2.451017
   H (  9)  4.286924  2.517772
   H ( 10)  4.924211  4.438008  2.705116
   H ( 11)  4.110491  4.913081  4.371672  2.439350
   C ( 12)  4.129104  3.346142  2.201210  2.184837  3.426312
   H ( 13)  5.166368  4.167643  2.665900  2.616898  4.224987  1.083536

 
 Requested basis set is 6-31G(d)
 There are 40 shells and 117 basis functions
 A cutoff of  1.0D-14 yielded    804 shell pairs
 There are      7076 function pairs
 
 -------------------------------------------------------
 OpenMP Integral Computing Module                       
 Release: version 1.0, May 2013, Q-Chem Inc. Pittsburgh 
 -------------------------------------------------------
 Integral Job Info:
 Integral job number is                      11
 Integral operator is                         1
 short-range coefficients                     0
 long-range coefficients              100000000
 Omega coefficients                           0
 if combine SR and LR in K                    0
 Integral screening is                        0
 Integral computing path is                   2
 max size of driver memory is            800000
 size of driver memory is                593474
 size of scratch memory is              2361544
 max col of scratch BK array               1296
 max len of scratch array in speh3          155
 max len of scratch index in speh4           18
 max int batch size is                      520
 min int batch size is                       52
 fixed nKL is                                52
 max L of basis functions is                  2
 order of int derivative is                   0
 number of shells is                         40
 number of basis is                         117
 number of cartesian basis is               117
 number of contracted shell pairs           804
 number of primitive shell pairs           3488
 maxK2 (contraction) of shell pair           36
 max number of K2 of shell pair               1
 max number of CS2 of shell pair             86
 max number of PS2 of shell pair            390
 mem total for path MDJ                  535308
 -------------------------------------------------------
 Smallest overlap matrix eigenvalue = 1.47E-03

 Scale SEOQF with 1.000000e-01/1.000000e-01/1.000000e-01

 Standard Electronic Orientation quadrupole field applied
 Nucleus-field energy     =     0.0000000053 hartrees
 Guess MOs from core Hamiltonian diagonalization
 Mixing HOMO and LUMO in initial guess
 Adding  50% of the LUMO to the HOMO
 An unrestricted hybrid HF-DFT SCF calculation will be
 performed using Pulay DIIS extrapolation
 Exchange:     0.2000 Hartree-Fock + 0.0800 Slater + 0.7200 B88
 Correlation:  0.1900 VWN1RPA + 0.8100 LYP
 Using SG-1 standard quadrature grid
 SCF converges when DIIS error is below 1.0E-08
 using 4 threads for integral computing
 -------------------------------------------------------
 OpenMP Integral computing Module                
 Release: version 1.0, May 2013, Q-Chem Inc. Pittsburgh 
 -------------------------------------------------------
 -------------------------------------------------------
 OpenMP BLAS3 based DFT computing Module                
 Release: version 1.0, May 2013, Q-Chem Inc. Pittsburgh 
 -------------------------------------------------------
 ---------------------------------------
  Cycle       Energy         DIIS Error
 ---------------------------------------
    1    -237.9690280865      1.30E-01
    2    -233.0443646864      1.00E-01
    3    -251.2562028574      1.06E-01
    4    -279.8327445504      6.26E-02
    5    -282.0181907122      4.62E-02
    6    -286.1173485168      1.72E-02
    7    -286.4004455872      1.52E-02
    8    -286.8251849207      3.78E-03
    9    -286.8534037882      8.96E-04
   10    -286.8545262837      4.46E-04
   11    -286.8548897394      8.80E-05
   12    -286.8549081943      3.68E-05
   13    -286.8549125229      1.03E-05
   14    -286.8549136079      3.67E-06
   15    -286.8549137523      1.50E-06
   16    -286.8549138074      3.43E-07
   17    -286.8549138301      2.02E-07
   18    -286.8549138385      5.90E-08
   19    -286.8549138447      3.30E-08
   20    -286.8549138472      1.67E-08
   21    -286.8549138482      5.76E-09 Convergence criterion met
 ---------------------------------------
 <S^2> = 0.7532
 SCF time:  CPU 55.30 s  wall 59.62 s
 SCF   energy in the final basis set = -286.85491385
 Total energy in the final basis set = -286.85491385
 
 --------------------------------------------------------------
 
                    Orbital Energies (a.u.)
 --------------------------------------------------------------
 
 Alpha MOs
 -- Occupied --
-14.323 -10.230 -10.224 -10.221 -10.219 -10.206 -10.195  -0.934
 -0.868  -0.765  -0.667  -0.641  -0.570  -0.532  -0.491  -0.482
 -0.451  -0.425  -0.377  -0.373  -0.359  -0.300  -0.256  -0.229
 -0.219
 -- Virtual --
 -0.031   0.047   0.085   0.130   0.135   0.151   0.156   0.173
  0.184   0.228   0.244   0.286   0.296   0.328   0.400   0.437
  0.504   0.506   0.529   0.551   0.552   0.581   0.591   0.605
  0.617   0.630   0.647   0.669   0.672   0.713   0.754   0.803
  0.832   0.845   0.860   0.867   0.879   0.896   0.902   0.924
  0.937   1.001   1.078   1.099   1.114   1.171   1.212   1.328
  1.349   1.433   1.487   1.522   1.547   1.567   1.602   1.700
  1.725   1.766   1.816   1.827   1.897   1.913   1.949   2.020
  2.032   2.055   2.146   2.202   2.221   2.242   2.295   2.344
  2.436   2.470   2.504   2.529   2.545   2.578   2.633   2.673
  2.733   2.806   2.839   3.019   3.234   4.027   4.106   4.141
  4.275   4.317   4.396   4.608
 
 Beta MOs
 -- Occupied --
-14.323 -10.229 -10.225 -10.221 -10.207 -10.205 -10.194  -0.932
 -0.858  -0.763  -0.659  -0.639  -0.556  -0.527  -0.488  -0.472
 -0.447  -0.422  -0.375  -0.370  -0.351  -0.290  -0.250  -0.225
 -- Virtual --
 -0.072  -0.028   0.050   0.091   0.131   0.136   0.154   0.162
  0.179   0.186   0.233   0.246   0.291   0.311   0.331   0.403
  0.439   0.508   0.531   0.541   0.557   0.558   0.587   0.595
  0.611   0.622   0.640   0.650   0.673   0.674   0.719   0.766
  0.806   0.833   0.847   0.862   0.869   0.884   0.902   0.905
  0.925   0.941   1.013   1.079   1.104   1.119   1.176   1.215
  1.331   1.351   1.440   1.495   1.525   1.550   1.570   1.609
  1.705   1.731   1.788   1.821   1.830   1.920   1.924   1.963
  2.025   2.039   2.065   2.158   2.212   2.230   2.252   2.300
  2.354   2.440   2.475   2.514   2.534   2.547   2.588   2.637
  2.674   2.737   2.816   2.850   3.019   3.235   4.028   4.111
  4.141   4.300   4.321   4.401   4.610
 --------------------------------------------------------------
 
          Ground-State Mulliken Net Atomic Charges

     Atom                 Charge (a.u.)    Spin (a.u.)
  --------------------------------------------------------
      1 C                    -0.009136      -0.014928
      2 C                    -0.084013       0.041637
      3 C                    -0.175840      -0.016382
      4 C                    -0.194419      -0.016640
      5 C                     0.088460       0.018970
      6 N                    -0.391552       0.002839
      7 H                     0.136732       0.000780
      8 H                     0.139615       0.003600
      9 H                     0.155216       0.016927
     10 H                     0.155408       0.022643
     11 H                     0.142808       0.005862
     12 C                    -0.120993       0.957831
     13 H                     0.157714      -0.023139
  --------------------------------------------------------
  Sum of atomic charges =    -0.000000
  Sum of spin   charges =     1.000000

 -----------------------------------------------------------------
                    Cartesian Multipole Moments
 -----------------------------------------------------------------
    Charge (ESU x 10^10)
                -0.0000
    Dipole Moment (Debye)
         X      -1.9339      Y      -2.0497      Z      -0.3175
       Tot       2.8359
    Quadrupole Moments (Debye-Ang)
        XX     -36.9704     XY      -2.9367     YY     -41.5953
        XZ      -0.4583     YZ       0.3345     ZZ     -42.3416
    Octopole Moments (Debye-Ang^2)
       XXX     -13.1750    XXY     -10.4621    XYY     -13.7615
       YYY     -28.6035    XXZ      -1.6440    XYZ       3.3325
       YYZ      -2.6917    XZZ      -7.8057    YZZ      -8.1392
       ZZZ      -3.7864
    Hexadecapole Moments (Debye-Ang^3)
      XXXX    -323.6270   XXXY     -19.1359   XXYY    -115.1362
      XYYY     -41.1103   YYYY    -338.3037   XXXZ      31.5555
      XXYZ       3.8560   XYYZ      12.5700   YYYZ      21.3749
      XXZZ     -75.9005   XYZZ      -3.1495   YYZZ     -73.2575
      XZZZ      33.8015   YZZZ      15.7036   ZZZZ    -108.9304
 -----------------------------------------------------------------
 Calculating analytic gradient of the SCF energy
 Gradient of SCF Energy
            1           2           3           4           5           6
    1   0.0000155  -0.0000408   0.0000815   0.0000136  -0.0000731   0.0000347
    2   0.0000642  -0.0000030  -0.0001183   0.0001326  -0.0000226  -0.0000338
    3   0.0000054  -0.0000110  -0.0000114   0.0000875  -0.0000278   0.0000199
            7           8           9          10          11          12
    1   0.0000035   0.0000144  -0.0000094  -0.0000102  -0.0000073  -0.0000097
    2   0.0000098   0.0000023  -0.0000189  -0.0000188  -0.0000081   0.0000283
    3   0.0000369   0.0000190  -0.0000006  -0.0000138  -0.0000149  -0.0000561
           13
    1  -0.0000129
    2  -0.0000136
    3  -0.0000329
 Max gradient component =       1.326E-04
 RMS gradient           =       4.258E-05
 Gradient time:  CPU 7.80 s  wall 6.77 s
-Performing force calculation on product structure in state0
 ----------------------------------------------------------------
             Standard Nuclear Orientation (Angstroms)
    I     Atom           X                Y                Z
 ----------------------------------------------------------------
    1      C       1.6122902630     0.3945548475    -0.3198551958
    2      C       1.1656352850    -0.9028801474    -0.4872729517
    3      C      -0.1597530085    -1.4233593328    -0.2683273929
    4      C      -1.2526290077    -0.7281781243     0.1557703445
    5      C      -0.2974940320     1.6094538670     0.4236425062
    6      N       1.0097808495     1.5390876993     0.0790686615
    7      H       2.6683358071     0.5486606030    -0.5522886505
    8      H       1.9118256330    -1.6166736896    -0.8280903379
    9      H      -0.2902639168    -2.4853471068    -0.4663771950
   10      H      -2.1827085931    -1.2818019825     0.2681922088
   11      H      -0.5881000765     2.6202654193     0.7184551978
   12      C      -1.3148795364     0.6752120874     0.4759298368
   13      H      -2.2820396665     1.0510058593     0.8011529679
 ----------------------------------------------------------------
 Nuclear Repulsion Energy =   260.7255096829 hartrees
 There are       25 alpha and       24 beta electrons

                       Distance Matrix (Angstroms)
             C (  1)   C (  2)   C (  3)   C (  4)   C (  5)   N (  6)
   C (  2)  1.382341
   C (  3)  2.539213  1.440656
   C (  4)  3.113601  2.508391  1.362906
   C (  5)  2.382445  3.046693  3.113800  2.539402
   N (  6)  1.353556  2.511621  3.203839  3.203884  1.353754
   H (  7)  1.092248  2.090289  3.459419  4.183973  3.297555  2.032329
   H (  8)  2.095964  1.087409  2.154563  3.430915  4.105585  3.405210
   H (  9)  3.454709  2.150414  1.088152  2.097822  4.190416  4.264235
   H ( 10)  4.190225  3.453363  2.097675  1.088203  3.455077  4.264408
   H ( 11)  3.297513  4.116057  4.184271  3.459810  1.092294  2.032482
   C ( 12)  3.046369  3.093718  2.508433  1.440792  1.382250  2.511539
   H ( 13)  4.105288  4.167034  3.430798  2.154461  2.095901  3.405248
             H (  7)   H (  8)   H (  9)   H ( 10)   H ( 11)   C ( 12)
   H (  8)  2.310205
   H (  9)  4.238620  2.394708
   H ( 10)  5.249420  4.251962  2.359970
   H ( 11)  4.063337  5.156848  5.249744  4.239297
   C ( 12)  4.115732  4.167114  3.453536  2.150857  2.090517
   H ( 13)  5.156585  5.230627  4.252011  2.394975  2.310594  1.087377

 
 Applying Cartesian multipole field
    Component          Value
    ---------          -----
     (2,0,0)        1.00000E-11
     (0,2,0)        2.00000E-11
     (0,0,2)       -3.00000E-11
 Nucleus-field energy     =     0.0000000071 hartrees
 Requested basis set is 6-31G(d)
 There are 40 shells and 117 basis functions
 A cutoff of  1.0D-14 yielded    791 shell pairs
 There are      7063 function pairs
 Smallest overlap matrix eigenvalue = 1.33E-03
 Guess MOs from core Hamiltonian diagonalization
 Mixing HOMO and LUMO in initial guess
 Adding  50% of the LUMO to the HOMO
 An unrestricted hybrid HF-DFT SCF calculation will be
 performed using Pulay DIIS extrapolation
 Exchange:     0.2000 Hartree-Fock + 0.0800 Slater + 0.7200 B88
 Correlation:  0.1900 VWN1RPA + 0.8100 LYP
 Using SG-1 standard quadrature grid
 SCF converges when DIIS error is below 1.0E-08
 using 4 threads for integral computing
 -------------------------------------------------------
 OpenMP Integral computing Module                
 Release: version 1.0, May 2013, Q-Chem Inc. Pittsburgh 
 -------------------------------------------------------
 -------------------------------------------------------
 OpenMP BLAS3 based DFT computing Module                
 Release: version 1.0, May 2013, Q-Chem Inc. Pittsburgh 
 -------------------------------------------------------
 ---------------------------------------
  Cycle       Energy         DIIS Error
 ---------------------------------------
    1    -239.4891052762      1.26E-01
    2    -227.9151290801      1.03E-01
    3    -250.2637253845      1.03E-01
    4    -281.9141025710      4.85E-02
    5    -282.4510931212      4.74E-02
    6    -285.5288047344      2.31E-02
    7    -286.6135109112      1.25E-02
    8    -286.8606780460      4.95E-03
    9    -286.9210475906      8.95E-04
   10    -286.9229960910      7.34E-04
   11    -286.9240064567      1.81E-04
   12    -286.9242091685      7.96E-05
   13    -286.9243158126      3.68E-05
   14    -286.9243432912      1.25E-05
   15    -286.9243518358      4.29E-06
   16    -286.9243539153      1.56E-06
   17    -286.9243540297      7.02E-07
   18    -286.9243540585      1.85E-07
   19    -286.9243540610      7.24E-08
   20    -286.9243540612      6.46E-08
   21    -286.9243540613      4.29E-08
   22    -286.9243540615      1.95E-08
   23    -286.9243540615      3.87E-09 Convergence criterion met
 ---------------------------------------
 <S^2> = 0.7684
 SCF time:  CPU 59.03 s  wall 48.47 s
 SCF   energy in the final basis set = -286.92435406
 Total energy in the final basis set = -286.92435406
 
 --------------------------------------------------------------
 
                    Orbital Energies (a.u.)
 --------------------------------------------------------------
 
 Alpha MOs
 -- Occupied --
-14.322 -10.232 -10.232 -10.212 -10.211 -10.201 -10.201  -0.922
 -0.818  -0.784  -0.693  -0.667  -0.551  -0.537  -0.518  -0.449
 -0.439  -0.414  -0.394  -0.387  -0.349  -0.322  -0.299  -0.251
 -0.162
 -- Virtual --
 -0.072   0.077   0.097   0.101   0.117   0.142   0.181   0.184
  0.193   0.213   0.266   0.320   0.356   0.390   0.412   0.483
  0.496   0.521   0.547   0.576   0.584   0.587   0.591   0.610
  0.619   0.624   0.646   0.658   0.714   0.718   0.833   0.840
  0.847   0.854   0.868   0.872   0.885   0.922   0.965   0.975
  1.024   1.027   1.043   1.127   1.177   1.185   1.300   1.303
  1.326   1.401   1.429   1.480   1.482   1.546   1.574   1.586
  1.682   1.732   1.769   1.829   1.850   1.919   1.925   2.030
  2.046   2.048   2.100   2.141   2.141   2.191   2.247   2.391
  2.410   2.414   2.446   2.545   2.577   2.601   2.614   2.739
  2.749   2.808   3.052   3.249   3.250   4.018   4.046   4.102
  4.196   4.239   4.532   4.595
 
 Beta MOs
 -- Occupied --
-14.314 -10.233 -10.233 -10.210 -10.210 -10.196 -10.196  -0.911
 -0.809  -0.777  -0.681  -0.665  -0.546  -0.535  -0.514  -0.447
 -0.438  -0.411  -0.383  -0.373  -0.348  -0.295  -0.276  -0.241
 -- Virtual --
 -0.078  -0.070   0.078   0.118   0.124   0.125   0.142   0.182
  0.187   0.196   0.219   0.268   0.324   0.360   0.393   0.415
  0.486   0.504   0.525   0.551   0.587   0.588   0.592   0.596
  0.614   0.624   0.629   0.649   0.676   0.716   0.729   0.834
  0.843   0.846   0.869   0.875   0.880   0.887   0.925   0.967
  0.979   1.026   1.030   1.045   1.133   1.180   1.189   1.311
  1.315   1.333   1.411   1.429   1.489   1.492   1.560   1.582
  1.597   1.685   1.737   1.781   1.831   1.853   1.922   1.933
  2.036   2.058   2.061   2.110   2.141   2.147   2.203   2.259
  2.399   2.422   2.425   2.448   2.558   2.579   2.611   2.624
  2.742   2.761   2.810   3.054   3.252   3.254   4.030   4.053
  4.109   4.200   4.239   4.537   4.601
 --------------------------------------------------------------
 
          Ground-State Mulliken Net Atomic Charges

     Atom                 Charge (a.u.)    Spin (a.u.)
  --------------------------------------------------------
      1 C                     0.035615      -0.112853
      2 C                    -0.131728       0.347365
      3 C                    -0.111107       0.093237
      4 C                    -0.111337       0.094268
      5 C                     0.035327      -0.112375
      6 N                    -0.423242       0.386908
      7 H                     0.142613       0.003413
      8 H                     0.134386      -0.018353
      9 H                     0.141908      -0.006611
     10 H                     0.141921      -0.006663
     11 H                     0.142680       0.003390
     12 C                    -0.131373       0.346589
     13 H                     0.134336      -0.018316
  --------------------------------------------------------
  Sum of atomic charges =    -0.000000
  Sum of spin   charges =     1.000000

 -----------------------------------------------------------------
                    Cartesian Multipole Moments
 -----------------------------------------------------------------
    Charge (ESU x 10^10)
                 0.0000
    Dipole Moment (Debye)
         X      -1.2291      Y      -1.8738      Z      -0.0956
       Tot       2.2430
    Quadrupole Moments (Debye-Ang)
        XX     -37.2233     XY      -3.2520     YY     -40.3004
        XZ      -2.2441     YZ       1.4875     ZZ     -42.4740
    Octopole Moments (Debye-Ang^2)
       XXX     -11.3812    XXY     -10.4596    XYY     -12.9544
       YYY     -26.7651    XXZ      -1.0624    XYZ      -0.7395
       YYZ      -0.3360    XZZ      -3.2648    YZZ      -4.8699
       ZZZ      -0.7360
    Hexadecapole Moments (Debye-Ang^3)
      XXXX    -358.3992   XXXY     -13.5472   XXYY    -135.3352
      XYYY     -30.9206   YYYY    -390.0279   XXXZ      28.6028
      XXYZ     -10.7043   XYYZ       8.9613   YYYZ     -25.6807
      XXZZ     -79.4639   XYZZ      -5.1092   YYZZ     -80.6042
      XZZZ      43.7896   YZZZ     -37.7012   ZZZZ     -82.5651
 -----------------------------------------------------------------
 Calculating analytic gradient of the SCF energy
 Gradient of SCF Energy
            1           2           3           4           5           6
    1  -0.0000102   0.0000108   0.0000045   0.0000080  -0.0000079  -0.0000093
    2  -0.0000019   0.0000056  -0.0000082  -0.0000083   0.0000049   0.0000170
    3  -0.0000531   0.0000495   0.0000088   0.0000112  -0.0000415  -0.0000136
            7           8           9          10          11          12
    1   0.0000004   0.0000054  -0.0000006  -0.0000052   0.0000169  -0.0000127
    2   0.0000014  -0.0000017   0.0000037   0.0000043  -0.0000188   0.0000056
    3   0.0000108   0.0000111  -0.0000122  -0.0000209   0.0000811  -0.0000328
           13
    1  -0.0000002
    2  -0.0000037
    3   0.0000016
 Max gradient component =       8.107E-05
 RMS gradient           =       2.132E-05
 Gradient time:  CPU 7.64 s  wall 2.57 s

STARTING FREEZING STRING ITERATION # 1
 The distance between the innermost nodes (Angstroms): 3.899
-Adding two new nodes
 The distance between the previous and current R_nodes (Angstroms): 0.1693
 The distance between the previous and current P_nodes (Angstroms): 0.1614
-Optimizing new reactant side node
 Using BFGS, step: 2 E_tol 0.0694
 max_steps 6, node_spacing 0.1857, sigma 0.7000
 ----------------------------------------------------------------
             Standard Nuclear Orientation (Angstroms)
    I     Atom           X                Y                Z
 ----------------------------------------------------------------
    1      C       1.6763474315     0.4012687099    -0.1990124855
    2      C       1.1315535006    -0.8338075108    -0.2885029710
    3      C      -0.3046313585    -1.0812593353    -0.0978854301
    4      C      -1.1730064628     0.2777854549     0.0106696533
    5      C      -0.3322395499     1.5410542286    -0.1133868256
    6      N       0.9569854307     1.5929232185    -0.1626828094
    7      H       2.7516712162     0.5346069039    -0.2875228754
    8      H       1.7626869340    -1.6875470419    -0.5228353325
    9      H      -0.7337784721    -1.9386703879    -0.6188086305
   10      H      -2.1920852789     0.3196671260    -0.3753532009
   11      H      -0.8680920042     2.4753290690    -0.2982632829
   12      C      -0.9481346072    -0.5728895150     1.1753056178
   13      H      -1.7302229070    -1.0333984665     1.7685847280
 ----------------------------------------------------------------
 Nuclear Repulsion Energy =   267.9917162713 hartrees
 There are       25 alpha and       24 beta electrons

                       Distance Matrix (Angstroms)
             C (  1)   C (  2)   C (  3)   C (  4)   C (  5)   N (  6)
   C (  2)  1.352857
   C (  3)  2.476367  1.469760
   C (  4)  2.859726  2.576071  1.616435
   C (  5)  2.311031  2.795232  2.622505  1.522540
   N (  6)  1.392423  2.436253  2.957554  2.509284  1.291209
   H (  7)  1.087168  2.120693  3.462365  3.944359  3.248656  2.087227
   H (  8)  2.115530  1.087250  2.195899  3.572878  3.870430  3.397109
   H (  9)  3.385299  2.193009  1.091184  2.345600  3.539091  3.941939
   H ( 10)  3.873310  3.519179  2.366868  1.090545  2.240410  3.403389
   H ( 11)  3.284166  3.866402  3.606516  2.240002  1.092788  2.031731
   C ( 12)  3.118596  2.556544  1.514448  1.459655  2.551238  3.179692
   H ( 13)  4.187413  3.530044  2.349109  2.262733  3.481951  4.224742
             H (  7)   H (  8)   H (  9)   H ( 10)   H ( 11)   C ( 12)
   H (  8)  2.443651
   H (  9)  4.286632  2.510899
   H ( 10)  4.949206  4.437441  2.699262
   H ( 11)  4.107214  4.929601  4.427661  2.530964
   C ( 12)  4.129767  3.387432  2.264984  2.179131  3.386657
   H ( 13)  5.174321  4.228349  2.740815  2.576931  4.162487  1.084302

 
 Applying Cartesian multipole field
    Component          Value
    ---------          -----
     (2,0,0)        1.00000E-11
     (0,2,0)        2.00000E-11
     (0,0,2)       -3.00000E-11
 Nucleus-field energy     =     0.0000000052 hartrees
 Requested basis set is 6-31G(d)
 There are 40 shells and 117 basis functions
 A cutoff of  1.0D-14 yielded    804 shell pairs
 There are      7076 function pairs
 Smallest overlap matrix eigenvalue = 1.44E-03
 Guess MOs from core Hamiltonian diagonalization
 Mixing HOMO and LUMO in initial guess
 Adding  50% of the LUMO to the HOMO
 An unrestricted hybrid HF-DFT SCF calculation will be
 performed using Pulay DIIS extrapolation
 Exchange:     0.2000 Hartree-Fock + 0.0800 Slater + 0.7200 B88
 Correlation:  0.1900 VWN1RPA + 0.8100 LYP
 Using SG-1 standard quadrature grid
 SCF converges when DIIS error is below 1.0E-08
 using 4 threads for integral computing
 -------------------------------------------------------
 OpenMP Integral computing Module                
 Release: version 1.0, May 2013, Q-Chem Inc. Pittsburgh 
 -------------------------------------------------------
 -------------------------------------------------------
 OpenMP BLAS3 based DFT computing Module                
 Release: version 1.0, May 2013, Q-Chem Inc. Pittsburgh 
 -------------------------------------------------------
 ---------------------------------------
  Cycle       Energy         DIIS Error
 ---------------------------------------
    1    -238.9410534906      1.29E-01
    2    -233.0591559090      1.00E-01
    3    -250.1738298781      1.09E-01
    4    -281.2458907310      5.53E-02
    5    -282.6678228235      4.23E-02
    6    -286.2704221188      1.35E-02
    7    -286.0372606816      1.88E-02
    8    -286.8238891412      3.19E-03
    9    -286.8223921456      4.04E-03
   10    -286.8503264183      5.01E-04
   11    -286.8508929392      2.40E-04
   12    -286.8510662078      5.89E-05
   13    -286.8510900838      1.85E-05
   14    -286.8510925651      8.54E-06
   15    -286.8510930860      3.37E-06
   16    -286.8510932868      1.33E-06
   17    -286.8510933676      4.21E-07
   18    -286.8510933770      1.38E-07
   19    -286.8510933837      3.23E-08
   20    -286.8510933865      1.49E-08
   21    -286.8510933872      7.34E-09 Convergence criterion met
 ---------------------------------------
 <S^2> = 0.7531
 SCF time:  CPU 55.44 s  wall 46.48 s
 SCF   energy in the final basis set = -286.85109339
 Total energy in the final basis set = -286.85109339
 
 --------------------------------------------------------------
 
                    Orbital Energies (a.u.)
 --------------------------------------------------------------
 
 Alpha MOs
 -- Occupied --
-14.325 -10.234 -10.226 -10.222 -10.220 -10.206 -10.195  -0.932
 -0.863  -0.764  -0.660  -0.637  -0.572  -0.529  -0.492  -0.478
 -0.450  -0.422  -0.376  -0.373  -0.350  -0.303  -0.257  -0.227
 -0.224
 -- Virtual --
 -0.034   0.051   0.086   0.129   0.137   0.153   0.154   0.168
  0.183   0.222   0.244   0.268   0.282   0.327   0.397   0.439
  0.504   0.508   0.530   0.545   0.560   0.580   0.593   0.604
  0.616   0.623   0.646   0.669   0.672   0.709   0.749   0.805
  0.828   0.848   0.860   0.866   0.879   0.894   0.903   0.927
  0.940   0.992   1.067   1.102   1.120   1.152   1.211   1.343
  1.350   1.444   1.490   1.528   1.544   1.571   1.595   1.699
  1.721   1.761   1.810   1.829   1.874   1.920   1.940   2.006
  2.022   2.061   2.155   2.194   2.203   2.234   2.279   2.335
  2.444   2.463   2.485   2.523   2.546   2.574   2.622   2.669
  2.723   2.791   2.793   3.015   3.225   4.032   4.092   4.138
  4.277   4.316   4.398   4.603
 
 Beta MOs
 -- Occupied --
-14.325 -10.233 -10.226 -10.222 -10.206 -10.206 -10.194  -0.931
 -0.853  -0.762  -0.653  -0.635  -0.556  -0.524  -0.489  -0.469
 -0.446  -0.419  -0.375  -0.371  -0.342  -0.294  -0.249  -0.223
 -- Virtual --
 -0.074  -0.032   0.054   0.091   0.131   0.139   0.155   0.160
  0.174   0.185   0.227   0.246   0.271   0.298   0.329   0.400
  0.440   0.510   0.532   0.542   0.550   0.565   0.585   0.598
  0.610   0.620   0.634   0.649   0.672   0.673   0.716   0.762
  0.808   0.831   0.850   0.861   0.868   0.884   0.898   0.908
  0.928   0.944   1.006   1.070   1.104   1.128   1.156   1.214
  1.345   1.352   1.451   1.496   1.535   1.548   1.575   1.601
  1.703   1.726   1.781   1.813   1.833   1.903   1.930   1.954
  2.014   2.026   2.070   2.166   2.202   2.214   2.244   2.284
  2.342   2.448   2.469   2.498   2.528   2.549   2.585   2.624
  2.671   2.727   2.801   2.803   3.015   3.226   4.033   4.098
  4.139   4.295   4.326   4.401   4.604
 --------------------------------------------------------------
 
          Ground-State Mulliken Net Atomic Charges

     Atom                 Charge (a.u.)    Spin (a.u.)
  --------------------------------------------------------
      1 C                    -0.010980      -0.009694
      2 C                    -0.078414       0.025650
      3 C                    -0.180226      -0.009602
      4 C                    -0.195505      -0.024246
      5 C                     0.086516       0.027905
      6 N                    -0.386861      -0.002194
      7 H                     0.135975       0.000509
      8 H                     0.139020       0.003933
      9 H                     0.155995       0.014036
     10 H                     0.157322       0.020025
     11 H                     0.144710       0.006672
     12 C                    -0.124719       0.965683
     13 H                     0.157167      -0.018677
  --------------------------------------------------------
  Sum of atomic charges =    -0.000000
  Sum of spin   charges =     1.000000

 -----------------------------------------------------------------
                    Cartesian Multipole Moments
 -----------------------------------------------------------------
    Charge (ESU x 10^10)
                -0.0000
    Dipole Moment (Debye)
         X      -1.9772      Y      -1.9273      Z      -0.3617
       Tot       2.7847
    Quadrupole Moments (Debye-Ang)
        XX     -36.9085     XY      -3.0091     YY     -41.6153
        XZ      -0.5995     YZ       0.5336     ZZ     -42.3504
    Octopole Moments (Debye-Ang^2)
       XXX     -13.8346    XXY     -10.4089    XYY     -13.5191
       YYY     -27.7180    XXZ      -1.5715    XYZ       2.9490
       YYZ      -3.2212    XZZ      -7.8688    YZZ      -7.8376
       ZZZ      -3.5169
    Hexadecapole Moments (Debye-Ang^3)
      XXXX    -325.2887   XXXY     -19.3645   XXYY    -115.9720
      XYYY     -41.7875   YYYY    -336.8823   XXXZ      31.1041
      XXYZ       3.1122   XYYZ      12.6209   YYYZ      19.4127
      XXZZ     -76.1571   XYZZ      -3.4277   YYZZ     -73.9057
      XZZZ      33.5357   YZZZ      13.2209   ZZZZ    -110.1527
 -----------------------------------------------------------------
 Calculating analytic gradient of the SCF energy
 Gradient of SCF Energy
            1           2           3           4           5           6
    1  -0.0023272  -0.0017955   0.0099816  -0.0166333   0.0040148   0.0103204
    2   0.0054534  -0.0022805  -0.0131945  -0.0186036   0.0143963  -0.0018711
    3   0.0024024   0.0007448  -0.0183941  -0.0065980   0.0127011  -0.0048938
            7           8           9          10          11          12
    1   0.0000483  -0.0002556   0.0011435  -0.0010886   0.0011301  -0.0023023
    2   0.0001542   0.0000074  -0.0003053  -0.0023939   0.0008098   0.0152730
    3  -0.0002295  -0.0005222  -0.0030323   0.0026611  -0.0022595   0.0187092
           13
    1  -0.0022364
    2   0.0025549
    3  -0.0012892
 Max gradient component =       1.871E-02
 RMS gradient           =       7.976E-03
 Gradient time:  CPU 7.78 s  wall 2.30 s
 ----------------------------------------------------------------
             Standard Nuclear Orientation (Angstroms)
    I     Atom           X                Y                Z
 ----------------------------------------------------------------
    1      C       1.6787897049     0.3951932350    -0.2023205788
    2      C       1.1339134882    -0.8319125319    -0.2910321039
    3      C      -0.3144697613    -1.0693503774    -0.0805602330
    4      C      -1.1572640066     0.2914172669     0.0107236905
    5      C      -0.3361569952     1.5268670819    -0.1211360167
    6      N       0.9466257842     1.5947137372    -0.1550496598
    7      H       2.7514974379     0.5342267012    -0.2891415796
    8      H       1.7642685655    -1.6872673509    -0.5246757097
    9      H      -0.7323872654    -1.9425056564    -0.6162116570
   10      H      -2.1938290109     0.3132227528    -0.3830234805
   11      H      -0.8674761537     2.4770659375    -0.2874241399
   12      C      -0.9463086694    -0.5822280999     1.1569195627
   13      H      -1.7301496162    -1.0243790450     1.7732375636
 ----------------------------------------------------------------
 Nuclear Repulsion Energy =   268.9228350709 hartrees
 There are       25 alpha and       24 beta electrons

                       Distance Matrix (Angstroms)
             C (  1)   C (  2)   C (  3)   C (  4)   C (  5)   N (  6)
   C (  2)  1.345566
   C (  3)  2.476448  1.482730
   C (  4)  2.845937  2.569518  1.603223
   C (  5)  2.312420  2.784567  2.596625  1.489275
   N (  6)  1.406111  2.437639  2.948415  2.480406  1.285023
   H (  7)  1.085159  2.117290  3.466283  3.927759  3.247641  2.097659
   H (  8)  2.108995  1.087919  2.213642  3.568921  3.860737  3.402435
   H (  9)  3.383772  2.195959  1.106335  2.358809  3.526846  3.942547
   H ( 10)  3.877699  3.520464  2.352655  1.109044  2.234382  3.399507
   H ( 11)  3.290123  3.867158  3.595230  2.224844  1.101285  2.021641
   C ( 12)  3.113523  2.546808  1.472367  1.456545  2.540471  3.169154
   H ( 13)  4.187945  3.535691  2.332968  2.272878  3.469975  4.212252
             H (  7)   H (  8)   H (  9)   H ( 10)   H ( 11)   C ( 12)
   H (  8)  2.442362
   H (  9)  4.287031  2.511337
   H ( 10)  4.951152  4.437180  2.697869
   H ( 11)  4.107505  4.931941  4.433843  2.539797
   C ( 12)  4.124480  3.375812  2.245019  2.174756  3.384025
   H ( 13)  5.173763  4.234476  2.747354  2.579465  4.153390  1.090758

 
 Applying Cartesian multipole field
    Component          Value
    ---------          -----
     (2,0,0)        1.00000E-11
     (0,2,0)        2.00000E-11
     (0,0,2)       -3.00000E-11
 Nucleus-field energy     =     0.0000000052 hartrees
 Requested basis set is 6-31G(d)
 There are 40 shells and 117 basis functions
 A cutoff of  1.0D-14 yielded    804 shell pairs
 There are      7076 function pairs
 Smallest overlap matrix eigenvalue = 1.41E-03
 Guess MOs from core Hamiltonian diagonalization
 Mixing HOMO and LUMO in initial guess
 Adding  50% of the LUMO to the HOMO
 An unrestricted hybrid HF-DFT SCF calculation will be
 performed using Pulay DIIS extrapolation
 Exchange:     0.2000 Hartree-Fock + 0.0800 Slater + 0.7200 B88
 Correlation:  0.1900 VWN1RPA + 0.8100 LYP
 Using SG-1 standard quadrature grid
 SCF converges when DIIS error is below 1.0E-08
 using 4 threads for integral computing
 -------------------------------------------------------
 OpenMP Integral computing Module                
 Release: version 1.0, May 2013, Q-Chem Inc. Pittsburgh 
 -------------------------------------------------------
 -------------------------------------------------------
 OpenMP BLAS3 based DFT computing Module                
 Release: version 1.0, May 2013, Q-Chem Inc. Pittsburgh 
 -------------------------------------------------------
 ---------------------------------------
  Cycle       Energy         DIIS Error
 ---------------------------------------
    1    -237.8708736798      1.30E-01
    2    -232.5757494040      1.00E-01
    3    -251.0926911967      1.07E-01
    4    -280.7596477309      5.90E-02
    5    -282.3897017943      4.40E-02
    6    -286.3813345423      1.35E-02
    7    -286.6506515300      1.10E-02
    8    -286.8304995819      3.39E-03
    9    -286.8504701868      1.17E-03
   10    -286.8526339252      4.04E-04
   11    -286.8529404601      6.74E-05
   12    -286.8529541992      3.25E-05
   13    -286.8529583498      8.43E-06
   14    -286.8529595220      1.93E-06
   15    -286.8529598201      6.82E-07
   16    -286.8529599525      4.48E-07
   17    -286.8529600173      8.54E-08
   18    -286.8529600587      6.23E-08
   19    -286.8529600823      4.28E-08
   20    -286.8529600960      2.60E-08
   21    -286.8529601018      9.77E-09 Convergence criterion met
 ---------------------------------------
 <S^2> = 0.7531
 SCF time:  CPU 54.96 s  wall 50.10 s
 SCF   energy in the final basis set = -286.85296010
 Total energy in the final basis set = -286.85296010
 
 --------------------------------------------------------------
 
                    Orbital Energies (a.u.)
 --------------------------------------------------------------
 
 Alpha MOs
 -- Occupied --
-14.324 -10.232 -10.226 -10.221 -10.219 -10.206 -10.195  -0.934
 -0.869  -0.765  -0.661  -0.638  -0.570  -0.529  -0.490  -0.482
 -0.450  -0.422  -0.376  -0.372  -0.355  -0.302  -0.256  -0.229
 -0.222
 -- Virtual --
 -0.031   0.051   0.082   0.128   0.139   0.150   0.154   0.170
  0.184   0.225   0.242   0.279   0.291   0.328   0.399   0.438
  0.503   0.504   0.530   0.553   0.560   0.580   0.591   0.604
  0.617   0.629   0.647   0.672   0.675   0.712   0.749   0.802
  0.821   0.841   0.857   0.862   0.875   0.899   0.902   0.924
  0.938   0.998   1.068   1.104   1.122   1.155   1.214   1.339
  1.355   1.440   1.492   1.528   1.548   1.570   1.598   1.707
  1.721   1.757   1.818   1.837   1.884   1.920   1.942   2.013
  2.028   2.056   2.158   2.206   2.210   2.236   2.292   2.340
  2.440   2.466   2.496   2.532   2.549   2.581   2.631   2.677
  2.733   2.802   2.812   3.019   3.228   4.029   4.102   4.141
  4.279   4.313   4.399   4.612
 
 Beta MOs
 -- Occupied --
-14.324 -10.231 -10.226 -10.221 -10.206 -10.204 -10.194  -0.932
 -0.860  -0.763  -0.654  -0.636  -0.555  -0.524  -0.488  -0.472
 -0.446  -0.419  -0.374  -0.369  -0.347  -0.293  -0.250  -0.226
 -- Virtual --
 -0.072  -0.029   0.054   0.088   0.130   0.140   0.153   0.159
  0.176   0.186   0.230   0.244   0.282   0.307   0.330   0.403
  0.439   0.507   0.532   0.540   0.558   0.566   0.586   0.596
  0.610   0.621   0.640   0.649   0.673   0.678   0.719   0.762
  0.805   0.824   0.843   0.858   0.864   0.880   0.904   0.906
  0.925   0.942   1.011   1.071   1.108   1.129   1.159   1.217
  1.342   1.357   1.446   1.498   1.534   1.551   1.574   1.604
  1.712   1.727   1.776   1.822   1.839   1.911   1.928   1.958
  2.021   2.032   2.064   2.167   2.214   2.222   2.248   2.297
  2.349   2.445   2.472   2.507   2.537   2.551   2.592   2.634
  2.678   2.737   2.813   2.823   3.019   3.230   4.030   4.108
  4.142   4.300   4.321   4.402   4.613
 --------------------------------------------------------------
 
          Ground-State Mulliken Net Atomic Charges

     Atom                 Charge (a.u.)    Spin (a.u.)
  --------------------------------------------------------
      1 C                    -0.012270      -0.010186
      2 C                    -0.080626       0.031446
      3 C                    -0.175939      -0.017500
      4 C                    -0.193288      -0.020429
      5 C                     0.092271       0.024897
      6 N                    -0.391188      -0.002828
      7 H                     0.137294       0.000639
      8 H                     0.138825       0.004078
      9 H                     0.153110       0.019232
     10 H                     0.156169       0.021723
     11 H                     0.142455       0.006710
     12 C                    -0.123824       0.964096
     13 H                     0.157012      -0.021878
  --------------------------------------------------------
  Sum of atomic charges =    -0.000000
  Sum of spin   charges =     1.000000

 -----------------------------------------------------------------
                    Cartesian Multipole Moments
 -----------------------------------------------------------------
    Charge (ESU x 10^10)
                 0.0000
    Dipole Moment (Debye)
         X      -1.9269      Y      -1.9745      Z      -0.3267
       Tot       2.7782
    Quadrupole Moments (Debye-Ang)
        XX     -36.8934     XY      -2.9722     YY     -41.7357
        XZ      -0.6723     YZ       0.4691     ZZ     -42.2735
    Octopole Moments (Debye-Ang^2)
       XXX     -13.2985    XXY     -10.4086    XYY     -13.3515
       YYY     -27.9663    XXZ      -1.4630    XYZ       2.9006
       YYZ      -3.0288    XZZ      -7.8788    YZZ      -7.8715
       ZZZ      -3.1980
    Hexadecapole Moments (Debye-Ang^3)
      XXXX    -323.8900   XXXY     -18.6488   XXYY    -115.8637
      XYYY     -41.3456   YYYY    -336.2311   XXXZ      30.5298
      XXYZ       3.1415   XYYZ      12.2957   YYYZ      19.3842
      XXZZ     -75.6258   XYZZ      -3.2492   YYZZ     -73.4302
      XZZZ      33.0220   YZZZ      13.1980   ZZZZ    -108.5090
 -----------------------------------------------------------------
 Calculating analytic gradient of the SCF energy
 Gradient of SCF Energy
            1           2           3           4           5           6
    1   0.0016748   0.0033391  -0.0022534   0.0078243   0.0060463  -0.0037065
    2  -0.0057547   0.0029882   0.0049224  -0.0090189  -0.0037887   0.0049402
    3   0.0008886  -0.0019051   0.0025122   0.0016179   0.0103384  -0.0028876
            7           8           9          10          11          12
    1  -0.0009714   0.0010348  -0.0007119  -0.0115627   0.0003835   0.0042973
    2  -0.0003851   0.0002678  -0.0080244  -0.0039146   0.0059705   0.0110049
    3   0.0004492  -0.0005519  -0.0065094  -0.0011871  -0.0021405  -0.0028504
           13
    1  -0.0053942
    2   0.0007925
    3   0.0022257
 Max gradient component =       1.156E-02
 RMS gradient           =       4.880E-03
 Gradient time:  CPU 7.34 s  wall 3.59 s
 FSM gradient convergence criteria satisfied
done with opt_step_by_gradient, Reactant, iter1
-Optimizing new product side node
 Using BFGS, step: 2 E_tol 0.0694402
 max_steps 6, node_spacing 0.1856566, sigma 0.7000000
 ----------------------------------------------------------------
             Standard Nuclear Orientation (Angstroms)
    I     Atom           X                Y                Z
 ----------------------------------------------------------------
    1      C       1.6213881259     0.3923254378    -0.3155697427
    2      C       1.1704806583    -0.9000846359    -0.4788270005
    3      C      -0.1548563454    -1.4154806617    -0.2619864155
    4      C      -1.2640560466    -0.7186930780     0.1340293222
    5      C      -0.2866801392     1.6202777744     0.3887872198
    6      N       1.0180150975     1.5422677433     0.0636147768
    7      H       2.6792924600     0.5452219801    -0.5401090801
    8      H       1.9144257753    -1.6194677073    -0.8137894779
    9      H      -0.2948094335    -2.4724589100    -0.4824839200
   10      H      -2.1999844050    -1.2683501510     0.2182191774
   11      H      -0.5749652225     2.6398172804     0.6578227251
   12      C      -1.3250707722     0.6456278531     0.5415455861
   13      H      -2.2933494208     1.0011885240     0.8860523934
 ----------------------------------------------------------------
 Nuclear Repulsion Energy =   260.1823332027 hartrees
 There are       25 alpha and       24 beta electrons

                       Distance Matrix (Angstroms)
             C (  1)   C (  2)   C (  3)   C (  4)   C (  5)   N (  6)
   C (  2)  1.378512
   C (  3)  2.534971  1.438461
   C (  4)  3.124466  2.517035  1.368454
   C (  5)  2.375860  3.037811  3.107525  2.547734
   N (  6)  1.352852  2.506506  3.198424  3.213215  1.346868
   H (  7)  1.092226  2.090258  3.457471  4.195467  3.288706  2.029390
   H (  8)  2.093181  1.087734  2.151285  3.436932  4.097195  3.401465
   H (  9)  3.450603  2.149290  1.088765  2.096479  4.184456  4.259080
   H ( 10)  4.200674  3.461434  2.105895  1.088656  3.469005  4.275394
   H ( 11)  3.289784  4.107245  4.179471  3.468256  1.093137  2.023681
   C ( 12)  3.079031  3.107759  2.502645  1.425189  1.432317  2.553905
   H ( 13)  4.140022  4.180413  3.425118  2.140789  2.158070  3.454606
             H (  7)   H (  8)   H (  9)   H ( 10)   H ( 11)   C ( 12)
   H (  8)  2.312099
   H (  9)  4.237334  2.391250
   H ( 10)  5.260366  4.256371  2.360202
   H ( 11)  4.051242  5.148225  5.245394  4.255316
   C ( 12)  4.149094  4.178747  3.439846  2.129161  2.133769
   H ( 13)  5.193169  5.240484  4.234770  2.367599  2.385380  1.087507

 
 Applying Cartesian multipole field
    Component          Value
    ---------          -----
     (2,0,0)        1.00000E-11
     (0,2,0)        2.00000E-11
     (0,0,2)       -3.00000E-11
 Nucleus-field energy     =     0.0000000071 hartrees
 Requested basis set is 6-31G(d)
 There are 40 shells and 117 basis functions
 A cutoff of  1.0D-14 yielded    790 shell pairs
 There are      7062 function pairs
 Smallest overlap matrix eigenvalue = 1.44E-03
 Guess MOs from core Hamiltonian diagonalization
 Mixing HOMO and LUMO in initial guess
 Adding  50% of the LUMO to the HOMO
 An unrestricted hybrid HF-DFT SCF calculation will be
 performed using Pulay DIIS extrapolation
 Exchange:     0.2000 Hartree-Fock + 0.0800 Slater + 0.7200 B88
 Correlation:  0.1900 VWN1RPA + 0.8100 LYP
 Using SG-1 standard quadrature grid
 SCF converges when DIIS error is below 1.0E-08
 using 4 threads for integral computing
 -------------------------------------------------------
 OpenMP Integral computing Module                
 Release: version 1.0, May 2013, Q-Chem Inc. Pittsburgh 
 -------------------------------------------------------
 -------------------------------------------------------
 OpenMP BLAS3 based DFT computing Module                
 Release: version 1.0, May 2013, Q-Chem Inc. Pittsburgh 
 -------------------------------------------------------
 ---------------------------------------
  Cycle       Energy         DIIS Error
 ---------------------------------------
    1    -239.6139654584      1.26E-01
    2    -230.6942088298      9.91E-02
    3    -244.0797309669      1.14E-01
    4    -283.3797696925      3.68E-02
    5    -282.0565745797      4.06E-02
    6    -286.4106023309      1.43E-02
    7    -286.5239408594      1.35E-02
    8    -286.9039655749      2.90E-03
    9    -286.9164627166      1.49E-03
   10    -286.9203860332      4.19E-04
   11    -286.9208811193      2.42E-04
   12    -286.9212192485      8.44E-05
   13    -286.9213819300      4.25E-05
   14    -286.9214456690      4.06E-05
   15    -286.9215195011      1.81E-05
   16    -286.9215550426      6.17E-06
   17    -286.9215574542      5.86E-06
   18    -286.9215599628      3.16E-06
   19    -286.9215611580      1.96E-06
   20    -286.9215612501      3.86E-07
   21    -286.9215612632      1.68E-07
   22    -286.9215612649      7.14E-08
   23    -286.9215612653      1.15E-08
   24    -286.9215612653      5.23E-09 Convergence criterion met
 ---------------------------------------
 <S^2> = 0.7700
 SCF time:  CPU 61.87 s  wall 52.26 s
 SCF   energy in the final basis set = -286.92156127
 Total energy in the final basis set = -286.92156127
 
 --------------------------------------------------------------
 
                    Orbital Energies (a.u.)
 --------------------------------------------------------------
 
 Alpha MOs
 -- Occupied --
-14.324 -10.241 -10.230 -10.212 -10.208 -10.202 -10.201  -0.924
 -0.818  -0.781  -0.688  -0.670  -0.550  -0.537  -0.518  -0.448
 -0.438  -0.415  -0.394  -0.386  -0.350  -0.322  -0.297  -0.252
 -0.159
 -- Virtual --
 -0.075   0.076   0.091   0.101   0.118   0.143   0.179   0.183
  0.192   0.217   0.258   0.318   0.357   0.382   0.410   0.485
  0.497   0.524   0.543   0.577   0.581   0.588   0.591   0.610
  0.617   0.622   0.645   0.657   0.703   0.718   0.827   0.840
  0.845   0.851   0.864   0.873   0.885   0.921   0.968   0.976
  1.015   1.024   1.033   1.118   1.163   1.181   1.298   1.301
  1.333   1.368   1.425   1.471   1.483   1.543   1.570   1.588
  1.682   1.730   1.768   1.832   1.854   1.913   1.926   2.013
  2.042   2.052   2.098   2.134   2.146   2.190   2.240   2.394
  2.398   2.412   2.433   2.537   2.581   2.594   2.602   2.729
  2.736   2.810   3.041   3.212   3.254   4.017   4.043   4.096
  4.188   4.241   4.523   4.588
 
 Beta MOs
 -- Occupied --
-14.317 -10.243 -10.230 -10.212 -10.205 -10.198 -10.197  -0.913
 -0.809  -0.774  -0.676  -0.668  -0.545  -0.534  -0.514  -0.446
 -0.436  -0.412  -0.384  -0.372  -0.349  -0.296  -0.273  -0.243
 -- Virtual --
 -0.076  -0.072   0.078   0.116   0.120   0.126   0.143   0.182
  0.186   0.195   0.222   0.260   0.323   0.360   0.385   0.413
  0.488   0.505   0.527   0.547   0.585   0.587   0.593   0.596
  0.614   0.621   0.627   0.649   0.675   0.706   0.729   0.829
  0.843   0.845   0.865   0.875   0.877   0.888   0.924   0.971
  0.980   1.017   1.026   1.036   1.124   1.166   1.186   1.308
  1.310   1.343   1.377   1.426   1.481   1.491   1.556   1.579
  1.597   1.687   1.734   1.781   1.834   1.857   1.916   1.934
  2.020   2.051   2.066   2.106   2.136   2.152   2.202   2.252
  2.404   2.407   2.423   2.435   2.549   2.584   2.604   2.612
  2.733   2.748   2.812   3.043   3.215   3.258   4.028   4.050
  4.103   4.192   4.243   4.528   4.595
 --------------------------------------------------------------
 
          Ground-State Mulliken Net Atomic Charges

     Atom                 Charge (a.u.)    Spin (a.u.)
  --------------------------------------------------------
      1 C                     0.030045      -0.048631
      2 C                    -0.123566       0.262373
      3 C                    -0.121227       0.202482
      4 C                    -0.101700       0.000024
      5 C                     0.045990      -0.154269
      6 N                    -0.418129       0.353047
      7 H                     0.141544       0.000320
      8 H                     0.135350      -0.014396
      9 H                     0.138988      -0.011699
     10 H                     0.142701      -0.002116
     11 H                     0.145419       0.005685
     12 C                    -0.150934       0.429073
     13 H                     0.135520      -0.021894
  --------------------------------------------------------
  Sum of atomic charges =    -0.000000
  Sum of spin   charges =     1.000000

 -----------------------------------------------------------------
                    Cartesian Multipole Moments
 -----------------------------------------------------------------
    Charge (ESU x 10^10)
                 0.0000
    Dipole Moment (Debye)
         X      -1.2569      Y      -1.7470      Z      -0.1131
       Tot       2.1551
    Quadrupole Moments (Debye-Ang)
        XX     -37.1900     XY      -3.2309     YY     -40.2674
        XZ      -2.1420     YZ       1.5341     ZZ     -42.5777
    Octopole Moments (Debye-Ang^2)
       XXX     -11.8736    XXY     -10.7137    XYY     -12.8346
       YYY     -25.8843    XXZ      -0.9276    XYZ      -0.6478
       YYZ      -0.4383    XZZ      -3.4218    YZZ      -4.8954
       ZZZ      -1.0162
    Hexadecapole Moments (Debye-Ang^3)
      XXXX    -361.7326   XXXY     -13.9574   XXYY    -135.7690
      XYYY     -32.2550   YYYY    -388.6397   XXXZ      29.4675
      XXYZ      -9.9788   XYYZ       9.7017   YYYZ     -24.9747
      XXZZ     -80.1118   XYZZ      -5.5406   YYZZ     -80.6682
      XZZZ      44.8047   YZZZ     -37.0147   ZZZZ     -83.5496
 -----------------------------------------------------------------
 Calculating analytic gradient of the SCF energy
 Gradient of SCF Energy
            1           2           3           4           5           6
    1  -0.0056196  -0.0037768   0.0076871  -0.0042903   0.0101700   0.0169641
    2   0.0122300  -0.0049178   0.0030827   0.0051286   0.0158806  -0.0085673
    3   0.0034146  -0.0019814   0.0046096  -0.0072939  -0.0111663  -0.0008651
            7           8           9          10          11          12
    1  -0.0000474  -0.0000151  -0.0005171  -0.0007199   0.0016838  -0.0194302
    2   0.0007237  -0.0002137  -0.0004716   0.0016249   0.0008043  -0.0221473
    3  -0.0003535  -0.0000730   0.0003586   0.0006448   0.0006406   0.0118867
           13
    1  -0.0020885
    2  -0.0031571
    3   0.0001783
 Max gradient component =       2.215E-02
 RMS gradient           =       7.676E-03
 Gradient time:  CPU 7.63 s  wall 4.87 s
 ----------------------------------------------------------------
             Standard Nuclear Orientation (Angstroms)
    I     Atom           X                Y                Z
 ----------------------------------------------------------------
    1      C       1.6283538992     0.3788007380    -0.3187255032
    2      C       1.1750033945    -0.8947020075    -0.4757511497
    3      C      -0.1626865514    -1.4179494291    -0.2650792065
    4      C      -1.2613605276    -0.7217474037     0.1362455782
    5      C      -0.2978903169     1.6039843861     0.3954589553
    6      N       1.0000593806     1.5512185318     0.0635032368
    7      H       2.6803567439     0.5441434175    -0.5386389240
    8      H       1.9147777858    -1.6195020695    -0.8123525432
    9      H      -0.2942448828    -2.4705769921    -0.4835779303
   10      H      -2.2007332359    -1.2684109695     0.2119063366
   11      H      -0.5757528127     2.6404933923     0.6506285614
   12      C      -1.3040347946     0.6660427807     0.5393480970
   13      H      -2.2920180292     1.0003965117     0.8943406681
 ----------------------------------------------------------------
 Nuclear Repulsion Energy =   260.4549600434 hartrees
 There are       25 alpha and       24 beta electrons

                       Distance Matrix (Angstroms)
             C (  1)   C (  2)   C (  3)   C (  4)   C (  5)   N (  6)
   C (  2)  1.360879
   C (  3)  2.537521  1.451752
   C (  4)  3.125485  2.518000  1.361192
   C (  5)  2.391976  3.028507  3.096236  2.530710
   N (  6)  1.383986  2.510762  3.205605  3.207130  1.340766
   H (  7)  1.087387  2.083343  3.465190  4.194649  3.296325  2.049433
   H (  8)  2.078201  1.088991  2.157774  3.434189  4.092136  3.414279
   H (  9)  3.441296  2.154561  1.083085  2.092343  4.168305  4.260207
   H ( 10)  4.201998  3.465275  2.098454  1.089489  3.450385  4.268185
   H ( 11)  3.303481  4.102619  4.180921  3.469771  1.103028  2.003602
   C ( 12)  3.068827  3.100320  2.508546  1.445778  1.383028  2.513725
   H ( 13)  4.150569  4.181960  3.424428  2.145400  2.142369  3.439690
             H (  7)   H (  8)   H (  9)   H ( 10)   H ( 11)   C ( 12)
   H (  8)  2.311362
   H (  9)  4.235543  2.390021
   H ( 10)  5.260581  4.255561  2.358728
   H ( 11)  4.051085  5.146904  5.242968  4.255887
   C ( 12)  4.129442  4.172717  3.450281  2.157174  2.107423
   H ( 13)  5.194816  5.241546  4.235258  2.370978  2.386395  1.101782

 
 Applying Cartesian multipole field
    Component          Value
    ---------          -----
     (2,0,0)        1.00000E-11
     (0,2,0)        2.00000E-11
     (0,0,2)       -3.00000E-11
 Nucleus-field energy     =     0.0000000071 hartrees
 Requested basis set is 6-31G(d)
 There are 40 shells and 117 basis functions
 A cutoff of  1.0D-14 yielded    790 shell pairs
 There are      7062 function pairs
 Smallest overlap matrix eigenvalue = 1.40E-03
 Guess MOs from core Hamiltonian diagonalization
 Mixing HOMO and LUMO in initial guess
 Adding  50% of the LUMO to the HOMO
 An unrestricted hybrid HF-DFT SCF calculation will be
 performed using Pulay DIIS extrapolation
 Exchange:     0.2000 Hartree-Fock + 0.0800 Slater + 0.7200 B88
 Correlation:  0.1900 VWN1RPA + 0.8100 LYP
 Using SG-1 standard quadrature grid
 SCF converges when DIIS error is below 1.0E-08
 using 4 threads for integral computing
 -------------------------------------------------------
 OpenMP Integral computing Module                
 Release: version 1.0, May 2013, Q-Chem Inc. Pittsburgh 
 -------------------------------------------------------
 -------------------------------------------------------
 OpenMP BLAS3 based DFT computing Module                
 Release: version 1.0, May 2013, Q-Chem Inc. Pittsburgh 
 -------------------------------------------------------
 ---------------------------------------
  Cycle       Energy         DIIS Error
 ---------------------------------------
    1    -239.6450635045      1.26E-01
    2    -227.6275295580      1.03E-01
    3    -250.0372359333      1.05E-01
    4    -283.2908131369      4.29E-02
    5    -282.5698861627      4.35E-02
    6    -286.3999727103      1.43E-02
    7    -286.5736618065      1.24E-02
    8    -286.9003330363      3.08E-03
    9    -286.9150985208      1.94E-03
   10    -286.9217327148      2.44E-04
   11    -286.9219868427      1.71E-04
   12    -286.9220789648      7.35E-05
   13    -286.9221471955      3.35E-05
   14    -286.9221743505      1.69E-05
   15    -286.9221827019      8.02E-06
   16    -286.9221854750      3.44E-06
   17    -286.9221861706      1.46E-06
   18    -286.9221863362      1.36E-06
   19    -286.9221864462      7.45E-07
   20    -286.9221864852      2.83E-07
   21    -286.9221864878      6.73E-08
   22    -286.9221864879      1.58E-08
   23    -286.9221864880      8.75E-09 Convergence criterion met
 ---------------------------------------
 <S^2> = 0.7687
 SCF time:  CPU 59.08 s  wall 58.22 s
 SCF   energy in the final basis set = -286.92218649
 Total energy in the final basis set = -286.92218649
 
 --------------------------------------------------------------
 
                    Orbital Energies (a.u.)
 --------------------------------------------------------------
 
 Alpha MOs
 -- Occupied --
-14.324 -10.233 -10.228 -10.214 -10.210 -10.202 -10.202  -0.919
 -0.818  -0.785  -0.694  -0.665  -0.550  -0.536  -0.518  -0.449
 -0.439  -0.414  -0.394  -0.385  -0.346  -0.320  -0.300  -0.253
 -0.165
 -- Virtual --
 -0.069   0.075   0.096   0.100   0.115   0.142   0.180   0.182
  0.192   0.209   0.268   0.319   0.355   0.393   0.409   0.480
  0.496   0.522   0.549   0.575   0.580   0.581   0.589   0.611
  0.618   0.627   0.647   0.658   0.713   0.718   0.826   0.839
  0.845   0.851   0.865   0.869   0.883   0.924   0.964   0.975
  1.021   1.023   1.044   1.125   1.167   1.183   1.299   1.302
  1.332   1.379   1.427   1.471   1.484   1.542   1.575   1.592
  1.679   1.728   1.769   1.827   1.853   1.913   1.922   2.024
  2.041   2.053   2.103   2.128   2.147   2.190   2.244   2.385
  2.397   2.422   2.451   2.543   2.581   2.595   2.607   2.743
  2.746   2.803   3.042   3.229   3.252   4.005   4.044   4.102
  4.201   4.240   4.526   4.588
 
 Beta MOs
 -- Occupied --
-14.316 -10.235 -10.229 -10.213 -10.207 -10.199 -10.197  -0.908
 -0.809  -0.778  -0.682  -0.663  -0.545  -0.533  -0.515  -0.447
 -0.437  -0.411  -0.383  -0.371  -0.345  -0.293  -0.277  -0.243
 -- Virtual --
 -0.080  -0.067   0.077   0.116   0.123   0.124   0.142   0.182
  0.185   0.195   0.214   0.270   0.324   0.358   0.396   0.412
  0.483   0.504   0.526   0.554   0.584   0.585   0.587   0.594
  0.615   0.622   0.632   0.650   0.675   0.715   0.728   0.828
  0.842   0.844   0.865   0.871   0.878   0.886   0.926   0.967
  0.979   1.023   1.026   1.046   1.130   1.171   1.188   1.309
  1.312   1.342   1.388   1.428   1.482   1.492   1.556   1.584
  1.602   1.683   1.733   1.780   1.830   1.856   1.917   1.929
  2.031   2.054   2.063   2.114   2.132   2.149   2.202   2.256
  2.394   2.408   2.433   2.453   2.556   2.584   2.606   2.616
  2.749   2.755   2.805   3.044   3.232   3.255   4.017   4.051
  4.109   4.205   4.241   4.531   4.594
 --------------------------------------------------------------
 
          Ground-State Mulliken Net Atomic Charges

     Atom                 Charge (a.u.)    Spin (a.u.)
  --------------------------------------------------------
      1 C                     0.020793      -0.060071
      2 C                    -0.117948       0.256101
      3 C                    -0.119351       0.181082
      4 C                    -0.106349       0.003503
      5 C                     0.042321      -0.149327
      6 N                    -0.422819       0.391311
      7 H                     0.144513       0.000832
      8 H                     0.135270      -0.014052
      9 H                     0.140586      -0.010522
     10 H                     0.143264      -0.002287
     11 H                     0.140202       0.005550
     12 C                    -0.135685       0.419487
     13 H                     0.135203      -0.021606
  --------------------------------------------------------
  Sum of atomic charges =     0.000000
  Sum of spin   charges =     1.000000

 -----------------------------------------------------------------
                    Cartesian Multipole Moments
 -----------------------------------------------------------------
    Charge (ESU x 10^10)
                -0.0000
    Dipole Moment (Debye)
         X      -1.2294      Y      -1.9342      Z      -0.1383
       Tot       2.2960
    Quadrupole Moments (Debye-Ang)
        XX     -36.9900     XY      -3.1516     YY     -40.5300
        XZ      -2.1541     YZ       1.4877     ZZ     -42.5309
    Octopole Moments (Debye-Ang^2)
       XXX     -11.4101    XXY     -10.7348    XYY     -12.6408
       YYY     -27.1113    XXZ      -1.0447    XYZ      -0.6040
       YYZ      -0.6999    XZZ      -3.4256    YZZ      -5.0478
       ZZZ      -1.0878
    Hexadecapole Moments (Debye-Ang^3)
      XXXX    -358.3618   XXXY     -12.6227   XXYY    -135.5360
      XYYY     -30.8645   YYYY    -390.3863   XXXZ      29.2747
      XXYZ     -10.1410   XYYZ       9.9698   YYYZ     -25.7299
      XXZZ     -79.7077   XYZZ      -5.2660   YYZZ     -80.9017
      XZZZ      44.6827   YZZZ     -37.2856   ZZZZ     -83.4778
 -----------------------------------------------------------------
 Calculating analytic gradient of the SCF energy
 Gradient of SCF Energy
            1           2           3           4           5           6
    1   0.0054671   0.0051992  -0.0040194  -0.0024519  -0.0045679  -0.0053513
    2  -0.0183459   0.0121335  -0.0027540  -0.0056858  -0.0183192   0.0131116
    3  -0.0052744  -0.0000661   0.0045286  -0.0089229  -0.0090938   0.0076070
            7           8           9          10          11          12
    1  -0.0020846   0.0004749   0.0001287  -0.0007679   0.0025603   0.0160904
    2  -0.0000414  -0.0000838   0.0030735  -0.0003196   0.0066207   0.0130870
    3   0.0000914  -0.0003859   0.0014480  -0.0003897   0.0002565   0.0072214
           13
    1  -0.0106775
    2  -0.0024765
    3   0.0029799
 Max gradient component =       1.835E-02
 RMS gradient           =       7.351E-03
 Gradient time:  CPU 7.60 s  wall 4.52 s
 ----------------------------------------------------------------
             Standard Nuclear Orientation (Angstroms)
    I     Atom           X                Y                Z
 ----------------------------------------------------------------
    1      C       1.6230831316     0.3977791832    -0.3129790187
    2      C       1.1697956330    -0.9073233369    -0.4752328627
    3      C      -0.1582788681    -1.4146719251    -0.2689118670
    4      C      -1.2597137636    -0.7146409037     0.1428843729
    5      C      -0.2932530509     1.6234857836     0.4024028661
    6      N       1.0057824712     1.5374074967     0.0550565197
    7      H       2.6830126237     0.5440479380    -0.5382255644
    8      H       1.9144430897    -1.6195389634    -0.8113027267
    9      H      -0.2943710864    -2.4731329550    -0.4854170904
   10      H      -2.2006537864    -1.2672779133     0.2096474394
   11      H      -0.5779415864     2.6343172495     0.6472536677
   12      C      -1.3207674990     0.6507546585     0.5368567030
   13      H      -2.2813073792     1.0009843196     0.8952740260
 ----------------------------------------------------------------
 Nuclear Repulsion Energy =   260.3957091723 hartrees
 There are       25 alpha and       24 beta electrons

                       Distance Matrix (Angstroms)
             C (  1)   C (  2)   C (  3)   C (  4)   C (  5)   N (  6)
   C (  2)  1.391075
   C (  3)  2.541687  1.436577
   C (  4)  3.123429  2.514301  1.368495
   C (  5)  2.384633  3.052171  3.114367  2.543272
   N (  6)  1.347317  2.506954  3.189791  3.195608  1.347424
   H (  7)  1.093426  2.097683  3.461510  4.194437  3.302745  2.037608
   H (  8)  2.098283  1.083833  2.152286  3.435780  4.106606  3.397433
   H (  9)  3.456661  2.143746  1.088915  2.102128  4.191719  4.250523
   H ( 10)  4.203156  3.458115  2.102865  1.093267  3.468695  4.262792
   H ( 11)  3.281564  4.105823  4.172504  3.454667  1.078323  2.015463
   C ( 12)  3.074488  3.107223  2.503324  1.422409  1.421292  2.535965
   H ( 13)  4.131343  4.174930  3.420230  2.133803  2.140745  3.434920
             H (  7)   H (  8)   H (  9)   H ( 10)   H ( 11)   C ( 12)
   H (  8)  2.312224
   H (  9)  4.239220  2.390331
   H ( 10)  5.262168  4.254462  2.360321
   H ( 11)  4.050729  5.141465  5.239218  4.248192
   C ( 12)  4.146980  4.175926  3.443430  2.135443  2.120966
   H ( 13)  5.187310  5.232960  4.233641  2.370992  2.372919  1.083402

 
 Applying Cartesian multipole field
    Component          Value
    ---------          -----
     (2,0,0)        1.00000E-11
     (0,2,0)        2.00000E-11
     (0,0,2)       -3.00000E-11
 Nucleus-field energy     =     0.0000000071 hartrees
 Requested basis set is 6-31G(d)
 There are 40 shells and 117 basis functions
 A cutoff of  1.0D-14 yielded    790 shell pairs
 There are      7062 function pairs
 Smallest overlap matrix eigenvalue = 1.39E-03
 Guess MOs from core Hamiltonian diagonalization
 Mixing HOMO and LUMO in initial guess
 Adding  50% of the LUMO to the HOMO
 An unrestricted hybrid HF-DFT SCF calculation will be
 performed using Pulay DIIS extrapolation
 Exchange:     0.2000 Hartree-Fock + 0.0800 Slater + 0.7200 B88
 Correlation:  0.1900 VWN1RPA + 0.8100 LYP
 Using SG-1 standard quadrature grid
 SCF converges when DIIS error is below 1.0E-08
 using 4 threads for integral computing
 -------------------------------------------------------
 OpenMP Integral computing Module                
 Release: version 1.0, May 2013, Q-Chem Inc. Pittsburgh 
 -------------------------------------------------------
 -------------------------------------------------------
 OpenMP BLAS3 based DFT computing Module                
 Release: version 1.0, May 2013, Q-Chem Inc. Pittsburgh 
 -------------------------------------------------------
 ---------------------------------------
  Cycle       Energy         DIIS Error
 ---------------------------------------
    1    -239.6552051677      1.26E-01
    2    -229.9906424015      1.01E-01
    3    -247.8975332812      1.09E-01
    4    -283.4805070281      4.02E-02
    5    -281.6268344270      4.24E-02
    6    -286.5964547489      1.17E-02
    7    -286.5875749986      1.25E-02
    8    -286.9122097594      2.31E-03
    9    -286.9188961901      1.27E-03
   10    -286.9218833634      2.33E-04
   11    -286.9220211578      1.46E-04
   12    -286.9220814742      6.04E-05
   13    -286.9221137870      3.32E-05
   14    -286.9221316990      1.44E-05
   15    -286.9221386099      7.57E-06
   16    -286.9221414503      5.76E-06
   17    -286.9221428100      2.60E-06
   18    -286.9221431987      1.95E-06
   19    -286.9221434913      1.05E-06
   20    -286.9221435642      3.50E-07
   21    -286.9221435704      6.91E-08
   22    -286.9221435707      2.42E-08
   23    -286.9221435707      1.04E-08
   24    -286.9221435707      5.82E-09 Convergence criterion met
 ---------------------------------------
 <S^2> = 0.7696
 SCF time:  CPU 61.71 s  wall 47.58 s
 SCF   energy in the final basis set = -286.92214357
 Total energy in the final basis set = -286.92214357
 
 --------------------------------------------------------------
 
                    Orbital Energies (a.u.)
 --------------------------------------------------------------
 
 Alpha MOs
 -- Occupied --
-14.322 -10.238 -10.232 -10.212 -10.209 -10.201 -10.200  -0.924
 -0.818  -0.782  -0.688  -0.671  -0.550  -0.538  -0.517  -0.448
 -0.439  -0.416  -0.394  -0.387  -0.352  -0.322  -0.296  -0.249
 -0.158
 -- Virtual --
 -0.075   0.077   0.093   0.100   0.120   0.144   0.181   0.184
  0.193   0.218   0.260   0.320   0.356   0.383   0.413   0.484
  0.497   0.523   0.542   0.577   0.582   0.590   0.590   0.610
  0.617   0.622   0.646   0.657   0.706   0.717   0.832   0.842
  0.847   0.853   0.867   0.877   0.887   0.924   0.968   0.977
  1.018   1.025   1.034   1.116   1.168   1.184   1.298   1.305
  1.333   1.389   1.424   1.475   1.484   1.547   1.569   1.588
  1.677   1.736   1.770   1.832   1.849   1.913   1.931   2.023
  2.042   2.052   2.095   2.132   2.144   2.191   2.243   2.392
  2.396   2.418   2.440   2.539   2.576   2.601   2.606   2.729
  2.741   2.811   3.047   3.230   3.251   4.021   4.045   4.099
  4.187   4.241   4.526   4.590
 
 Beta MOs
 -- Occupied --
-14.315 -10.240 -10.233 -10.211 -10.206 -10.196 -10.195  -0.913
 -0.809  -0.775  -0.676  -0.669  -0.545  -0.535  -0.514  -0.446
 -0.438  -0.412  -0.384  -0.372  -0.350  -0.296  -0.273  -0.240
 -- Virtual --
 -0.075  -0.073   0.079   0.118   0.122   0.126   0.144   0.182
  0.187   0.196   0.223   0.262   0.324   0.359   0.386   0.416
  0.486   0.505   0.526   0.546   0.585   0.588   0.594   0.595
  0.614   0.621   0.627   0.649   0.675   0.708   0.729   0.834
  0.845   0.847   0.868   0.878   0.880   0.890   0.926   0.971
  0.981   1.020   1.027   1.036   1.122   1.171   1.189   1.309
  1.314   1.342   1.398   1.426   1.486   1.492   1.560   1.578
[...]
  --------------------------------------------------------
      1 C                    -0.002002      -0.112159
      2 C                    -0.071534       0.192171
      3 C                    -0.188544      -0.044862
      4 C                    -0.155131      -0.012515
      5 C                     0.042030      -0.130803
      6 N                    -0.367404       0.247627
      7 H                     0.137721       0.006230
      8 H                     0.136193      -0.008533
      9 H                     0.153086       0.018979
     10 H                     0.159402       0.016450
     11 H                     0.159930       0.010889
     12 C                    -0.167062       0.845407
     13 H                     0.163315      -0.028882
  --------------------------------------------------------
  Sum of atomic charges =     0.000000
  Sum of spin   charges =     1.000000

 -----------------------------------------------------------------
                    Cartesian Multipole Moments
 -----------------------------------------------------------------
    Charge (ESU x 10^10)
                -0.0000
    Dipole Moment (Debye)
         X      -1.8623      Y      -1.5172      Z      -0.6242
       Tot       2.4819
    Quadrupole Moments (Debye-Ang)
        XX     -36.6293     XY      -3.1107     YY     -40.9906
        XZ      -1.9839     YZ       1.6962     ZZ     -42.5958
    Octopole Moments (Debye-Ang^2)
       XXX     -11.4087    XXY      -8.2964    XYY     -11.0240
       YYY     -23.6094    XXZ      -1.1489    XYZ      -0.9972
       YYZ      -3.4905    XZZ      -7.4229    YZZ      -5.2120
       ZZZ      -0.8004
    Hexadecapole Moments (Debye-Ang^3)
      XXXX    -328.8657   XXXY     -10.3716   XXYY    -113.3454
      XYYY     -32.4799   YYYY    -302.2720   XXXZ      23.5724
      XXYZ       1.5179   XYYZ       8.6861   YYYZ       4.9753
      XXZZ     -73.7912   XYZZ      -4.4610   YYZZ     -71.8523
      XZZZ      28.4932   YZZZ      -1.5981   ZZZZ    -110.2233
 -----------------------------------------------------------------
 Calculating analytic gradient of the SCF energy
 Gradient of SCF Energy
            1           2           3           4           5           6
    1   0.0008940  -0.0036619   0.0075604  -0.0042027   0.0124859  -0.0082268
    2  -0.0017302  -0.0056642  -0.0193476  -0.0276045   0.0163771   0.0055125
    3   0.0027432  -0.0007801  -0.0181896   0.0000990   0.0140098   0.0007412
            7           8           9          10          11          12
    1  -0.0008418   0.0039326   0.0082389  -0.0060282   0.0084851  -0.0075038
    2  -0.0025947   0.0010122  -0.0107131  -0.0245631   0.0221362   0.0301838
    3   0.0016628  -0.0059170  -0.0168688   0.0119135   0.0069329   0.0065691
           13
    1  -0.0111318
    2   0.0169955
    3  -0.0029161
 Max gradient component =       3.018E-02
 RMS gradient           =       1.206E-02
 Gradient time:  CPU 7.41 s  wall 2.02 s
 ----------------------------------------------------------------
             Standard Nuclear Orientation (Angstroms)
    I     Atom           X                Y                Z
 ----------------------------------------------------------------
    1      C       1.6632012765     0.3812718018    -0.2738965465
    2      C       1.1740394238    -0.8741304144    -0.3209901626
    3      C      -0.2610168762    -1.1242714357    -0.0409595741
    4      C      -1.1904281774     0.0679306647    -0.2965984136
    5      C      -0.3946552466     1.4454995341    -0.0423597159
    6      N       0.8975011526     1.5174615517     0.0016203619
    7      H       2.7205139339     0.5657786930    -0.4345137393
    8      H       1.8238311078    -1.6793007499    -0.6678396682
    9      H      -0.5823295059    -2.1090267411    -0.4349312142
   10      H      -2.1716098952    -0.2206816168    -0.7087582084
   11      H      -0.8765401017     2.4105127978     0.2461239829
   12      C      -1.0156991379    -0.2692281055     1.0855438698
   13      H      -1.8036939332    -0.1317025097     1.8325159906
 ----------------------------------------------------------------
 Nuclear Repulsion Energy =   269.4966645581 hartrees
 There are       25 alpha and       24 beta electrons

                       Distance Matrix (Angstroms)
             C (  1)   C (  2)   C (  3)   C (  4)   C (  5)   N (  6)
   C (  2)  1.348159
   C (  3)  2.454289  1.483366
   C (  4)  2.870871  2.545345  1.533135
   C (  5)  2.328296  2.814093  2.573244  1.611083
   N (  6)  1.397545  2.429046  2.884914  2.559204  1.294906
   H (  7)  1.085242  2.116083  3.449736  3.944913  3.260671  2.102210
   H (  8)  2.104032  1.091253  2.246693  3.503769  3.882948  3.394931
   H (  9)  3.357071  2.150066  1.108241  2.264523  3.581060  3.941052
   H ( 10)  3.906050  3.430850  2.216483  1.102674  2.525434  3.597947
   H ( 11)  3.292192  3.913486  3.599442  2.425029  1.116551  2.001136
   C ( 12)  3.073717  2.671928  1.603014  1.433361  2.144330  2.833282
   H ( 13)  4.088946  3.749091  2.622014  2.224652  2.826325  3.656279
             H (  7)   H (  8)   H (  9)   H ( 10)   H ( 11)   C ( 12)
   H (  8)  2.428757
   H (  9)  4.250101  2.455304
   H ( 10)  4.962520  4.253562  2.483272
   H ( 11)  4.099404  4.985370  4.580026  3.084184
   C ( 12)  4.119114  3.622926  2.425801  2.134949  2.811584
   H ( 13)  5.108264  4.669666  3.246977  2.569310  3.136736  1.094448

 
 Applying Cartesian multipole field
    Component          Value
    ---------          -----
     (2,0,0)        1.00000E-11
     (0,2,0)        2.00000E-11
     (0,0,2)       -3.00000E-11
 Nucleus-field energy     =     0.0000000049 hartrees
 Requested basis set is 6-31G(d)
 There are 40 shells and 117 basis functions
 A cutoff of  1.0D-14 yielded    807 shell pairs
 There are      7079 function pairs
 Smallest overlap matrix eigenvalue = 1.31E-03
 Guess MOs from core Hamiltonian diagonalization
 Mixing HOMO and LUMO in initial guess
 Adding  50% of the LUMO to the HOMO
 An unrestricted hybrid HF-DFT SCF calculation will be
 performed using Pulay DIIS extrapolation
 Exchange:     0.2000 Hartree-Fock + 0.0800 Slater + 0.7200 B88
 Correlation:  0.1900 VWN1RPA + 0.8100 LYP
 Using SG-1 standard quadrature grid
 SCF converges when DIIS error is below 1.0E-08
 using 4 threads for integral computing
 -------------------------------------------------------
 OpenMP Integral computing Module                
 Release: version 1.0, May 2013, Q-Chem Inc. Pittsburgh 
 -------------------------------------------------------
 -------------------------------------------------------
 OpenMP BLAS3 based DFT computing Module                
 Release: version 1.0, May 2013, Q-Chem Inc. Pittsburgh 
 -------------------------------------------------------
 ---------------------------------------
  Cycle       Energy         DIIS Error
 ---------------------------------------
    1    -238.0312756398      1.30E-01
    2    -235.7968654705      9.74E-02
    3    -254.6234659774      1.04E-01
    4    -281.5989020982      5.14E-02
    5    -282.6519598715      4.21E-02
    6    -286.3883666194      1.33E-02
    7    -286.3670594763      1.37E-02
    8    -286.7797206718      2.55E-03
    9    -286.7880994548      1.98E-03
   10    -286.7956400309      3.36E-04
   11    -286.7961224248      1.71E-04
   12    -286.7962847854      5.57E-05
   13    -286.7964083215      3.00E-05
   14    -286.7964272794      1.53E-05
   15    -286.7964326366      7.81E-06
   16    -286.7964347614      1.54E-06
   17    -286.7964352420      7.51E-07
   18    -286.7964354198      4.84E-07
   19    -286.7964354933      2.73E-07
   20    -286.7964355409      1.76E-07
   21    -286.7964355561      6.68E-08
   22    -286.7964355567      1.55E-08
   23    -286.7964355567      3.82E-09 Convergence criterion met
 ---------------------------------------
 <S^2> = 0.7823
 SCF time:  CPU 60.13 s  wall 57.28 s
 SCF   energy in the final basis set = -286.79643556
 Total energy in the final basis set = -286.79643556
 
 --------------------------------------------------------------
 
                    Orbital Energies (a.u.)
 --------------------------------------------------------------
 
 Alpha MOs
 -- Occupied --
-14.327 -10.254 -10.235 -10.218 -10.217 -10.205 -10.194  -0.939
 -0.865  -0.767  -0.651  -0.623  -0.573  -0.529  -0.494  -0.482
 -0.445  -0.417  -0.382  -0.370  -0.333  -0.306  -0.258  -0.239
 -0.188
 -- Virtual --
 -0.031   0.056   0.084   0.102   0.112   0.135   0.151   0.163
  0.186   0.207   0.227   0.248   0.276   0.327   0.391   0.437
  0.501   0.512   0.538   0.548   0.558   0.575   0.597   0.613
  0.632   0.649   0.657   0.669   0.697   0.703   0.756   0.786
  0.815   0.842   0.850   0.854   0.876   0.889   0.918   0.921
  0.953   0.997   1.050   1.093   1.132   1.213   1.258   1.283
  1.408   1.461   1.486   1.509   1.528   1.587   1.618   1.677
  1.684   1.751   1.779   1.820   1.890   1.913   1.941   2.021
  2.065   2.097   2.144   2.187   2.237   2.248   2.293   2.316
  2.410   2.462   2.468   2.525   2.552   2.605   2.616   2.645
  2.717   2.746   2.802   2.995   3.200   3.985   4.086   4.192
  4.263   4.338   4.425   4.594
 
 Beta MOs
 -- Occupied --
-14.322 -10.255 -10.235 -10.218 -10.206 -10.205 -10.191  -0.933
 -0.854  -0.764  -0.648  -0.618  -0.554  -0.524  -0.493  -0.476
 -0.442  -0.414  -0.378  -0.362  -0.323  -0.298  -0.253  -0.217
 -- Virtual --
 -0.075  -0.018   0.068   0.089   0.110   0.116   0.136   0.152
  0.170   0.189   0.209   0.230   0.250   0.285   0.329   0.395
  0.438   0.512   0.517   0.540   0.555   0.573   0.581   0.600
  0.616   0.634   0.653   0.664   0.676   0.703   0.710   0.764
  0.789   0.817   0.846   0.854   0.858   0.881   0.895   0.920
  0.926   0.959   1.003   1.053   1.097   1.135   1.223   1.264
  1.287   1.418   1.465   1.495   1.515   1.529   1.594   1.622
  1.683   1.701   1.758   1.785   1.836   1.906   1.925   1.952
  2.027   2.065   2.100   2.153   2.193   2.248   2.264   2.296
  2.325   2.419   2.466   2.473   2.530   2.559   2.611   2.630
  2.651   2.719   2.751   2.808   2.996   3.202   3.991   4.094
  4.190   4.271   4.351   4.427   4.596
 --------------------------------------------------------------
 
          Ground-State Mulliken Net Atomic Charges

     Atom                 Charge (a.u.)    Spin (a.u.)
  --------------------------------------------------------
      1 C                    -0.002624      -0.108325
      2 C                    -0.071699       0.184627
      3 C                    -0.187867      -0.045398
      4 C                    -0.157209      -0.014584
      5 C                     0.043935      -0.126125
      6 N                    -0.367690       0.238889
      7 H                     0.137762       0.006075
      8 H                     0.136187      -0.008080
      9 H                     0.152992       0.019555
     10 H                     0.159382       0.016892
     11 H                     0.159683       0.010853
     12 C                    -0.166101       0.854897
     13 H                     0.163249      -0.029277
  --------------------------------------------------------
  Sum of atomic charges =    -0.000000
  Sum of spin   charges =     1.000000

 -----------------------------------------------------------------
                    Cartesian Multipole Moments
 -----------------------------------------------------------------
    Charge (ESU x 10^10)
                -0.0000
    Dipole Moment (Debye)
         X      -1.8629      Y      -1.5105      Z      -0.6208
       Tot       2.4774
    Quadrupole Moments (Debye-Ang)
        XX     -36.6422     XY      -3.1174     YY     -41.0036
        XZ      -1.9836     YZ       1.6873     ZZ     -42.5698
    Octopole Moments (Debye-Ang^2)
       XXX     -11.4278    XXY      -8.2793    XYY     -11.0268
       YYY     -23.5851    XXZ      -1.1670    XYZ      -0.9885
       YYZ      -3.5119    XZZ      -7.4450    YZZ      -5.2055
       ZZZ      -0.7781
    Hexadecapole Moments (Debye-Ang^3)
      XXXX    -328.7779   XXXY     -10.4650   XXYY    -113.4166
      XYYY     -32.6021   YYYY    -302.8823   XXXZ      23.5633
      XXYZ       1.5439   XYYZ       8.6737   YYYZ       5.1524
      XXZZ     -73.7401   XYZZ      -4.4818   YYZZ     -71.9260
      XZZZ      28.4511   YZZZ      -1.4131   ZZZZ    -110.0658
 -----------------------------------------------------------------
 Calculating analytic gradient of the SCF energy
 Gradient of SCF Energy
            1           2           3           4           5           6
    1   0.0008421  -0.0037020   0.0076595  -0.0039926   0.0122995  -0.0081395
    2  -0.0016884  -0.0057760  -0.0191591  -0.0282319   0.0164524   0.0053779
    3   0.0026994  -0.0008199  -0.0182190   0.0001958   0.0142191   0.0006945
            7           8           9          10          11          12
    1  -0.0007326   0.0038371   0.0081461  -0.0061078   0.0083366  -0.0074266
    2  -0.0025278   0.0010239  -0.0105259  -0.0243809   0.0217955   0.0306081
    3   0.0016619  -0.0059061  -0.0165804   0.0117446   0.0070952   0.0061831
           13
    1  -0.0110199
    2   0.0170322
    3  -0.0029683
 Max gradient component =       3.061E-02
 RMS gradient           =       1.206E-02
 Gradient time:  CPU 7.84 s  wall 6.79 s
 E1 = -286.7956139, E2 = -286.7964356, Emax = -286.7960238
 Iteration 5, Curvature = -0.0520000
 Curvature, final (in Hartree/Bohr^2) = -0.0145615
 ----------------------------------------------------------------
             Standard Nuclear Orientation (Angstroms)
    I     Atom           X                Y                Z
 ----------------------------------------------------------------
    1      C       1.6633357827     0.3814520106    -0.2741933010
    2      C       1.1741445352    -0.8740877590    -0.3213911022
    3      C      -0.2608156876    -1.1239964683    -0.0412408871
    4      C      -1.1912308224     0.0670134875    -0.2974229549
    5      C      -0.3951618697     1.4440208108    -0.0410220622
    6      N       0.8975776668     1.5169967594     0.0011502637
    7      H       2.7206717786     0.5657302452    -0.4344606561
    8      H       1.8242301369    -1.6792637705    -0.6678095269
    9      H      -0.5816454518    -2.1094520127    -0.4343094976
   10      H      -2.1722750177    -0.2232504313    -0.7087402402
   11      H      -0.8763255342     2.4096885966     0.2469715893
   12      C      -1.0152887138    -0.2664828175     1.0856241086
   13      H      -1.8041023240    -0.1282779353     1.8318229304
 ----------------------------------------------------------------
 Nuclear Repulsion Energy =   269.5108769173 hartrees
 There are       25 alpha and       24 beta electrons
 Requested basis set is 6-31G(d)
 There are 40 shells and 117 basis functions
 Geometry Optimization Parameters
   NAtoms,    NIC,     NZ,  NCons,   NDum,   NFix, NCnnct, MaxDiis
       13     103       0       0       0       0       0       0


** GEOMETRY OPTIMIZATION IN DELOCALIZED INTERNAL COORDINATES **
   Searching for a Minimum

   Optimization Cycle:   1

                       Coordinates (Angstroms)
     ATOM                X               Y               Z
      1  C         1.6633357827    0.3814520106   -0.2741933010
      2  C         1.1741445352   -0.8740877590   -0.3213911022
      3  C        -0.2608156876   -1.1239964683   -0.0412408871
      4  C        -1.1912308224    0.0670134875   -0.2974229549
      5  C        -0.3951618697    1.4440208108   -0.0410220622
      6  N         0.8975776668    1.5169967594    0.0011502637
      7  H         2.7206717786    0.5657302452   -0.4344606561
      8  H         1.8242301369   -1.6792637705   -0.6678095269
      9  H        -0.5816454518   -2.1094520127   -0.4343094976
     10  H        -2.1722750177   -0.2232504313   -0.7087402402
     11  H        -0.8763255342    2.4096885966    0.2469715893
     12  C        -1.0152887138   -0.2664828175    1.0856241086
     13  H        -1.8041023240   -0.1282779353    1.8318229304
   Point Group: c1    Number of degrees of freedom:    33


   Energy is   -286.796435557


 Attempting to Generate Delocalized Internal Coordinates

 33 Hessian modes will be used to form the next step
  Hessian Eigenvalues:
     0.006957    0.010867    0.012172    0.016400    0.018631    0.020268
     0.021120    0.024801    0.026314    0.042674    0.070972    0.091041
     0.100913    0.132306    0.158791    0.159069    0.159979    0.177425
     0.200733    0.225632    0.229499    0.249760    0.319029    0.327697
     0.331065    0.333885    0.334572    0.342869    0.346634    0.353763
     0.436842    0.530609    0.656212

 Minimum Search - Taking Simple RFO Step
 Searching for Lamda that Minimizes Along All modes
 Value Taken    Lamda =  -0.03894049
 Calculated Step too Large.  Step scaled by  0.581552
 Step Taken.  Stepsize is  0.300000

                             Maximum     Tolerance    Cnvgd?
         Gradient           0.040784      0.000300      NO
         Displacement       0.129145      0.001200      NO
         Energy change     *********      0.000001      NO


 New Cartesian Coordinates Obtained by Inverse Iteration

 Displacement from previous Coordinates is:  0.386259
 ----------------------------------------------------------------
             Standard Nuclear Orientation (Angstroms)
    I     Atom           X                Y                Z
 ----------------------------------------------------------------
    1      C       1.6721228338     0.3870308682    -0.2802061979
    2      C       1.1711266804    -0.8636996117    -0.3050175229
    3      C      -0.2688433663    -1.1022679619    -0.0296518096
    4      C      -1.1789109679     0.1015315289    -0.2898536928
    5      C      -0.3895785923     1.4299737547    -0.0598731150
    6      N       0.9043856560     1.5193061529    -0.0193946534
    7      H       2.7289365582     0.5734337175    -0.4486294797
    8      H       1.8054051068    -1.6858640299    -0.6317299114
    9      H      -0.6112385242    -2.0789213698    -0.3951968561
   10      H      -2.1535933938    -0.1199415608    -0.7406978422
   11      H      -0.9166146584     2.3626959161     0.1982766500
   12      C      -1.0022279484    -0.3082203469     1.0936781214
   13      H      -1.7778549049    -0.2349663420     1.8532749734
 ----------------------------------------------------------------
 Nuclear Repulsion Energy =   270.5155415787 hartrees
 There are       25 alpha and       24 beta electrons

































 Eigenvalues after right structure
 -0.0288044 -0.0000000 0.0000000 0.0000000 0.0000000 0.0000000 0.0018084 0.0089131 0.0186137 0.0326145 0.0353231 0.0445537 0.0591853 0.0652809 0.0692627 0.0732933 0.0791987 0.0854511 0.1058259 0.1143554 0.1424434 0.1824543 0.1967617 0.2459128 0.2565010 0.2806645 0.3056263 0.4293269 0.5448007 0.6638644 0.7582730 0.9320138 0.9743257 0.9895403 1.0725759 1.1925901 1.3285027 1.5951028 1.7121704
Archival summary:
1\1\c8-89\JobtypUnspecified\ProcedureUnspecified\6-31G*\166(2)\hpark21\TueMar110:05:112022TueMar110:05:112022\0\\#,JobtypUnspecified,ProcedureUnspecified,6-31G*,\\0,2\N\C,1,1.29768\H,2,1.10199,1,114.288\C,1,1.39266,2,119.202,3,177.684,0\H,4,1.08626,1,115.205,2,166.922,0\C,4,1.34757,1,123.58,2,-14.1916,0\H,6,1.08858,4,119.334,1,172.765,0\C,6,1.48535,4,120.403,1,-0.774241,0\H,8,1.09759,6,112.557,4,161.164,0\C,8,1.53136,6,114.732,4,23.7073,0\H,10,1.0965,8,116.062,6,141.007,0\C,10,1.45371,8,62.9018,6,-111.357,0\H,12,1.08809,10,123.972,8,-146.057,0\\\@

 Total job time:  4585.61s(wall), 5023.43s(cpu) 
 Tue Mar  1 10:05:11 2022

        *************************************************************
        *                                                           *
        *  Thank you very much for using Q-Chem.  Have a nice day.  *
        *                                                           *
        *************************************************************


