
Running Job 1 of 1 qcirc.in
qchem qcirc.in_8456.0 ./qcirc.d/ 1
/home/leeping/opt/qchem/5.0.2-openmp/exe/qcprog.exe_s qcirc.in_8456.0 ./qcirc.d/
Check license passed

                  Welcome to Q-Chem
     A Quantum Leap Into The Future Of Chemistry


 Q-Chem 5.0, Q-Chem, Inc., Pleasanton, CA (2017)

 Yihan Shao,  Zhengting Gan,  E. Epifanovsky,  A. T. B. Gilbert,  M. Wormit,  
 J. Kussmann,  A. W. Lange,  A. Behn,  Jia Deng,  Xintian Feng,  D. Ghosh,  
 M. Goldey,  P. R. Horn,  L. D. Jacobson,  I. Kaliman,  T. Kus,  A. Landau,  
 Jie Liu,  E. I. Proynov,  R. M. Richard,  R. P. Steele,  E. J. Sundstrom,  
 H. L. Woodcock III,  P. M. Zimmerman,  D. Zuev,  B. Albrecht,  E. Alguire,  
 S. A. Baeppler,  D. Barton,  Z. Benda,  Y. A. Bernard,  E. J. Berquist,  
 K. B. Bravaya,  H. Burton,  D. Casanova,  Chun-Min Chang,  Yunqing Chen,  
 A. Chien,  K. D. Closser,  M. P. Coons,  S. Dasgupta,  A. L. Dempwolff,  
 M. Diedenhofen,  Hainam Do,  R. G. Edgar,  Po-Tung Fang,  S. Fatehi,  
 Qingguo Feng,  J. Fosso-Tande,  Qinghui Ge,  A. Ghysels,  G. Gidofalvi,  
 J. Gomes,  J. Gonthier,  A. Gunina,  M. W. D. Hanson-Heine,  
 P. H. P. Harbach,  A. W. Hauser,  J. E. Herr,  E. G. Hohenstein,  
 Z. C. Holden,  Kerwin Hui,  T.-C. Jagau,  Hyunjun Ji,  B. Kaduk,  
 K. Khistyaev,  Jaehoon Kim,  P. Klunzinger,  K. Koh,  D. Kosenkov,  
 L. Koulias,  T. Kowalczyk,  C. M. Krauter,  A. Kunitsa,  Ka Un Lao,  
 A. Laurent,  K. V. Lawler,  Joonho Lee,  D. Lefrancois,  S. Lehtola,  
 D. S. Levine,  Yi-Pei Li,  You-Sheng Lin,  Fenglai Liu,  E. Livshits,  
 A. Luenser,  P. Manohar,  E. Mansoor,  S. F. Manzer,  Shan-Ping Mao,  
 Yuezhi Mao,  N. Mardirossian,  A. V. Marenich,  T. Markovich,  
 L. A. Martinez-Martinez,  S. A. Maurer,  N. J. Mayhall,  S. C. McKenzie,  
 J.-M. Mewes,  A. F. Morrison,  J. W. Mullinax,  K. Nanda,  
 T. S. Nguyen-Beck,  R. Olivares-Amaya,  J. A. Parkhill,  T. M. Perrine,  
 F. Plasser,  S. Prager,  A. Prociuk,  E. Ramos,  D. R. Rehn,  F. Rob,  
 M. Schneider,  N. Sergueev,  S. M. Sharada,  S. Sharma,  D. W. Small,  
 T. Stauch,  T. Stein,  Yu-Chuan Su,  A. J. W. Thom,  A. Tkatchenko,  
 T. Tsuchimochi,  L. Vogt,  O. Vydrov,  M. A. Watson,  J. Wenzel,  
 M. de Wergifosse,  T. A. Wesolowski,  A. White,  J. Witte,  A. Yamada,  
 Jun Yang,  K. Yao,  S. Yeganeh,  S. R. Yost,  Zhi-Qiang You,  A. Zech,  
 Igor Ying Zhang,  Xing Zhang,  Yan Zhao,  Ying Zhu,  B. R. Brooks,  
 G. K. L. Chan,  C. J. Cramer,  M. S. Gordon,  W. J. Hehre,  A. Klamt,  
 M. W. Schmidt,  C. D. Sherrill,  D. G. Truhlar,  A. Aspuru-Guzik,  R. Baer,  
 A. T. Bell,  N. A. Besley,  Jeng-Da Chai,  R. A. DiStasio Jr.,  A. Dreuw,  
 B. D. Dunietz,  T. R. Furlani,  Chao-Ping Hsu,  Yousung Jung,  Jing Kong,  
 D. S. Lambrecht,  WanZhen Liang,  C. Ochsenfeld,  V. A. Rassolov,  
 L. V. Slipchenko,  J. E. Subotnik,  T. Van Voorhis,  J. M. Herbert,  
 A. I. Krylov,  P. M. W. Gill,  M. Head-Gordon

 Contributors to earlier versions of Q-Chem not listed above: 
 R. D. Adamson,  B. Austin,  J. Baker,  G. J. O. Beran,  K. Brandhorst,  
 S. T. Brown,  E. F. C. Byrd,  A. K. Chakraborty,  C.-L. Cheng,  
 Siu Hung Chien,  D. M. Chipman,  D. L. Crittenden,  H. Dachsel,  
 R. J. Doerksen,  A. D. Dutoi,  L. Fusti-Molnar,  W. A. Goddard III,  
 A. Golubeva-Zadorozhnaya,  S. R. Gwaltney,  G. Hawkins,  A. Heyden,  
 S. Hirata,  G. Kedziora,  F. J. Keil,  C. Kelley,  Jihan Kim,  R. A. King,  
 R. Z. Khaliullin,  P. P. Korambath,  W. Kurlancheek,  A. M. Lee,  M. S. Lee,  
 S. V. Levchenko,  Ching Yeh Lin,  D. Liotard,  R. C. Lochan,  I. Lotan,  
 P. E. Maslen,  N. Nair,  D. P. O'Neill,  D. Neuhauser,  E. Neuscamman,  
 C. M. Oana,  R. Olson,  B. Peters,  R. Peverati,  P. A. Pieniazek,  
 Y. M. Rhee,  J. Ritchie,  M. A. Rohrdanz,  E. Rosta,  N. J. Russ,  
 H. F. Schaefer III,  N. E. Schultz,  N. Shenvi,  A. C. Simmonett,  A. Sodt,  
 D. Stuck,  K. S. Thanthiriwatte,  V. Vanovschi,  Tao Wang,  A. Warshel,  
 C. F. Williams,  Q. Wu,  X. Xu,  W. Zhang

 Please cite Q-Chem as follows:
 Y. Shao et al., Mol. Phys. 113, 184-215 (2015)
 DOI: 10.1080/00268976.2014.952696

 Q-Chem 5.0.2 for Intel X86 EM64T Linux

 Parts of Q-Chem use Armadillo 5.200.1 (Boston Tea Smuggler).
 http://arma.sourceforge.net/

 Q-Chem begins on Tue Mar  1 11:16:31 2022  

Host: 
0

     Scratch files written to ./qcirc.d//
 Dec517 15110_ 26548  26544 5633   
Processing $rem in /home/leeping/opt/qchem/5.0.2-openmp/config/preferences.
 MEM_STATIC 2000
 MEM_TOTAL  8000
 SYMMETRY   OFF
 SYM_IGNORE TRUE 

Checking the input file for inconsistencies... 	...done.

--------------------------------------------------------------
User input:
--------------------------------------------------------------
$molecule
0 2
C        1.6714095739    0.4022340436   -0.3317755981
C        1.1704669718   -0.8613224022   -0.3021162924
C       -0.2648978454   -1.0449452337    0.0176595293
C       -1.1913226181    0.1363106710   -0.3556336152
C       -0.4122905654    1.3537113278    0.0009797587
N        0.9051474290    1.5085071675   -0.0475400404
H        2.7203755964    0.5994431778   -0.5350941484
H        1.7844753939   -1.7246853940   -0.5385708430
H       -0.6709013274   -2.0429146369   -0.1506274993
H       -2.0804776141    0.1163024159   -0.9806780761
H       -0.9941606087    2.2344791840    0.2694725072
C       -1.0017788403   -0.2465907358    1.0305851954
H       -1.6529310666   -0.4504388696    1.8683177860
$end

$rem
method                b3lyp
basis                 6-31+g(d,p)
unrestricted          true
symmetry              off
sym_ignore            true
incdft                false
incfock               0
scf_convergence       8
thresh                14
jobtype               rpath
scf_guess             core
scf_guess_mix         5
scf_algorithm         diis
max_scf_cycles        100
rpath_direction       1
rpath_tol_displacement 1000
rpath_max_cycles      50
geom_opt_max_cycles   300
geom_opt_hessian      read
$end

--------------------------------------------------------------
 ----------------------------------------------------------------
             Standard Nuclear Orientation (Angstroms)
    I     Atom           X                Y                Z
 ----------------------------------------------------------------
    1      C       1.6714095739     0.4022340436    -0.3317755981
    2      C       1.1704669718    -0.8613224022    -0.3021162924
    3      C      -0.2648978454    -1.0449452337     0.0176595293
    4      C      -1.1913226181     0.1363106710    -0.3556336152
    5      C      -0.4122905654     1.3537113278     0.0009797587
    6      N       0.9051474290     1.5085071675    -0.0475400404
    7      H       2.7203755964     0.5994431778    -0.5350941484
    8      H       1.7844753939    -1.7246853940    -0.5385708430
    9      H      -0.6709013274    -2.0429146369    -0.1506274993
   10      H      -2.0804776141     0.1163024159    -0.9806780761
   11      H      -0.9941606087     2.2344791840     0.2694725072
   12      C      -1.0017788403    -0.2465907358     1.0305851954
   13      H      -1.6529310666    -0.4504388696     1.8683177860
 ----------------------------------------------------------------
 Nuclear Repulsion Energy =   273.6331616415 hartrees
 There are       25 alpha and       24 beta electrons
 Requested basis set is 6-31+G(d,p)
 There are 53 shells and 163 basis functions

 Total QAlloc Memory Limit   8000 MB
 Mega-Array Size      1956 MB
 MEM_STATIC part      2000 MB
 Starting direction for rxn path = 1

                       Distance Matrix (Angstroms)
             C (  1)   C (  2)   C (  3)   C (  4)   C (  5)   N (  6)
   C (  2)  1.359558
   C (  3)  2.442482  1.481974
   C (  4)  2.875156  2.564408  1.546925
   C (  5)  2.314701  2.739227  2.403239  1.488667
   N (  6)  1.375423  2.398186  2.809515  2.524486  1.327388
   H (  7)  1.086536  2.142506  3.452739  3.943105  3.266480  2.087860
   H (  8)  2.139938  1.085501  2.229657  3.514562  3.820134  3.386423
   H (  9)  3.390868  2.193113  1.090460  2.249864  3.409829  3.886792
   H ( 10)  3.818310  3.461912  2.375185  1.087050  2.297320  3.423878
   H ( 11)  3.289967  3.820512  3.368955  2.198168  1.089226  2.057888
   C ( 12)  3.069680  2.621572  1.485389  1.450566  1.992122  2.806972
   H ( 13)  4.076604  3.584855  2.388516  2.345915  2.877690  3.748566
             H (  7)   H (  8)   H (  9)   H ( 10)   H ( 11)   C ( 12)
   H (  8)  2.505493
   H (  9)  4.316321  2.506121
   H ( 10)  4.845633  4.303784  2.708894
   H ( 11)  4.137445  4.903951  4.310114  2.688798
   C ( 12)  4.125719  3.522815  2.175206  2.310944  2.595199
   H ( 13)  5.099456  4.385497  2.752545  2.936115  3.193598  1.080439

 
 A cutoff of  1.0D-14 yielded   1386 shell pairs
 There are     13458 function pairs
 
 -------------------------------------------------------
 OpenMP Integral Computing Module                       
 Release: version 1.0, May 2013, Q-Chem Inc. Pittsburgh 
 -------------------------------------------------------
 Integral Job Info:
 Integral job number is                      11
 Integral operator is                         1
 short-range coefficients                     0
 long-range coefficients              100000000
 Omega coefficients                           0
 if combine SR and LR in K                    0
 Integral screening is                        0
 Integral computing path is                   2
 max size of driver memory is            800000
 size of driver memory is                593474
 size of scratch memory is              2361544
 max col of scratch BK array               1296
 max len of scratch array in speh3          155
 max len of scratch index in speh4           18
 max int batch size is                      520
 min int batch size is                       52
 fixed nKL is                                52
 max L of basis functions is                  2
 order of int derivative is                   0
 number of shells is                         53
 number of basis is                         163
 number of cartesian basis is               163
 number of contracted shell pairs          1386
 number of primitive shell pairs           4725
 maxK2 (contraction) of shell pair           36
 max number of K2 of shell pair               1
 max number of CS2 of shell pair            128
 max number of PS2 of shell pair            696
 mem total for path MDJ                  535308
 -------------------------------------------------------
 Smallest overlap matrix eigenvalue = 2.38E-05

 Scale SEOQF with 1.000000e-01/1.000000e-01/1.000000e-01

 Standard Electronic Orientation quadrupole field applied
 Nucleus-field energy     =     0.0000000046 hartrees
 Guess MOs from core Hamiltonian diagonalization
 Mixing HOMO and LUMO in initial guess
 Adding  50% of the LUMO to the HOMO
 An unrestricted hybrid HF-DFT SCF calculation will be
 performed using Pulay DIIS extrapolation
 Exchange:     0.2000 Hartree-Fock + 0.0800 Slater + 0.7200 B88
 Correlation:  0.1900 VWN1RPA + 0.8100 LYP
 Using SG-1 standard quadrature grid
 SCF converges when DIIS error is below 1.0E-08
 using 4 threads for integral computing
 -------------------------------------------------------
 OpenMP Integral computing Module                
 Release: version 1.0, May 2013, Q-Chem Inc. Pittsburgh 
 -------------------------------------------------------
 -------------------------------------------------------
 OpenMP BLAS3 based DFT computing Module                
 Release: version 1.0, May 2013, Q-Chem Inc. Pittsburgh 
 -------------------------------------------------------
 ---------------------------------------
  Cycle       Energy         DIIS Error
 ---------------------------------------
    1    -236.4284906750      9.61E-02
    2    -217.7290499731      7.17E-02
    3    -260.0101779038      7.17E-02
    4    -280.5586761592      4.11E-02
    5    -279.0633663350      3.71E-02
    6    -285.8439149919      1.52E-02
    7    -285.8414982398      1.57E-02
    8    -286.7072411048      5.88E-03
    9    -286.8347325198      2.13E-03
   10    -286.8494839563      1.04E-03
   11    -286.8528572044      5.02E-04
   12    -286.8542181686      1.01E-04
   13    -286.8544934409      4.77E-05
   14    -286.8545781080      2.42E-05
   15    -286.8546075655      9.81E-06
   16    -286.8546153436      4.08E-06
   17    -286.8546156913      2.13E-06
   18    -286.8546157841      6.14E-07
   19    -286.8546157946      1.25E-07
   20    -286.8546157956      5.88E-08
   21    -286.8546157958      1.95E-08
   22    -286.8546157959      4.72E-09 Convergence criterion met
 ---------------------------------------
 <S^2> = 0.7899
 SCF time:  CPU 111.59 s  wall 59.86 s
 SCF   energy in the final basis set = -286.85461580
 Total energy in the final basis set = -286.85461580
 
 --------------------------------------------------------------
 
                    Orbital Energies (a.u.)
 --------------------------------------------------------------
 
 Alpha MOs
 -- Occupied --
-14.338 -10.252 -10.231 -10.230 -10.227 -10.216 -10.204  -0.960
 -0.885  -0.777  -0.661  -0.646  -0.591  -0.544  -0.506  -0.491
 -0.461  -0.422  -0.397  -0.382  -0.360  -0.312  -0.272  -0.254
 -0.197
 -- Virtual --
 -0.033   0.000   0.016   0.022   0.025   0.039   0.048   0.058
  0.070   0.075   0.083   0.094   0.097   0.100   0.112   0.118
  0.125   0.130   0.147   0.151   0.157   0.174   0.178   0.182
  0.189   0.194   0.202   0.211   0.230   0.244   0.250   0.255
  0.271   0.274   0.279   0.302   0.306   0.319   0.326   0.339
  0.359   0.376   0.465   0.499   0.624   0.636   0.655   0.668
  0.680   0.713   0.728   0.742   0.743   0.764   0.773   0.801
  0.811   0.849   0.873   0.902   0.929   0.939   0.957   0.998
  1.004   1.010   1.043   1.065   1.093   1.109   1.120   1.187
  1.193   1.219   1.263   1.301   1.364   1.381   1.417   1.477
  1.522   1.597   1.615   1.680   1.685   1.712   1.798   1.832
  1.851   1.913   1.924   1.984   2.028   2.051   2.077   2.098
  2.148   2.171   2.199   2.260   2.276   2.312   2.351   2.397
  2.407   2.446   2.454   2.469   2.504   2.508   2.526   2.540
  2.559   2.607   2.622   2.664   2.678   2.705   2.739   2.827
  2.919   2.947   2.967   3.161   3.192   3.284   3.288   3.422
  3.438   3.590   3.719   4.212   4.301   4.460   4.518   4.593
  4.642   4.736
 
 Beta MOs
 -- Occupied --
-14.331 -10.255 -10.232 -10.226 -10.221 -10.218 -10.200  -0.952
 -0.874  -0.773  -0.653  -0.644  -0.577  -0.540  -0.504  -0.484
 -0.457  -0.418  -0.394  -0.370  -0.348  -0.302  -0.265  -0.234
 -- Virtual --
 -0.098  -0.024   0.001   0.016   0.024   0.027   0.041   0.049
  0.061   0.075   0.078   0.085   0.095   0.097   0.104   0.113
  0.119   0.127   0.133   0.148   0.152   0.158   0.176   0.181
  0.184   0.190   0.198   0.203   0.213   0.232   0.245   0.251
  0.259   0.275   0.278   0.282   0.306   0.307   0.320   0.331
  0.342   0.363   0.380   0.469   0.501   0.627   0.641   0.663
  0.674   0.692   0.718   0.724   0.747   0.751   0.766   0.778
  0.807   0.815   0.852   0.875   0.903   0.930   0.940   0.959
  1.002   1.008   1.018   1.058   1.071   1.098   1.112   1.125
  1.189   1.199   1.222   1.269   1.305   1.373   1.384   1.418
  1.486   1.531   1.602   1.628   1.688   1.690   1.723   1.807
  1.842   1.855   1.920   1.931   1.989   2.030   2.057   2.087
  2.109   2.152   2.179   2.206   2.262   2.281   2.315   2.358
  2.400   2.410   2.452   2.456   2.474   2.508   2.512   2.532
  2.541   2.561   2.613   2.627   2.670   2.685   2.710   2.742
  2.838   2.923   2.952   2.970   3.165   3.194   3.286   3.290
  3.424   3.439   3.596   3.720   4.222   4.307   4.458   4.517
  4.609   4.648   4.739
 --------------------------------------------------------------
 
          Ground-State Mulliken Net Atomic Charges

     Atom                 Charge (a.u.)    Spin (a.u.)
  --------------------------------------------------------
      1 C                    -0.305967      -0.163548
      2 C                     0.280400       0.333758
      3 C                    -0.389381      -0.049508
      4 C                     0.239457       0.022889
      5 C                    -0.362531      -0.181062
      6 N                    -0.101789       0.342434
      7 H                     0.126896       0.008453
      8 H                     0.127824      -0.014556
      9 H                     0.140077       0.017466
     10 H                     0.139004       0.002143
     11 H                     0.143893       0.009387
     12 C                    -0.181231       0.694103
     13 H                     0.143348      -0.021960
  --------------------------------------------------------
  Sum of atomic charges =     0.000000
  Sum of spin   charges =     1.000000

 -----------------------------------------------------------------
                    Cartesian Multipole Moments
 -----------------------------------------------------------------
    Charge (ESU x 10^10)
                 0.0000
    Dipole Moment (Debye)
         X      -2.0478      Y      -2.0996      Z      -0.3628
       Tot       2.9552
    Quadrupole Moments (Debye-Ang)
        XX     -37.9834     XY      -3.3925     YY     -42.9772
        XZ      -1.5469     YZ      -0.1230     ZZ     -43.0570
    Octopole Moments (Debye-Ang^2)
       XXX     -10.9183    XXY      -8.5700    XYY     -13.0040
       YYY     -30.9291    XXZ      -2.6252    XYZ       0.6612
       YYZ      -1.1342    XZZ      -9.6046    YZZ      -7.0949
       ZZZ       2.1024
    Hexadecapole Moments (Debye-Ang^3)
      XXXX    -345.7795   XXXY     -11.5303   XXYY    -114.1747
      XYYY     -34.7869   YYYY    -310.4449   XXXZ      26.0030
      XXYZ      -0.5354   XYYZ       7.9150   YYYZ       6.9148
      XXZZ     -77.1990   XYZZ      -2.2478   YYZZ     -73.9553
      XZZZ      29.2112   YZZZ      -1.3809   ZZZZ    -118.2073
 -----------------------------------------------------------------
 Calculating analytic gradient of the SCF energy
 Gradient of SCF Energy
            1           2           3           4           5           6
    1   0.0000062   0.0000026  -0.0000034   0.0000059   0.0000035   0.0000050
    2   0.0000004   0.0000009   0.0000004   0.0000076   0.0000009  -0.0000017
    3   0.0000327   0.0000069  -0.0000189  -0.0000174   0.0000124   0.0000357
            7           8           9          10          11          12
    1   0.0000102   0.0000041  -0.0000030   0.0000160   0.0000014  -0.0000171
    2   0.0000003   0.0000028   0.0000038   0.0000190  -0.0000011  -0.0000114
    3   0.0000523   0.0000048  -0.0000393  -0.0000319   0.0000152  -0.0000194
           13
    1  -0.0000315
    2  -0.0000219
    3  -0.0000330
 Max gradient component =       5.226E-05
 RMS gradient           =       1.831E-05
 Gradient time:  CPU 17.16 s  wall 4.57 s
rPathMan2.  file_steps = 951
 ------------------------------------------------------------------------
 Reaction path following.  The coordinates are cartesian              
 Step   1 E=    -286.854616 |G|=  0.000114 S_lin= 0.0000 S_tot= 0.0000
 ------------------------------------------------------------------------
 IRC -- neg. force constant =  -0.115696860290504     
 IRC -- max trans/rot const =  -8.080001407077564E-005
 In first_irc_step: ISign =            1
 ----------------------------------------------------------------
             Standard Nuclear Orientation (Angstroms)
    I     Atom           X                Y                Z
 ----------------------------------------------------------------
    1      C       1.6715013462     0.4079396222    -0.3306594546
    2      C       1.1680034406    -0.8634010054    -0.3054863962
    3      C      -0.2641942470    -1.0412503679     0.0124800790
    4      C      -1.1977442771     0.1256559837    -0.3734895781
    5      C      -0.4245181302     1.3242868537     0.0438580817
    6      N       0.9114752699     1.5025379590    -0.0528015782
    7      H       2.7218491478     0.6000545314    -0.5330119475
    8      H       1.7844567832    -1.7254701334    -0.5390655523
    9      H      -0.6718730459    -2.0409124728    -0.1429151074
   10      H      -2.0868697418     0.1115175258    -0.9913861747
   11      H      -0.9966912303     2.2217708656     0.2799482906
   12      C      -0.9886088317    -0.2076301501     1.0205879592
   13      H      -1.6436720053    -0.4350084967     1.8569200416
 ----------------------------------------------------------------
 Nuclear Repulsion Energy =   274.1978378589 hartrees
 There are       25 alpha and       24 beta electrons

                       Distance Matrix (Angstroms)
             C (  1)   C (  2)   C (  3)   C (  4)   C (  5)   N (  6)
   C (  2)  1.367644
   C (  3)  2.442297  1.477810
   C (  4)  2.883416  2.565077  1.543424
   C (  5)  2.318028  2.728396  2.371172  1.486194
   N (  6)  1.361246  2.393183  2.803091  2.539183  1.351294
   H (  7)  1.086777  2.146603  3.450782  3.951419  3.279774  2.079070
   H (  8)  2.146539  1.085236  2.229199  3.513916  3.810563  3.379140
   H (  9)  3.394632  2.190458  1.090722  2.241367  3.379443  3.882158
   H ( 10)  3.827503  3.466284  2.378816  1.082839  2.303465  3.435979
   H ( 11)  3.283607  3.814043  3.354907  2.204790  1.090229  2.066184
   C ( 12)  3.046470  2.615241  1.495320  1.448540  1.902359  2.772573
   H ( 13)  4.060350  3.572820  2.381690  2.342632  2.805111  3.732278
             H (  7)   H (  8)   H (  9)   H ( 10)   H ( 11)   C ( 12)
   H (  8)  2.507350
   H (  9)  4.317897  2.507986
   H ( 10)  4.855157  4.308861  2.712024
   H ( 11)  4.137440  4.897579  4.295904  2.694058
   C ( 12)  4.102868  3.525089  2.194307  2.314319  2.539803
   H ( 13)  5.083395  4.376997  2.742747  2.933933  3.156565  1.086398

 
 Applying Cartesian multipole field
    Component          Value
    ---------          -----
     (2,0,0)        1.00000E-11
     (0,2,0)        2.00000E-11
     (0,0,2)       -3.00000E-11
 Nucleus-field energy     =     0.0000000046 hartrees
 Requested basis set is 6-31+G(d,p)
 There are 53 shells and 163 basis functions
 A cutoff of  1.0D-14 yielded   1386 shell pairs
 There are     13458 function pairs
 Smallest overlap matrix eigenvalue = 2.35E-05
 Guess MOs from core Hamiltonian diagonalization
 Mixing HOMO and LUMO in initial guess
 Adding  50% of the LUMO to the HOMO
 An unrestricted hybrid HF-DFT SCF calculation will be
 performed using Pulay DIIS extrapolation
 Exchange:     0.2000 Hartree-Fock + 0.0800 Slater + 0.7200 B88
 Correlation:  0.1900 VWN1RPA + 0.8100 LYP
 Using SG-1 standard quadrature grid
 SCF converges when DIIS error is below 1.0E-08
 using 4 threads for integral computing
 -------------------------------------------------------
 OpenMP Integral computing Module                
 Release: version 1.0, May 2013, Q-Chem Inc. Pittsburgh 
 -------------------------------------------------------
 -------------------------------------------------------
 OpenMP BLAS3 based DFT computing Module                
 Release: version 1.0, May 2013, Q-Chem Inc. Pittsburgh 
 -------------------------------------------------------
 ---------------------------------------
  Cycle       Energy         DIIS Error
 ---------------------------------------
    1    -236.5822279611      9.62E-02
    2    -217.3963214196      7.17E-02
    3    -259.7839531513      7.21E-02
    4    -280.9423824113      3.98E-02
    5    -279.0478790249      3.76E-02
    6    -285.9038385592      1.51E-02
    7    -285.9195475446      1.53E-02
    8    -286.7168125792      5.65E-03
    9    -286.8351011980      2.33E-03
   10    -286.8524385340      8.72E-04
   11    -286.8547196696      4.71E-04
   12    -286.8558009406      7.34E-05
   13    -286.8559929848      4.54E-05
   14    -286.8560560220      2.34E-05
   15    -286.8560870250      1.01E-05
   16    -286.8560993752      3.51E-06
   17    -286.8561002497      2.20E-06
   18    -286.8561005292      6.28E-07
   19    -286.8561005562      2.23E-07
   20    -286.8561005579      1.03E-07
   21    -286.8561005586      2.63E-08
   22    -286.8561005587      9.92E-09 Convergence criterion met
 ---------------------------------------
 <S^2> = 0.7868
 SCF time:  CPU 111.93 s  wall 58.49 s
 SCF   energy in the final basis set = -286.85610056
 Total energy in the final basis set = -286.85610056
 
 --------------------------------------------------------------
 
                    Orbital Energies (a.u.)
 --------------------------------------------------------------
 
 Alpha MOs
 -- Occupied --
-14.339 -10.253 -10.232 -10.231 -10.226 -10.217 -10.207  -0.961
 -0.886  -0.778  -0.660  -0.646  -0.591  -0.546  -0.504  -0.488
 -0.463  -0.418  -0.398  -0.385  -0.357  -0.313  -0.275  -0.255
 -0.196
 -- Virtual --
 -0.025   0.000   0.016   0.022   0.025   0.040   0.048   0.061
  0.072   0.075   0.084   0.094   0.096   0.100   0.112   0.119
  0.125   0.130   0.148   0.152   0.156   0.174   0.178   0.182
  0.188   0.195   0.202   0.210   0.229   0.243   0.252   0.255
  0.272   0.274   0.280   0.302   0.304   0.317   0.327   0.342
  0.357   0.368   0.464   0.490   0.627   0.636   0.658   0.666
  0.680   0.712   0.729   0.738   0.742   0.764   0.772   0.803
  0.809   0.845   0.870   0.901   0.929   0.940   0.958   0.994
  0.999   1.010   1.045   1.078   1.091   1.112   1.136   1.191
  1.197   1.211   1.270   1.305   1.364   1.381   1.412   1.483
  1.527   1.599   1.636   1.667   1.690   1.712   1.799   1.832
  1.844   1.913   1.938   1.972   2.024   2.064   2.076   2.094
  2.160   2.172   2.205   2.268   2.273   2.317   2.352   2.396
  2.411   2.439   2.451   2.471   2.502   2.512   2.530   2.536
  2.557   2.604   2.620   2.652   2.680   2.717   2.746   2.828
  2.917   2.939   2.964   3.152   3.193   3.276   3.284   3.422
  3.435   3.594   3.712   4.209   4.301   4.470   4.521   4.579
  4.656   4.737
 
 Beta MOs
 -- Occupied --
-14.331 -10.255 -10.232 -10.225 -10.224 -10.219 -10.201  -0.953
 -0.875  -0.771  -0.652  -0.643  -0.579  -0.543  -0.503  -0.482
 -0.459  -0.413  -0.395  -0.371  -0.344  -0.301  -0.266  -0.237
 -- Virtual --
 -0.102  -0.017   0.001   0.017   0.023   0.028   0.041   0.049
  0.063   0.075   0.079   0.088   0.096   0.097   0.104   0.113
  0.120   0.127   0.133   0.149   0.154   0.158   0.176   0.180
  0.183   0.189   0.199   0.203   0.213   0.231   0.245   0.254
  0.261   0.275   0.279   0.282   0.305   0.306   0.319   0.331
  0.343   0.360   0.372   0.469   0.494   0.630   0.641   0.664
  0.673   0.689   0.717   0.724   0.745   0.752   0.768   0.775
  0.805   0.816   0.848   0.872   0.903   0.930   0.941   0.960
  0.998   1.004   1.016   1.063   1.083   1.097   1.115   1.140
  1.191   1.203   1.214   1.276   1.311   1.374   1.384   1.415
  1.494   1.537   1.606   1.647   1.671   1.697   1.721   1.808
  1.839   1.848   1.922   1.943   1.977   2.027   2.073   2.084
  2.105   2.162   2.181   2.209   2.271   2.278   2.319   2.358
  2.399   2.414   2.445   2.452   2.476   2.507   2.516   2.534
  2.539   2.560   2.610   2.628   2.659   2.687   2.723   2.749
  2.837   2.921   2.944   2.967   3.156   3.195   3.279   3.285
  3.424   3.436   3.598   3.714   4.222   4.308   4.469   4.519
  4.592   4.663   4.739
 --------------------------------------------------------------
 
          Ground-State Mulliken Net Atomic Charges

     Atom                 Charge (a.u.)    Spin (a.u.)
  --------------------------------------------------------
      1 C                    -0.320248      -0.194256
      2 C                     0.302202       0.451806
      3 C                    -0.428925      -0.052192
      4 C                     0.277764       0.050566
      5 C                    -0.424962      -0.163855
      6 N                    -0.088694       0.415709
      7 H                     0.126490       0.008647
      8 H                     0.128734      -0.020348
      9 H                     0.138378       0.010560
     10 H                     0.136892      -0.001689
     11 H                     0.144572       0.007137
     12 C                    -0.135582       0.504102
     13 H                     0.143380      -0.016186
  --------------------------------------------------------
  Sum of atomic charges =     0.000000
  Sum of spin   charges =     1.000000

 -----------------------------------------------------------------
                    Cartesian Multipole Moments
 -----------------------------------------------------------------
    Charge (ESU x 10^10)
                 0.0000
    Dipole Moment (Debye)
         X      -1.9544      Y      -2.1806      Z      -0.3591
       Tot       2.9502
    Quadrupole Moments (Debye-Ang)
        XX     -37.8481     XY      -3.4318     YY     -42.9984
        XZ      -1.5245     YZ      -0.1164     ZZ     -43.0995
    Octopole Moments (Debye-Ang^2)
       XXX     -10.7461    XXY      -8.8022    XYY     -13.0095
       YYY     -30.9449    XXZ      -2.6215    XYZ       0.8430
       YYZ      -0.9747    XZZ      -9.3649    YZZ      -7.2785
       ZZZ       1.8548
    Hexadecapole Moments (Debye-Ang^3)
      XXXX    -345.0891   XXXY     -11.5417   XXYY    -113.5276
      XYYY     -34.4952   YYYY    -306.0971   XXXZ      25.7740
      XXYZ      -1.0701   XYYZ       7.9386   YYYZ       5.3114
      XXZZ     -77.0666   XYZZ      -2.0923   YYZZ     -73.2674
      XZZZ      28.8390   YZZZ      -3.2102   ZZZZ    -118.2272
 -----------------------------------------------------------------
 Calculating analytic gradient of the SCF energy
 Gradient of SCF Energy
            1           2           3           4           5           6
    1  -0.0001555   0.0009426   0.0005537   0.0007559   0.0047946  -0.0028398
    2  -0.0024664   0.0011400  -0.0002187   0.0018900   0.0080998   0.0012551
    3  -0.0005943   0.0003642   0.0016127   0.0040748  -0.0112920   0.0019265
            7           8           9          10          11          12
    1  -0.0003150   0.0000002   0.0001144   0.0014216   0.0004299  -0.0035076
    2  -0.0001442   0.0001976  -0.0004898   0.0012052   0.0028650  -0.0098848
    3  -0.0002633   0.0000574  -0.0015251   0.0021499  -0.0018379   0.0028847
           13
    1  -0.0021951
    2  -0.0034487
    3   0.0024425
 Max gradient component =       1.129E-02
 RMS gradient           =       3.304E-03
 Gradient time:  CPU 17.39 s  wall 9.20 s
rPathMan2.  file_steps = 951
 IRC --- Status = 2.  Assess steepest descent step
 IRC --- Previous SD length =   0.150000
 IRC --- Point 1 E =     -286.854616 |G| =   0.000114 G.D1 =   0.000000
 IRC --- Point 2 E =     -286.856101 |G| =   0.020631 G.D1 =  -0.020336
 IRC --- Angle(G1/G2) =    9.69 Deg.  Curvature =  -0.1356
 IRC --- Corrector step required
 IRC --- equal length displacement: B_eq =   0.025344
 IRC --- chosen bisector length  : B_len =   0.015000
 ----------------------------------------------------------------
             Standard Nuclear Orientation (Angstroms)
    I     Atom           X                Y                Z
 ----------------------------------------------------------------
    1      C       1.6718011123     0.4101790789    -0.3299666854
    2      C       1.1673149580    -0.8647668361    -0.3043211756
    3      C      -0.2658715230    -1.0429390823     0.0118731130
    4      C      -1.1956649703     0.1276583192    -0.3722003511
    5      C      -0.4281991602     1.3232574577     0.0441939105
    6      N       0.9141968727     1.5032127415    -0.0540745199
    7      H       2.7216942477     0.6000211685    -0.5336446848
    8      H       1.7844672593    -1.7254556300    -0.5389033956
    9      H      -0.6715583800    -2.0409821913    -0.1440068207
   10      H      -2.0863237733     0.1116050382    -0.9899440651
   11      H      -0.9961724910     2.2227682269     0.2779334121
   12      C      -0.9884162528    -0.2081798562     1.0199360700
   13      H      -1.6441534204    -0.4362877196     1.8581038560
 ----------------------------------------------------------------
 Nuclear Repulsion Energy =   274.1486893051 hartrees
 There are       25 alpha and       24 beta electrons

                       Distance Matrix (Angstroms)
             C (  1)   C (  2)   C (  3)   C (  4)   C (  5)   N (  6)
   C (  2)  1.371368
   C (  3)  2.446014  1.478427
   C (  4)  2.881660  2.563823  1.543479
   C (  5)  2.320282  2.730307  2.371978  1.480488
   N (  6)  1.358235  2.394581  2.807098  2.538675  1.357965
   H (  7)  1.086186  2.148089  3.452891  3.949037  3.283108  2.076726
   H (  8)  2.148787  1.084754  2.230039  3.513262  3.811895  3.378865
   H (  9)  3.396190  2.188753  1.088563  2.242713  3.378276  3.883816
   H ( 10)  3.827299  3.465479  2.377111  1.084038  2.299330  3.437375
   H ( 11)  3.282241  3.814783  3.356929  2.202716  1.089196  2.068212
   C ( 12)  3.046533  2.613798  1.495020  1.446991  1.900320  2.775302
   H ( 13)  4.061984  3.572678  2.382489  2.343808  2.804427  3.736742
             H (  7)   H (  8)   H (  9)   H ( 10)   H ( 11)   C ( 12)
   H (  8)  2.507242
   H (  9)  4.317509  2.507501
   H ( 10)  4.854256  4.308277  2.711236
   H ( 11)  4.136968  4.897719  4.296856  2.693131
   C ( 12)  4.102648  3.524342  2.194157  2.312419  2.541680
   H ( 13)  5.084783  4.377561  2.743981  2.933782  3.160284  1.088370

 
 Applying Cartesian multipole field
    Component          Value
    ---------          -----
     (2,0,0)        1.00000E-11
     (0,2,0)        2.00000E-11
     (0,0,2)       -3.00000E-11
 Nucleus-field energy     =     0.0000000046 hartrees
 Requested basis set is 6-31+G(d,p)
 There are 53 shells and 163 basis functions
 A cutoff of  1.0D-14 yielded   1386 shell pairs
 There are     13458 function pairs
 Smallest overlap matrix eigenvalue = 2.36E-05
 Guess MOs from core Hamiltonian diagonalization
 Mixing HOMO and LUMO in initial guess
 Adding  50% of the LUMO to the HOMO
 An unrestricted hybrid HF-DFT SCF calculation will be
 performed using Pulay DIIS extrapolation
 Exchange:     0.2000 Hartree-Fock + 0.0800 Slater + 0.7200 B88
 Correlation:  0.1900 VWN1RPA + 0.8100 LYP
 Using SG-1 standard quadrature grid
 SCF converges when DIIS error is below 1.0E-08
 using 4 threads for integral computing
 -------------------------------------------------------
 OpenMP Integral computing Module                
 Release: version 1.0, May 2013, Q-Chem Inc. Pittsburgh 
 -------------------------------------------------------
 -------------------------------------------------------
 OpenMP BLAS3 based DFT computing Module                
 Release: version 1.0, May 2013, Q-Chem Inc. Pittsburgh 
 -------------------------------------------------------
 ---------------------------------------
  Cycle       Energy         DIIS Error
 ---------------------------------------
    1    -236.6086812873      9.62E-02
    2    -217.2752740326      7.17E-02
    3    -259.6988542106      7.21E-02
    4    -281.0111758266      3.96E-02
    5    -279.1478595899      3.76E-02
    6    -285.9218687171      1.49E-02
    7    -285.9074671239      1.54E-02
    8    -286.7202390289      5.57E-03
    9    -286.8339505415      2.41E-03
   10    -286.8523452349      8.81E-04
   11    -286.8546880874      4.66E-04
   12    -286.8557592753      7.22E-05
   13    -286.8559525549      4.45E-05
   14    -286.8560204914      2.20E-05
   15    -286.8560485687      1.03E-05
   16    -286.8560611337      3.23E-06
   17    -286.8560621308      2.21E-06
   18    -286.8560623957      6.25E-07
   19    -286.8560624263      2.39E-07
   20    -286.8560624284      1.08E-07
   21    -286.8560624292      2.67E-08
   22    -286.8560624293      1.04E-08
   23    -286.8560624294      3.99E-09 Convergence criterion met
 ---------------------------------------
 <S^2> = 0.7872
 SCF time:  CPU 117.03 s  wall 62.45 s
 SCF   energy in the final basis set = -286.85606243
 Total energy in the final basis set = -286.85606243
 
 --------------------------------------------------------------
 
                    Orbital Energies (a.u.)
 --------------------------------------------------------------
 
 Alpha MOs
 -- Occupied --
-14.339 -10.253 -10.232 -10.231 -10.226 -10.217 -10.207  -0.961
 -0.886  -0.778  -0.661  -0.646  -0.590  -0.546  -0.504  -0.488
 -0.463  -0.419  -0.398  -0.385  -0.357  -0.313  -0.275  -0.255
 -0.196
 -- Virtual --
 -0.026   0.000   0.016   0.022   0.025   0.040   0.048   0.060
  0.071   0.075   0.084   0.094   0.096   0.100   0.112   0.119
  0.125   0.130   0.148   0.152   0.156   0.174   0.178   0.182
  0.188   0.195   0.202   0.210   0.229   0.243   0.252   0.255
  0.271   0.274   0.280   0.303   0.304   0.317   0.328   0.342
  0.356   0.367   0.463   0.489   0.628   0.635   0.657   0.666
  0.680   0.711   0.728   0.738   0.741   0.764   0.772   0.803
  0.808   0.845   0.869   0.901   0.929   0.940   0.959   0.993
  0.999   1.011   1.044   1.078   1.091   1.113   1.137   1.190
  1.197   1.210   1.269   1.305   1.364   1.380   1.412   1.483
  1.528   1.599   1.636   1.667   1.691   1.713   1.799   1.833
  1.842   1.912   1.938   1.972   2.023   2.064   2.075   2.093
  2.161   2.171   2.203   2.269   2.273   2.319   2.352   2.396
  2.411   2.438   2.450   2.471   2.501   2.512   2.529   2.535
  2.557   2.604   2.620   2.651   2.680   2.716   2.745   2.828
  2.915   2.940   2.963   3.152   3.192   3.274   3.285   3.423
  3.436   3.593   3.712   4.207   4.300   4.472   4.520   4.578
  4.655   4.737
 
 Beta MOs
 -- Occupied --
-14.331 -10.255 -10.232 -10.225 -10.224 -10.220 -10.202  -0.953
 -0.875  -0.770  -0.653  -0.643  -0.578  -0.543  -0.503  -0.482
 -0.459  -0.413  -0.395  -0.370  -0.344  -0.301  -0.266  -0.236
 -- Virtual --
 -0.102  -0.018   0.001   0.017   0.023   0.028   0.041   0.049
  0.063   0.076   0.079   0.087   0.096   0.097   0.104   0.113
  0.120   0.127   0.133   0.149   0.153   0.158   0.176   0.180
  0.183   0.189   0.199   0.203   0.213   0.231   0.245   0.254
  0.261   0.275   0.279   0.282   0.305   0.306   0.319   0.331
  0.343   0.360   0.371   0.468   0.493   0.631   0.640   0.664
  0.673   0.688   0.716   0.724   0.744   0.752   0.768   0.775
  0.805   0.816   0.848   0.871   0.903   0.931   0.941   0.960
  0.997   1.004   1.017   1.062   1.083   1.098   1.115   1.141
  1.191   1.203   1.213   1.275   1.311   1.373   1.384   1.415
  1.494   1.537   1.607   1.647   1.672   1.698   1.722   1.809
  1.837   1.848   1.921   1.943   1.977   2.026   2.074   2.083
  2.104   2.163   2.180   2.208   2.272   2.278   2.321   2.358
  2.399   2.414   2.444   2.452   2.477   2.505   2.515   2.532
  2.540   2.559   2.610   2.628   2.658   2.687   2.722   2.748
  2.837   2.920   2.944   2.967   3.156   3.195   3.276   3.287
  3.424   3.437   3.597   3.714   4.220   4.308   4.470   4.518
  4.591   4.663   4.739
 --------------------------------------------------------------
 
          Ground-State Mulliken Net Atomic Charges

     Atom                 Charge (a.u.)    Spin (a.u.)
  --------------------------------------------------------
      1 C                    -0.318140      -0.197722
      2 C                     0.300941       0.465604
      3 C                    -0.430151      -0.053460
      4 C                     0.284596       0.051292
      5 C                    -0.431495      -0.163269
      6 N                    -0.089377       0.417462
      7 H                     0.126420       0.008757
      8 H                     0.128679      -0.020974
      9 H                     0.138521       0.010497
     10 H                     0.136849      -0.001873
     11 H                     0.145102       0.007184
     12 C                    -0.135674       0.492472
     13 H                     0.143730      -0.015969
  --------------------------------------------------------
  Sum of atomic charges =    -0.000000
  Sum of spin   charges =     1.000000

 -----------------------------------------------------------------
                    Cartesian Multipole Moments
 -----------------------------------------------------------------
    Charge (ESU x 10^10)
                 0.0000
    Dipole Moment (Debye)
         X      -1.9544      Y      -2.1872      Z      -0.3616
       Tot       2.9553
    Quadrupole Moments (Debye-Ang)
        XX     -37.8601     XY      -3.4500     YY     -42.9808
        XZ      -1.5365     YZ      -0.1164     ZZ     -43.1163
    Octopole Moments (Debye-Ang^2)
       XXX     -10.7103    XXY      -8.8297    XYY     -13.0907
       YYY     -30.9801    XXZ      -2.6045    XYZ       0.8616
       YYZ      -0.9662    XZZ      -9.3490    YZZ      -7.3032
       ZZZ       1.8309
    Hexadecapole Moments (Debye-Ang^3)
      XXXX    -345.3127   XXXY     -11.6663   XXYY    -113.6218
      XYYY     -34.6888   YYYY    -306.1726   XXXZ      25.7084
      XXYZ      -1.0455   XYYZ       7.9619   YYYZ       5.4062
      XXZZ     -77.0959   XYZZ      -2.0994   YYZZ     -73.3131
      XZZZ      28.7988   YZZZ      -3.1864   ZZZZ    -118.2125
 -----------------------------------------------------------------
 Calculating analytic gradient of the SCF energy
 Gradient of SCF Energy
            1           2           3           4           5           6
    1   0.0008000   0.0007753  -0.0016483   0.0041682  -0.0009065   0.0011378
    2   0.0004306  -0.0009920  -0.0022253   0.0039663   0.0075483   0.0008743
    3  -0.0005260   0.0004524   0.0012832   0.0069400  -0.0125530   0.0016648
            7           8           9          10          11          12
    1  -0.0008117  -0.0001554   0.0009752   0.0007922   0.0009640  -0.0032176
    2  -0.0002377   0.0004744   0.0005708   0.0011706   0.0026208  -0.0102924
    3  -0.0003105   0.0001092  -0.0012453   0.0018634  -0.0020570   0.0007875
           13
    1  -0.0028731
    2  -0.0039088
    3   0.0035913
 Max gradient component =       1.255E-02
 RMS gradient           =       3.539E-03
 Gradient time:  CPU 17.30 s  wall 4.58 s
rPathMan2.  file_steps = 951
 IRC --- Status = 3.  Assess initial corrector step
 IRC --- bisector search: b =  0.000000 E =     -286.856101 G.B =  -0.001743
 IRC --- bisector search: b =  0.015000 E =     -286.856062 G.B =   0.006806
 IRC --- performed gradient/energy interpolation
 IRC --- bisector search:  estimate b(min) =   3.050662553531192E-003
 ----------------------------------------------------------------
             Standard Nuclear Orientation (Angstroms)
    I     Atom           X                Y                Z
 ----------------------------------------------------------------
    1      C       1.6715623118     0.4083950773    -0.3305185609
    2      C       1.1678634187    -0.8636787847    -0.3052494165
    3      C      -0.2645353672    -1.0415938144     0.0123566357
    4      C      -1.1973213929     0.1260632137    -0.3732273783
    5      C      -0.4252667689     1.3240774977     0.0439263818
    6      N       0.9120287827     1.5026751946    -0.0530604659
    7      H       2.7218176446     0.6000477461    -0.5331406320
    8      H       1.7844589138    -1.7254671838    -0.5390325733
    9      H      -0.6718090499    -2.0409266519    -0.1431371373
   10      H      -2.0867587041     0.1115353238    -0.9910928821
   11      H      -0.9965857304     2.2219737065     0.2795385097
   12      C      -0.9885696655    -0.2077419480     1.0204553796
   13      H      -1.6437699143    -0.4352686619     1.8571608028
 ----------------------------------------------------------------
 Nuclear Repulsion Energy =   274.1877510508 hartrees
 There are       25 alpha and       24 beta electrons

                       Distance Matrix (Angstroms)
             C (  1)   C (  2)   C (  3)   C (  4)   C (  5)   N (  6)
   C (  2)  1.368402
   C (  3)  2.443052  1.477936
   C (  4)  2.883059  2.564822  1.543434
   C (  5)  2.318486  2.728785  2.371335  1.485033
   N (  6)  1.360633  2.393466  2.803906  2.539080  1.352650
   H (  7)  1.086657  2.146906  3.451211  3.950935  3.280452  2.078593
   H (  8)  2.146996  1.085138  2.229370  3.513783  3.810833  3.379084
   H (  9)  3.394949  2.190111  1.090283  2.241640  3.379205  3.882495
   H ( 10)  3.827461  3.466120  2.378469  1.083082  2.302624  3.436263
   H ( 11)  3.283329  3.814193  3.355318  2.204368  1.090017  2.066597
   C ( 12)  3.046483  2.614947  1.495258  1.448225  1.901944  2.773128
   H ( 13)  4.060682  3.572791  2.381852  2.342870  2.804972  3.733186
             H (  7)   H (  8)   H (  9)   H ( 10)   H ( 11)   C ( 12)
   H (  8)  2.507328
   H (  9)  4.317818  2.507888
   H ( 10)  4.854974  4.308743  2.711864
   H ( 11)  4.137344  4.897607  4.296098  2.693869
   C ( 12)  4.102823  3.524937  2.194277  2.313932  2.540185
   H ( 13)  5.083677  4.377112  2.742998  2.933902  3.157321  1.086799

 
 Applying Cartesian multipole field
    Component          Value
    ---------          -----
     (2,0,0)        1.00000E-11
     (0,2,0)        2.00000E-11
     (0,0,2)       -3.00000E-11
 Nucleus-field energy     =     0.0000000046 hartrees
 Requested basis set is 6-31+G(d,p)
 There are 53 shells and 163 basis functions
 A cutoff of  1.0D-14 yielded   1386 shell pairs
 There are     13458 function pairs
 Smallest overlap matrix eigenvalue = 2.35E-05
 Guess MOs from core Hamiltonian diagonalization
 Mixing HOMO and LUMO in initial guess
 Adding  50% of the LUMO to the HOMO
 An unrestricted hybrid HF-DFT SCF calculation will be
 performed using Pulay DIIS extrapolation
 Exchange:     0.2000 Hartree-Fock + 0.0800 Slater + 0.7200 B88
 Correlation:  0.1900 VWN1RPA + 0.8100 LYP
 Using SG-1 standard quadrature grid
 SCF converges when DIIS error is below 1.0E-08
 using 4 threads for integral computing
 -------------------------------------------------------
 OpenMP Integral computing Module                
 Release: version 1.0, May 2013, Q-Chem Inc. Pittsburgh 
 -------------------------------------------------------
 -------------------------------------------------------
 OpenMP BLAS3 based DFT computing Module                
 Release: version 1.0, May 2013, Q-Chem Inc. Pittsburgh 
 -------------------------------------------------------
 ---------------------------------------
  Cycle       Energy         DIIS Error
 ---------------------------------------
    1    -236.5877531112      9.62E-02
    2    -217.3720649818      7.17E-02
    3    -259.7665092639      7.21E-02
    4    -280.9572708516      3.98E-02
    5    -279.0669185922      3.76E-02
    6    -285.9073667885      1.51E-02
    7    -285.9170027570      1.53E-02
    8    -286.7174955998      5.64E-03
    9    -286.8348971453      2.34E-03
   10    -286.8524293705      8.74E-04
   11    -286.8547227259      4.70E-04
   12    -286.8558027738      7.31E-05
   13    -286.8559951127      4.52E-05
   14    -286.8560590999      2.32E-05
   15    -286.8560895684      1.02E-05
   16    -286.8561019997      3.45E-06
   17    -286.8561028969      2.21E-06
   18    -286.8561031759      6.28E-07
   19    -286.8561032037      2.26E-07
   20    -286.8561032055      1.04E-07
   21    -286.8561032062      2.64E-08
   22    -286.8561032063      1.00E-08
   23    -286.8561032063      4.22E-09 Convergence criterion met
 ---------------------------------------
 <S^2> = 0.7869
 SCF time:  CPU 116.56 s  wall 74.32 s
 SCF   energy in the final basis set = -286.85610321
 Total energy in the final basis set = -286.85610321
 
 --------------------------------------------------------------
 
                    Orbital Energies (a.u.)
 --------------------------------------------------------------
 
 Alpha MOs
 -- Occupied --
-14.339 -10.253 -10.232 -10.231 -10.226 -10.217 -10.207  -0.961
 -0.886  -0.778  -0.660  -0.646  -0.591  -0.546  -0.504  -0.488
 -0.463  -0.418  -0.398  -0.385  -0.357  -0.313  -0.275  -0.255
 -0.196
 -- Virtual --
 -0.025   0.000   0.016   0.022   0.025   0.040   0.048   0.061
  0.072   0.075   0.084   0.094   0.096   0.100   0.112   0.119
  0.125   0.130   0.148   0.152   0.156   0.174   0.178   0.182
  0.188   0.195   0.202   0.210   0.229   0.243   0.252   0.255
  0.272   0.274   0.280   0.302   0.304   0.317   0.328   0.342
  0.357   0.368   0.464   0.490   0.628   0.636   0.658   0.666
  0.680   0.712   0.728   0.738   0.742   0.764   0.772   0.803
  0.809   0.845   0.870   0.901   0.929   0.940   0.958   0.994
  0.999   1.010   1.045   1.078   1.091   1.112   1.137   1.190
  1.197   1.211   1.269   1.305   1.364   1.381   1.412   1.483
  1.528   1.599   1.636   1.667   1.691   1.712   1.799   1.832
  1.843   1.913   1.938   1.972   2.024   2.064   2.076   2.094
  2.160   2.172   2.205   2.268   2.273   2.318   2.352   2.396
  2.411   2.439   2.451   2.471   2.502   2.512   2.530   2.536
  2.557   2.604   2.620   2.652   2.680   2.717   2.746   2.828
  2.916   2.940   2.964   3.152   3.193   3.276   3.284   3.423
  3.435   3.594   3.712   4.209   4.301   4.471   4.521   4.579
  4.656   4.737
 
 Beta MOs
 -- Occupied --
-14.331 -10.255 -10.232 -10.225 -10.224 -10.219 -10.201  -0.953
 -0.875  -0.771  -0.652  -0.643  -0.579  -0.543  -0.503  -0.482
 -0.459  -0.413  -0.395  -0.371  -0.344  -0.301  -0.266  -0.237
 -- Virtual --
 -0.102  -0.018   0.001   0.017   0.023   0.028   0.041   0.049
  0.063   0.075   0.079   0.088   0.096   0.097   0.104   0.113
  0.120   0.127   0.133   0.149   0.154   0.158   0.176   0.180
  0.183   0.189   0.199   0.203   0.213   0.231   0.245   0.254
  0.261   0.275   0.279   0.282   0.305   0.306   0.319   0.331
  0.343   0.360   0.371   0.469   0.493   0.630   0.641   0.664
  0.673   0.689   0.717   0.724   0.745   0.752   0.768   0.775
  0.805   0.816   0.848   0.872   0.903   0.930   0.941   0.960
  0.998   1.004   1.016   1.063   1.083   1.098   1.115   1.140
  1.191   1.203   1.214   1.276   1.311   1.374   1.384   1.415
  1.494   1.537   1.606   1.647   1.672   1.697   1.721   1.808
  1.839   1.848   1.922   1.943   1.977   2.026   2.073   2.083
  2.105   2.163   2.180   2.209   2.271   2.278   2.320   2.358
  2.399   2.414   2.445   2.452   2.476   2.506   2.516   2.533
  2.539   2.559   2.610   2.628   2.658   2.687   2.722   2.748
  2.837   2.921   2.944   2.967   3.156   3.195   3.278   3.285
  3.424   3.436   3.598   3.714   4.221   4.308   4.469   4.518
  4.592   4.663   4.739
 --------------------------------------------------------------
 
          Ground-State Mulliken Net Atomic Charges

     Atom                 Charge (a.u.)    Spin (a.u.)
  --------------------------------------------------------
      1 C                    -0.319823      -0.194969
      2 C                     0.301944       0.454605
      3 C                    -0.429176      -0.052447
      4 C                     0.279151       0.050713
      5 C                    -0.426288      -0.163749
      6 N                    -0.088833       0.416089
      7 H                     0.126476       0.008669
      8 H                     0.128722      -0.020475
      9 H                     0.138408       0.010547
     10 H                     0.136884      -0.001727
     11 H                     0.144681       0.007146
     12 C                    -0.135598       0.501740
     13 H                     0.143452      -0.016143
  --------------------------------------------------------
  Sum of atomic charges =    -0.000000
  Sum of spin   charges =     1.000000

 -----------------------------------------------------------------
                    Cartesian Multipole Moments
 -----------------------------------------------------------------
    Charge (ESU x 10^10)
                 0.0000
    Dipole Moment (Debye)
         X      -1.9545      Y      -2.1819      Z      -0.3596
       Tot       2.9513
    Quadrupole Moments (Debye-Ang)
        XX     -37.8505     XY      -3.4355     YY     -42.9948
        XZ      -1.5269     YZ      -0.1164     ZZ     -43.1029
    Octopole Moments (Debye-Ang^2)
       XXX     -10.7391    XXY      -8.8078    XYY     -13.0262
       YYY     -30.9523    XXZ      -2.6180    XYZ       0.8467
       YYZ      -0.9729    XZZ      -9.3618    YZZ      -7.2836
       ZZZ       1.8500
    Hexadecapole Moments (Debye-Ang^3)
      XXXX    -345.1344   XXXY     -11.5670   XXYY    -113.5467
      XYYY     -34.5347   YYYY    -306.1125   XXXZ      25.7606
      XXYZ      -1.0651   XYYZ       7.9433   YYYZ       5.3307
      XXZZ     -77.0725   XYZZ      -2.0937   YYZZ     -73.2768
      XZZZ      28.8308   YZZZ      -3.2053   ZZZZ    -118.2241
 -----------------------------------------------------------------
 Calculating analytic gradient of the SCF energy
 Gradient of SCF Energy
            1           2           3           4           5           6
    1   0.0000431   0.0009058   0.0001053   0.0014465   0.0036238  -0.0020163
    2  -0.0018718   0.0006998  -0.0006252   0.0023053   0.0079942   0.0011804
    3  -0.0005808   0.0003826   0.0015459   0.0046548  -0.0115453   0.0018727
            7           8           9          10          11          12
    1  -0.0004160  -0.0000314   0.0002890   0.0012934   0.0005389  -0.0034483
    2  -0.0001634   0.0002540  -0.0002754   0.0011983   0.0028152  -0.0099687
    3  -0.0002730   0.0000678  -0.0014687   0.0020910  -0.0018827   0.0024586
           13
    1  -0.0023338
    2  -0.0035427
    3   0.0026771
 Max gradient component =       1.155E-02
 RMS gradient           =       3.285E-03
 Gradient time:  CPU 17.19 s  wall 7.08 s
rPathMan2.  file_steps = 951
 IRC --- Status = 4.  Checking bisector search.
 IRC --- Bisector search finished successfully.
 ------------------------------------------------------------------------
 Reaction path following.  The coordinates are cartesian              
 Step   2 E=    -286.856103 |G|=  0.020514 S_lin= 0.1498 S_tot= 0.1498
 ------------------------------------------------------------------------
  IRC -- SD step length =   0.150000000000000     
 ----------------------------------------------------------------
             Standard Nuclear Orientation (Angstroms)
    I     Atom           X                Y                Z
 ----------------------------------------------------------------
    1      C       1.6713956736     0.4156378151    -0.3282711661
    2      C       1.1643584384    -0.8663866265    -0.3067300020
    3      C      -0.2649429060    -1.0391746327     0.0063749132
    4      C      -1.2029183780     0.1171434812    -0.3912381466
    5      C      -0.4392881846     1.2931453472     0.0885987600
    6      N       0.9198302696     1.4981076957    -0.0603064567
    7      H       2.7234274523     0.6006799349    -0.5320844231
    8      H       1.7845802502    -1.7264500197    -0.5392950893
    9      H      -0.6729273522    -2.0398609049    -0.1374542104
   10      H      -2.0917633623     0.1068989225    -0.9991836170
   11      H      -0.9986708926     2.2110807393     0.2868232101
   12      C      -0.9752269595    -0.1691700216     1.0109424967
   13      H      -1.6347395703    -0.4215610153     1.8468023944
 ----------------------------------------------------------------
 Nuclear Repulsion Energy =   274.6715178909 hartrees
 There are       25 alpha and       24 beta electrons

                       Distance Matrix (Angstroms)
             C (  1)   C (  2)   C (  3)   C (  4)   C (  5)   N (  6)
   C (  2)  1.378817
   C (  3)  2.444969  1.473361
   C (  4)  2.890458  2.564853  1.541092
   C (  5)  2.323529  2.718740  2.340272  1.482010
   N (  6)  1.344766  2.389844  2.801060  2.553946  1.382529
   H (  7)  1.087452  2.152618  3.451003  3.958514  3.296593  2.069037
   H (  8)  2.155431  1.085574  2.229495  3.513674  3.802341  3.372684
   H (  9)  3.400255  2.186622  1.090189  2.235613  3.348823  3.880728
   H ( 10)  3.834946  3.468300  2.379476  1.076916  2.306756  3.447702
   H ( 11)  3.275853  3.808124  3.343825  2.210443  1.093072  2.075928
   C ( 12)  3.023261  2.607719  1.506840  1.449113  1.810059  2.742012
   H ( 13)  4.045044  3.559568  2.375913  2.342114  2.731410  3.721293
             H (  7)   H (  8)   H (  9)   H ( 10)   H ( 11)   C ( 12)
   H (  8)  2.509386
   H (  9)  4.320117  2.509790
   H ( 10)  4.862928  4.312622  2.713715
   H ( 11)  4.137392  4.892147  4.284463  2.697452
   C ( 12)  4.080888  3.527732  2.215781  2.315918  2.488070
   H ( 13)  5.069290  4.368975  2.735188  2.930491  3.125527  1.094221

 
 Applying Cartesian multipole field
    Component          Value
    ---------          -----
     (2,0,0)        1.00000E-11
     (0,2,0)        2.00000E-11
     (0,0,2)       -3.00000E-11
 Nucleus-field energy     =     0.0000000045 hartrees
 Requested basis set is 6-31+G(d,p)
 There are 53 shells and 163 basis functions
 A cutoff of  1.0D-14 yielded   1387 shell pairs
 There are     13459 function pairs
 Smallest overlap matrix eigenvalue = 2.31E-05
 Guess MOs from core Hamiltonian diagonalization
 Mixing HOMO and LUMO in initial guess
 Adding  50% of the LUMO to the HOMO
 An unrestricted hybrid HF-DFT SCF calculation will be
 performed using Pulay DIIS extrapolation
 Exchange:     0.2000 Hartree-Fock + 0.0800 Slater + 0.7200 B88
 Correlation:  0.1900 VWN1RPA + 0.8100 LYP
 Using SG-1 standard quadrature grid
 SCF converges when DIIS error is below 1.0E-08
 using 4 threads for integral computing
 -------------------------------------------------------
 OpenMP Integral computing Module                
 Release: version 1.0, May 2013, Q-Chem Inc. Pittsburgh 
 -------------------------------------------------------
 -------------------------------------------------------
 OpenMP BLAS3 based DFT computing Module                
 Release: version 1.0, May 2013, Q-Chem Inc. Pittsburgh 
 -------------------------------------------------------
 ---------------------------------------
  Cycle       Energy         DIIS Error
 ---------------------------------------
    1    -237.5246392874      9.56E-02
    2    -216.5802233659      7.10E-02
    3    -259.0046647462      7.39E-02
    4    -281.5230279207      3.73E-02
    5    -280.4609864590      3.68E-02
    6    -285.9981806938      1.47E-02
    7    -286.1052544692      1.40E-02
    8    -286.7488992667      5.02E-03
    9    -286.8237404297      3.25E-03
   10    -286.8574967157      8.02E-04
   11    -286.8596487773      3.54E-04
   12    -286.8603174502      6.30E-05
   13    -286.8604494323      3.80E-05
   14    -286.8604866670      2.04E-05
   15    -286.8605069205      6.44E-06
   16    -286.8605123919      1.60E-06
   17    -286.8605128529      1.26E-06
   18    -286.8605129594      3.35E-07
   19    -286.8605129863      1.98E-07
   20    -286.8605129902      8.02E-08
   21    -286.8605129904      2.08E-08
   22    -286.8605129904      6.62E-09 Convergence criterion met
 ---------------------------------------
 <S^2> = 0.7782
 SCF time:  CPU 111.59 s  wall 56.73 s
 SCF   energy in the final basis set = -286.86051299
 Total energy in the final basis set = -286.86051299
 
 --------------------------------------------------------------
 
                    Orbital Energies (a.u.)
 --------------------------------------------------------------
 
 Alpha MOs
 -- Occupied --
-14.339 -10.252 -10.231 -10.231 -10.225 -10.218 -10.210  -0.963
 -0.887  -0.778  -0.659  -0.645  -0.590  -0.547  -0.502  -0.486
 -0.464  -0.414  -0.399  -0.387  -0.355  -0.312  -0.279  -0.255
 -0.197
 -- Virtual --
 -0.017   0.000   0.016   0.022   0.025   0.041   0.048   0.063
  0.074   0.076   0.084   0.094   0.096   0.103   0.112   0.120
  0.125   0.130   0.148   0.153   0.156   0.175   0.177   0.182
  0.188   0.196   0.202   0.209   0.227   0.242   0.254   0.256
  0.271   0.273   0.281   0.302   0.303   0.314   0.331   0.345
  0.354   0.361   0.461   0.481   0.630   0.637   0.659   0.669
  0.681   0.710   0.728   0.734   0.740   0.762   0.772   0.798
  0.811   0.841   0.866   0.899   0.929   0.939   0.958   0.988
  0.999   1.010   1.046   1.084   1.090   1.117   1.158   1.189
  1.200   1.205   1.280   1.311   1.365   1.384   1.408   1.492
  1.533   1.601   1.649   1.663   1.691   1.718   1.797   1.824
  1.844   1.911   1.947   1.968   2.017   2.063   2.083   2.089
  2.161   2.174   2.205   2.272   2.282   2.324   2.354   2.392
  2.407   2.430   2.448   2.475   2.499   2.509   2.524   2.541
  2.566   2.600   2.615   2.640   2.683   2.721   2.750   2.848
  2.912   2.932   2.960   3.138   3.192   3.269   3.282   3.421
  3.436   3.593   3.704   4.203   4.299   4.478   4.520   4.575
  4.666   4.739
 
 Beta MOs
 -- Occupied --
-14.330 -10.253 -10.231 -10.227 -10.223 -10.221 -10.203  -0.954
 -0.875  -0.769  -0.650  -0.642  -0.581  -0.544  -0.501  -0.479
 -0.460  -0.407  -0.396  -0.372  -0.339  -0.301  -0.268  -0.241
 -- Virtual --
 -0.103  -0.010   0.001   0.017   0.023   0.029   0.042   0.049
  0.064   0.076   0.080   0.090   0.096   0.097   0.107   0.114
  0.121   0.127   0.134   0.150   0.155   0.157   0.176   0.178
  0.183   0.189   0.200   0.203   0.212   0.229   0.244   0.256
  0.262   0.274   0.279   0.283   0.303   0.306   0.317   0.332
  0.347   0.357   0.364   0.467   0.485   0.633   0.643   0.665
  0.676   0.685   0.715   0.724   0.742   0.752   0.766   0.774
  0.800   0.818   0.844   0.868   0.902   0.930   0.939   0.960
  0.991   1.006   1.015   1.066   1.088   1.097   1.119   1.160
  1.190   1.204   1.209   1.286   1.319   1.374   1.388   1.412
  1.504   1.542   1.611   1.654   1.670   1.700   1.725   1.805
  1.827   1.851   1.919   1.952   1.972   2.021   2.072   2.090
  2.101   2.171   2.175   2.210   2.276   2.286   2.326   2.359
  2.396   2.410   2.435   2.450   2.478   2.504   2.512   2.529
  2.545   2.570   2.606   2.624   2.646   2.690   2.727   2.753
  2.855   2.916   2.936   2.964   3.143   3.195   3.271   3.283
  3.422   3.437   3.596   3.706   4.217   4.308   4.478   4.518
  4.583   4.674   4.742
 --------------------------------------------------------------
 
          Ground-State Mulliken Net Atomic Charges

     Atom                 Charge (a.u.)    Spin (a.u.)
  --------------------------------------------------------
      1 C                    -0.326618      -0.214443
      2 C                     0.311229       0.563770
      3 C                    -0.453325      -0.057389
      4 C                     0.291670       0.070386
      5 C                    -0.481134      -0.113241
      6 N                    -0.080154       0.455721
      7 H                     0.125874       0.008130
      8 H                     0.129832      -0.025727
      9 H                     0.136578       0.004990
     10 H                     0.135797      -0.003787
     11 H                     0.143884       0.004009
     12 C                    -0.077258       0.318593
     13 H                     0.143625      -0.011012
  --------------------------------------------------------
  Sum of atomic charges =     0.000000
  Sum of spin   charges =     1.000000

 -----------------------------------------------------------------
                    Cartesian Multipole Moments
 -----------------------------------------------------------------
    Charge (ESU x 10^10)
                -0.0000
    Dipole Moment (Debye)
         X      -1.8529      Y      -2.2777      Z      -0.3332
       Tot       2.9550
    Quadrupole Moments (Debye-Ang)
        XX     -37.7212     XY      -3.4793     YY     -43.0942
        XZ      -1.4826     YZ      -0.0453     ZZ     -43.0698
    Octopole Moments (Debye-Ang^2)
       XXX     -10.6185    XXY      -9.0968    XYY     -12.9977
       YYY     -31.1465    XXZ      -2.6675    XYZ       1.0299
       YYZ      -0.7787    XZZ      -9.1114    YZZ      -7.4185
       ZZZ       1.6746
    Hexadecapole Moments (Debye-Ang^3)
      XXXX    -344.5224   XXXY     -11.6610   XXYY    -113.0955
      XYYY     -34.3238   YYYY    -302.8238   XXXZ      25.6609
      XXYZ      -1.4940   XYYZ       8.0295   YYYZ       4.0769
      XXZZ     -76.9083   XYZZ      -2.0155   YYZZ     -72.6563
      XZZZ      28.5082   YZZZ      -4.6377   ZZZZ    -117.9519
 -----------------------------------------------------------------
 Calculating analytic gradient of the SCF energy
 Gradient of SCF Energy
            1           2           3           4           5           6
    1  -0.0010167   0.0006937   0.0019884   0.0000143   0.0055458  -0.0008173
    2  -0.0022966   0.0011597  -0.0011949   0.0045006   0.0131934   0.0015777
    3  -0.0009585   0.0005780   0.0030777   0.0071809  -0.0212377   0.0026089
            7           8           9          10          11          12
    1  -0.0004586   0.0002526   0.0005799   0.0039624   0.0006595  -0.0063408
    2  -0.0002221   0.0001380  -0.0007085   0.0021786   0.0063731  -0.0176417
    3  -0.0003236  -0.0001355  -0.0026798   0.0046414  -0.0031946   0.0047987
           13
    1  -0.0050632
    2  -0.0070573
    3   0.0056440
 Max gradient component =       2.124E-02
 RMS gradient           =       5.873E-03
 Gradient time:  CPU 16.82 s  wall 4.43 s
rPathMan2.  file_steps = 951
 IRC --- Status = 2.  Assess steepest descent step
 IRC --- Previous SD length =   0.150000
 IRC --- Point 1 E =     -286.856103 |G| =   0.020514 G.D1 =  -0.020514
 IRC --- Point 2 E =     -286.860513 |G| =   0.036679 G.D1 =  -0.036219
 IRC --- Angle(G1/G2) =    9.09 Deg.  Curvature =  -0.1047
 IRC --- Corrector step required
 IRC --- equal length displacement: B_eq =   0.023770
 IRC --- chosen bisector length  : B_len =   0.015000
 ----------------------------------------------------------------
             Standard Nuclear Orientation (Angstroms)
    I     Atom           X                Y                Z
 ----------------------------------------------------------------
    1      C       1.6728891776     0.4142035739    -0.3283804738
    2      C       1.1656229467    -0.8662615398    -0.3065849668
    3      C      -0.2674010611    -1.0390694575     0.0059467074
    4      C      -1.1994060219     0.1166260684    -0.3896790313
    5      C      -0.4380134824     1.2946476867     0.0894111286
    6      N       0.9160234193     1.4988355002    -0.0592967632
    7      H       2.7230378305     0.6005843234    -0.5323089838
    8      H       1.7841587990    -1.7260182819    -0.5389444375
    9      H      -0.6730136322    -2.0395659100    -0.1373808568
   10      H      -2.0940163106     0.1068495685    -1.0004163805
   11      H      -0.9982557408     2.2092514232     0.2865888507
   12      C      -0.9749877309    -0.1694187082     1.0103923752
   13      H      -1.6335237146    -0.4205735316     1.8456314949
 ----------------------------------------------------------------
 Nuclear Repulsion Energy =   274.7441568538 hartrees
 There are       25 alpha and       24 beta electrons

                       Distance Matrix (Angstroms)
             C (  1)   C (  2)   C (  3)   C (  4)   C (  5)   N (  6)
   C (  2)  1.377456
   C (  3)  2.447142  1.476854
   C (  4)  2.888320  2.562486  1.536485
   C (  5)  2.325004  2.719925  2.341433  1.482222
   N (  6)  1.349696  2.391053  2.801020  2.548470  1.377397
   H (  7)  1.085881  2.151309  3.452667  3.954760  3.295528  2.072655
   H (  8)  2.153432  1.084324  2.231077  3.509883  3.802276  3.373930
   H (  9)  3.400107  2.187660  1.089063  2.233810  3.350170  3.879616
   H ( 10)  3.838708  3.471829  2.379584  1.083247  2.311046  3.447270
   H ( 11)  3.276492  3.806968  3.341332  2.208366  1.090528  2.070940
   C ( 12)  3.023934  2.608109  1.505285  1.446508  1.811088  2.739202
   H ( 13)  4.044199  3.558918  2.373451  2.339584  2.730483  3.716594
             H (  7)   H (  8)   H (  9)   H ( 10)   H ( 11)   C ( 12)
   H (  8)  2.508908
   H (  9)  4.319667  2.509435
   H ( 10)  4.864865  4.314233  2.714991
   H ( 11)  4.135992  4.889753  4.282287  2.697623
   C ( 12)  4.080224  3.526519  2.214954  2.317736  2.486464
   H ( 13)  5.067247  4.367029  2.734237  2.930907  3.122524  1.092874

 
 Applying Cartesian multipole field
    Component          Value
    ---------          -----
     (2,0,0)        1.00000E-11
     (0,2,0)        2.00000E-11
     (0,0,2)       -3.00000E-11
 Nucleus-field energy     =     0.0000000045 hartrees
 Requested basis set is 6-31+G(d,p)
 There are 53 shells and 163 basis functions
 A cutoff of  1.0D-14 yielded   1387 shell pairs
 There are     13459 function pairs
 Smallest overlap matrix eigenvalue = 2.31E-05
 Guess MOs from core Hamiltonian diagonalization
 Mixing HOMO and LUMO in initial guess
 Adding  50% of the LUMO to the HOMO
 An unrestricted hybrid HF-DFT SCF calculation will be
 performed using Pulay DIIS extrapolation
 Exchange:     0.2000 Hartree-Fock + 0.0800 Slater + 0.7200 B88
 Correlation:  0.1900 VWN1RPA + 0.8100 LYP
 Using SG-1 standard quadrature grid
 SCF converges when DIIS error is below 1.0E-08
 using 4 threads for integral computing
 -------------------------------------------------------
 OpenMP Integral computing Module                
 Release: version 1.0, May 2013, Q-Chem Inc. Pittsburgh 
 -------------------------------------------------------
 -------------------------------------------------------
 OpenMP BLAS3 based DFT computing Module                
 Release: version 1.0, May 2013, Q-Chem Inc. Pittsburgh 
 -------------------------------------------------------
 ---------------------------------------
  Cycle       Energy         DIIS Error
 ---------------------------------------
    1    -237.4592235786      9.56E-02
    2    -216.4849593228      7.10E-02
    3    -258.4216681960      7.49E-02
    4    -281.7229643637      3.64E-02
    5    -281.5088719505      3.33E-02
    6    -286.1296645672      1.34E-02
    7    -286.1732252533      1.34E-02
    8    -286.7869947632      4.11E-03
    9    -286.8366786389      2.63E-03
   10    -286.8580172931      7.42E-04
   11    -286.8598626056      2.75E-04
   12    -286.8603299107      4.62E-05
   13    -286.8604300027      2.85E-05
   14    -286.8604619165      1.34E-05
   15    -286.8604722428      5.52E-06
   16    -286.8604748225      1.18E-06
   17    -286.8604751881      8.77E-07
   18    -286.8604752422      3.57E-07
   19    -286.8604752596      1.61E-07
   20    -286.8604752616      8.21E-08
   21    -286.8604752618      1.63E-08
   22    -286.8604752618      5.16E-09 Convergence criterion met
 ---------------------------------------
 <S^2> = 0.7785
 SCF time:  CPU 111.67 s  wall 75.75 s
 SCF   energy in the final basis set = -286.86047526
 Total energy in the final basis set = -286.86047526
 
 --------------------------------------------------------------
 
                    Orbital Energies (a.u.)
 --------------------------------------------------------------
 
 Alpha MOs
 -- Occupied --
-14.339 -10.251 -10.231 -10.231 -10.225 -10.218 -10.210  -0.963
 -0.887  -0.779  -0.659  -0.645  -0.590  -0.547  -0.502  -0.486
 -0.465  -0.414  -0.399  -0.388  -0.355  -0.312  -0.279  -0.255
 -0.197
 -- Virtual --
 -0.017  -0.000   0.016   0.022   0.025   0.041   0.048   0.063
  0.074   0.076   0.084   0.094   0.096   0.103   0.112   0.120
  0.125   0.130   0.148   0.154   0.156   0.175   0.177   0.182
  0.188   0.196   0.202   0.209   0.227   0.242   0.254   0.256
  0.271   0.273   0.281   0.302   0.303   0.313   0.331   0.345
  0.354   0.362   0.462   0.481   0.629   0.637   0.659   0.669
  0.680   0.710   0.728   0.734   0.741   0.763   0.772   0.798
  0.811   0.840   0.866   0.900   0.930   0.939   0.959   0.988
  0.998   1.010   1.046   1.084   1.090   1.116   1.158   1.189
  1.200   1.205   1.279   1.311   1.365   1.384   1.407   1.492
  1.535   1.602   1.648   1.663   1.692   1.718   1.798   1.825
  1.846   1.912   1.948   1.967   2.018   2.065   2.080   2.090
  2.162   2.172   2.208   2.273   2.283   2.325   2.354   2.393
  2.409   2.430   2.447   2.473   2.501   2.508   2.524   2.542
  2.566   2.603   2.616   2.641   2.684   2.722   2.750   2.847
  2.912   2.932   2.961   3.141   3.192   3.265   3.284   3.425
  3.439   3.589   3.705   4.204   4.299   4.478   4.521   4.575
  4.666   4.739
 
 Beta MOs
 -- Occupied --
-14.330 -10.253 -10.231 -10.226 -10.224 -10.221 -10.203  -0.955
 -0.875  -0.769  -0.650  -0.642  -0.580  -0.544  -0.501  -0.479
 -0.460  -0.407  -0.396  -0.372  -0.339  -0.301  -0.268  -0.241
 -- Virtual --
 -0.103  -0.010   0.000   0.017   0.023   0.029   0.042   0.049
  0.064   0.076   0.080   0.090   0.096   0.097   0.107   0.114
  0.121   0.127   0.135   0.150   0.155   0.157   0.176   0.178
  0.183   0.189   0.200   0.203   0.213   0.229   0.244   0.256
  0.262   0.275   0.279   0.283   0.304   0.305   0.316   0.332
  0.347   0.358   0.365   0.468   0.484   0.632   0.642   0.665
  0.675   0.685   0.715   0.724   0.742   0.753   0.767   0.774
  0.801   0.818   0.843   0.868   0.902   0.931   0.940   0.960
  0.991   1.005   1.015   1.066   1.088   1.098   1.118   1.160
  1.190   1.204   1.209   1.286   1.319   1.374   1.387   1.412
  1.504   1.544   1.611   1.654   1.670   1.701   1.725   1.806
  1.828   1.852   1.920   1.953   1.971   2.022   2.074   2.087
  2.102   2.171   2.175   2.212   2.277   2.287   2.327   2.360
  2.397   2.412   2.435   2.449   2.477   2.506   2.512   2.529
  2.546   2.569   2.608   2.625   2.647   2.691   2.728   2.752
  2.854   2.916   2.936   2.964   3.145   3.195   3.267   3.285
  3.426   3.439   3.592   3.708   4.218   4.308   4.478   4.519
  4.583   4.674   4.742
 --------------------------------------------------------------
 
          Ground-State Mulliken Net Atomic Charges

     Atom                 Charge (a.u.)    Spin (a.u.)
  --------------------------------------------------------
      1 C                    -0.327931      -0.214373
      2 C                     0.309094       0.554531
      3 C                    -0.452828      -0.056105
      4 C                     0.295294       0.068247
      5 C                    -0.479829      -0.115528
      6 N                    -0.080928       0.459465
      7 H                     0.126223       0.008120
      8 H                     0.129498      -0.025270
      9 H                     0.136649       0.004999
     10 H                     0.136448      -0.003549
     11 H                     0.143899       0.004071
     12 C                    -0.079020       0.326496
     13 H                     0.143432      -0.011103
  --------------------------------------------------------
  Sum of atomic charges =     0.000000
  Sum of spin   charges =     1.000000

 -----------------------------------------------------------------
                    Cartesian Multipole Moments
 -----------------------------------------------------------------
    Charge (ESU x 10^10)
                -0.0000
    Dipole Moment (Debye)
         X      -1.8509      Y      -2.2752      Z      -0.3292
       Tot       2.9514
    Quadrupole Moments (Debye-Ang)
        XX     -37.7211     XY      -3.4704     YY     -43.0718
        XZ      -1.4950     YZ      -0.0392     ZZ     -43.0720
    Octopole Moments (Debye-Ang^2)
       XXX     -10.5456    XXY      -9.0595    XYY     -13.0021
       YYY     -31.1794    XXZ      -2.6784    XYZ       1.0122
       YYZ      -0.7923    XZZ      -9.1123    YZZ      -7.4079
       ZZZ       1.6739
    Hexadecapole Moments (Debye-Ang^3)
      XXXX    -344.2117   XXXY     -11.5387   XXYY    -113.0242
      XYYY     -34.2692   YYYY    -302.7424   XXXZ      25.5502
      XXYZ      -1.5158   XYYZ       8.0066   YYYZ       4.0093
      XXZZ     -76.9151   XYZZ      -2.0130   YYZZ     -72.6200
      XZZZ      28.4799   YZZZ      -4.6517   ZZZZ    -117.8998
 -----------------------------------------------------------------
 Calculating analytic gradient of the SCF energy
 Gradient of SCF Energy
            1           2           3           4           5           6
    1   0.0021445   0.0023377  -0.0016875   0.0057192   0.0061944  -0.0054447
    2  -0.0040286   0.0007374  -0.0013681   0.0036322   0.0147674   0.0030507
    3  -0.0016851   0.0001334   0.0032315   0.0112503  -0.0200468   0.0031446
            7           8           9          10          11          12
    1  -0.0012589  -0.0002662   0.0010612   0.0004044   0.0016202  -0.0063206
    2  -0.0005542   0.0008422  -0.0001866   0.0019773   0.0049990  -0.0170116
    3  -0.0001809   0.0000170  -0.0025237   0.0022264  -0.0035909   0.0030320
           13
    1  -0.0045036
    2  -0.0068572
    3   0.0049921
 Max gradient component =       2.005E-02
 RMS gradient           =       6.024E-03
 Gradient time:  CPU 17.22 s  wall 4.46 s
rPathMan2.  file_steps = 951
 IRC --- Status = 3.  Assess initial corrector step
 IRC --- bisector search: b =  0.000000 E =     -286.860513 G.B =  -0.002906
 IRC --- bisector search: b =  0.015000 E =     -286.860475 G.B =   0.007915
 IRC --- performed gradient/energy interpolation
 IRC --- bisector search:  estimate b(min) =   4.020477407900853E-003
 ----------------------------------------------------------------
             Standard Nuclear Orientation (Angstroms)
    I     Atom           X                Y                Z
 ----------------------------------------------------------------
    1      C       1.6717959802     0.4152533928    -0.3283004640
    2      C       1.1646973669    -0.8663530993    -0.3066911279
    3      C      -0.2656017698    -1.0391464424     0.0062601404
    4      C      -1.2019769548     0.1170047981    -0.3908202541
    5      C      -0.4389465239     1.2935480220     0.0888165006
    6      N       0.9188099126     1.4983027705    -0.0600358267
    7      H       2.7233230212     0.6006543080    -0.5321446125
    8      H       1.7844672878    -1.7263343002    -0.5392011034
    9      H      -0.6729504780    -2.0397818368    -0.1374345493
   10      H      -2.0923672242     0.1068856940    -0.9995140369
   11      H      -0.9985596187     2.2105904243     0.2867603943
   12      C      -0.9751628386    -0.1692366776     1.0107950467
   13      H      -1.6344136823    -0.4212963382     1.8464885561
 ----------------------------------------------------------------
 Nuclear Repulsion Energy =   274.6908584692 hartrees
 There are       25 alpha and       24 beta electrons

                       Distance Matrix (Angstroms)
             C (  1)   C (  2)   C (  3)   C (  4)   C (  5)   N (  6)
   C (  2)  1.378452
   C (  3)  2.445551  1.474297
   C (  4)  2.889884  2.564219  1.539856
   C (  5)  2.323924  2.719057  2.340583  1.482066
   N (  6)  1.346087  2.390167  2.801049  2.552477  1.381153
   H (  7)  1.087030  2.152267  3.451449  3.957508  3.296307  2.070007
   H (  8)  2.154895  1.085239  2.229919  3.512658  3.802324  3.373017
   H (  9)  3.400215  2.186900  1.089886  2.235129  3.349184  3.880430
   H ( 10)  3.835954  3.469246  2.379505  1.078613  2.307906  3.447586
   H ( 11)  3.276024  3.807814  3.343157  2.209886  1.092390  2.074591
   C ( 12)  3.023441  2.607823  1.506423  1.448414  1.810335  2.741259
   H ( 13)  4.044817  3.559393  2.375253  2.341436  2.731162  3.720033
             H (  7)   H (  8)   H (  9)   H ( 10)   H ( 11)   C ( 12)
   H (  8)  2.509258
   H (  9)  4.319997  2.509695
   H ( 10)  4.863447  4.313053  2.714057
   H ( 11)  4.137017  4.891506  4.283880  2.697497
   C ( 12)  4.080710  3.527407  2.215559  2.316405  2.487640
   H ( 13)  5.068742  4.368454  2.734933  2.930602  3.124722  1.093860

 
 Applying Cartesian multipole field
    Component          Value
    ---------          -----
     (2,0,0)        1.00000E-11
     (0,2,0)        2.00000E-11
     (0,0,2)       -3.00000E-11
 Nucleus-field energy     =     0.0000000045 hartrees
 Requested basis set is 6-31+G(d,p)
 There are 53 shells and 163 basis functions
 A cutoff of  1.0D-14 yielded   1387 shell pairs
 There are     13459 function pairs
 Smallest overlap matrix eigenvalue = 2.31E-05
 Guess MOs from core Hamiltonian diagonalization
 Mixing HOMO and LUMO in initial guess
 Adding  50% of the LUMO to the HOMO
 An unrestricted hybrid HF-DFT SCF calculation will be
 performed using Pulay DIIS extrapolation
 Exchange:     0.2000 Hartree-Fock + 0.0800 Slater + 0.7200 B88
 Correlation:  0.1900 VWN1RPA + 0.8100 LYP
 Using SG-1 standard quadrature grid
 SCF converges when DIIS error is below 1.0E-08
 using 4 threads for integral computing
[...]
 -0.879  -0.776  -0.677  -0.651  -0.579  -0.540  -0.500  -0.492
 -0.460  -0.434  -0.385  -0.384  -0.370  -0.310  -0.267  -0.240
 -0.230
 -- Virtual --
 -0.049  -0.001   0.015   0.023   0.026   0.032   0.047   0.050
  0.068   0.074   0.075   0.092   0.099   0.112   0.116   0.120
  0.124   0.131   0.138   0.147   0.168   0.176   0.180   0.184
  0.192   0.197   0.203   0.212   0.226   0.234   0.252   0.260
  0.269   0.283   0.288   0.302   0.310   0.321   0.330   0.337
  0.352   0.384   0.463   0.507   0.591   0.629   0.649   0.665
  0.681   0.706   0.713   0.723   0.738   0.751   0.771   0.777
  0.826   0.836   0.883   0.894   0.929   0.934   0.949   0.989
  0.993   1.016   1.059   1.086   1.098   1.107   1.137   1.151
  1.182   1.204   1.240   1.312   1.349   1.368   1.447   1.476
  1.504   1.525   1.555   1.643   1.686   1.755   1.798   1.808
  1.865   1.880   1.905   1.959   1.986   2.004   2.083   2.092
  2.123   2.147   2.190   2.229   2.270   2.290   2.369   2.390
  2.404   2.418   2.435   2.452   2.476   2.503   2.521   2.529
  2.559   2.597   2.625   2.667   2.703   2.715   2.739   2.811
  2.868   2.937   3.008   3.182   3.216   3.279   3.293   3.373
  3.437   3.557   3.710   4.197   4.298   4.341   4.478   4.500
  4.577   4.735
 
 Beta MOs
 -- Occupied --
-14.337 -10.240 -10.235 -10.231 -10.217 -10.216 -10.205  -0.944
 -0.869  -0.774  -0.669  -0.649  -0.565  -0.535  -0.497  -0.483
 -0.456  -0.431  -0.384  -0.381  -0.362  -0.301  -0.261  -0.237
 -- Virtual --
 -0.091  -0.046   0.001   0.015   0.025   0.027   0.033   0.048
  0.050   0.072   0.074   0.077   0.094   0.099   0.113   0.116
  0.122   0.125   0.131   0.138   0.148   0.169   0.177   0.183
  0.186   0.192   0.202   0.206   0.214   0.229   0.235   0.256
  0.260   0.270   0.285   0.291   0.303   0.312   0.325   0.336
  0.342   0.359   0.391   0.465   0.509   0.597   0.633   0.663
  0.675   0.693   0.708   0.715   0.727   0.743   0.752   0.780
  0.790   0.832   0.841   0.885   0.896   0.930   0.937   0.951
  0.993   0.997   1.016   1.068   1.088   1.099   1.111   1.143
  1.153   1.186   1.207   1.243   1.316   1.351   1.372   1.455
  1.480   1.507   1.529   1.561   1.649   1.692   1.772   1.802
  1.819   1.881   1.889   1.910   1.967   1.990   2.009   2.093
  2.099   2.124   2.165   2.196   2.233   2.274   2.295   2.371
  2.394   2.406   2.421   2.438   2.456   2.480   2.506   2.525
  2.534   2.563   2.611   2.628   2.669   2.711   2.722   2.745
  2.818   2.875   2.942   3.012   3.183   3.217   3.284   3.294
  3.376   3.441   3.566   3.711   4.197   4.302   4.342   4.500
  4.509   4.579   4.736
 --------------------------------------------------------------
 
          Ground-State Mulliken Net Atomic Charges

     Atom                 Charge (a.u.)    Spin (a.u.)
  --------------------------------------------------------
      1 C                    -0.251536      -0.032892
      2 C                     0.100879       0.038138
      3 C                    -0.160981      -0.021537
      4 C                    -0.011884       0.025212
      5 C                    -0.057837      -0.040961
      6 N                    -0.182426       0.013508
      7 H                     0.125275       0.000752
      8 H                     0.131883       0.003394
      9 H                     0.144373       0.018104
     10 H                     0.144426       0.021183
     11 H                     0.128764       0.005100
     12 C                    -0.259688       0.991778
     13 H                     0.148753      -0.021780
  --------------------------------------------------------
  Sum of atomic charges =     0.000000
  Sum of spin   charges =     1.000000

 -----------------------------------------------------------------
                    Cartesian Multipole Moments
 -----------------------------------------------------------------
    Charge (ESU x 10^10)
                 0.0000
    Dipole Moment (Debye)
         X      -2.1276      Y      -2.2766      Z      -0.2068
       Tot       3.1229
    Quadrupole Moments (Debye-Ang)
        XX     -37.8869     XY      -3.2044     YY     -43.0397
        XZ      -0.4993     YZ       0.2922     ZZ     -43.9709
    Octopole Moments (Debye-Ang^2)
       XXX     -13.7118    XXY     -11.0041    XYY     -14.9069
       YYY     -32.1035    XXZ      -1.4138    XYZ       3.8462
       YYZ      -1.6130    XZZ      -9.1185    YZZ      -8.6229
       ZZZ      -2.0003
    Hexadecapole Moments (Debye-Ang^3)
      XXXX    -337.7303   XXXY     -17.5218   XXYY    -120.6228
      XYYY     -43.6222   YYYY    -353.2981   XXXZ      33.0216
      XXYZ       6.2139   XYYZ      15.1089   YYYZ      29.9709
      XXZZ     -81.7396   XYZZ      -2.7567   YYZZ     -79.8651
      XZZZ      36.1762   YZZZ      22.9066   ZZZZ    -127.9487
 -----------------------------------------------------------------
 Calculating analytic gradient of the SCF energy
 Gradient of SCF Energy
            1           2           3           4           5           6
    1   0.0008931  -0.0004003  -0.0000611   0.0005294  -0.0002049  -0.0002136
    2  -0.0002756   0.0005097  -0.0002597  -0.0000852  -0.0000948   0.0001722
    3  -0.0002318   0.0001669   0.0000661   0.0000754   0.0001476   0.0001236
            7           8           9          10          11          12
    1  -0.0004691   0.0002636   0.0001855  -0.0001655   0.0000206   0.0000312
    2  -0.0000220  -0.0002722   0.0000667  -0.0001488   0.0000989   0.0003108
    3  -0.0003404  -0.0000715   0.0003674  -0.0005631   0.0005205  -0.0003359
           13
    1  -0.0004090
    2   0.0000000
    3   0.0000752
 Max gradient component =       8.931E-04
 RMS gradient           =       3.037E-04
 Gradient time:  CPU 16.62 s  wall 4.75 s
rPathMan2.  file_steps = 952
 IRC --- Status = 3.  Assess initial corrector step
 IRC --- bisector search: b =  0.000000 E =     -286.876395 G.B =  -0.001485
 IRC --- bisector search: b =  0.003890 E =     -286.876394 G.B =   0.001833
 IRC --- performed gradient/energy interpolation
 IRC --- bisector search:  estimate b(min) =   1.740685367769332E-003
 ----------------------------------------------------------------
             Standard Nuclear Orientation (Angstroms)
    I     Atom           X                Y                Z
 ----------------------------------------------------------------
    1      C       1.6739362894     0.4095892703    -0.2426161936
    2      C       1.1415131698    -0.8337269875    -0.2289212336
    3      C      -0.2922070542    -1.0761633359     0.0014431245
    4      C      -1.1646861025     0.3041515652     0.0220122175
    5      C      -0.3570792227     1.5135826234    -0.2301207427
    6      N       0.9299062652     1.5916049127    -0.2665761164
    7      H       2.7430687521     0.5521941021    -0.3691735036
    8      H       1.7735073440    -1.6963113706    -0.4230159400
    9      H      -0.7167994966    -1.9665726412    -0.4652087240
   10      H      -2.1661282953     0.3213943766    -0.4111968559
   11      H      -0.9147377694     2.4271839152    -0.4464980839
   12      C      -0.9551373158    -0.5514791018     1.1922419292
   13      H      -1.7120420800    -1.0153566038     1.8126087849
 ----------------------------------------------------------------
 Nuclear Repulsion Energy =   268.8499560747 hartrees
 There are       25 alpha and       24 beta electrons

                       Distance Matrix (Angstroms)
             C (  1)   C (  2)   C (  3)   C (  4)   C (  5)   N (  6)
   C (  2)  1.352589
   C (  3)  2.476438  1.472208
   C (  4)  2.852880  2.583852  1.633068
   C (  5)  2.311705  2.784896  2.600887  1.475982
   N (  6)  1.396895  2.434837  2.946588  2.475507  1.289864
   H (  7)  1.086001  2.122599  3.464362  3.935111  3.248772  2.092477
   H (  8)  2.115957  1.086803  2.198164  3.582301  3.857464  3.398018
   H (  9)  3.378063  2.189177  1.091271  2.365201  3.506586  3.925777
   H ( 10)  3.844775  3.508279  2.373820  1.091263  2.174111  3.349594
   H ( 11)  3.288387  3.861224  3.586313  2.188434  1.092003  2.033046
   C ( 12)  3.145552  2.548590  1.460401  1.464736  2.577842  3.205362
   H ( 13)  4.209426  3.513348  2.302162  2.290619  3.521960  4.254309
             H (  7)   H (  8)   H (  9)   H ( 10)   H ( 11)   C ( 12)
   H (  8)  2.449230
   H (  9)  4.280665  2.505284
   H ( 10)  4.914799  4.426286  2.708923
   H ( 11)  4.111097  4.922441  4.398253  2.449811
   C ( 12)  4.163273  3.371231  2.192359  2.190759  3.399932
   H ( 13)  5.202442  4.196519  2.661536  2.634086  4.194084  1.083025

 
 Applying Cartesian multipole field
    Component          Value
    ---------          -----
     (2,0,0)        1.00000E-11
     (0,2,0)        2.00000E-11
     (0,0,2)       -3.00000E-11
 Nucleus-field energy     =     0.0000000051 hartrees
 Requested basis set is 6-31+G(d,p)
 There are 53 shells and 163 basis functions
 A cutoff of  1.0D-14 yielded   1380 shell pairs
 There are     13440 function pairs
 Smallest overlap matrix eigenvalue = 2.84E-05
 Guess MOs from core Hamiltonian diagonalization
 Mixing HOMO and LUMO in initial guess
 Adding  50% of the LUMO to the HOMO
 An unrestricted hybrid HF-DFT SCF calculation will be
 performed using Pulay DIIS extrapolation
 Exchange:     0.2000 Hartree-Fock + 0.0800 Slater + 0.7200 B88
 Correlation:  0.1900 VWN1RPA + 0.8100 LYP
 Using SG-1 standard quadrature grid
 SCF converges when DIIS error is below 1.0E-08
 using 4 threads for integral computing
 -------------------------------------------------------
 OpenMP Integral computing Module                
 Release: version 1.0, May 2013, Q-Chem Inc. Pittsburgh 
 -------------------------------------------------------
 -------------------------------------------------------
 OpenMP BLAS3 based DFT computing Module                
 Release: version 1.0, May 2013, Q-Chem Inc. Pittsburgh 
 -------------------------------------------------------
 ---------------------------------------
  Cycle       Energy         DIIS Error
 ---------------------------------------
    1    -237.7479923773      9.40E-02
    2    -218.9917123405      7.18E-02
    3    -250.9762138717      7.76E-02
    4    -276.3961604147      5.36E-02
    5    -279.5766177098      4.33E-02
    6    -284.5738907799      2.12E-02
    7    -286.3123884651      1.25E-02
    8    -286.6821858049      7.36E-03
    9    -286.8611197028      2.07E-03
   10    -286.8731962859      8.98E-04
   11    -286.8760861909      2.94E-04
   12    -286.8763311677      1.31E-04
   13    -286.8763928252      1.37E-05
   14    -286.8763951555      6.27E-06
   15    -286.8763958880      2.67E-06
   16    -286.8763961123      4.93E-07
   17    -286.8763962456      1.45E-07
   18    -286.8763962860      5.98E-08
   19    -286.8763962975      2.70E-08
   20    -286.8763963028      1.88E-08
   21    -286.8763963045      1.15E-08
   22    -286.8763963055      4.22E-09 Convergence criterion met
 ---------------------------------------
 <S^2> = 0.7533
 SCF time:  CPU 110.41 s  wall 49.76 s
 SCF   energy in the final basis set = -286.87639631
 Total energy in the final basis set = -286.87639631
 
 --------------------------------------------------------------
 
                    Orbital Energies (a.u.)
 --------------------------------------------------------------
 
 Alpha MOs
 -- Occupied --
-14.337 -10.241 -10.235 -10.231 -10.230 -10.217 -10.206  -0.946
 -0.879  -0.776  -0.677  -0.651  -0.579  -0.540  -0.500  -0.492
 -0.460  -0.434  -0.385  -0.383  -0.370  -0.310  -0.267  -0.240
 -0.230
 -- Virtual --
 -0.049  -0.001   0.015   0.023   0.026   0.032   0.047   0.050
  0.068   0.074   0.075   0.092   0.099   0.112   0.116   0.120
  0.124   0.131   0.138   0.147   0.168   0.176   0.180   0.184
  0.192   0.197   0.203   0.212   0.226   0.234   0.252   0.260
  0.269   0.283   0.288   0.302   0.310   0.321   0.330   0.337
  0.352   0.384   0.463   0.508   0.591   0.629   0.649   0.665
  0.681   0.706   0.713   0.723   0.738   0.751   0.771   0.777
  0.826   0.836   0.883   0.894   0.929   0.934   0.949   0.989
  0.993   1.016   1.059   1.086   1.097   1.107   1.137   1.151
  1.182   1.204   1.240   1.312   1.349   1.368   1.447   1.476
  1.504   1.525   1.555   1.643   1.686   1.755   1.798   1.808
  1.865   1.881   1.905   1.959   1.985   2.004   2.083   2.092
  2.123   2.147   2.190   2.230   2.270   2.290   2.369   2.390
  2.404   2.418   2.435   2.452   2.475   2.503   2.521   2.529
  2.559   2.597   2.625   2.667   2.702   2.715   2.739   2.811
  2.868   2.937   3.008   3.181   3.217   3.279   3.293   3.373
  3.437   3.557   3.709   4.197   4.297   4.341   4.478   4.500
  4.577   4.735
 
 Beta MOs
 -- Occupied --
-14.337 -10.240 -10.235 -10.231 -10.217 -10.216 -10.205  -0.944
 -0.869  -0.774  -0.669  -0.649  -0.565  -0.535  -0.497  -0.483
 -0.456  -0.431  -0.384  -0.380  -0.362  -0.301  -0.261  -0.237
 -- Virtual --
 -0.091  -0.046   0.001   0.015   0.025   0.027   0.033   0.048
  0.050   0.072   0.074   0.077   0.094   0.099   0.113   0.116
  0.122   0.125   0.131   0.138   0.148   0.169   0.177   0.183
  0.186   0.192   0.202   0.206   0.214   0.229   0.235   0.256
  0.260   0.270   0.285   0.292   0.303   0.312   0.325   0.336
  0.342   0.359   0.391   0.464   0.509   0.597   0.633   0.663
  0.675   0.693   0.708   0.715   0.727   0.744   0.752   0.780
  0.790   0.832   0.841   0.885   0.897   0.930   0.937   0.951
  0.993   0.997   1.016   1.068   1.089   1.099   1.112   1.143
  1.153   1.186   1.207   1.243   1.316   1.351   1.372   1.454
  1.480   1.507   1.529   1.561   1.649   1.692   1.772   1.801
  1.819   1.881   1.889   1.910   1.967   1.990   2.010   2.093
  2.099   2.125   2.165   2.196   2.233   2.274   2.295   2.371
  2.394   2.406   2.421   2.438   2.456   2.480   2.506   2.525
  2.534   2.563   2.612   2.628   2.669   2.711   2.722   2.745
  2.819   2.875   2.942   3.012   3.182   3.217   3.284   3.294
  3.376   3.441   3.567   3.710   4.197   4.302   4.342   4.500
  4.509   4.579   4.736
 --------------------------------------------------------------
 
          Ground-State Mulliken Net Atomic Charges

     Atom                 Charge (a.u.)    Spin (a.u.)
  --------------------------------------------------------
      1 C                    -0.251629      -0.032846
      2 C                     0.100919       0.038164
      3 C                    -0.160882      -0.021634
      4 C                    -0.011986       0.025169
      5 C                    -0.057850      -0.040876
      6 N                    -0.182122       0.013478
      7 H                     0.125195       0.000752
      8 H                     0.131885       0.003376
      9 H                     0.144321       0.018150
     10 H                     0.144410       0.021098
     11 H                     0.128750       0.005094
     12 C                    -0.259754       0.991855
     13 H                     0.148744      -0.021781
  --------------------------------------------------------
  Sum of atomic charges =    -0.000000
  Sum of spin   charges =     1.000000

 -----------------------------------------------------------------
                    Cartesian Multipole Moments
 -----------------------------------------------------------------
    Charge (ESU x 10^10)
                -0.0000
    Dipole Moment (Debye)
         X      -2.1288      Y      -2.2751      Z      -0.2068
       Tot       3.1226
    Quadrupole Moments (Debye-Ang)
        XX     -37.8917     XY      -3.2076     YY     -43.0363
        XZ      -0.4982     YZ       0.2915     ZZ     -43.9701
    Octopole Moments (Debye-Ang^2)
       XXX     -13.7385    XXY     -11.0096    XYY     -14.8968
       YYY     -32.0913    XXZ      -1.4110    XYZ       3.8488
       YYZ      -1.6150    XZZ      -9.1182    YZZ      -8.6213
       ZZZ      -2.0000
    Hexadecapole Moments (Debye-Ang^3)
      XXXX    -337.7877   XXXY     -17.5525   XXYY    -120.6155
      XYYY     -43.6295   YYYY    -353.2801   XXXZ      33.0343
      XXYZ       6.2177   XYYZ      15.1078   YYYZ      29.9729
      XXZZ     -81.7440   XYZZ      -2.7583   YYZZ     -79.8640
      XZZZ      36.1769   YZZZ      22.9092   ZZZZ    -127.9558
 -----------------------------------------------------------------
 Calculating analytic gradient of the SCF energy
 Gradient of SCF Energy
            1           2           3           4           5           6
    1  -0.0001426   0.0001353   0.0000799  -0.0000961   0.0000478   0.0000416
    2   0.0000300  -0.0000754   0.0000906  -0.0001104   0.0000280  -0.0000084
    3  -0.0001184   0.0000172   0.0001811  -0.0002132   0.0001120   0.0001046
            7           8           9          10          11          12
    1   0.0000660  -0.0000087   0.0000960   0.0001714  -0.0000071  -0.0001847
    2   0.0000289   0.0000509  -0.0001413  -0.0001495   0.0000669   0.0000431
    3  -0.0004060   0.0000087   0.0002414  -0.0004002   0.0005254   0.0000477
           13
    1  -0.0001989
    2   0.0001466
    3  -0.0001005
 Max gradient component =       5.254E-04
 RMS gradient           =       1.652E-04
 Gradient time:  CPU 16.98 s  wall 5.45 s
rPathMan2.  file_steps = 952
 IRC --- Status = 4.  Checking bisector search.
 IRC --- Bisector search finished successfully.
 ------------------------------------------------------------------------
 Reaction path following.  The coordinates are cartesian              
 Step  51 E=    -286.876396 |G|=  0.001032 S_lin= 2.5732 S_tot= 2.8725
 ------------------------------------------------------------------------
  IRC -- maximum number of cycles reached.
  IRC -- but gradient not converged
  IRC -- recommend geom opt from this point
 ----------------------------------------------------------------
             Standard Nuclear Orientation (Angstroms)
    I     Atom           X                Y                Z
 ----------------------------------------------------------------
    1      C       1.6714095739     0.4022340436    -0.3317755981
    2      C       1.1704669718    -0.8613224022    -0.3021162924
    3      C      -0.2648978454    -1.0449452337     0.0176595293
    4      C      -1.1913226181     0.1363106710    -0.3556336152
    5      C      -0.4122905654     1.3537113278     0.0009797587
    6      N       0.9051474290     1.5085071675    -0.0475400404
    7      H       2.7203755964     0.5994431778    -0.5350941484
    8      H       1.7844753939    -1.7246853940    -0.5385708430
    9      H      -0.6709013274    -2.0429146369    -0.1506274993
   10      H      -2.0804776141     0.1163024159    -0.9806780761
   11      H      -0.9941606087     2.2344791840     0.2694725072
   12      C      -1.0017788403    -0.2465907358     1.0305851954
   13      H      -1.6529310666    -0.4504388696     1.8683177860
 ----------------------------------------------------------------
 Nuclear Repulsion Energy =   273.6331616415 hartrees
 There are       25 alpha and       24 beta electrons
 Here is where we should summarize the reaction path
Archival summary:
1\1\c8-89\JobtypUnspecified\ProcedureUnspecified\6-31+G**\166(2)\hpark21\TueMar115:38:532022TueMar115:38:532022\0\\#,JobtypUnspecified,ProcedureUnspecified,6-31+G**,\\0,2\N\C,1,1.32739\H,2,1.08923,1,116.418\C,1,1.37542,2,117.82,3,177.48,0\H,4,1.08654,1,115.501,2,169.65,0\C,4,1.35956,1,122.53,2,-13.2428,0\H,6,1.0855,4,121.737,1,179.37,0\C,6,1.48197,4,118.472,1,1.5012,0\H,8,1.09046,6,116.149,4,168.886,0\C,8,1.48539,6,124.127,4,-38.5205,0\H,10,1.08044,8,136.578,6,-130.154,0\C,10,1.45057,8,63.5781,6,100.673,0\H,12,1.08705,10,130.655,8,115.612,0\\\@

 Total job time:  15742.05s(wall), 30282.34s(cpu) 
 Tue Mar  1 15:38:53 2022

        *************************************************************
        *                                                           *
        *  Thank you very much for using Q-Chem.  Have a nice day.  *
        *                                                           *
        *************************************************************


