
Running Job 1 of 1 qcts1.in
qchem qcts1.in_3352.0 ./qcts1.d/ 1
/home/leeping/opt/qchem/5.0.2-openmp/exe/qcprog.exe_s qcts1.in_3352.0 ./qcts1.d/
Check license passed

                  Welcome to Q-Chem
     A Quantum Leap Into The Future Of Chemistry


 Q-Chem 5.0, Q-Chem, Inc., Pleasanton, CA (2017)

 Yihan Shao,  Zhengting Gan,  E. Epifanovsky,  A. T. B. Gilbert,  M. Wormit,  
 J. Kussmann,  A. W. Lange,  A. Behn,  Jia Deng,  Xintian Feng,  D. Ghosh,  
 M. Goldey,  P. R. Horn,  L. D. Jacobson,  I. Kaliman,  T. Kus,  A. Landau,  
 Jie Liu,  E. I. Proynov,  R. M. Richard,  R. P. Steele,  E. J. Sundstrom,  
 H. L. Woodcock III,  P. M. Zimmerman,  D. Zuev,  B. Albrecht,  E. Alguire,  
 S. A. Baeppler,  D. Barton,  Z. Benda,  Y. A. Bernard,  E. J. Berquist,  
 K. B. Bravaya,  H. Burton,  D. Casanova,  Chun-Min Chang,  Yunqing Chen,  
 A. Chien,  K. D. Closser,  M. P. Coons,  S. Dasgupta,  A. L. Dempwolff,  
 M. Diedenhofen,  Hainam Do,  R. G. Edgar,  Po-Tung Fang,  S. Fatehi,  
 Qingguo Feng,  J. Fosso-Tande,  Qinghui Ge,  A. Ghysels,  G. Gidofalvi,  
 J. Gomes,  J. Gonthier,  A. Gunina,  M. W. D. Hanson-Heine,  
 P. H. P. Harbach,  A. W. Hauser,  J. E. Herr,  E. G. Hohenstein,  
 Z. C. Holden,  Kerwin Hui,  T.-C. Jagau,  Hyunjun Ji,  B. Kaduk,  
 K. Khistyaev,  Jaehoon Kim,  P. Klunzinger,  K. Koh,  D. Kosenkov,  
 L. Koulias,  T. Kowalczyk,  C. M. Krauter,  A. Kunitsa,  Ka Un Lao,  
 A. Laurent,  K. V. Lawler,  Joonho Lee,  D. Lefrancois,  S. Lehtola,  
 D. S. Levine,  Yi-Pei Li,  You-Sheng Lin,  Fenglai Liu,  E. Livshits,  
 A. Luenser,  P. Manohar,  E. Mansoor,  S. F. Manzer,  Shan-Ping Mao,  
 Yuezhi Mao,  N. Mardirossian,  A. V. Marenich,  T. Markovich,  
 L. A. Martinez-Martinez,  S. A. Maurer,  N. J. Mayhall,  S. C. McKenzie,  
 J.-M. Mewes,  A. F. Morrison,  J. W. Mullinax,  K. Nanda,  
 T. S. Nguyen-Beck,  R. Olivares-Amaya,  J. A. Parkhill,  T. M. Perrine,  
 F. Plasser,  S. Prager,  A. Prociuk,  E. Ramos,  D. R. Rehn,  F. Rob,  
 M. Schneider,  N. Sergueev,  S. M. Sharada,  S. Sharma,  D. W. Small,  
 T. Stauch,  T. Stein,  Yu-Chuan Su,  A. J. W. Thom,  A. Tkatchenko,  
 T. Tsuchimochi,  L. Vogt,  O. Vydrov,  M. A. Watson,  J. Wenzel,  
 M. de Wergifosse,  T. A. Wesolowski,  A. White,  J. Witte,  A. Yamada,  
 Jun Yang,  K. Yao,  S. Yeganeh,  S. R. Yost,  Zhi-Qiang You,  A. Zech,  
 Igor Ying Zhang,  Xing Zhang,  Yan Zhao,  Ying Zhu,  B. R. Brooks,  
 G. K. L. Chan,  C. J. Cramer,  M. S. Gordon,  W. J. Hehre,  A. Klamt,  
 M. W. Schmidt,  C. D. Sherrill,  D. G. Truhlar,  A. Aspuru-Guzik,  R. Baer,  
 A. T. Bell,  N. A. Besley,  Jeng-Da Chai,  R. A. DiStasio Jr.,  A. Dreuw,  
 B. D. Dunietz,  T. R. Furlani,  Chao-Ping Hsu,  Yousung Jung,  Jing Kong,  
 D. S. Lambrecht,  WanZhen Liang,  C. Ochsenfeld,  V. A. Rassolov,  
 L. V. Slipchenko,  J. E. Subotnik,  T. Van Voorhis,  J. M. Herbert,  
 A. I. Krylov,  P. M. W. Gill,  M. Head-Gordon

 Contributors to earlier versions of Q-Chem not listed above: 
 R. D. Adamson,  B. Austin,  J. Baker,  G. J. O. Beran,  K. Brandhorst,  
 S. T. Brown,  E. F. C. Byrd,  A. K. Chakraborty,  C.-L. Cheng,  
 Siu Hung Chien,  D. M. Chipman,  D. L. Crittenden,  H. Dachsel,  
 R. J. Doerksen,  A. D. Dutoi,  L. Fusti-Molnar,  W. A. Goddard III,  
 A. Golubeva-Zadorozhnaya,  S. R. Gwaltney,  G. Hawkins,  A. Heyden,  
 S. Hirata,  G. Kedziora,  F. J. Keil,  C. Kelley,  Jihan Kim,  R. A. King,  
 R. Z. Khaliullin,  P. P. Korambath,  W. Kurlancheek,  A. M. Lee,  M. S. Lee,  
 S. V. Levchenko,  Ching Yeh Lin,  D. Liotard,  R. C. Lochan,  I. Lotan,  
 P. E. Maslen,  N. Nair,  D. P. O'Neill,  D. Neuhauser,  E. Neuscamman,  
 C. M. Oana,  R. Olson,  B. Peters,  R. Peverati,  P. A. Pieniazek,  
 Y. M. Rhee,  J. Ritchie,  M. A. Rohrdanz,  E. Rosta,  N. J. Russ,  
 H. F. Schaefer III,  N. E. Schultz,  N. Shenvi,  A. C. Simmonett,  A. Sodt,  
 D. Stuck,  K. S. Thanthiriwatte,  V. Vanovschi,  Tao Wang,  A. Warshel,  
 C. F. Williams,  Q. Wu,  X. Xu,  W. Zhang

 Please cite Q-Chem as follows:
 Y. Shao et al., Mol. Phys. 113, 184-215 (2015)
 DOI: 10.1080/00268976.2014.952696

 Q-Chem 5.0.2 for Intel X86 EM64T Linux

 Parts of Q-Chem use Armadillo 5.200.1 (Boston Tea Smuggler).
 http://arma.sourceforge.net/

 Q-Chem begins on Tue Mar  1 10:17:07 2022  

Host: 
0

     Scratch files written to ./qcts1.d//
 Dec517 15110_ 26548  26544 5633   
Processing $rem in /home/leeping/opt/qchem/5.0.2-openmp/config/preferences.
 MEM_STATIC 2000
 MEM_TOTAL  8000
 SYMMETRY   OFF
 SYM_IGNORE TRUE 

Checking the input file for inconsistencies... 	...done.

--------------------------------------------------------------
User input:
--------------------------------------------------------------
$molecule
0 2
C        1.6721228338    0.3870308682   -0.2802061979
C        1.1711266804   -0.8636996117   -0.3050175229
C       -0.2688433663   -1.1022679619   -0.0296518096
C       -1.1789109679    0.1015315289   -0.2898536928
C       -0.3895785923    1.4299737547   -0.0598731150
N        0.9043856560    1.5193061529   -0.0193946534
H        2.7289365582    0.5734337175   -0.4486294797
H        1.8054051068   -1.6858640299   -0.6317299114
H       -0.6112385242   -2.0789213698   -0.3951968561
H       -2.1535933938   -0.1199415608   -0.7406978422
H       -0.9166146584    2.3626959161    0.1982766500
C       -1.0022279484   -0.3082203469    1.0936781214
H       -1.7778549049   -0.2349663420    1.8532749734
$end

$rem
method                b3lyp
basis                 6-31g(d)
unrestricted          true
symmetry              off
sym_ignore            true
incdft                false
incfock               0
scf_convergence       8
thresh                14
jobtype               ts
scf_guess             read
scf_algorithm         diis
max_scf_cycles        100
geom_opt_max_cycles   500
geom_opt_dmax         100
geom_opt_tol_gradient 10
geom_opt_hessian      read
$end

--------------------------------------------------------------
 ----------------------------------------------------------------
             Standard Nuclear Orientation (Angstroms)
    I     Atom           X                Y                Z
 ----------------------------------------------------------------
    1      C       1.6721228338     0.3870308682    -0.2802061979
    2      C       1.1711266804    -0.8636996117    -0.3050175229
    3      C      -0.2688433663    -1.1022679619    -0.0296518096
    4      C      -1.1789109679     0.1015315289    -0.2898536928
    5      C      -0.3895785923     1.4299737547    -0.0598731150
    6      N       0.9043856560     1.5193061529    -0.0193946534
    7      H       2.7289365582     0.5734337175    -0.4486294797
    8      H       1.8054051068    -1.6858640299    -0.6317299114
    9      H      -0.6112385242    -2.0789213698    -0.3951968561
   10      H      -2.1535933938    -0.1199415608    -0.7406978422
   11      H      -0.9166146584     2.3626959161     0.1982766500
   12      C      -1.0022279484    -0.3082203469     1.0936781214
   13      H      -1.7778549049    -0.2349663420     1.8532749734
 ----------------------------------------------------------------
 Nuclear Repulsion Energy =   270.5155415788 hartrees
 There are       25 alpha and       24 beta electrons
 Requested basis set is 6-31G(d)
 There are 40 shells and 117 basis functions

 Total QAlloc Memory Limit   8000 MB
 Mega-Array Size      1956 MB
 MEM_STATIC part      2000 MB
 A cutoff of  1.0D-14 yielded    807 shell pairs
 There are      7079 function pairs
 
 -------------------------------------------------------
 OpenMP Integral Computing Module                       
 Release: version 1.0, May 2013, Q-Chem Inc. Pittsburgh 
 -------------------------------------------------------
 Integral Job Info:
 Integral job number is                      11
 Integral operator is                         1
 short-range coefficients                     0
 long-range coefficients              100000000
 Omega coefficients                           0
 if combine SR and LR in K                    0
 Integral screening is                        0
 Integral computing path is                   2
 max size of driver memory is            800000
 size of driver memory is                593474
 size of scratch memory is              2361544
 max col of scratch BK array               1296
 max len of scratch array in speh3          155
 max len of scratch index in speh4           18
 max int batch size is                      520
 min int batch size is                       52
 fixed nKL is                                52
 max L of basis functions is                  2
 order of int derivative is                   0
 number of shells is                         40
 number of basis is                         117
 number of cartesian basis is               117
 number of contracted shell pairs           807
 number of primitive shell pairs           3495
 maxK2 (contraction) of shell pair           36
 max number of K2 of shell pair               1
 max number of CS2 of shell pair             86
 max number of PS2 of shell pair            408
 mem total for path MDJ                  535308
 -------------------------------------------------------
 Smallest overlap matrix eigenvalue = 1.23E-03

 Scale SEOQF with 1.000000e-01/1.000000e-01/1.000000e-01

 Standard Electronic Orientation quadrupole field applied
 Nucleus-field energy     =     0.0000000048 hartrees
 Guess MOs from SCF MO coefficient file
 Reading MOs from coefficient file
 Reading MOs from coefficient file
 An unrestricted hybrid HF-DFT SCF calculation will be
 performed using Pulay DIIS extrapolation
 Exchange:     0.2000 Hartree-Fock + 0.0800 Slater + 0.7200 B88
 Correlation:  0.1900 VWN1RPA + 0.8100 LYP
 Using SG-1 standard quadrature grid
 SCF converges when DIIS error is below 1.0E-08
Using Q-Chem read-in guess as SCF_GUESS READ specified.

 using 4 threads for integral computing
 -------------------------------------------------------
 OpenMP Integral computing Module                
 Release: version 1.0, May 2013, Q-Chem Inc. Pittsburgh 
 -------------------------------------------------------
 -------------------------------------------------------
 OpenMP BLAS3 based DFT computing Module                
 Release: version 1.0, May 2013, Q-Chem Inc. Pittsburgh 
 -------------------------------------------------------
 ---------------------------------------
  Cycle       Energy         DIIS Error
 ---------------------------------------
    1    -286.8158811165      4.23E-10
    2    -286.8158811165      5.66E-10 Convergence criterion met
 ---------------------------------------
 <S^2> = 0.7759
 SCF time:  CPU 5.28 s  wall 3.85 s
 SCF   energy in the final basis set = -286.81588112
 Total energy in the final basis set = -286.81588112
 
 --------------------------------------------------------------
 
                    Orbital Energies (a.u.)
 --------------------------------------------------------------
 
 Alpha MOs
 -- Occupied --
-14.325 -10.248 -10.231 -10.218 -10.215 -10.204 -10.192  -0.940
 -0.866  -0.766  -0.649  -0.628  -0.578  -0.531  -0.496  -0.483
 -0.445  -0.418  -0.383  -0.370  -0.339  -0.302  -0.256  -0.240
 -0.192
 -- Virtual --
 -0.029   0.060   0.087   0.112   0.128   0.139   0.152   0.165
  0.185   0.212   0.238   0.247   0.280   0.329   0.398   0.438
  0.502   0.511   0.533   0.546   0.562   0.577   0.597   0.611
  0.631   0.648   0.650   0.668   0.688   0.710   0.749   0.798
  0.818   0.846   0.856   0.857   0.875   0.894   0.916   0.925
  0.965   0.992   1.052   1.090   1.127   1.193   1.264   1.277
  1.406   1.469   1.481   1.517   1.530   1.594   1.621   1.695
  1.706   1.757   1.804   1.818   1.894   1.931   1.951   2.019
  2.072   2.095   2.145   2.185   2.235   2.243   2.297   2.320
  2.424   2.463   2.477   2.542   2.561   2.607   2.626   2.668
  2.719   2.755   2.815   3.000   3.219   4.004   4.095   4.201
  4.273   4.341   4.430   4.605
 
 Beta MOs
 -- Occupied --
-14.321 -10.249 -10.231 -10.215 -10.206 -10.205 -10.190  -0.934
 -0.856  -0.763  -0.645  -0.624  -0.559  -0.526  -0.494  -0.477
 -0.442  -0.415  -0.380  -0.362  -0.330  -0.295  -0.252  -0.217
 -- Virtual --
 -0.075  -0.017   0.071   0.092   0.120   0.129   0.141   0.154
  0.171   0.188   0.214   0.241   0.250   0.290   0.332   0.402
  0.440   0.513   0.519   0.536   0.554   0.579   0.581   0.601
  0.613   0.634   0.652   0.657   0.675   0.694   0.716   0.757
  0.800   0.821   0.849   0.857   0.863   0.879   0.900   0.921
  0.928   0.970   0.998   1.055   1.094   1.130   1.204   1.270
  1.281   1.415   1.471   1.489   1.519   1.536   1.600   1.627
  1.709   1.713   1.766   1.810   1.831   1.913   1.944   1.963
  2.023   2.074   2.098   2.155   2.190   2.249   2.253   2.300
  2.328   2.431   2.470   2.482   2.545   2.568   2.615   2.638
  2.674   2.722   2.759   2.822   3.001   3.221   4.009   4.102
  4.200   4.281   4.356   4.432   4.607
 --------------------------------------------------------------
 
          Ground-State Mulliken Net Atomic Charges

     Atom                 Charge (a.u.)    Spin (a.u.)
  --------------------------------------------------------
      1 C                    -0.002880      -0.091802
      2 C                    -0.073713       0.160922
      3 C                    -0.184526      -0.043444
      4 C                    -0.162966      -0.016648
      5 C                     0.056436      -0.114024
      6 N                    -0.376107       0.200437
      7 H                     0.138391       0.005519
      8 H                     0.134029      -0.006310
      9 H                     0.153420       0.022514
     10 H                     0.158908       0.014563
     11 H                     0.155344       0.010010
     12 C                    -0.159630       0.888705
     13 H                     0.163294      -0.030443
  --------------------------------------------------------
  Sum of atomic charges =    -0.000000
  Sum of spin   charges =     1.000000

 -----------------------------------------------------------------
                    Cartesian Multipole Moments
 -----------------------------------------------------------------
    Charge (ESU x 10^10)
                -0.0000
    Dipole Moment (Debye)
         X      -1.9333      Y      -1.6043      Z      -0.5705
       Tot       2.5762
    Quadrupole Moments (Debye-Ang)
        XX     -36.5916     XY      -3.0918     YY     -41.3617
        XZ      -1.8437     YZ       1.3026     ZZ     -42.2404
    Octopole Moments (Debye-Ang^2)
       XXX     -11.9396    XXY      -8.0758    XYY     -11.3806
       YYY     -24.9846    XXZ      -1.3465    XYZ      -0.5649
       YYZ      -3.2960    XZZ      -8.0393    YZZ      -5.4122
       ZZZ      -0.2863
    Hexadecapole Moments (Debye-Ang^3)
      XXXX    -327.7385   XXXY     -11.2468   XXYY    -112.3583
      XYYY     -33.3077   YYYY    -302.7491   XXXZ      24.1215
      XXYZ       1.6423   XYYZ       8.9708   YYYZ       7.4236
      XXZZ     -73.0867   XYZZ      -4.1869   YYZZ     -71.3611
      XZZZ      28.0688   YZZZ       1.3202   ZZZZ    -108.8982
 -----------------------------------------------------------------
 Calculating analytic gradient of the SCF energy
 Gradient of SCF Energy
            1           2           3           4           5           6
    1   0.0018517  -0.0046946   0.0042117  -0.0054132   0.0066874   0.0006972
    2   0.0021470  -0.0022845  -0.0146475  -0.0221111   0.0129733  -0.0011969
    3   0.0022951   0.0011445  -0.0196328  -0.0067976   0.0157822  -0.0017823
            7           8           9          10          11          12
    1  -0.0000929   0.0019492   0.0066207  -0.0046596   0.0049861  -0.0040407
    2  -0.0013296   0.0014938  -0.0049609  -0.0190170   0.0108098   0.0232468
    3   0.0014083  -0.0044513  -0.0106407   0.0081593   0.0044094   0.0130800
           13
    1  -0.0081030
    2   0.0148770
    3  -0.0029742
 Max gradient component =       2.325E-02
 RMS gradient           =       9.524E-03
 Gradient time:  CPU 7.90 s  wall 6.49 s
 Geometry Optimization Parameters
   NAtoms,    NIC,     NZ,  NCons,   NDum,   NFix, NCnnct, MaxDiis
       13     103       0       0       0       0       0       0

 Cartesian Hessian read from HESS file


** GEOMETRY OPTIMIZATION IN DELOCALIZED INTERNAL COORDINATES **
   Searching for a Transition State

   Optimization Cycle:   1

                       Coordinates (Angstroms)
     ATOM                X               Y               Z
      1  C         1.6721228338    0.3870308682   -0.2802061979
      2  C         1.1711266804   -0.8636996117   -0.3050175229
      3  C        -0.2688433663   -1.1022679619   -0.0296518096
      4  C        -1.1789109679    0.1015315289   -0.2898536928
      5  C        -0.3895785923    1.4299737547   -0.0598731150
      6  N         0.9043856560    1.5193061529   -0.0193946534
      7  H         2.7289365582    0.5734337175   -0.4486294797
      8  H         1.8054051068   -1.6858640299   -0.6317299114
      9  H        -0.6112385242   -2.0789213698   -0.3951968561
     10  H        -2.1535933938   -0.1199415608   -0.7406978422
     11  H        -0.9166146584    2.3626959161    0.1982766500
     12  C        -1.0022279484   -0.3082203469    1.0936781214
     13  H        -1.7778549049   -0.2349663420    1.8532749734
   Point Group: c1    Number of degrees of freedom:    33


   Energy is   -286.815881117


 Attempting to Generate Delocalized Internal Coordinates

 Transforming Cartesian Hessian to Internal Coordinates
 Hessian Transformation does not Include Derivative of B-matrix

 33 Hessian modes will be used to form the next step
  Hessian Eigenvalues:
    -0.017627    0.002377    0.009139    0.009802    0.012935    0.017539
     0.020193    0.022597    0.028045    0.032046    0.043100    0.048281
     0.056453    0.080587    0.100121    0.116892    0.119725    0.127325
     0.139952    0.164270    0.205196    0.213727    0.255850    0.301626
     0.328510    0.335455    0.337493    0.339692    0.356637    0.358262
     0.369325    0.541024    0.574589

 Transition State Search - Taking P-RFO Step
 Searching for Lamda that Maximizes Along the Lowest mode
 Value Taken    Lamda =   0.01436801
 Searching for Lamda that Minimizes Along All other modes
 Value Taken    Lamda =  -0.03017069
 Calculated Step too Large.  Step scaled by  0.114017
 Step Taken.  Stepsize is  0.100000

                             Maximum     Tolerance    Cnvgd?
         Gradient           0.031314      0.000010      NO
         Displacement       0.042801      0.001200      NO
         Energy change     *********      0.000001      NO


 New Cartesian Coordinates Obtained by Inverse Iteration

 Displacement from previous Coordinates is:  0.104585
 ----------------------------------------------------------------
             Standard Nuclear Orientation (Angstroms)
    I     Atom           X                Y                Z
 ----------------------------------------------------------------
    1      C       1.6724235187     0.3882827647    -0.2842270966
    2      C       1.1724130295    -0.8638115068    -0.3074216059
    3      C      -0.2677727693    -1.0966590918    -0.0257819735
    4      C      -1.1783778070     0.1012275787    -0.3021322031
    5      C      -0.3935778563     1.4164835186    -0.0514115009
    6      N       0.9034157452     1.5151713634    -0.0158693994
    7      H       2.7288790459     0.5771531817    -0.4532427559
    8      H       1.8033896704    -1.6891808754    -0.6312796510
    9      H      -0.6160470518    -2.0767467727    -0.3728006854
   10      H      -2.1499438368    -0.1068898915    -0.7619923750
   11      H      -0.9277352975     2.3406171147     0.2165320288
   12      C      -0.9964386221    -0.2989672474     1.0859089898
   13      H      -1.7675132901    -0.2265894209     1.8486968918
 ----------------------------------------------------------------
 Nuclear Repulsion Energy =   271.0290781620 hartrees
 There are       25 alpha and       24 beta electrons
 Applying Cartesian multipole field
    Component          Value
    ---------          -----
     (2,0,0)        1.00000E-11
     (0,2,0)        2.00000E-11
     (0,0,2)       -3.00000E-11
 Nucleus-field energy     =     0.0000000048 hartrees
 Requested basis set is 6-31G(d)
 There are 40 shells and 117 basis functions
 A cutoff of  1.0D-14 yielded    807 shell pairs
 There are      7079 function pairs
 Smallest overlap matrix eigenvalue = 1.21E-03
 Guess MOs from SCF MO coefficient file
 Reading MOs from coefficient file
 Reading MOs from coefficient file
 An unrestricted hybrid HF-DFT SCF calculation will be
 performed using Pulay DIIS extrapolation
 Exchange:     0.2000 Hartree-Fock + 0.0800 Slater + 0.7200 B88
 Correlation:  0.1900 VWN1RPA + 0.8100 LYP
 Using SG-1 standard quadrature grid
 SCF converges when DIIS error is below 1.0E-08
 Geometry optimization detected.  Setting ReadMinima to 0
 Setting SaveMinima to 0
Using Q-Chem read-in guess as SCF_GUESS READ specified.

 using 4 threads for integral computing
 -------------------------------------------------------
 OpenMP Integral computing Module                
 Release: version 1.0, May 2013, Q-Chem Inc. Pittsburgh 
 -------------------------------------------------------
 -------------------------------------------------------
 OpenMP BLAS3 based DFT computing Module                
 Release: version 1.0, May 2013, Q-Chem Inc. Pittsburgh 
 -------------------------------------------------------
 ---------------------------------------
  Cycle       Energy         DIIS Error
 ---------------------------------------
    1    -286.8253036015      6.42E-04
    2    -286.8175512086      1.23E-04
    3    -286.8175129131      2.22E-04
    4    -286.8176106967      3.23E-05
    5    -286.8176151778      1.55E-05
    6    -286.8176181350      5.57E-06
    7    -286.8176199933      3.70E-06
    8    -286.8176205011      1.82E-06
    9    -286.8176207697      8.70E-07
   10    -286.8176208320      4.65E-07
   11    -286.8176208673      1.69E-07
   12    -286.8176208890      1.08E-07
   13    -286.8176208933      4.02E-08
   14    -286.8176208940      1.40E-08
   15    -286.8176208940      7.63E-09 Convergence criterion met
 ---------------------------------------
 <S^2> = 0.7796
 SCF time:  CPU 39.67 s  wall 44.35 s
 SCF   energy in the final basis set = -286.81762089
 Total energy in the final basis set = -286.81762089
 
 --------------------------------------------------------------
 
                    Orbital Energies (a.u.)
 --------------------------------------------------------------
 
 Alpha MOs
 -- Occupied --
-14.325 -10.248 -10.230 -10.218 -10.215 -10.204 -10.192  -0.941
 -0.867  -0.766  -0.649  -0.630  -0.579  -0.532  -0.497  -0.483
 -0.445  -0.418  -0.383  -0.370  -0.340  -0.301  -0.257  -0.240
 -0.191
 -- Virtual --
 -0.027   0.061   0.087   0.114   0.130   0.139   0.153   0.165
  0.185   0.212   0.239   0.248   0.281   0.329   0.400   0.438
  0.502   0.510   0.533   0.546   0.562   0.577   0.596   0.610
  0.632   0.647   0.648   0.668   0.689   0.711   0.747   0.798
  0.818   0.846   0.855   0.856   0.875   0.893   0.918   0.928
  0.969   0.992   1.055   1.089   1.127   1.198   1.265   1.279
  1.406   1.469   1.483   1.516   1.531   1.596   1.624   1.696
  1.710   1.755   1.806   1.819   1.891   1.937   1.952   2.022
  2.081   2.097   2.143   2.187   2.245   2.247   2.300   2.318
  2.424   2.467   2.479   2.547   2.562   2.609   2.625   2.670
  2.723   2.756   2.817   2.999   3.221   4.005   4.097   4.208
  4.279   4.343   4.432   4.605
 
 Beta MOs
 -- Occupied --
-14.320 -10.249 -10.231 -10.215 -10.206 -10.205 -10.189  -0.935
 -0.857  -0.763  -0.645  -0.625  -0.560  -0.527  -0.495  -0.477
 -0.443  -0.415  -0.380  -0.362  -0.331  -0.294  -0.252  -0.217
 -- Virtual --
 -0.076  -0.014   0.073   0.092   0.121   0.131   0.141   0.154
  0.171   0.188   0.214   0.243   0.250   0.290   0.331   0.404
  0.440   0.513   0.518   0.536   0.554   0.579   0.580   0.601
  0.612   0.635   0.651   0.654   0.675   0.694   0.718   0.755
  0.801   0.821   0.849   0.857   0.863   0.879   0.900   0.921
  0.932   0.975   0.998   1.058   1.093   1.131   1.208   1.271
  1.282   1.416   1.471   1.491   1.518   1.538   1.603   1.630
  1.709   1.719   1.764   1.813   1.831   1.910   1.950   1.963
  2.026   2.082   2.101   2.153   2.193   2.257   2.260   2.303
  2.326   2.431   2.473   2.485   2.551   2.570   2.617   2.636
  2.676   2.725   2.761   2.824   3.001   3.223   4.011   4.104
  4.207   4.286   4.358   4.434   4.607
 --------------------------------------------------------------
 
          Ground-State Mulliken Net Atomic Charges

     Atom                 Charge (a.u.)    Spin (a.u.)
  --------------------------------------------------------
      1 C                    -0.002199      -0.101968
      2 C                    -0.073547       0.182290
      3 C                    -0.186037      -0.043428
      4 C                    -0.156969      -0.010845
      5 C                     0.051970      -0.128440
      6 N                    -0.376415       0.225034
      7 H                     0.138203       0.006186
      8 H                     0.133826      -0.007520
      9 H                     0.153577       0.022205
     10 H                     0.158493       0.013071
     11 H                     0.155219       0.010171
     12 C                    -0.159720       0.863414
     13 H                     0.163600      -0.030167
  --------------------------------------------------------
  Sum of atomic charges =    -0.000000
  Sum of spin   charges =     1.000000

 -----------------------------------------------------------------
                    Cartesian Multipole Moments
 -----------------------------------------------------------------
    Charge (ESU x 10^10)
                -0.0000
    Dipole Moment (Debye)
         X      -1.9519      Y      -1.6405      Z      -0.5528
       Tot       2.6090
    Quadrupole Moments (Debye-Ang)
        XX     -36.5733     XY      -3.0838     YY     -41.3832
        XZ      -1.8488     YZ       1.2234     ZZ     -42.2042
    Octopole Moments (Debye-Ang^2)
       XXX     -11.9997    XXY      -7.9766    XYY     -11.4016
       YYY     -25.2933    XXZ      -1.3858    XYZ      -0.5740
       YYZ      -3.1253    XZZ      -8.1256    YZZ      -5.4320
       ZZZ      -0.0821
    Hexadecapole Moments (Debye-Ang^3)
      XXXX    -327.3947   XXXY     -10.9669   XXYY    -111.6965
      XYYY     -32.6386   YYYY    -300.5894   XXXZ      23.9869
      XXYZ       1.4281   XYYZ       8.7001   YYYZ       6.7506
      XXZZ     -72.8935   XYZZ      -4.0660   YYZZ     -70.8443
      XZZZ      27.7676   YZZZ       0.7531   ZZZZ    -108.5492
 -----------------------------------------------------------------
 Calculating analytic gradient of the SCF energy
 Gradient of SCF Energy
            1           2           3           4           5           6
    1   0.0017374  -0.0042671   0.0032642  -0.0048911   0.0061606   0.0004077
    2   0.0019007  -0.0019413  -0.0132517  -0.0197822   0.0118002  -0.0011177
    3   0.0020612   0.0012490  -0.0180334  -0.0070701   0.0144244  -0.0015004
            7           8           9          10          11          12
    1  -0.0000517   0.0017293   0.0061581  -0.0042542   0.0045662  -0.0028817
    2  -0.0012348   0.0013831  -0.0043508  -0.0175251   0.0096581   0.0201700
    3   0.0014050  -0.0041341  -0.0099394   0.0077125   0.0041436   0.0128479
           13
    1  -0.0076778
    2   0.0142915
    3  -0.0031662
 Max gradient component =       2.017E-02
 RMS gradient           =       8.698E-03
 Gradient time:  CPU 7.86 s  wall 2.30 s
 Geometry Optimization Parameters
   NAtoms,    NIC,     NZ,  NCons,   NDum,   NFix, NCnnct, MaxDiis
       13     103       0       0       0       0       0       0

 Cartesian Hessian Update
 Hessian Updated using Powell/Murtagh-Sargent Update
  Mixing factors:     0.960141 Powell
                      0.039859 Murtagh-Sargent


** GEOMETRY OPTIMIZATION IN DELOCALIZED INTERNAL COORDINATES **
   Searching for a Transition State

   Optimization Cycle:   2

                       Coordinates (Angstroms)
     ATOM                X               Y               Z
      1  C         1.6724235187    0.3882827647   -0.2842270966
      2  C         1.1724130295   -0.8638115068   -0.3074216059
      3  C        -0.2677727693   -1.0966590918   -0.0257819735
      4  C        -1.1783778070    0.1012275787   -0.3021322031
      5  C        -0.3935778563    1.4164835186   -0.0514115009
      6  N         0.9034157452    1.5151713634   -0.0158693994
      7  H         2.7288790459    0.5771531817   -0.4532427559
      8  H         1.8033896704   -1.6891808754   -0.6312796510
      9  H        -0.6160470518   -2.0767467727   -0.3728006854
     10  H        -2.1499438368   -0.1068898915   -0.7619923750
     11  H        -0.9277352975    2.3406171147    0.2165320288
     12  C        -0.9964386221   -0.2989672474    1.0859089898
     13  H        -1.7675132901   -0.2265894209    1.8486968918
   Point Group: c1    Number of degrees of freedom:    33


   Energy is   -286.817620894

 Hessian Updated using Powell/Murtagh-Sargent Update
  Mixing factors:     0.800832 Powell
                      0.199168 Murtagh-Sargent

 33 Hessian modes will be used to form the next step
  Hessian Eigenvalues:
    -0.023777    0.002400    0.008994    0.009738    0.013028    0.017789
     0.020187    0.022463    0.027988    0.032005    0.042803    0.048697
     0.056468    0.081009    0.099811    0.116695    0.119572    0.127358
     0.139984    0.163575    0.205179    0.213720    0.255737    0.301622
     0.328520    0.335382    0.337182    0.339611    0.356636    0.358257
     0.369319    0.540986    0.574521

 Transition State Search - Taking P-RFO Step
 Searching for Lamda that Maximizes Along the Lowest mode
 Value Taken    Lamda =   0.01011569
 Searching for Lamda that Minimizes Along All other modes
 Value Taken    Lamda =  -0.02712865
 Calculated Step too Large.  Step scaled by  0.127273
 Step Taken.  Stepsize is  0.100000

                             Maximum     Tolerance    Cnvgd?
         Gradient           0.028990      0.000010      NO
         Displacement       0.041107      0.001200      NO
         Energy change     -0.001740      0.000001      NO


 New Cartesian Coordinates Obtained by Inverse Iteration

 Displacement from previous Coordinates is:  0.101247
 ----------------------------------------------------------------
             Standard Nuclear Orientation (Angstroms)
    I     Atom           X                Y                Z
 ----------------------------------------------------------------
    1      C       1.6725470915     0.3898539537    -0.2889682653
    2      C       1.1734235216    -0.8636373902    -0.3082350206
    3      C      -0.2669825401    -1.0914224094    -0.0206689128
    4      C      -1.1767815188     0.1036886602    -0.3131587722
    5      C      -0.3964151447     1.4045011918    -0.0435013232
    6      N       0.9033097473     1.5123936067    -0.0136079142
    7      H       2.7283266300     0.5806748375    -0.4610325879
    8      H       1.8012656388    -1.6925417553    -0.6281288954
    9      H      -0.6213802627    -2.0748933548    -0.3488155519
   10      H      -2.1455713611    -0.0906350430    -0.7821762800
   11      H      -0.9382780025     2.3201782201     0.2323998447
   12      C      -0.9909591450    -0.2910685052     1.0780678830
   13      H      -1.7593901754    -0.2270012968     1.8428044595
 ----------------------------------------------------------------
 Nuclear Repulsion Energy =   271.5232861876 hartrees
 There are       25 alpha and       24 beta electrons
 Applying Cartesian multipole field
    Component          Value
    ---------          -----
     (2,0,0)        1.00000E-11
     (0,2,0)        2.00000E-11
     (0,0,2)       -3.00000E-11
 Nucleus-field energy     =     0.0000000048 hartrees
 Requested basis set is 6-31G(d)
 There are 40 shells and 117 basis functions
 A cutoff of  1.0D-14 yielded    807 shell pairs
 There are      7079 function pairs
 Smallest overlap matrix eigenvalue = 1.20E-03
 Guess MOs from SCF MO coefficient file
 Reading MOs from coefficient file
 Reading MOs from coefficient file
 An unrestricted hybrid HF-DFT SCF calculation will be
 performed using Pulay DIIS extrapolation
 Exchange:     0.2000 Hartree-Fock + 0.0800 Slater + 0.7200 B88
 Correlation:  0.1900 VWN1RPA + 0.8100 LYP
 Using SG-1 standard quadrature grid
 SCF converges when DIIS error is below 1.0E-08
 Geometry optimization detected.  Setting ReadMinima to 0
 Setting SaveMinima to 0
Using Q-Chem read-in guess as SCF_GUESS READ specified.

 using 4 threads for integral computing
 -------------------------------------------------------
 OpenMP Integral computing Module                
 Release: version 1.0, May 2013, Q-Chem Inc. Pittsburgh 
 -------------------------------------------------------
 -------------------------------------------------------
 OpenMP BLAS3 based DFT computing Module                
 Release: version 1.0, May 2013, Q-Chem Inc. Pittsburgh 
 -------------------------------------------------------
 ---------------------------------------
  Cycle       Energy         DIIS Error
 ---------------------------------------
    1    -286.8277564173      6.47E-04
    2    -286.8196281506      1.32E-04
    3    -286.8195726365      2.40E-04
    4    -286.8196883834      3.24E-05
    5    -286.8196922130      1.59E-05
    6    -286.8196944687      5.87E-06
    7    -286.8196959070      4.09E-06
    8    -286.8196964090      1.90E-06
    9    -286.8196966278      1.03E-06
   10    -286.8196966883      4.20E-07
   11    -286.8196967124      1.58E-07
   12    -286.8196967250      1.01E-07
   13    -286.8196967297      3.34E-08
   14    -286.8196967304      1.77E-08
   15    -286.8196967304      6.36E-09 Convergence criterion met
 ---------------------------------------
 <S^2> = 0.7826
 SCF time:  CPU 40.04 s  wall 31.60 s
 SCF   energy in the final basis set = -286.81969673
 Total energy in the final basis set = -286.81969673
 
 --------------------------------------------------------------
 
                    Orbital Energies (a.u.)
 --------------------------------------------------------------
 
 Alpha MOs
 -- Occupied --
-14.324 -10.247 -10.230 -10.218 -10.215 -10.204 -10.192  -0.942
 -0.869  -0.766  -0.648  -0.631  -0.580  -0.533  -0.497  -0.483
 -0.446  -0.417  -0.384  -0.370  -0.342  -0.300  -0.258  -0.241
 -0.190
 -- Virtual --
 -0.025   0.063   0.088   0.115   0.132   0.139   0.153   0.165
  0.184   0.212   0.241   0.248   0.283   0.328   0.401   0.438
  0.502   0.509   0.533   0.546   0.561   0.577   0.596   0.608
  0.633   0.646   0.647   0.668   0.689   0.713   0.745   0.799
  0.818   0.846   0.854   0.856   0.875   0.893   0.918   0.930
  0.974   0.993   1.059   1.088   1.128   1.202   1.266   1.281
  1.406   1.467   1.484   1.515   1.534   1.598   1.626   1.696
  1.715   1.754   1.807   1.822   1.889   1.942   1.954   2.025
  2.088   2.099   2.140   2.190   2.250   2.255   2.304   2.317
  2.425   2.469   2.481   2.549   2.565   2.610   2.624   2.672
  2.726   2.758   2.819   2.998   3.222   4.006   4.099   4.213
  4.286   4.344   4.434   4.605
 
 Beta MOs
 -- Occupied --
-14.319 -10.249 -10.230 -10.215 -10.206 -10.206 -10.189  -0.936
 -0.858  -0.763  -0.644  -0.627  -0.562  -0.528  -0.495  -0.477
 -0.443  -0.414  -0.381  -0.361  -0.333  -0.292  -0.252  -0.218
 -- Virtual --
 -0.077  -0.012   0.075   0.092   0.122   0.133   0.142   0.155
  0.171   0.187   0.215   0.245   0.250   0.292   0.331   0.405
  0.440   0.512   0.517   0.535   0.554   0.577   0.582   0.600
  0.610   0.636   0.650   0.653   0.675   0.694   0.720   0.753
  0.801   0.821   0.849   0.856   0.863   0.879   0.900   0.922
  0.934   0.980   0.998   1.061   1.092   1.132   1.211   1.273
  1.284   1.416   1.470   1.492   1.517   1.540   1.605   1.634
  1.708   1.724   1.763   1.816   1.832   1.907   1.957   1.964
  2.029   2.088   2.103   2.150   2.197   2.261   2.271   2.307
  2.325   2.431   2.474   2.489   2.554   2.572   2.619   2.635
  2.679   2.728   2.762   2.826   3.000   3.224   4.013   4.106
  4.212   4.292   4.360   4.436   4.607
 --------------------------------------------------------------
 
          Ground-State Mulliken Net Atomic Charges

     Atom                 Charge (a.u.)    Spin (a.u.)
  --------------------------------------------------------
      1 C                    -0.001795      -0.110511
      2 C                    -0.073280       0.201630
      3 C                    -0.187612      -0.042853
      4 C                    -0.151542      -0.004910
      5 C                     0.047926      -0.139896
      6 N                    -0.376705       0.246582
      7 H                     0.138024       0.006773
      8 H                     0.133620      -0.008595
      9 H                     0.153704       0.021971
     10 H                     0.158106       0.011543
     11 H                     0.154979       0.010249
     12 C                    -0.159066       0.837602
     13 H                     0.163640      -0.029585
  --------------------------------------------------------
  Sum of atomic charges =     0.000000
  Sum of spin   charges =     1.000000

 -----------------------------------------------------------------
                    Cartesian Multipole Moments
 -----------------------------------------------------------------
    Charge (ESU x 10^10)
                 0.0000
    Dipole Moment (Debye)
         X      -1.9699      Y      -1.6797      Z      -0.5330
       Tot       2.6431
    Quadrupole Moments (Debye-Ang)
        XX     -36.5613     XY      -3.0725     YY     -41.4059
        XZ      -1.8534     YZ       1.1234     ZZ     -42.1693
    Octopole Moments (Debye-Ang^2)
       XXX     -12.1067    XXY      -7.9258    XYY     -11.4428
       YYY     -25.6629    XXZ      -1.4369    XYZ      -0.5524
       YYZ      -2.9441    XZZ      -8.2080    YZZ      -5.4826
       ZZZ       0.0976
    Hexadecapole Moments (Debye-Ang^3)
      XXXX    -327.0445   XXXY     -10.7600   XXYY    -111.1152
      XYYY     -32.0871   YYYY    -298.8478   XXXZ      23.8526
      XXYZ       1.2098   XYYZ       8.4644   YYYZ       6.2578
      XXZZ     -72.6850   XYZZ      -3.9248   YYZZ     -70.3863
      XZZZ      27.5488   YZZZ       0.3403   ZZZZ    -108.1709
 -----------------------------------------------------------------
 Calculating analytic gradient of the SCF energy
 Gradient of SCF Energy
            1           2           3           4           5           6
    1   0.0015979  -0.0037744   0.0022904  -0.0039281   0.0058287  -0.0000900
    2   0.0015958  -0.0014235  -0.0119608  -0.0163345   0.0102096  -0.0009423
    3   0.0017142   0.0014192  -0.0160848  -0.0070589   0.0128090  -0.0011589
            7           8           9          10          11          12
    1  -0.0000265   0.0015053   0.0056041  -0.0040887   0.0039940  -0.0016849
    2  -0.0011155   0.0012300  -0.0039499  -0.0161190   0.0084553   0.0167816
    3   0.0013201  -0.0037620  -0.0090552   0.0071484   0.0038825   0.0120927
           13
    1  -0.0072278
    2   0.0135731
    3  -0.0032662
 Max gradient component =       1.678E-02
 RMS gradient           =       7.726E-03
 Gradient time:  CPU 7.87 s  wall 3.12 s
 Geometry Optimization Parameters
   NAtoms,    NIC,     NZ,  NCons,   NDum,   NFix, NCnnct, MaxDiis
       13     103       0       0       0       0       0       0

 Cartesian Hessian Update
 Hessian Updated using Powell/Murtagh-Sargent Update
  Mixing factors:     0.981862 Powell
                      0.018138 Murtagh-Sargent


** GEOMETRY OPTIMIZATION IN DELOCALIZED INTERNAL COORDINATES **
   Searching for a Transition State

   Optimization Cycle:   3

                       Coordinates (Angstroms)
     ATOM                X               Y               Z
      1  C         1.6725470915    0.3898539537   -0.2889682653
      2  C         1.1734235216   -0.8636373902   -0.3082350206
      3  C        -0.2669825401   -1.0914224094   -0.0206689128
      4  C        -1.1767815188    0.1036886602   -0.3131587722
      5  C        -0.3964151447    1.4045011918   -0.0435013232
      6  N         0.9033097473    1.5123936067   -0.0136079142
      7  H         2.7283266300    0.5806748375   -0.4610325879
      8  H         1.8012656388   -1.6925417553   -0.6281288954
      9  H        -0.6213802627   -2.0748933548   -0.3488155519
     10  H        -2.1455713611   -0.0906350430   -0.7821762800
     11  H        -0.9382780025    2.3201782201    0.2323998447
     12  C        -0.9909591450   -0.2910685052    1.0780678830
     13  H        -1.7593901754   -0.2270012968    1.8428044595
   Point Group: c1    Number of degrees of freedom:    33


   Energy is   -286.819696730

 Hessian Updated using Powell/Murtagh-Sargent Update
  Mixing factors:     0.995041 Powell
                      0.004959 Murtagh-Sargent

 33 Hessian modes will be used to form the next step
  Hessian Eigenvalues:
    -0.029605    0.002405    0.008897    0.009571    0.013165    0.017685
     0.020175    0.022503    0.027948    0.032068    0.044268    0.048711
     0.056519    0.081333    0.101686    0.116727    0.119573    0.127441
     0.140103    0.164302    0.205340    0.213837    0.255745    0.301629
     0.328525    0.335382    0.337180    0.339595    0.356641    0.358260
     0.369314    0.540983    0.574446

 Transition State Search - Taking P-RFO Step
 Searching for Lamda that Maximizes Along the Lowest mode
 Value Taken    Lamda =   0.00714462
 Searching for Lamda that Minimizes Along All other modes
 Value Taken    Lamda =  -0.02280043
 Calculated Step too Large.  Step scaled by  0.141902
 Step Taken.  Stepsize is  0.100000

                             Maximum     Tolerance    Cnvgd?
         Gradient           0.026029      0.000010      NO
         Displacement       0.043396      0.001200      NO
         Energy change     -0.002076      0.000001      NO


 New Cartesian Coordinates Obtained by Inverse Iteration

 Displacement from previous Coordinates is:  0.094519
 ----------------------------------------------------------------
             Standard Nuclear Orientation (Angstroms)
    I     Atom           X                Y                Z
 ----------------------------------------------------------------
    1      C       1.6725542825     0.3913991652    -0.2933199984
    2      C       1.1741017789    -0.8634265110    -0.3085786492
    3      C      -0.2663487462    -1.0863461579    -0.0153823519
    4      C      -1.1755313977     0.1069112920    -0.3223358516
    5      C      -0.3988677719     1.3943031558    -0.0369384978
    6      N       0.9035368908     1.5104035229    -0.0125990566
    7      H       2.7277122711     0.5837970298    -0.4684642029
    8      H       1.7990180644    -1.6959092589    -0.6239103113
    9      H      -0.6267495091    -2.0726138430    -0.3255224306
   10      H      -2.1411481568    -0.0723086133    -0.8011960781
   11      H      -0.9477603577     2.3028228987     0.2435991477
   12      C      -0.9860812754    -0.2842668372     1.0709895243
   13      H      -1.7513215938    -0.2346751279     1.8386374202
 ----------------------------------------------------------------
 Nuclear Repulsion Energy =   271.9628347095 hartrees
 There are       25 alpha and       24 beta electrons
 Applying Cartesian multipole field
    Component          Value
    ---------          -----
     (2,0,0)        1.00000E-11
     (0,2,0)        2.00000E-11
     (0,0,2)       -3.00000E-11
 Nucleus-field energy     =     0.0000000047 hartrees
 Requested basis set is 6-31G(d)
 There are 40 shells and 117 basis functions
 A cutoff of  1.0D-14 yielded    807 shell pairs
 There are      7079 function pairs
 Smallest overlap matrix eigenvalue = 1.18E-03
 Guess MOs from SCF MO coefficient file
 Reading MOs from coefficient file
 Reading MOs from coefficient file
 An unrestricted hybrid HF-DFT SCF calculation will be
 performed using Pulay DIIS extrapolation
 Exchange:     0.2000 Hartree-Fock + 0.0800 Slater + 0.7200 B88
 Correlation:  0.1900 VWN1RPA + 0.8100 LYP
 Using SG-1 standard quadrature grid
 SCF converges when DIIS error is below 1.0E-08
 Geometry optimization detected.  Setting ReadMinima to 0
 Setting SaveMinima to 0
Using Q-Chem read-in guess as SCF_GUESS READ specified.

 using 4 threads for integral computing
 -------------------------------------------------------
 OpenMP Integral computing Module                
 Release: version 1.0, May 2013, Q-Chem Inc. Pittsburgh 
 -------------------------------------------------------
 -------------------------------------------------------
 OpenMP BLAS3 based DFT computing Module                
 Release: version 1.0, May 2013, Q-Chem Inc. Pittsburgh 
 -------------------------------------------------------
 ---------------------------------------
  Cycle       Energy         DIIS Error
 ---------------------------------------
    1    -286.8296912835      6.03E-04
    2    -286.8217489997      1.37E-04
    3    -286.8216825932      2.50E-04
    4    -286.8218086481      3.18E-05
    5    -286.8218118786      1.55E-05
    6    -286.8218137210      5.82E-06
    7    -286.8218148364      3.93E-06
    8    -286.8218152760      1.81E-06
    9    -286.8218154394      1.00E-06
   10    -286.8218154872      3.75E-07
   11    -286.8218155029      1.43E-07
   12    -286.8218155107      8.99E-08
   13    -286.8218155143      2.94E-08
   14    -286.8218155148      1.41E-08
   15    -286.8218155148      6.09E-09 Convergence criterion met
 ---------------------------------------
 <S^2> = 0.7850
 SCF time:  CPU 39.53 s  wall 25.24 s
 SCF   energy in the final basis set = -286.82181551
 Total energy in the final basis set = -286.82181551
 
 --------------------------------------------------------------
 
                    Orbital Energies (a.u.)
 --------------------------------------------------------------
 
 Alpha MOs
 -- Occupied --
-14.324 -10.246 -10.229 -10.219 -10.215 -10.204 -10.192  -0.943
 -0.870  -0.766  -0.647  -0.633  -0.580  -0.534  -0.497  -0.483
 -0.446  -0.417  -0.384  -0.371  -0.344  -0.299  -0.258  -0.241
 -0.189
 -- Virtual --
 -0.022   0.065   0.088   0.117   0.134   0.139   0.153   0.165
  0.184   0.213   0.243   0.248   0.285   0.328   0.402   0.438
  0.501   0.509   0.532   0.546   0.560   0.577   0.595   0.607
  0.633   0.645   0.647   0.668   0.689   0.715   0.743   0.800
  0.818   0.845   0.854   0.857   0.875   0.893   0.919   0.932
  0.977   0.995   1.062   1.087   1.130   1.204   1.268   1.282
  1.404   1.465   1.486   1.514   1.537   1.600   1.628   1.695
  1.719   1.754   1.808   1.825   1.887   1.946   1.956   2.028
  2.091   2.102   2.139   2.193   2.254   2.265   2.308   2.317
  2.426   2.471   2.485   2.550   2.568   2.610   2.624   2.675
  2.728   2.759   2.821   2.997   3.223   4.007   4.101   4.218
  4.292   4.344   4.435   4.605
 
 Beta MOs
 -- Occupied --
-14.319 -10.248 -10.230 -10.215 -10.207 -10.206 -10.189  -0.936
 -0.859  -0.763  -0.643  -0.629  -0.563  -0.529  -0.495  -0.477
 -0.444  -0.414  -0.381  -0.361  -0.334  -0.291  -0.253  -0.218
 -- Virtual --
 -0.078  -0.010   0.077   0.092   0.124   0.135   0.142   0.155
  0.171   0.187   0.215   0.247   0.251   0.293   0.331   0.406
  0.440   0.511   0.517   0.535   0.554   0.575   0.583   0.600
  0.609   0.637   0.649   0.652   0.675   0.694   0.722   0.751
  0.802   0.821   0.849   0.855   0.864   0.878   0.901   0.922
  0.936   0.984   0.998   1.064   1.092   1.133   1.213   1.275
  1.285   1.414   1.468   1.493   1.516   1.544   1.607   1.636
  1.706   1.728   1.762   1.818   1.834   1.904   1.962   1.965
  2.031   2.092   2.105   2.149   2.201   2.264   2.281   2.311
  2.325   2.431   2.476   2.493   2.556   2.576   2.621   2.633
  2.682   2.730   2.763   2.828   2.999   3.225   4.014   4.108
  4.217   4.297   4.360   4.437   4.607
 --------------------------------------------------------------
 
          Ground-State Mulliken Net Atomic Charges

     Atom                 Charge (a.u.)    Spin (a.u.)
  --------------------------------------------------------
      1 C                    -0.001528      -0.117691
      2 C                    -0.072918       0.218954
      3 C                    -0.188935      -0.041996
      4 C                    -0.146749       0.000717
      5 C                     0.044349      -0.148749
      6 N                    -0.376970       0.265056
      7 H                     0.137850       0.007273
      8 H                     0.133463      -0.009538
      9 H                     0.153740       0.021714
     10 H                     0.157687       0.010082
     11 H                     0.154748       0.010290
     12 C                    -0.158176       0.812724
     13 H                     0.163439      -0.028835
  --------------------------------------------------------
  Sum of atomic charges =    -0.000000
  Sum of spin   charges =     1.000000

 -----------------------------------------------------------------
                    Cartesian Multipole Moments
 -----------------------------------------------------------------
    Charge (ESU x 10^10)
                 0.0000
    Dipole Moment (Debye)
         X      -1.9836      Y      -1.7169      Z      -0.5131
       Tot       2.6732
    Quadrupole Moments (Debye-Ang)
        XX     -36.5580     XY      -3.0628     YY     -41.4270
        XZ      -1.8495     YZ       1.0128     ZZ     -42.1272
    Octopole Moments (Debye-Ang^2)
       XXX     -12.1896    XXY      -7.9042    XYY     -11.4860
       YYY     -26.0166    XXZ      -1.4916    XYZ      -0.4962
       YYZ      -2.7684    XZZ      -8.2882    YZZ      -5.5586
       ZZZ       0.2734
    Hexadecapole Moments (Debye-Ang^3)
      XXXX    -326.7845   XXXY     -10.6061   XXYY    -110.6102
      XYYY     -31.6479   YYYY    -297.4222   XXXZ      23.7777
      XXYZ       0.9997   XYYZ       8.2706   YYYZ       5.9134
      XXZZ     -72.4869   XYZZ      -3.7639   YYZZ     -69.9957
      XZZZ      27.3653   YZZZ       0.0483   ZZZZ    -107.7820
 -----------------------------------------------------------------
 Calculating analytic gradient of the SCF energy
 Gradient of SCF Energy
            1           2           3           4           5           6
    1   0.0014257  -0.0032761   0.0013534  -0.0030187   0.0052650  -0.0003810
    2   0.0013439  -0.0009848  -0.0105835  -0.0130588   0.0086835  -0.0008116
    3   0.0013767   0.0015328  -0.0139942  -0.0068827   0.0110881  -0.0008137
            7           8           9          10          11          12
    1  -0.0000044   0.0012833   0.0050560  -0.0038580   0.0034334  -0.0005326
    2  -0.0009881   0.0010725  -0.0035398  -0.0146038   0.0072794   0.0134880
    3   0.0012163  -0.0033770  -0.0081273   0.0065638   0.0035600   0.0110886
           13
    1  -0.0067460
    2   0.0127032
    3  -0.0032313
 Max gradient component =       1.460E-02
 RMS gradient           =       6.748E-03
 Gradient time:  CPU 7.48 s  wall 2.08 s
 Geometry Optimization Parameters
   NAtoms,    NIC,     NZ,  NCons,   NDum,   NFix, NCnnct, MaxDiis
       13     103       0       0       0       0       0       0

 Cartesian Hessian Update
 Hessian Updated using Powell/Murtagh-Sargent Update
  Mixing factors:     0.993472 Powell
                      0.006528 Murtagh-Sargent


** GEOMETRY OPTIMIZATION IN DELOCALIZED INTERNAL COORDINATES **
   Searching for a Transition State

   Optimization Cycle:   4

                       Coordinates (Angstroms)
     ATOM                X               Y               Z
      1  C         1.6725542825    0.3913991652   -0.2933199984
      2  C         1.1741017789   -0.8634265110   -0.3085786492
      3  C        -0.2663487462   -1.0863461579   -0.0153823519
      4  C        -1.1755313977    0.1069112920   -0.3223358516
      5  C        -0.3988677719    1.3943031558   -0.0369384978
      6  N         0.9035368908    1.5104035229   -0.0125990566
      7  H         2.7277122711    0.5837970298   -0.4684642029
      8  H         1.7990180644   -1.6959092589   -0.6239103113
      9  H        -0.6267495091   -2.0726138430   -0.3255224306
     10  H        -2.1411481568   -0.0723086133   -0.8011960781
     11  H        -0.9477603577    2.3028228987    0.2435991477
     12  C        -0.9860812754   -0.2842668372    1.0709895243
     13  H        -1.7513215938   -0.2346751279    1.8386374202
   Point Group: c1    Number of degrees of freedom:    33


   Energy is   -286.821815515

 Hessian Updated using Powell/Murtagh-Sargent Update
  Mixing factors:     0.998645 Powell
                      0.001355 Murtagh-Sargent

 33 Hessian modes will be used to form the next step
  Hessian Eigenvalues:
    -0.032986    0.002406    0.008654    0.009536    0.013218    0.017527
     0.020163    0.022513    0.027915    0.032096    0.045158    0.048627
     0.056543    0.081565    0.103459    0.116764    0.119575    0.127504
     0.140179    0.165079    0.205494    0.213973    0.255748    0.301638
     0.328533    0.335382    0.337188    0.339590    0.356649    0.358274
     0.369316    0.540990    0.574509

 Transition State Search - Taking P-RFO Step
 Searching for Lamda that Maximizes Along the Lowest mode
 Value Taken    Lamda =   0.00502148
 Searching for Lamda that Minimizes Along All other modes
 Value Taken    Lamda =  -0.01890264
 Calculated Step too Large.  Step scaled by  0.153199
 Step Taken.  Stepsize is  0.100000

                             Maximum     Tolerance    Cnvgd?
         Gradient           0.022947      0.000010      NO
         Displacement       0.047955      0.001200      NO
         Energy change     -0.002119      0.000001      NO


 New Cartesian Coordinates Obtained by Inverse Iteration

 Displacement from previous Coordinates is:  0.088857
 ----------------------------------------------------------------
             Standard Nuclear Orientation (Angstroms)
    I     Atom           X                Y                Z
 ----------------------------------------------------------------
    1      C       1.6725039325     0.3928625263    -0.2973608093
    2      C       1.1744872561    -0.8631614107    -0.3084808730
    3      C      -0.2658197777    -1.0816120603    -0.0100866537
    4      C      -1.1746614157     0.1105936792    -0.3294971842
    5      C      -0.4007481381     1.3862597775    -0.0316776765
    6      N       0.9040979113     1.5092718226    -0.0129224840
    7      H       2.7270795048     0.5864296441    -0.4756599455
    8      H       1.7968132762    -1.6991123131    -0.6188211905
    9      H      -0.6319820665    -2.0701232874    -0.3033804509
   10      H      -2.1366303677    -0.0529809264    -0.8189018204
   11      H      -0.9557764825     2.2890586560     0.2506555047
   12      C      -0.9823756859    -0.2785991278     1.0649399856
   13      H      -1.7438734678    -0.2487962647     1.8361722616
 ----------------------------------------------------------------
 Nuclear Repulsion Energy =   272.3258535394 hartrees
 There are       25 alpha and       24 beta electrons
 Applying Cartesian multipole field
    Component          Value
    ---------          -----
     (2,0,0)        1.00000E-11
     (0,2,0)        2.00000E-11
     (0,0,2)       -3.00000E-11
 Nucleus-field energy     =     0.0000000047 hartrees
 Requested basis set is 6-31G(d)
 There are 40 shells and 117 basis functions
 A cutoff of  1.0D-14 yielded    807 shell pairs
 There are      7079 function pairs
 Smallest overlap matrix eigenvalue = 1.17E-03
 Guess MOs from SCF MO coefficient file
 Reading MOs from coefficient file
 Reading MOs from coefficient file
 An unrestricted hybrid HF-DFT SCF calculation will be
 performed using Pulay DIIS extrapolation
 Exchange:     0.2000 Hartree-Fock + 0.0800 Slater + 0.7200 B88
 Correlation:  0.1900 VWN1RPA + 0.8100 LYP
 Using SG-1 standard quadrature grid
 SCF converges when DIIS error is below 1.0E-08
 Geometry optimization detected.  Setting ReadMinima to 0
 Setting SaveMinima to 0
Using Q-Chem read-in guess as SCF_GUESS READ specified.

 using 4 threads for integral computing
 -------------------------------------------------------
 OpenMP Integral computing Module                
 Release: version 1.0, May 2013, Q-Chem Inc. Pittsburgh 
 -------------------------------------------------------
 -------------------------------------------------------
 OpenMP BLAS3 based DFT computing Module                
 Release: version 1.0, May 2013, Q-Chem Inc. Pittsburgh 
 -------------------------------------------------------
 ---------------------------------------
  Cycle       Energy         DIIS Error
 ---------------------------------------
    1    -286.8310222555      5.35E-04
    2    -286.8237764629      1.32E-04
    3    -286.8237126474      2.39E-04
    4    -286.8238286804      2.96E-05
    5    -286.8238311394      1.44E-05
    6    -286.8238324812      5.47E-06
    7    -286.8238332351      3.43E-06
    8    -286.8238335630      1.64E-06
    9    -286.8238336756      9.10E-07
   10    -286.8238337101      3.19E-07
   11    -286.8238337195      1.22E-07
   12    -286.8238337240      7.34E-08
   13    -286.8238337261      2.65E-08
   14    -286.8238337265      1.36E-08
   15    -286.8238337265      6.04E-09 Convergence criterion met
 ---------------------------------------
 <S^2> = 0.7867
 SCF time:  CPU 39.52 s  wall 32.80 s
 SCF   energy in the final basis set = -286.82383373
 Total energy in the final basis set = -286.82383373
 
 --------------------------------------------------------------
 
                    Orbital Energies (a.u.)
 --------------------------------------------------------------
 
 Alpha MOs
 -- Occupied --
-14.324 -10.246 -10.229 -10.219 -10.215 -10.204 -10.192  -0.944
 -0.870  -0.766  -0.647  -0.634  -0.581  -0.534  -0.497  -0.483
 -0.447  -0.417  -0.385  -0.371  -0.346  -0.299  -0.259  -0.241
 -0.189
 -- Virtual --
 -0.021   0.066   0.088   0.119   0.135   0.139   0.153   0.166
  0.183   0.213   0.244   0.248   0.286   0.327   0.403   0.438
  0.501   0.508   0.532   0.546   0.559   0.578   0.595   0.605
  0.634   0.644   0.646   0.668   0.688   0.717   0.741   0.800
  0.819   0.845   0.853   0.857   0.875   0.894   0.919   0.933
  0.979   0.998   1.065   1.087   1.131   1.205   1.270   1.284
  1.402   1.462   1.488   1.514   1.541   1.601   1.630   1.693
  1.723   1.753   1.809   1.829   1.886   1.949   1.959   2.030
  2.093   2.105   2.138   2.197   2.257   2.274   2.311   2.318
  2.426   2.473   2.489   2.550   2.572   2.611   2.625   2.678
  2.730   2.760   2.823   2.997   3.224   4.008   4.102   4.222
  4.297   4.344   4.436   4.604
 
 Beta MOs
 -- Occupied --
-14.318 -10.248 -10.229 -10.215 -10.207 -10.205 -10.189  -0.937
 -0.860  -0.763  -0.642  -0.630  -0.564  -0.529  -0.496  -0.477
 -0.444  -0.414  -0.381  -0.360  -0.336  -0.290  -0.253  -0.218
 -- Virtual --
 -0.079  -0.008   0.079   0.093   0.125   0.137   0.143   0.156
  0.171   0.186   0.216   0.248   0.251   0.294   0.330   0.407
  0.439   0.509   0.517   0.535   0.554   0.572   0.584   0.600
  0.608   0.637   0.648   0.651   0.675   0.693   0.723   0.749
  0.802   0.821   0.849   0.855   0.865   0.878   0.901   0.923
  0.937   0.986   1.001   1.067   1.091   1.135   1.214   1.277
  1.287   1.412   1.465   1.495   1.516   1.547   1.608   1.639
  1.704   1.731   1.762   1.820   1.837   1.903   1.964   1.968
  2.034   2.094   2.107   2.149   2.205   2.268   2.289   2.314
  2.324   2.431   2.477   2.498   2.557   2.579   2.623   2.632
  2.685   2.732   2.764   2.829   2.998   3.226   4.016   4.109
  4.221   4.301   4.361   4.439   4.607
 --------------------------------------------------------------
 
          Ground-State Mulliken Net Atomic Charges

     Atom                 Charge (a.u.)    Spin (a.u.)
  --------------------------------------------------------
      1 C                    -0.001364      -0.123282
      2 C                    -0.072520       0.233431
      3 C                    -0.189862      -0.040920
      4 C                    -0.142881       0.005821
      5 C                     0.041495      -0.155152
      6 N                    -0.377211       0.279692
      7 H                     0.137699       0.007663
      8 H                     0.133357      -0.010311
      9 H                     0.153713       0.021435
     10 H                     0.157263       0.008751
     11 H                     0.154562       0.010308
     12 C                    -0.157275       0.790581
     13 H                     0.163024      -0.028017
  --------------------------------------------------------
  Sum of atomic charges =    -0.000000
  Sum of spin   charges =     1.000000

 -----------------------------------------------------------------
                    Cartesian Multipole Moments
 -----------------------------------------------------------------
    Charge (ESU x 10^10)
                -0.0000
    Dipole Moment (Debye)
         X      -1.9920      Y      -1.7505      Z      -0.4946
       Tot       2.6976
    Quadrupole Moments (Debye-Ang)
        XX     -36.5636     XY      -3.0549     YY     -41.4439
        XZ      -1.8373     YZ       0.8981     ZZ     -42.0819
    Octopole Moments (Debye-Ang^2)
       XXX     -12.2378    XXY      -7.9111    XYY     -11.5309
       YYY     -26.3458    XXZ      -1.5505    XYZ      -0.4123
       YYZ      -2.6007    XZZ      -8.3602    YZZ      -5.6544
       ZZZ       0.4345
    Hexadecapole Moments (Debye-Ang^3)
      XXXX    -326.6586   XXXY     -10.5098   XXYY    -110.1978
      XYYY     -31.3341   YYYY    -296.3455   XXXZ      23.7757
      XXYZ       0.8045   XYYZ       8.1262   YYYZ       5.7226
      XXZZ     -72.3131   XYZZ      -3.5926   YYZZ     -69.6848
      XZZZ      27.2467   YZZZ      -0.1248   ZZZZ    -107.4151
 -----------------------------------------------------------------
 Calculating analytic gradient of the SCF energy
 Gradient of SCF Energy
            1           2           3           4           5           6
    1   0.0012445  -0.0028024   0.0005275  -0.0021856   0.0044957  -0.0004372
    2   0.0011619  -0.0006447  -0.0092474  -0.0101598   0.0072799  -0.0007122
    3   0.0010846   0.0015766  -0.0119223  -0.0066125   0.0095152  -0.0005430
            7           8           9          10          11          12
    1   0.0000124   0.0010737   0.0045188  -0.0036079   0.0029152   0.0005051
    2  -0.0008588   0.0009222  -0.0031377  -0.0130703   0.0061884   0.0105753
    3   0.0011064  -0.0030008  -0.0071833   0.0059635   0.0031924   0.0098929
           13
    1  -0.0062598
    2   0.0117033
    3  -0.0030698
 Max gradient component =       1.307E-02
 RMS gradient           =       5.831E-03
 Gradient time:  CPU 7.59 s  wall 4.99 s
 Geometry Optimization Parameters
   NAtoms,    NIC,     NZ,  NCons,   NDum,   NFix, NCnnct, MaxDiis
       13     103       0       0       0       0       0       0

 Cartesian Hessian Update
 Hessian Updated using Powell/Murtagh-Sargent Update
  Mixing factors:     0.998968 Powell
                      0.001032 Murtagh-Sargent


** GEOMETRY OPTIMIZATION IN DELOCALIZED INTERNAL COORDINATES **
   Searching for a Transition State

   Optimization Cycle:   5

                       Coordinates (Angstroms)
     ATOM                X               Y               Z
      1  C         1.6725039325    0.3928625263   -0.2973608093
      2  C         1.1744872561   -0.8631614107   -0.3084808730
      3  C        -0.2658197777   -1.0816120603   -0.0100866537
      4  C        -1.1746614157    0.1105936792   -0.3294971842
      5  C        -0.4007481381    1.3862597775   -0.0316776765
      6  N         0.9040979113    1.5092718226   -0.0129224840
      7  H         2.7270795048    0.5864296441   -0.4756599455
      8  H         1.7968132762   -1.6991123131   -0.6188211905
      9  H        -0.6319820665   -2.0701232874   -0.3033804509
     10  H        -2.1366303677   -0.0529809264   -0.8189018204
     11  H        -0.9557764825    2.2890586560    0.2506555047
     12  C        -0.9823756859   -0.2785991278    1.0649399856
     13  H        -1.7438734678   -0.2487962647    1.8361722616
   Point Group: c1    Number of degrees of freedom:    33


   Energy is   -286.823833726

 Hessian Updated using Powell/Murtagh-Sargent Update
  Mixing factors:     0.959757 Powell
                      0.040243 Murtagh-Sargent

 33 Hessian modes will be used to form the next step
  Hessian Eigenvalues:
    -0.034228    0.002410    0.008521    0.009578    0.013208    0.017371
     0.020158    0.022496    0.027901    0.032108    0.045626    0.048415
     0.056547    0.081653    0.104823    0.116802    0.119582    0.127547
     0.140207    0.165756    0.205601    0.214109    0.255748    0.301647
     0.328546    0.335389    0.337205    0.339589    0.356660    0.358314
     0.369321    0.541000    0.574584

 Transition State Search - Taking P-RFO Step
 Searching for Lamda that Maximizes Along the Lowest mode
 Value Taken    Lamda =   0.00365774
 Searching for Lamda that Minimizes Along All other modes
 Value Taken    Lamda =  -0.01551444
 Calculated Step too Large.  Step scaled by  0.160941
 Step Taken.  Stepsize is  0.100000

                             Maximum     Tolerance    Cnvgd?
         Gradient           0.019930      0.000010      NO
         Displacement       0.051287      0.001200      NO
         Energy change     -0.002018      0.000001      NO


 New Cartesian Coordinates Obtained by Inverse Iteration

 Displacement from previous Coordinates is:  0.084686
 ----------------------------------------------------------------
             Standard Nuclear Orientation (Angstroms)
    I     Atom           X                Y                Z
 ----------------------------------------------------------------
    1      C       1.6724285933     0.3941991939    -0.3011465066
    2      C       1.1746528897    -0.8628580779    -0.3081248426
    3      C      -0.2653269544    -1.0772612539    -0.0050137642
    4      C      -1.1742955565     0.1142847497    -0.3350395114
    5      C      -0.4020978080     1.3800996986    -0.0274093248
    6      N       0.9048509880     1.5087655055    -0.0142116269
    7      H       2.7264574272     0.5886018750    -0.4825885264
    8      H       1.7947599393    -1.7020808534    -0.6132207962
    9      H      -0.6368464079    -2.0676164360    -0.2826263117
   10      H      -2.1320614582    -0.0337279797    -0.8356372826
   11      H      -0.9623550206     2.2783994487     0.2549120417
   12      C      -0.9801483811    -0.2736912790     1.0597811548
   13      H      -1.7369037718    -0.2670238762     1.8353039605
 ----------------------------------------------------------------
 Nuclear Repulsion Energy =   272.6129547484 hartrees
 There are       25 alpha and       24 beta electrons
 Applying Cartesian multipole field
    Component          Value
    ---------          -----
     (2,0,0)        1.00000E-11
     (0,2,0)        2.00000E-11
     (0,0,2)       -3.00000E-11
 Nucleus-field energy     =     0.0000000047 hartrees
 Requested basis set is 6-31G(d)
 There are 40 shells and 117 basis functions
 A cutoff of  1.0D-14 yielded    807 shell pairs
 There are      7079 function pairs
 Smallest overlap matrix eigenvalue = 1.17E-03
 Guess MOs from SCF MO coefficient file
 Reading MOs from coefficient file
 Reading MOs from coefficient file
 An unrestricted hybrid HF-DFT SCF calculation will be
 performed using Pulay DIIS extrapolation
 Exchange:     0.2000 Hartree-Fock + 0.0800 Slater + 0.7200 B88
 Correlation:  0.1900 VWN1RPA + 0.8100 LYP
 Using SG-1 standard quadrature grid
 SCF converges when DIIS error is below 1.0E-08
 Geometry optimization detected.  Setting ReadMinima to 0
 Setting SaveMinima to 0
Using Q-Chem read-in guess as SCF_GUESS READ specified.

 using 4 threads for integral computing
 -------------------------------------------------------
 OpenMP Integral computing Module                
 Release: version 1.0, May 2013, Q-Chem Inc. Pittsburgh 
 -------------------------------------------------------
 -------------------------------------------------------
 OpenMP BLAS3 based DFT computing Module                
 Release: version 1.0, May 2013, Q-Chem Inc. Pittsburgh 
 -------------------------------------------------------
 ---------------------------------------
  Cycle       Energy         DIIS Error
 ---------------------------------------
    1    -286.8318649836      4.61E-04
    2    -286.8255922588      1.21E-04
    3    -286.8255394841      2.16E-04
    4    -286.8256344971      2.65E-05
    5    -286.8256363102      1.29E-05
    6    -286.8256372765      5.04E-06
    7    -286.8256377792      2.90E-06
    8    -286.8256380088      1.46E-06
    9    -286.8256380857      8.07E-07
   10    -286.8256381100      2.69E-07
   11    -286.8256381157      1.04E-07
   12    -286.8256381182      5.91E-08
   13    -286.8256381194      2.33E-08
   14    -286.8256381197      1.33E-08
   15    -286.8256381197      5.21E-09 Convergence criterion met
 ---------------------------------------
 <S^2> = 0.7880
 SCF time:  CPU 39.47 s  wall 34.55 s
 SCF   energy in the final basis set = -286.82563812
 Total energy in the final basis set = -286.82563812
 
 --------------------------------------------------------------
 
                    Orbital Energies (a.u.)
 --------------------------------------------------------------
 
 Alpha MOs
 -- Occupied --
-14.324 -10.245 -10.228 -10.219 -10.215 -10.204 -10.192  -0.945
 -0.871  -0.766  -0.647  -0.635  -0.581  -0.535  -0.497  -0.482
 -0.447  -0.417  -0.385  -0.371  -0.347  -0.298  -0.259  -0.241
 -0.188
 -- Virtual --
 -0.019   0.067   0.089   0.121   0.137   0.139   0.154   0.166
  0.183   0.214   0.245   0.249   0.287   0.327   0.404   0.437
  0.501   0.507   0.531   0.547   0.557   0.579   0.594   0.604
  0.633   0.644   0.646   0.668   0.688   0.718   0.740   0.800
  0.819   0.845   0.853   0.858   0.874   0.894   0.919   0.934
  0.979   1.001   1.068   1.087   1.133   1.205   1.271   1.286
  1.399   1.458   1.489   1.513   1.545   1.602   1.631   1.691
  1.725   1.753   1.810   1.833   1.885   1.951   1.962   2.032
  2.092   2.108   2.139   2.200   2.259   2.281   2.312   2.320
  2.427   2.474   2.493   2.550   2.575   2.610   2.626   2.680
  2.732   2.761   2.824   2.996   3.225   4.009   4.102   4.226
  4.302   4.343   4.438   4.604
 
 Beta MOs
 -- Occupied --
-14.318 -10.247 -10.228 -10.214 -10.207 -10.206 -10.188  -0.938
 -0.860  -0.762  -0.642  -0.631  -0.564  -0.530  -0.496  -0.476
 -0.444  -0.413  -0.381  -0.360  -0.336  -0.290  -0.253  -0.219
 -- Virtual --
 -0.080  -0.007   0.081   0.093   0.127   0.138   0.143   0.156
  0.171   0.186   0.216   0.248   0.252   0.295   0.330   0.408
  0.439   0.508   0.516   0.534   0.553   0.570   0.585   0.600
  0.607   0.637   0.648   0.651   0.675   0.693   0.723   0.749
  0.802   0.821   0.849   0.854   0.865   0.878   0.902   0.923
  0.938   0.987   1.004   1.070   1.091   1.137   1.213   1.279
  1.289   1.409   1.461   1.496   1.516   1.552   1.609   1.640
  1.701   1.733   1.761   1.822   1.840   1.901   1.964   1.972
  2.036   2.094   2.108   2.150   2.209   2.270   2.296   2.317
  2.325   2.432   2.478   2.502   2.557   2.582   2.624   2.632
  2.687   2.734   2.765   2.831   2.997   3.227   4.017   4.110
  4.225   4.305   4.361   4.440   4.606
 --------------------------------------------------------------
 
          Ground-State Mulliken Net Atomic Charges

     Atom                 Charge (a.u.)    Spin (a.u.)
  --------------------------------------------------------
      1 C                    -0.001257      -0.127574
      2 C                    -0.072126       0.245336
      3 C                    -0.190383      -0.039762
      4 C                    -0.139867       0.010408
      5 C                     0.039282      -0.159726
      6 N                    -0.377380       0.291069
      7 H                     0.137576       0.007956
      8 H                     0.133295      -0.010941
      9 H                     0.153635       0.021115
     10 H                     0.156848       0.007579
     11 H                     0.154427       0.010314
     12 C                    -0.156525       0.771448
     13 H                     0.162474      -0.027222
  --------------------------------------------------------
  Sum of atomic charges =     0.000000
  Sum of spin   charges =     1.000000

 -----------------------------------------------------------------
                    Cartesian Multipole Moments
 -----------------------------------------------------------------
    Charge (ESU x 10^10)
                 0.0000
    Dipole Moment (Debye)
         X      -1.9948      Y      -1.7799      Z      -0.4780
       Tot       2.7158
    Quadrupole Moments (Debye-Ang)
        XX     -36.5780     XY      -3.0484     YY     -41.4563
        XZ      -1.8186     YZ       0.7848     ZZ     -42.0348
    Octopole Moments (Debye-Ang^2)
       XXX     -12.2402    XXY      -7.9377    XYY     -11.5716
       YYY     -26.6450    XXZ      -1.6129    XYZ      -0.3119
       YYZ      -2.4409    XZZ      -8.4211    YZZ      -5.7619
       ZZZ       0.5838
    Hexadecapole Moments (Debye-Ang^3)
      XXXX    -326.6898   XXXY     -10.4584   XXYY    -109.8686
      XYYY     -31.1184   YYYY    -295.5495   XXXZ      23.8415
      XXYZ       0.6238   XYYZ       8.0225   YYYZ       5.6423
      XXZZ     -72.1700   XYZZ      -3.4193   YYZZ     -69.4413
      XZZZ      27.1893   YZZZ      -0.2182   ZZZZ    -107.0778
 -----------------------------------------------------------------
 Calculating analytic gradient of the SCF energy
 Gradient of SCF Energy
            1           2           3           4           5           6
    1   0.0010681  -0.0023677  -0.0001167  -0.0014781   0.0036838  -0.0003618
    2   0.0010235  -0.0003955  -0.0080316  -0.0077483   0.0060655  -0.0006262
    3   0.0008438   0.0015516  -0.0099872  -0.0063038   0.0081623  -0.0003456
            7           8           9          10          11          12
    1   0.0000251   0.0008847   0.0040023  -0.0033553   0.0024533   0.0013410
    2  -0.0007363   0.0007841  -0.0027614  -0.0115756   0.0052191   0.0081737
    3   0.0009976  -0.0026476  -0.0062678   0.0053704   0.0028091   0.0086235
           13
    1  -0.0057785
    2   0.0106091
    3  -0.0028063
 Max gradient component =       1.158E-02
 RMS gradient           =       5.012E-03
 Gradient time:  CPU 7.53 s  wall 7.58 s
 Geometry Optimization Parameters
   NAtoms,    NIC,     NZ,  NCons,   NDum,   NFix, NCnnct, MaxDiis
       13     103       0       0       0       0       0       0

 Cartesian Hessian Update
 Hessian Updated using Powell/Murtagh-Sargent Update
  Mixing factors:     0.999970 Powell
                      0.000030 Murtagh-Sargent


** GEOMETRY OPTIMIZATION IN DELOCALIZED INTERNAL COORDINATES **
   Searching for a Transition State

   Optimization Cycle:   6

                       Coordinates (Angstroms)
     ATOM                X               Y               Z
      1  C         1.6724285933    0.3941991939   -0.3011465066
      2  C         1.1746528897   -0.8628580779   -0.3081248426
      3  C        -0.2653269544   -1.0772612539   -0.0050137642
      4  C        -1.1742955565    0.1142847497   -0.3350395114
      5  C        -0.4020978080    1.3800996986   -0.0274093248
      6  N         0.9048509880    1.5087655055   -0.0142116269
      7  H         2.7264574272    0.5886018750   -0.4825885264
      8  H         1.7947599393   -1.7020808534   -0.6132207962
      9  H        -0.6368464079   -2.0676164360   -0.2826263117
     10  H        -2.1320614582   -0.0337279797   -0.8356372826
     11  H        -0.9623550206    2.2783994487    0.2549120417
     12  C        -0.9801483811   -0.2736912790    1.0597811548
     13  H        -1.7369037718   -0.2670238762    1.8353039605
   Point Group: c1    Number of degrees of freedom:    33


   Energy is   -286.825638120

 Hessian Updated using Powell/Murtagh-Sargent Update
  Mixing factors:     0.812440 Powell
                      0.187560 Murtagh-Sargent

 33 Hessian modes will be used to form the next step
  Hessian Eigenvalues:
    -0.034326    0.002412    0.008641    0.009747    0.013185    0.017263
     0.020156    0.022481    0.027896    0.032110    0.045835    0.048297
     0.056544    0.081653    0.105633    0.116831    0.119593    0.127575
     0.140215    0.166132    0.205647    0.214184    0.255769    0.301652
     0.328556    0.335415    0.337236    0.339589    0.356671    0.358378
     0.369324    0.541001    0.574589

 Transition State Search - Taking P-RFO Step
 Searching for Lamda that Maximizes Along the Lowest mode
 Value Taken    Lamda =   0.00277418
 Searching for Lamda that Minimizes Along All other modes
 Value Taken    Lamda =  -0.01260508
 Calculated Step too Large.  Step scaled by  0.167737
 Step Taken.  Stepsize is  0.100000

                             Maximum     Tolerance    Cnvgd?
         Gradient           0.017127      0.000010      NO
         Displacement       0.053779      0.001200      NO
         Energy change     -0.001804      0.000001      NO


 New Cartesian Coordinates Obtained by Inverse Iteration

 Displacement from previous Coordinates is:  0.081512
 ----------------------------------------------------------------
             Standard Nuclear Orientation (Angstroms)
    I     Atom           X                Y                Z
 ----------------------------------------------------------------
    1      C       1.6723399469     0.3954106401    -0.3047556716
    2      C       1.1746683890    -0.8625408127    -0.3076746814
    3      C      -0.2648330060    -1.0732008348    -0.0003264475
    4      C      -1.1744748037     0.1177089968    -0.3394938282
    5      C      -0.4031037676     1.3751864068    -0.0237076412
    6      N       0.9056446823     1.5085746295    -0.0160900259
    7      H       2.7258514534     0.5904322119    -0.4892477128
    8      H       1.7928968846    -1.7048393930    -0.6073282699
    9      H      -0.6412988241    -2.0651289209    -0.2631774468
   10      H      -2.1274330405    -0.0151618476    -0.8518825114
   11      H      -0.9678064081     2.2698516618     0.2577637588
   12      C      -0.9793006863    -0.2690954906     1.0552132077
   13      H      -1.7300363409    -0.2871065321     1.8356859341
 ----------------------------------------------------------------
 Nuclear Repulsion Energy =   272.8431069330 hartrees
 There are       25 alpha and       24 beta electrons
 Applying Cartesian multipole field
    Component          Value
    ---------          -----
     (2,0,0)        1.00000E-11
     (0,2,0)        2.00000E-11
     (0,0,2)       -3.00000E-11
 Nucleus-field energy     =     0.0000000047 hartrees
 Requested basis set is 6-31G(d)
 There are 40 shells and 117 basis functions
 A cutoff of  1.0D-14 yielded    807 shell pairs
 There are      7079 function pairs
 Smallest overlap matrix eigenvalue = 1.16E-03
 Guess MOs from SCF MO coefficient file
 Reading MOs from coefficient file
 Reading MOs from coefficient file
 An unrestricted hybrid HF-DFT SCF calculation will be
 performed using Pulay DIIS extrapolation
 Exchange:     0.2000 Hartree-Fock + 0.0800 Slater + 0.7200 B88
 Correlation:  0.1900 VWN1RPA + 0.8100 LYP
 Using SG-1 standard quadrature grid
 SCF converges when DIIS error is below 1.0E-08
 Geometry optimization detected.  Setting ReadMinima to 0
 Setting SaveMinima to 0
Using Q-Chem read-in guess as SCF_GUESS READ specified.

 using 4 threads for integral computing
 -------------------------------------------------------
 OpenMP Integral computing Module                
[...]
 Searching for Lamda that Maximizes Along the Lowest mode
 Value Taken    Lamda =   0.00000000
 Searching for Lamda that Minimizes Along All other modes
 Value Taken    Lamda =   0.00000000
 Step Taken.  Stepsize is  0.001993

                             Maximum     Tolerance    Cnvgd?
         Gradient           0.000018      0.000010      NO
         Displacement       0.001242      0.001200      NO
         Energy change     -0.000002      0.000001      NO


 New Cartesian Coordinates Obtained by Inverse Iteration

 Displacement from previous Coordinates is:  0.001505
 ----------------------------------------------------------------
             Standard Nuclear Orientation (Angstroms)
    I     Atom           X                Y                Z
 ----------------------------------------------------------------
    1      C       1.6692165194     0.4020421922    -0.3329704537
    2      C       1.1707511343    -0.8601924275    -0.3015675632
    3      C      -0.2646096269    -1.0439326166     0.0199013927
    4      C      -1.1916186055     0.1353965403    -0.3539592033
    5      C      -0.4095048035     1.3527858618    -0.0006395827
    6      N       0.9063419079     1.5095909548    -0.0468451581
    7      H       2.7191364370     0.5993089318    -0.5378579626
    8      H       1.7844943531    -1.7241872301    -0.5380100906
    9      H      -0.6712464107    -2.0417918059    -0.1499796941
   10      H      -2.0792510804     0.1147803293    -0.9825103802
   11      H      -0.9927657722     2.2322221590     0.2726817779
   12      C      -1.0018509631    -0.2433166335     1.0308973090
   13      H      -1.6559786103    -0.4526155401     1.8658382727
 ----------------------------------------------------------------
 Nuclear Repulsion Energy =   273.7453842507 hartrees
 There are       25 alpha and       24 beta electrons
 Applying Cartesian multipole field
    Component          Value
    ---------          -----
     (2,0,0)        1.00000E-11
     (0,2,0)        2.00000E-11
     (0,0,2)       -3.00000E-11
 Nucleus-field energy     =     0.0000000046 hartrees
 Requested basis set is 6-31G(d)
 There are 40 shells and 117 basis functions
 A cutoff of  1.0D-14 yielded    807 shell pairs
 There are      7079 function pairs
 Smallest overlap matrix eigenvalue = 1.20E-03
 Guess MOs from SCF MO coefficient file
 Reading MOs from coefficient file
 Reading MOs from coefficient file
 An unrestricted hybrid HF-DFT SCF calculation will be
 performed using Pulay DIIS extrapolation
 Exchange:     0.2000 Hartree-Fock + 0.0800 Slater + 0.7200 B88
 Correlation:  0.1900 VWN1RPA + 0.8100 LYP
 Using SG-1 standard quadrature grid
 SCF converges when DIIS error is below 1.0E-08
 Geometry optimization detected.  Setting ReadMinima to 0
 Setting SaveMinima to 0
Using Q-Chem read-in guess as SCF_GUESS READ specified.

 using 4 threads for integral computing
 -------------------------------------------------------
 OpenMP Integral computing Module                
 Release: version 1.0, May 2013, Q-Chem Inc. Pittsburgh 
 -------------------------------------------------------
 -------------------------------------------------------
 OpenMP BLAS3 based DFT computing Module                
 Release: version 1.0, May 2013, Q-Chem Inc. Pittsburgh 
 -------------------------------------------------------
 ---------------------------------------
  Cycle       Energy         DIIS Error
 ---------------------------------------
    1    -286.8326561869      5.56E-06
    2    -286.8326171817      1.67E-06
    3    -286.8326171713      2.97E-06
    4    -286.8326171891      3.85E-07
    5    -286.8326171894      1.32E-07
    6    -286.8326171895      4.10E-08
    7    -286.8326171895      2.73E-08
    8    -286.8326171895      3.43E-09 Convergence criterion met
 ---------------------------------------
 <S^2> = 0.7920
 SCF time:  CPU 21.19 s  wall 16.28 s
 SCF   energy in the final basis set = -286.83261719
 Total energy in the final basis set = -286.83261719
 
 --------------------------------------------------------------
 
                    Orbital Energies (a.u.)
 --------------------------------------------------------------
 
 Alpha MOs
 -- Occupied --
-14.324 -10.242 -10.221 -10.219 -10.216 -10.205 -10.193  -0.948
 -0.874  -0.767  -0.651  -0.636  -0.582  -0.536  -0.498  -0.480
 -0.452  -0.412  -0.388  -0.372  -0.349  -0.302  -0.261  -0.243
 -0.185
 -- Virtual --
 -0.013   0.071   0.095   0.132   0.136   0.143   0.155   0.166
  0.181   0.220   0.242   0.249   0.294   0.325   0.404   0.436
  0.499   0.507   0.527   0.543   0.553   0.582   0.595   0.599
  0.631   0.640   0.648   0.666   0.682   0.715   0.757   0.801
  0.821   0.840   0.850   0.864   0.877   0.896   0.920   0.935
  0.971   1.031   1.074   1.089   1.160   1.201   1.269   1.314
  1.364   1.428   1.502   1.511   1.583   1.613   1.633   1.673
  1.724   1.746   1.825   1.853   1.887   1.950   1.972   2.049
  2.079   2.115   2.149   2.217   2.265   2.301   2.319   2.340
  2.424   2.480   2.515   2.538   2.592   2.610   2.638   2.700
  2.747   2.758   2.835   2.989   3.225   4.009   4.100   4.242
  4.322   4.339   4.443   4.600
 
 Beta MOs
 -- Occupied --
-14.317 -10.244 -10.221 -10.216 -10.209 -10.207 -10.189  -0.940
 -0.863  -0.762  -0.643  -0.634  -0.568  -0.532  -0.496  -0.473
 -0.449  -0.408  -0.385  -0.359  -0.337  -0.291  -0.253  -0.222
 -- Virtual --
 -0.083  -0.001   0.087   0.098   0.134   0.143   0.145   0.160
  0.169   0.185   0.222   0.246   0.252   0.302   0.329   0.408
  0.438   0.503   0.518   0.531   0.550   0.562   0.586   0.600
  0.605   0.634   0.645   0.653   0.674   0.688   0.718   0.767
  0.804   0.822   0.847   0.851   0.871   0.880   0.903   0.926
  0.938   0.977   1.036   1.077   1.094   1.165   1.205   1.275
  1.318   1.375   1.434   1.507   1.516   1.592   1.617   1.647
  1.679   1.732   1.755   1.838   1.857   1.900   1.960   1.983
  2.053   2.082   2.114   2.160   2.228   2.278   2.310   2.326
  2.348   2.429   2.485   2.521   2.548   2.600   2.624   2.644
  2.707   2.750   2.762   2.842   2.991   3.228   4.019   4.107
  4.241   4.320   4.359   4.448   4.603
 --------------------------------------------------------------
 
          Ground-State Mulliken Net Atomic Charges

     Atom                 Charge (a.u.)    Spin (a.u.)
  --------------------------------------------------------
      1 C                     0.000207      -0.147406
      2 C                    -0.070362       0.310709
      3 C                    -0.188009      -0.032262
      4 C                    -0.126113       0.039053
      5 C                     0.027212      -0.173369
      6 N                    -0.374655       0.342173
      7 H                     0.136927       0.008571
      8 H                     0.133560      -0.014334
      9 H                     0.151390       0.016986
     10 H                     0.152905       0.001812
     11 H                     0.153340       0.010070
     12 C                    -0.154434       0.661031
     13 H                     0.158032      -0.023034
  --------------------------------------------------------
  Sum of atomic charges =    -0.000000
  Sum of spin   charges =     1.000000

 -----------------------------------------------------------------
                    Cartesian Multipole Moments
 -----------------------------------------------------------------
    Charge (ESU x 10^10)
                -0.0000
    Dipole Moment (Debye)
         X      -1.8603      Y      -1.9331      Z      -0.3468
       Tot       2.7052
    Quadrupole Moments (Debye-Ang)
        XX     -36.9865     XY      -3.0268     YY     -41.5346
        XZ      -1.4967     YZ      -0.0396     ZZ     -41.4959
    Octopole Moments (Debye-Ang^2)
       XXX     -10.1764    XXY      -8.2605    XYY     -11.4474
       YYY     -28.3784    XXZ      -2.1723    XYZ       0.6157
       YYZ      -1.0306    XZZ      -8.5807    YZZ      -6.6600
       ZZZ       1.9212
    Hexadecapole Moments (Debye-Ang^3)
      XXXX    -331.5405   XXXY     -10.6836   XXYY    -108.1418
      XYYY     -30.2973   YYYY    -292.5070   XXXZ      26.0616
      XXYZ      -0.5534   XYYZ       7.9359   YYYZ       6.5327
      XXZZ     -71.8646   XYZZ      -2.0038   YYZZ     -68.2120
      XZZZ      28.0737   YZZZ      -0.1774   ZZZZ    -104.7413
 -----------------------------------------------------------------
 Calculating analytic gradient of the SCF energy
 Gradient of SCF Energy
            1           2           3           4           5           6
    1   0.0000047   0.0000007   0.0000023  -0.0000021   0.0000127  -0.0000021
    2  -0.0000028   0.0000039   0.0000012   0.0000164   0.0000055  -0.0000023
    3   0.0000311   0.0000034  -0.0000032  -0.0000088   0.0000094   0.0000360
            7           8           9          10          11          12
    1   0.0000098   0.0000022  -0.0000051   0.0000177   0.0000046  -0.0000217
    2  -0.0000011   0.0000018   0.0000042   0.0000180   0.0000003  -0.0000239
    3   0.0000485   0.0000026  -0.0000366  -0.0000282   0.0000153  -0.0000406
           13
    1  -0.0000236
    2  -0.0000212
    3  -0.0000290
 Max gradient component =       4.851E-05
 RMS gradient           =       1.830E-05
 Gradient time:  CPU 7.66 s  wall 6.55 s
 Geometry Optimization Parameters
   NAtoms,    NIC,     NZ,  NCons,   NDum,   NFix, NCnnct, MaxDiis
       13     103       0       0       0       0       0       0

 Cartesian Hessian Update
 Hessian Updated using Powell/Murtagh-Sargent Update
**WARNING** Small Scalar Product
 Hessian Update Skipped this cycle


** GEOMETRY OPTIMIZATION IN DELOCALIZED INTERNAL COORDINATES **
   Searching for a Transition State

   Optimization Cycle:  17

                       Coordinates (Angstroms)
     ATOM                X               Y               Z
      1  C         1.6692165194    0.4020421922   -0.3329704537
      2  C         1.1707511343   -0.8601924275   -0.3015675632
      3  C        -0.2646096269   -1.0439326166    0.0199013927
      4  C        -1.1916186055    0.1353965403   -0.3539592033
      5  C        -0.4095048035    1.3527858618   -0.0006395827
      6  N         0.9063419079    1.5095909548   -0.0468451581
      7  H         2.7191364370    0.5993089318   -0.5378579626
      8  H         1.7844943531   -1.7241872301   -0.5380100906
      9  H        -0.6712464107   -2.0417918059   -0.1499796941
     10  H        -2.0792510804    0.1147803293   -0.9825103802
     11  H        -0.9927657722    2.2322221590    0.2726817779
     12  C        -1.0018509631   -0.2433166335    1.0308973090
     13  H        -1.6559786103   -0.4526155401    1.8658382727
   Point Group: c1    Number of degrees of freedom:    33


   Energy is   -286.832617189

 Hessian Updated using Powell/Murtagh-Sargent Update
**WARNING** Small Scalar Product
 Hessian Update Skipped this cycle

 33 Hessian modes will be used to form the next step
  Hessian Eigenvalues:
    -0.032801    0.002597    0.009155    0.013209    0.014824    0.016696
     0.020143    0.022294    0.027829    0.032126    0.046538    0.048081
     0.056562    0.081410    0.105843    0.116954    0.119666    0.127543
     0.140098    0.166244    0.205696    0.214112    0.255985    0.301672
     0.328559    0.335520    0.337335    0.339592    0.356682    0.358462
     0.369326    0.541025    0.574719

 Transition State Search - Taking P-RFO Step
 Searching for Lamda that Maximizes Along the Lowest mode
 Value Taken    Lamda =   0.00000000
 Searching for Lamda that Minimizes Along All other modes
 Value Taken    Lamda =   0.00000000
 Step Taken.  Stepsize is  0.001794

                             Maximum     Tolerance    Cnvgd?
         Gradient           0.000010      0.000010     YES
         Displacement       0.001328      0.001200      NO
         Energy change     -0.000000      0.000001     YES


                       Distance Matrix (Angstroms)
             C (  1)   C (  2)   C (  3)   C (  4)   C (  5)   N (  6)
   C (  2)  1.357457
   C (  3)  2.440296  1.482351
   C (  4)  2.873311  2.564124  1.545941
   C (  5)  2.309857  2.735880  2.401182  1.489488
   N (  6)  1.374958  2.398055  2.809994  2.526691  1.325962
   H (  7)  1.087761  2.140905  3.451678  3.942466  3.262626  2.087087
   H (  8)  2.139201  1.085851  2.229986  3.514139  3.817088  3.386697
   H (  9)  3.388743  2.193652  1.090842  2.247786  3.407927  3.887382
   H ( 10)  3.815158  3.460747  2.374946  1.087839  2.298865  3.425599
   H ( 11)  3.286719  3.817538  3.365605  2.197476  1.090095  2.056916
   C ( 12)  3.067772  2.622251  1.485471  1.448193  1.990599  2.806317
   H ( 13)  4.077024  3.585271  2.386011  2.342838  2.880436  3.751546
             H (  7)   H (  8)   H (  9)   H ( 10)   H ( 11)   C ( 12)
   H (  8)  2.504434
   H (  9)  4.315155  2.506412
   H ( 10)  4.843243  4.302082  2.706730
   H ( 11)  4.135408  4.901385  4.306880  2.690635
   C ( 12)  4.125137  3.523942  2.176760  2.311457  2.589067
   H ( 13)  5.101562  4.385457  2.749309  2.934994  3.191607  1.081118

 
 Final energy is   -286.832617189491     


 ******************************
 **  OPTIMIZATION CONVERGED  **
 ******************************

                       Coordinates (Angstroms)
     ATOM                X               Y               Z
      1  C         1.6692165194    0.4020421922   -0.3329704537
      2  C         1.1707511343   -0.8601924275   -0.3015675632
      3  C        -0.2646096269   -1.0439326166    0.0199013927
      4  C        -1.1916186055    0.1353965403   -0.3539592033
      5  C        -0.4095048035    1.3527858618   -0.0006395827
      6  N         0.9063419079    1.5095909548   -0.0468451581
      7  H         2.7191364370    0.5993089318   -0.5378579626
      8  H         1.7844943531   -1.7241872301   -0.5380100906
      9  H        -0.6712464107   -2.0417918059   -0.1499796941
     10  H        -2.0792510804    0.1147803293   -0.9825103802
     11  H        -0.9927657722    2.2322221590    0.2726817779
     12  C        -1.0018509631   -0.2433166335    1.0308973090
     13  H        -1.6559786103   -0.4526155401    1.8658382727

Z-matrix Print:
$molecule
0 2
N 
C  1 1.325962
H  2 1.090095 1 116.378961
C  1 1.374958 2 117.554717 3 177.280234 0
H  4 1.087761 1 115.381831 2 169.495985 0
C  4 1.357457 1 122.714770 2 -13.545595 0
H  6 1.085851 4 121.821883 1 179.498604 0
C  6 1.482351 4 118.413979 1 1.664840 0
H  8 1.090842 6 116.140242 4 168.687885 0
C  8 1.485471 6 124.149824 4 -38.418716 0
H  10 1.081118 8 136.183479 6 -130.523431 0
C  10 1.448193 8 63.586464 6 100.636752 0
H  12 1.087839 10 130.881264 8 115.606716 0
$end

 
 --------------------------------------------------------------
 
                    Orbital Energies (a.u.)
 --------------------------------------------------------------
 
 Alpha MOs
 -- Occupied --
-14.324 -10.242 -10.221 -10.219 -10.216 -10.205 -10.193  -0.948
 -0.874  -0.767  -0.651  -0.636  -0.582  -0.536  -0.498  -0.480
 -0.452  -0.412  -0.388  -0.372  -0.349  -0.302  -0.261  -0.243
 -0.185
 -- Virtual --
 -0.013   0.071   0.095   0.132   0.136   0.143   0.155   0.166
  0.181   0.220   0.242   0.249   0.294   0.325   0.404   0.436
  0.499   0.507   0.527   0.543   0.553   0.582   0.595   0.599
  0.631   0.640   0.648   0.666   0.682   0.715   0.757   0.801
  0.821   0.840   0.850   0.864   0.877   0.896   0.920   0.935
  0.971   1.031   1.074   1.089   1.160   1.201   1.269   1.314
  1.364   1.428   1.502   1.511   1.583   1.613   1.633   1.673
  1.724   1.746   1.825   1.853   1.887   1.950   1.972   2.049
  2.079   2.115   2.149   2.217   2.265   2.301   2.319   2.340
  2.424   2.480   2.515   2.538   2.592   2.610   2.638   2.700
  2.747   2.758   2.835   2.989   3.225   4.009   4.100   4.242
  4.322   4.339   4.443   4.600
 
 Beta MOs
 -- Occupied --
-14.317 -10.244 -10.221 -10.216 -10.209 -10.207 -10.189  -0.940
 -0.863  -0.762  -0.643  -0.634  -0.568  -0.532  -0.496  -0.473
 -0.449  -0.408  -0.385  -0.359  -0.337  -0.291  -0.253  -0.222
 -- Virtual --
 -0.083  -0.001   0.087   0.098   0.134   0.143   0.145   0.160
  0.169   0.185   0.222   0.246   0.252   0.302   0.329   0.408
  0.438   0.503   0.518   0.531   0.550   0.562   0.586   0.600
  0.605   0.634   0.645   0.653   0.674   0.688   0.718   0.767
  0.804   0.822   0.847   0.851   0.871   0.880   0.903   0.926
  0.938   0.977   1.036   1.077   1.094   1.165   1.205   1.275
  1.318   1.375   1.434   1.507   1.516   1.592   1.617   1.647
  1.679   1.732   1.755   1.838   1.857   1.900   1.960   1.983
  2.053   2.082   2.114   2.160   2.228   2.278   2.310   2.326
  2.348   2.429   2.485   2.521   2.548   2.600   2.624   2.644
  2.707   2.750   2.762   2.842   2.991   3.228   4.019   4.107
  4.241   4.320   4.359   4.448   4.603
 --------------------------------------------------------------
 
          Ground-State Mulliken Net Atomic Charges

     Atom                 Charge (a.u.)    Spin (a.u.)
  --------------------------------------------------------
      1 C                     0.000207      -0.147406
      2 C                    -0.070362       0.310709
      3 C                    -0.188009      -0.032262
      4 C                    -0.126113       0.039053
      5 C                     0.027212      -0.173369
      6 N                    -0.374655       0.342173
      7 H                     0.136927       0.008571
      8 H                     0.133560      -0.014334
      9 H                     0.151390       0.016986
     10 H                     0.152905       0.001812
     11 H                     0.153340       0.010070
     12 C                    -0.154434       0.661031
     13 H                     0.158032      -0.023034
  --------------------------------------------------------
  Sum of atomic charges =    -0.000000
  Sum of spin   charges =     1.000000

 -----------------------------------------------------------------
                    Cartesian Multipole Moments
 -----------------------------------------------------------------
    Charge (ESU x 10^10)
                -0.0000
    Dipole Moment (Debye)
         X      -1.8603      Y      -1.9331      Z      -0.3468
       Tot       2.7052
    Quadrupole Moments (Debye-Ang)
        XX     -36.9865     XY      -3.0268     YY     -41.5346
        XZ      -1.4967     YZ      -0.0396     ZZ     -41.4959
    Octopole Moments (Debye-Ang^2)
       XXX     -10.1764    XXY      -8.2605    XYY     -11.4474
       YYY     -28.3784    XXZ      -2.1723    XYZ       0.6157
       YYZ      -1.0306    XZZ      -8.5807    YZZ      -6.6600
       ZZZ       1.9212
    Hexadecapole Moments (Debye-Ang^3)
      XXXX    -331.5405   XXXY     -10.6836   XXYY    -108.1418
      XYYY     -30.2973   YYYY    -292.5070   XXXZ      26.0616
      XXYZ      -0.5534   XYYZ       7.9359   YYYZ       6.5327
      XXZZ     -71.8646   XYZZ      -2.0038   YYZZ     -68.2120
      XZZZ      28.0737   YZZZ      -0.1774   ZZZZ    -104.7413
 -----------------------------------------------------------------
Archival summary:
1\1\c8-89\TS\ProcedureUnspecified\6-31G*\166(2)\hpark21\TueMar110:28:182022TueMar110:28:182022\0\\#,TS,ProcedureUnspecified,6-31G*,\\0,2\N\C,1,1.32596\H,2,1.09009,1,116.379\C,1,1.37496,2,117.555,3,177.28,0\H,4,1.08776,1,115.382,2,169.496,0\C,4,1.35746,1,122.715,2,-13.5456,0\H,6,1.08585,4,121.822,1,179.499,0\C,6,1.48235,4,118.414,1,1.66484,0\H,8,1.09084,6,116.14,4,168.688,0\C,8,1.48547,6,124.15,4,-38.4187,0\H,10,1.08112,8,136.183,6,-130.523,0\C,10,1.44819,8,63.5865,6,100.637,0\H,12,1.08784,10,130.881,8,115.607,0\\\@

 Total job time:  671.25s(wall), 741.91s(cpu) 
 Tue Mar  1 10:28:18 2022

        *************************************************************
        *                                                           *
        *  Thank you very much for using Q-Chem.  Have a nice day.  *
        *                                                           *
        *************************************************************


