
Running Job 1 of 1 qcts2.in
qchem qcts2.in_7994.0 ./qcts2.d/ 1
/home/leeping/opt/qchem/5.0.2-openmp/exe/qcprog.exe_s qcts2.in_7994.0 ./qcts2.d/
Check license passed

                  Welcome to Q-Chem
     A Quantum Leap Into The Future Of Chemistry


 Q-Chem 5.0, Q-Chem, Inc., Pleasanton, CA (2017)

 Yihan Shao,  Zhengting Gan,  E. Epifanovsky,  A. T. B. Gilbert,  M. Wormit,  
 J. Kussmann,  A. W. Lange,  A. Behn,  Jia Deng,  Xintian Feng,  D. Ghosh,  
 M. Goldey,  P. R. Horn,  L. D. Jacobson,  I. Kaliman,  T. Kus,  A. Landau,  
 Jie Liu,  E. I. Proynov,  R. M. Richard,  R. P. Steele,  E. J. Sundstrom,  
 H. L. Woodcock III,  P. M. Zimmerman,  D. Zuev,  B. Albrecht,  E. Alguire,  
 S. A. Baeppler,  D. Barton,  Z. Benda,  Y. A. Bernard,  E. J. Berquist,  
 K. B. Bravaya,  H. Burton,  D. Casanova,  Chun-Min Chang,  Yunqing Chen,  
 A. Chien,  K. D. Closser,  M. P. Coons,  S. Dasgupta,  A. L. Dempwolff,  
 M. Diedenhofen,  Hainam Do,  R. G. Edgar,  Po-Tung Fang,  S. Fatehi,  
 Qingguo Feng,  J. Fosso-Tande,  Qinghui Ge,  A. Ghysels,  G. Gidofalvi,  
 J. Gomes,  J. Gonthier,  A. Gunina,  M. W. D. Hanson-Heine,  
 P. H. P. Harbach,  A. W. Hauser,  J. E. Herr,  E. G. Hohenstein,  
 Z. C. Holden,  Kerwin Hui,  T.-C. Jagau,  Hyunjun Ji,  B. Kaduk,  
 K. Khistyaev,  Jaehoon Kim,  P. Klunzinger,  K. Koh,  D. Kosenkov,  
 L. Koulias,  T. Kowalczyk,  C. M. Krauter,  A. Kunitsa,  Ka Un Lao,  
 A. Laurent,  K. V. Lawler,  Joonho Lee,  D. Lefrancois,  S. Lehtola,  
 D. S. Levine,  Yi-Pei Li,  You-Sheng Lin,  Fenglai Liu,  E. Livshits,  
 A. Luenser,  P. Manohar,  E. Mansoor,  S. F. Manzer,  Shan-Ping Mao,  
 Yuezhi Mao,  N. Mardirossian,  A. V. Marenich,  T. Markovich,  
 L. A. Martinez-Martinez,  S. A. Maurer,  N. J. Mayhall,  S. C. McKenzie,  
 J.-M. Mewes,  A. F. Morrison,  J. W. Mullinax,  K. Nanda,  
 T. S. Nguyen-Beck,  R. Olivares-Amaya,  J. A. Parkhill,  T. M. Perrine,  
 F. Plasser,  S. Prager,  A. Prociuk,  E. Ramos,  D. R. Rehn,  F. Rob,  
 M. Schneider,  N. Sergueev,  S. M. Sharada,  S. Sharma,  D. W. Small,  
 T. Stauch,  T. Stein,  Yu-Chuan Su,  A. J. W. Thom,  A. Tkatchenko,  
 T. Tsuchimochi,  L. Vogt,  O. Vydrov,  M. A. Watson,  J. Wenzel,  
 M. de Wergifosse,  T. A. Wesolowski,  A. White,  J. Witte,  A. Yamada,  
 Jun Yang,  K. Yao,  S. Yeganeh,  S. R. Yost,  Zhi-Qiang You,  A. Zech,  
 Igor Ying Zhang,  Xing Zhang,  Yan Zhao,  Ying Zhu,  B. R. Brooks,  
 G. K. L. Chan,  C. J. Cramer,  M. S. Gordon,  W. J. Hehre,  A. Klamt,  
 M. W. Schmidt,  C. D. Sherrill,  D. G. Truhlar,  A. Aspuru-Guzik,  R. Baer,  
 A. T. Bell,  N. A. Besley,  Jeng-Da Chai,  R. A. DiStasio Jr.,  A. Dreuw,  
 B. D. Dunietz,  T. R. Furlani,  Chao-Ping Hsu,  Yousung Jung,  Jing Kong,  
 D. S. Lambrecht,  WanZhen Liang,  C. Ochsenfeld,  V. A. Rassolov,  
 L. V. Slipchenko,  J. E. Subotnik,  T. Van Voorhis,  J. M. Herbert,  
 A. I. Krylov,  P. M. W. Gill,  M. Head-Gordon

 Contributors to earlier versions of Q-Chem not listed above: 
 R. D. Adamson,  B. Austin,  J. Baker,  G. J. O. Beran,  K. Brandhorst,  
 S. T. Brown,  E. F. C. Byrd,  A. K. Chakraborty,  C.-L. Cheng,  
 Siu Hung Chien,  D. M. Chipman,  D. L. Crittenden,  H. Dachsel,  
 R. J. Doerksen,  A. D. Dutoi,  L. Fusti-Molnar,  W. A. Goddard III,  
 A. Golubeva-Zadorozhnaya,  S. R. Gwaltney,  G. Hawkins,  A. Heyden,  
 S. Hirata,  G. Kedziora,  F. J. Keil,  C. Kelley,  Jihan Kim,  R. A. King,  
 R. Z. Khaliullin,  P. P. Korambath,  W. Kurlancheek,  A. M. Lee,  M. S. Lee,  
 S. V. Levchenko,  Ching Yeh Lin,  D. Liotard,  R. C. Lochan,  I. Lotan,  
 P. E. Maslen,  N. Nair,  D. P. O'Neill,  D. Neuhauser,  E. Neuscamman,  
 C. M. Oana,  R. Olson,  B. Peters,  R. Peverati,  P. A. Pieniazek,  
 Y. M. Rhee,  J. Ritchie,  M. A. Rohrdanz,  E. Rosta,  N. J. Russ,  
 H. F. Schaefer III,  N. E. Schultz,  N. Shenvi,  A. C. Simmonett,  A. Sodt,  
 D. Stuck,  K. S. Thanthiriwatte,  V. Vanovschi,  Tao Wang,  A. Warshel,  
 C. F. Williams,  Q. Wu,  X. Xu,  W. Zhang

 Please cite Q-Chem as follows:
 Y. Shao et al., Mol. Phys. 113, 184-215 (2015)
 DOI: 10.1080/00268976.2014.952696

 Q-Chem 5.0.2 for Intel X86 EM64T Linux

 Parts of Q-Chem use Armadillo 5.200.1 (Boston Tea Smuggler).
 http://arma.sourceforge.net/

 Q-Chem begins on Tue Mar  1 11:04:31 2022  

Host: 
0

     Scratch files written to ./qcts2.d//
 Dec517 15110_ 26548  26544 5633   
Processing $rem in /home/leeping/opt/qchem/5.0.2-openmp/config/preferences.
 MEM_STATIC 2000
 MEM_TOTAL  8000
 SYMMETRY   OFF
 SYM_IGNORE TRUE 

Checking the input file for inconsistencies... 	...done.

--------------------------------------------------------------
User input:
--------------------------------------------------------------
$molecule
0 2
C        1.6714095739    0.4022340436   -0.3317755981
C        1.1704669718   -0.8613224022   -0.3021162924
C       -0.2648978454   -1.0449452337    0.0176595293
C       -1.1913226181    0.1363106710   -0.3556336152
C       -0.4122905654    1.3537113278    0.0009797587
N        0.9051474290    1.5085071675   -0.0475400404
H        2.7203755964    0.5994431778   -0.5350941484
H        1.7844753939   -1.7246853940   -0.5385708430
H       -0.6709013274   -2.0429146369   -0.1506274993
H       -2.0804776141    0.1163024159   -0.9806780761
H       -0.9941606087    2.2344791840    0.2694725072
C       -1.0017788403   -0.2465907358    1.0305851954
H       -1.6529310666   -0.4504388696    1.8683177860
$end

$rem
method                b3lyp
basis                 6-31+g(d,p)
unrestricted          true
symmetry              off
sym_ignore            true
incdft                false
incfock               0
scf_convergence       8
thresh                14
jobtype               freq
scf_guess             read
scf_algorithm         diis
max_scf_cycles        100
$end

--------------------------------------------------------------
 ----------------------------------------------------------------
             Standard Nuclear Orientation (Angstroms)
    I     Atom           X                Y                Z
 ----------------------------------------------------------------
    1      C       1.6714095739     0.4022340436    -0.3317755981
    2      C       1.1704669718    -0.8613224022    -0.3021162924
    3      C      -0.2648978454    -1.0449452337     0.0176595293
    4      C      -1.1913226181     0.1363106710    -0.3556336152
    5      C      -0.4122905654     1.3537113278     0.0009797587
    6      N       0.9051474290     1.5085071675    -0.0475400404
    7      H       2.7203755964     0.5994431778    -0.5350941484
    8      H       1.7844753939    -1.7246853940    -0.5385708430
    9      H      -0.6709013274    -2.0429146369    -0.1506274993
   10      H      -2.0804776141     0.1163024159    -0.9806780761
   11      H      -0.9941606087     2.2344791840     0.2694725072
   12      C      -1.0017788403    -0.2465907358     1.0305851954
   13      H      -1.6529310666    -0.4504388696     1.8683177860
 ----------------------------------------------------------------
 Nuclear Repulsion Energy =   273.6331616415 hartrees
 There are       25 alpha and       24 beta electrons
 Requested basis set is 6-31+G(d,p)
 There are 53 shells and 163 basis functions

 Total QAlloc Memory Limit   8000 MB
 Mega-Array Size      1956 MB
 MEM_STATIC part      2000 MB

                       Distance Matrix (Angstroms)
             C (  1)   C (  2)   C (  3)   C (  4)   C (  5)   N (  6)
   C (  2)  1.359558
   C (  3)  2.442482  1.481974
   C (  4)  2.875156  2.564408  1.546925
   C (  5)  2.314701  2.739227  2.403239  1.488667
   N (  6)  1.375423  2.398186  2.809515  2.524486  1.327388
   H (  7)  1.086536  2.142506  3.452739  3.943105  3.266480  2.087860
   H (  8)  2.139938  1.085501  2.229657  3.514562  3.820134  3.386423
   H (  9)  3.390868  2.193113  1.090460  2.249864  3.409829  3.886792
   H ( 10)  3.818310  3.461912  2.375185  1.087050  2.297320  3.423878
   H ( 11)  3.289967  3.820512  3.368955  2.198168  1.089226  2.057888
   C ( 12)  3.069680  2.621572  1.485389  1.450566  1.992122  2.806972
   H ( 13)  4.076604  3.584855  2.388516  2.345915  2.877690  3.748566
             H (  7)   H (  8)   H (  9)   H ( 10)   H ( 11)   C ( 12)
   H (  8)  2.505493
   H (  9)  4.316321  2.506121
   H ( 10)  4.845633  4.303784  2.708894
   H ( 11)  4.137445  4.903951  4.310114  2.688798
   C ( 12)  4.125719  3.522815  2.175206  2.310944  2.595199
   H ( 13)  5.099456  4.385497  2.752545  2.936115  3.193598  1.080439

 
 A cutoff of  1.0D-14 yielded   1386 shell pairs
 There are     13458 function pairs
 Smallest overlap matrix eigenvalue = 2.38E-05
 Guess MOs from SCF MO coefficient file
 Reading MOs from coefficient file
 Reading MOs from coefficient file
 An unrestricted hybrid HF-DFT SCF calculation will be
 performed using Pulay DIIS extrapolation
 Exchange:     0.2000 Hartree-Fock + 0.0800 Slater + 0.7200 B88
 Correlation:  0.1900 VWN1RPA + 0.8100 LYP
 Using SG-1 standard quadrature grid
 SCF converges when DIIS error is below 1.0E-08
Using Q-Chem read-in guess as SCF_GUESS READ specified.

 -------------------------------------------------------
 OpenMP BLAS3 based DFT computing Module                
 -------------------------------------------------------
 ---------------------------------------
  Cycle       Energy         DIIS Error
 ---------------------------------------
    1    -286.8546157959      1.40E-10
    2    -286.8546157959      1.68E-10 Convergence criterion met
 ---------------------------------------
 <S^2> = 0.7899
 SCF time:  CPU 6.68 s  wall 13.09 s
 SCF   energy in the final basis set = -286.85461580
 Total energy in the final basis set = -286.85461580
 
 --------------------------------------------------------------
 
                    Orbital Energies (a.u.)
 --------------------------------------------------------------
 
 Alpha MOs
 -- Occupied --
-14.338 -10.252 -10.231 -10.230 -10.227 -10.216 -10.204  -0.960
 -0.885  -0.777  -0.661  -0.646  -0.591  -0.544  -0.506  -0.491
 -0.461  -0.422  -0.397  -0.382  -0.360  -0.312  -0.272  -0.254
 -0.197
 -- Virtual --
 -0.033   0.000   0.016   0.022   0.025   0.039   0.048   0.058
  0.070   0.075   0.083   0.094   0.097   0.100   0.112   0.118
  0.125   0.130   0.147   0.151   0.157   0.174   0.178   0.182
  0.189   0.194   0.202   0.211   0.230   0.244   0.250   0.255
  0.271   0.274   0.279   0.302   0.306   0.319   0.326   0.339
  0.359   0.376   0.465   0.499   0.624   0.636   0.655   0.668
  0.680   0.713   0.728   0.742   0.743   0.764   0.773   0.801
  0.811   0.849   0.873   0.902   0.929   0.939   0.957   0.998
  1.004   1.010   1.043   1.065   1.093   1.109   1.120   1.187
  1.193   1.219   1.263   1.301   1.364   1.381   1.417   1.477
  1.522   1.597   1.615   1.680   1.685   1.712   1.798   1.832
  1.851   1.913   1.924   1.984   2.028   2.051   2.077   2.098
  2.148   2.171   2.199   2.260   2.276   2.312   2.351   2.397
  2.407   2.446   2.454   2.469   2.504   2.508   2.526   2.540
  2.559   2.607   2.622   2.664   2.678   2.705   2.739   2.827
  2.919   2.947   2.967   3.161   3.192   3.284   3.288   3.422
  3.438   3.590   3.719   4.212   4.301   4.460   4.518   4.593
  4.642   4.736
 
 Beta MOs
 -- Occupied --
-14.331 -10.255 -10.232 -10.226 -10.221 -10.218 -10.200  -0.952
 -0.874  -0.773  -0.653  -0.644  -0.577  -0.540  -0.504  -0.484
 -0.457  -0.418  -0.394  -0.370  -0.348  -0.302  -0.265  -0.234
 -- Virtual --
 -0.098  -0.024   0.001   0.016   0.024   0.027   0.041   0.049
  0.061   0.075   0.078   0.085   0.095   0.097   0.104   0.113
  0.119   0.127   0.133   0.148   0.152   0.158   0.176   0.181
  0.184   0.190   0.198   0.203   0.213   0.232   0.245   0.251
  0.259   0.275   0.278   0.282   0.306   0.307   0.320   0.331
  0.342   0.363   0.380   0.469   0.501   0.627   0.641   0.663
  0.674   0.692   0.718   0.724   0.747   0.751   0.766   0.778
  0.807   0.815   0.852   0.875   0.903   0.930   0.940   0.959
  1.002   1.008   1.018   1.058   1.071   1.098   1.112   1.125
  1.189   1.199   1.222   1.269   1.305   1.373   1.384   1.418
  1.486   1.531   1.602   1.628   1.688   1.690   1.723   1.807
  1.842   1.855   1.920   1.931   1.989   2.030   2.057   2.087
  2.109   2.152   2.179   2.206   2.262   2.281   2.315   2.358
  2.400   2.410   2.452   2.456   2.474   2.508   2.512   2.532
  2.541   2.561   2.613   2.627   2.670   2.685   2.710   2.742
  2.838   2.923   2.952   2.970   3.165   3.194   3.286   3.290
  3.424   3.439   3.596   3.720   4.222   4.307   4.458   4.517
  4.609   4.648   4.739
 --------------------------------------------------------------
 
          Ground-State Mulliken Net Atomic Charges

     Atom                 Charge (a.u.)    Spin (a.u.)
  --------------------------------------------------------
      1 C                    -0.305967      -0.163555
      2 C                     0.280401       0.333767
      3 C                    -0.389381      -0.049509
      4 C                     0.239458       0.022890
      5 C                    -0.362531      -0.181064
      6 N                    -0.101789       0.342436
      7 H                     0.126896       0.008453
      8 H                     0.127824      -0.014557
      9 H                     0.140077       0.017466
     10 H                     0.139004       0.002143
     11 H                     0.143893       0.009387
     12 C                    -0.181231       0.694102
     13 H                     0.143348      -0.021960
  --------------------------------------------------------
  Sum of atomic charges =     0.000000
  Sum of spin   charges =     1.000000

 -----------------------------------------------------------------
                    Cartesian Multipole Moments
 -----------------------------------------------------------------
    Charge (ESU x 10^10)
                 0.0000
    Dipole Moment (Debye)
         X      -2.0478      Y      -2.0996      Z      -0.3628
       Tot       2.9552
    Quadrupole Moments (Debye-Ang)
        XX     -37.9834     XY      -3.3925     YY     -42.9772
        XZ      -1.5469     YZ      -0.1230     ZZ     -43.0570
    Octopole Moments (Debye-Ang^2)
       XXX     -10.9183    XXY      -8.5700    XYY     -13.0040
       YYY     -30.9291    XXZ      -2.6252    XYZ       0.6612
       YYZ      -1.1342    XZZ      -9.6046    YZZ      -7.0949
       ZZZ       2.1024
    Hexadecapole Moments (Debye-Ang^3)
      XXXX    -345.7795   XXXY     -11.5303   XXYY    -114.1747
      XYYY     -34.7869   YYYY    -310.4449   XXXZ      26.0030
      XXYZ      -0.5354   XYYZ       7.9150   YYYZ       6.9148
      XXZZ     -77.1990   XYZZ      -2.2478   YYZZ     -73.9553
      XZZZ      29.2112   YZZZ      -1.3809   ZZZZ    -118.2073
 -----------------------------------------------------------------
 Calculating MO derivatives via CPSCF
   1         3          39      0.291521    0.058836
   2         3          39      0.039280    0.007414
   3         3          39      0.005470    0.001172
   4         3          39      0.000683    0.000162
   5        24          18      0.000063    0.000017
   6        41           1      0.000002    0.000002
   7        42           0      0.000000    0.000000    Roots Converged
 Time for AOints: 19.4 s (CPU) 25.3 s (wall)
 ------------------------------------------------------------------------------
                     AOints        : Timing summary (seconds)
 ------------------------------------------------------------------------------
     job step          cpu (% of tot)      sys (% of tot)     wall (% of tot)
 ------------------------------------------------------------------------------
  cpscf_lag         0.1167E+03 (28.1)   0.4700E-04 (37.0)   0.1291E+03 (27.4)
  iterzp            0.2787E+03 (67.1)   0.7600E-04 (59.8)   0.3156E+03 (67.1)
  make_fx           0.0000E+00 ( 0.0)   0.0000E+00 ( 0.0)   0.0000E+00 ( 0.0)
  AOints            0.1939E+02 ( 4.7)   0.2000E-05 ( 1.6)   0.2530E+02 ( 5.4)
 ------------------------------------------------------------------------------
   Grand Totals     0.4151E+03          0.1270E-03          0.4704E+03
 ------------------------------------------------------------------------------
 Calculating analytic Hessian of the SCF energy
 Polarizability Matrix (a.u.)
            1           2           3
    1 -84.7481831  -0.4525101   9.9161347
    2  -0.4525101 -77.9605275   0.2247503
    3   9.9161347   0.2247503 -57.8019272
 
 Direct stationary perturbation theory relativistic correction:
 
 rels  =       0.069358723248
 relv  =      -0.338906728395
 rel2e =       0.156653066253
 E_rel =      -0.112894938893
 
 Hessian of the SCF Energy
            1           2           3           4           5           6
    1   0.7115693   0.1023167  -0.1156007  -0.1682905  -0.1400955   0.0140253
    2   0.1023167   0.6278325   0.0121417  -0.0911735  -0.3542626   0.0082046
    3  -0.1156007   0.0121417   0.1621539   0.0232465   0.0122291  -0.0618202
    4  -0.1682905  -0.0911735   0.0232465   0.5521449   0.0020151  -0.1097335
    5  -0.1400955  -0.3542626   0.0122291   0.0020151   0.7708438   0.0549272
    6   0.0140253   0.0082046  -0.0618202  -0.1097335   0.0549272   0.1520316
    7  -0.0175423  -0.0379069  -0.0005362  -0.2073439  -0.0138725   0.0397998
    8  -0.0291333   0.0036425   0.0114988  -0.0405912  -0.0934025   0.0000495
    9   0.0092114   0.0003891   0.0020958   0.0325621  -0.0040417  -0.0616428
   10   0.0023355   0.0082779   0.0047868  -0.0312715   0.0148289  -0.0100461
   11   0.0052883  -0.0082595   0.0006219   0.0161355   0.0030974  -0.0011147
   12  -0.0075484   0.0132504  -0.0014207   0.0092020  -0.0078118  -0.0027782
   13  -0.0654961   0.0752762   0.0168112  -0.0157602  -0.0413813  -0.0002171
   14   0.0285059   0.0341727   0.0073271  -0.0109296  -0.0240768  -0.0026078
   15   0.0184341  -0.0508863  -0.0115235   0.0152149   0.0220390  -0.0043496
   16  -0.1520422   0.0247239   0.0191775   0.0439409   0.0635742   0.0022374
   17   0.0720057  -0.1865658  -0.0344349   0.0046530  -0.0792823  -0.0112354
   18   0.0281376  -0.0070301  -0.0631722  -0.0107442  -0.0249578   0.0158433
   19  -0.3122006  -0.0599371   0.0533373  -0.0067784   0.0006170   0.0024864
   20  -0.0603875  -0.0678413   0.0087392  -0.0290610  -0.0000739   0.0057442
   21   0.0519534   0.0033386  -0.0499022   0.0021734   0.0026616   0.0052807
   22   0.0102508  -0.0102594  -0.0019996  -0.1469194   0.1294291   0.0408237
   23   0.0210883  -0.0155472  -0.0067901   0.1263632  -0.2376062  -0.0530408
   24  -0.0018164   0.0029896   0.0040320   0.0418423  -0.0533860  -0.0442868
   25  -0.0061544   0.0004950   0.0017815  -0.0076909  -0.0292865  -0.0044577
   26  -0.0009386   0.0025577  -0.0004664  -0.0003754  -0.0008875  -0.0000600
   27   0.0026993  -0.0010871   0.0010255   0.0026014   0.0070988   0.0012783
   28  -0.0009941  -0.0015691   0.0001793   0.0007879   0.0008479  -0.0016694
   29   0.0011503   0.0033650  -0.0014514  -0.0028908  -0.0018074   0.0007499
   30   0.0001668   0.0042576   0.0004239  -0.0023626  -0.0034775   0.0022944
   31  -0.0033998  -0.0013148   0.0011832  -0.0011861   0.0003193  -0.0000698
   32  -0.0016347   0.0039305  -0.0023057  -0.0007094   0.0004587   0.0002084
   33  -0.0007563  -0.0034094   0.0098001  -0.0011799   0.0001986  -0.0003733
   34   0.0037560  -0.0093619  -0.0028479  -0.0112459   0.0136301   0.0242980
   35   0.0004473  -0.0410539  -0.0063663   0.0299460   0.0163353   0.0001318
   36   0.0017596   0.0153098   0.0076001   0.0004036  -0.0052429  -0.0024862
   37  -0.0017914   0.0004330   0.0004812  -0.0003869  -0.0006259   0.0025230
   38   0.0013870  -0.0019706  -0.0007432  -0.0033820   0.0006640  -0.0019569
   39  -0.0006657   0.0025315   0.0007073  -0.0032260  -0.0002367   0.0010087
            7           8           9          10          11          12
    1  -0.0175423  -0.0291333   0.0092114   0.0023355   0.0052883  -0.0075484
    2  -0.0379069   0.0036425   0.0003891   0.0082779  -0.0082595   0.0132504
    3  -0.0005362   0.0114988   0.0020958   0.0047868   0.0006219  -0.0014207
    4  -0.2073439  -0.0405912   0.0325621  -0.0312715   0.0161355   0.0092020
    5  -0.0138725  -0.0934025  -0.0040417   0.0148289   0.0030974  -0.0078118
    6   0.0397998   0.0000495  -0.0616428  -0.0100461  -0.0011147  -0.0027782
    7   0.5024826   0.0554662  -0.0751180  -0.0844337   0.0451964  -0.0587598
    8   0.0554662   0.6094174   0.0954331   0.0319070  -0.1142437   0.0385631
    9  -0.0751180   0.0954331   0.2269910  -0.0240090  -0.0161399  -0.0269519
   10  -0.0844337   0.0319070  -0.0240090   0.5169503   0.0205928   0.2386474
   11   0.0451964  -0.1142437  -0.0161399   0.0205928   0.3745095  -0.0440808
   12  -0.0587598   0.0385631  -0.0269519   0.2386474  -0.0440808   0.4620903
   13   0.0238520   0.0332695   0.0025620  -0.1353560  -0.0551292  -0.0779951
   14  -0.0016052  -0.0390471   0.0004462  -0.0669909  -0.1783152  -0.0740596
   15  -0.0094891  -0.0097333   0.0158864  -0.0041942  -0.0190971  -0.0262837
   16  -0.0213712   0.0017083  -0.0015433  -0.0065945  -0.0182785   0.0308968
   17   0.0135564   0.0037126   0.0010925  -0.0324692   0.0012188  -0.0083388
   18   0.0047251  -0.0003885  -0.0103410  -0.0218925  -0.0104176   0.0121859
   19   0.0020141  -0.0020296   0.0007265   0.0006293   0.0002238   0.0002673
   20  -0.0004471  -0.0050945  -0.0007420   0.0005410   0.0000254  -0.0002592
   21   0.0020360   0.0000022   0.0079714   0.0018062   0.0002477   0.0002102
   22  -0.0094012   0.0201025   0.0072917  -0.0033180   0.0014157   0.0013034
   23  -0.0045542   0.0065584   0.0024645  -0.0008317   0.0011249  -0.0002759
   24   0.0010754  -0.0071510   0.0041187  -0.0005338   0.0029079   0.0001817
   25  -0.0918175  -0.0963069  -0.0153750   0.0078529   0.0128221   0.0066390
   26  -0.0957900  -0.2762047  -0.0350079  -0.0076778  -0.0107622  -0.0070139
   27  -0.0174684  -0.0432161  -0.0433432   0.0098651   0.0149795   0.0032436
   28  -0.0069548  -0.0047387  -0.0041967  -0.2400841  -0.0048616  -0.1409781
   29   0.0125412   0.0044138   0.0122476  -0.0076162  -0.0490397  -0.0034976
   30   0.0091826   0.0031839  -0.0033768  -0.1395723  -0.0044156  -0.1280547
   31  -0.0013352  -0.0044414  -0.0005022   0.0092723  -0.0147777  -0.0010500
   32  -0.0049944  -0.0043593  -0.0027768   0.0089350  -0.0220192  -0.0025608
   33   0.0033136   0.0000528   0.0019736   0.0070749  -0.0022210  -0.0024306
   34  -0.0840263   0.0429079   0.0683310  -0.0465784  -0.0139821   0.0116138
   35   0.0197048  -0.0989631  -0.0446212   0.0381432   0.0054593   0.0907202
   36   0.1005834  -0.0894350  -0.1092965  -0.0761307   0.0747099  -0.2788678
   37  -0.0041225  -0.0081203   0.0000593   0.0105959   0.0053544  -0.0122383
   38   0.0127052   0.0035704  -0.0087433  -0.0076399  -0.0027960   0.0053647
   39   0.0006556   0.0011404  -0.0040847   0.0141983   0.0040198  -0.0111241
           13          14          15          16          17          18
    1  -0.0654961   0.0285059   0.0184341  -0.1520422   0.0720057   0.0281376
    2   0.0752762   0.0341727  -0.0508863   0.0247239  -0.1865658  -0.0070301
    3   0.0168112   0.0073271  -0.0115235   0.0191775  -0.0344349  -0.0631722
    4  -0.0157602  -0.0109296   0.0152149   0.0439409   0.0046530  -0.0107442
    5  -0.0413813  -0.0240768   0.0220390   0.0635742  -0.0792823  -0.0249578
    6  -0.0002171  -0.0026078  -0.0043496   0.0022374  -0.0112354   0.0158433
    7   0.0238520  -0.0016052  -0.0094891  -0.0213712   0.0135564   0.0047251
    8   0.0332695  -0.0390471  -0.0097333   0.0017083   0.0037126  -0.0003885
    9   0.0025620   0.0004462   0.0158864  -0.0015433   0.0010925  -0.0103410
   10  -0.1353560  -0.0669909  -0.0041942  -0.0065945  -0.0324692  -0.0218925
   11  -0.0551292  -0.1783152  -0.0190971  -0.0182785   0.0012188  -0.0104176
   12  -0.0779951  -0.0740596  -0.0262837   0.0308968  -0.0083388   0.0121859
   13   0.6260472  -0.1408514   0.0391258  -0.3220680  -0.0271342  -0.0057060
   14  -0.1408514   0.5164845   0.1854661   0.0339664  -0.1085774  -0.0324331
   15   0.0391258   0.1854661   0.0950515  -0.0766569   0.0044577  -0.0244375
   16  -0.3220680   0.0339664  -0.0766569   0.5461627  -0.0553980  -0.0214973
   17  -0.0271342  -0.1085774   0.0044577  -0.0553980   0.3577404   0.0506497
   18  -0.0057060  -0.0324331  -0.0244375  -0.0214973   0.0506497   0.0828808
   19   0.0012412   0.0029116   0.0013497  -0.0203306   0.0056555   0.0034508
   20   0.0041391  -0.0032258  -0.0018679   0.0316405   0.0033129  -0.0060613
   21   0.0028254   0.0012155   0.0021740   0.0035303   0.0005792  -0.0013224
   22  -0.0003460  -0.0013029  -0.0005765   0.0011982  -0.0028879   0.0018534
   23  -0.0020005  -0.0002563   0.0001359  -0.0027503  -0.0048035  -0.0002197
   24  -0.0007337  -0.0021887  -0.0002043   0.0041173   0.0004356   0.0083749
   25  -0.0058026   0.0026739   0.0016210   0.0009313   0.0005582   0.0001798
   26   0.0050844  -0.0016812  -0.0016871   0.0002861   0.0001395  -0.0003038
   27  -0.0029837   0.0017072   0.0004045  -0.0002329  -0.0001479  -0.0006772
   28  -0.0061781   0.0024829  -0.0054953  -0.0023309  -0.0001324  -0.0005210
   29  -0.0242807   0.0027458  -0.0054739   0.0046164  -0.0045784  -0.0018288
   30  -0.0009700  -0.0042850   0.0039547   0.0062483  -0.0004250  -0.0014796
   31  -0.1203952   0.1139366   0.0370236  -0.0312389   0.0265880   0.0077747
   32   0.1192088  -0.2393551  -0.0546876   0.0001835   0.0080799   0.0013828
   33   0.0341394  -0.0682751  -0.0601293   0.0023122   0.0037610  -0.0022470
   34   0.0223595   0.0381814  -0.0138292  -0.0362946  -0.0052538   0.0124931
   35   0.0447725   0.0328557  -0.0663069  -0.0763110   0.0089492   0.0306694
   36  -0.0037242  -0.0096573   0.0119378   0.0293773  -0.0049481  -0.0165324
   37  -0.0020977  -0.0009788  -0.0025278   0.0000378   0.0002587   0.0017466
   38   0.0090267   0.0082761  -0.0023585  -0.0079617   0.0006540   0.0009386
   39  -0.0031338  -0.0026555  -0.0024811   0.0020332  -0.0014457   0.0009244
           19          20          21          22          23          24
    1  -0.3122006  -0.0603875   0.0519534   0.0102508   0.0210883  -0.0018164
    2  -0.0599371  -0.0678413   0.0033386  -0.0102594  -0.0155472   0.0029896
    3   0.0533373   0.0087392  -0.0499022  -0.0019996  -0.0067901   0.0040320
    4  -0.0067784  -0.0290610   0.0021734  -0.1469194   0.1263632   0.0418423
    5   0.0006170  -0.0000739   0.0026616   0.1294291  -0.2376062  -0.0533860
    6   0.0024864   0.0057442   0.0052807   0.0408237  -0.0530408  -0.0442868
    7   0.0020141  -0.0004471   0.0020360  -0.0094012  -0.0045542   0.0010754
    8  -0.0020296  -0.0050945   0.0000022   0.0201025   0.0065584  -0.0071510
    9   0.0007265  -0.0007420   0.0079714   0.0072917   0.0024645   0.0041187
   10   0.0006293   0.0005410   0.0018062  -0.0033180  -0.0008317  -0.0005338
   11   0.0002238   0.0000254   0.0002477   0.0014157   0.0011249   0.0029079
   12   0.0002673  -0.0002592   0.0002102   0.0013034  -0.0002759   0.0001817
   13   0.0012412   0.0041391   0.0028254  -0.0003460  -0.0020005  -0.0007337
   14   0.0029116  -0.0032258   0.0012155  -0.0013029  -0.0002563  -0.0021887
   15   0.0013497  -0.0018679   0.0021740  -0.0005765   0.0001359  -0.0002043
   16  -0.0203306   0.0316405   0.0035303   0.0011982  -0.0027503   0.0041173
   17   0.0056555   0.0033129   0.0005792  -0.0028879  -0.0048035   0.0004356
   18   0.0034508  -0.0060613  -0.0013224   0.0018534  -0.0002197   0.0083749
   19   0.3364610   0.0533203  -0.0612406   0.0003585  -0.0002348  -0.0008875
   20   0.0533203   0.0726656  -0.0066267   0.0006124   0.0005718   0.0003329
   21  -0.0612406  -0.0066267   0.0379090  -0.0012122   0.0006372  -0.0043315
   22   0.0003585   0.0006124  -0.0012122   0.1496279  -0.1369210  -0.0459354
   23  -0.0002348   0.0005718   0.0006372  -0.1369210   0.2488448   0.0566264
   24  -0.0008875   0.0003329  -0.0043315  -0.0459354   0.0566264   0.0357360
   25  -0.0004086  -0.0015395   0.0001873   0.0011455   0.0004778  -0.0000426
   26   0.0000679  -0.0001830  -0.0001089  -0.0001490   0.0006830   0.0005252
   27   0.0000284   0.0004046  -0.0000224  -0.0002028  -0.0000258  -0.0003163
   28   0.0000332  -0.0000417   0.0001988  -0.0003301  -0.0000377  -0.0003105
   29  -0.0000056   0.0001109   0.0005285   0.0004498   0.0000978   0.0002556
   30   0.0000310   0.0000710   0.0000786   0.0004697   0.0000841  -0.0000128
   31  -0.0006065   0.0010391   0.0003568   0.0001478   0.0003003  -0.0002196
   32  -0.0001063   0.0000562   0.0000673   0.0001725   0.0000709   0.0003513
   33   0.0000277   0.0002320   0.0001837  -0.0004859  -0.0001238  -0.0016059
   34  -0.0002873   0.0002084  -0.0020460  -0.0020987  -0.0008477   0.0034741
   35  -0.0004338  -0.0004409  -0.0026975  -0.0009322   0.0001129  -0.0013329
   36   0.0004797  -0.0000303   0.0018496  -0.0011600   0.0005450  -0.0014658
   37  -0.0001253  -0.0000241  -0.0005689  -0.0003155  -0.0000518  -0.0000295
   38  -0.0000487   0.0001166   0.0001554   0.0002705   0.0001487  -0.0003659
   39  -0.0000567   0.0000634  -0.0000786  -0.0001696  -0.0000170  -0.0002197
           25          26          27          28          29          30
    1  -0.0061544  -0.0009386   0.0026993  -0.0009941   0.0011503   0.0001668
    2   0.0004950   0.0025577  -0.0010871  -0.0015691   0.0033650   0.0042576
    3   0.0017815  -0.0004664   0.0010255   0.0001793  -0.0014514   0.0004239
    4  -0.0076909  -0.0003754   0.0026014   0.0007879  -0.0028908  -0.0023626
    5  -0.0292865  -0.0008875   0.0070988   0.0008479  -0.0018074  -0.0034775
    6  -0.0044577  -0.0000600   0.0012783  -0.0016694   0.0007499   0.0022944
    7  -0.0918175  -0.0957900  -0.0174684  -0.0069548   0.0125412   0.0091826
    8  -0.0963069  -0.2762047  -0.0432161  -0.0047387   0.0044138   0.0031839
    9  -0.0153750  -0.0350079  -0.0433432  -0.0041967   0.0122476  -0.0033768
   10   0.0078529  -0.0076778   0.0098651  -0.2400841  -0.0076162  -0.1395723
   11   0.0128221  -0.0107622   0.0149795  -0.0048616  -0.0490397  -0.0044156
   12   0.0066390  -0.0070139   0.0032436  -0.1409781  -0.0034976  -0.1280547
   13  -0.0058026   0.0050844  -0.0029837  -0.0061781  -0.0242807  -0.0009700
   14   0.0026739  -0.0016812   0.0017072   0.0024829   0.0027458  -0.0042850
   15   0.0016210  -0.0016871   0.0004045  -0.0054953  -0.0054739   0.0039547
   16   0.0009313   0.0002861  -0.0002329  -0.0023309   0.0046164   0.0062483
   17   0.0005582   0.0001395  -0.0001479  -0.0001324  -0.0045784  -0.0004250
   18   0.0001798  -0.0003038  -0.0006772  -0.0005210  -0.0018288  -0.0014796
   19  -0.0004086   0.0000679   0.0000284   0.0000332  -0.0000056   0.0000310
   20  -0.0015395  -0.0001830   0.0004046  -0.0000417   0.0001109   0.0000710
   21   0.0001873  -0.0001089  -0.0000224   0.0001988   0.0005285   0.0000786
   22   0.0011455  -0.0001490  -0.0002028  -0.0003301   0.0004498   0.0004697
   23   0.0004778   0.0006830  -0.0000258  -0.0000377   0.0000978   0.0000841
   24  -0.0000426   0.0005252  -0.0003163  -0.0003105   0.0002556  -0.0000128
   25   0.0969459   0.0991051   0.0111597   0.0008086  -0.0005160  -0.0006729
   26   0.0991051   0.2982168   0.0453870  -0.0000689   0.0005119   0.0001268
   27   0.0111597   0.0453870   0.0425398   0.0004059  -0.0008287  -0.0003038
   28   0.0008086  -0.0000689   0.0004059   0.2462652   0.0078220   0.1510462
   29  -0.0005160   0.0005119  -0.0008287   0.0078220   0.0426857  -0.0001475
   30  -0.0006729   0.0001268  -0.0003038   0.1510462  -0.0001475   0.1363868
   31   0.0008438  -0.0009965   0.0006511   0.0002274   0.0009143  -0.0002307
   32   0.0014717  -0.0009846   0.0008057  -0.0002312  -0.0000081  -0.0002840
   33  -0.0008012   0.0007669   0.0009643  -0.0000909   0.0002375   0.0000635
   34   0.0028384   0.0009861  -0.0057672   0.0078662   0.0084396  -0.0246942
   35   0.0099354  -0.0119426  -0.0267304  -0.0000444   0.0001760   0.0060329
   36  -0.0007510  -0.0022239  -0.0052568   0.0020374  -0.0006872  -0.0124777
   37   0.0005076   0.0004668  -0.0007562   0.0008835  -0.0006244   0.0013583
   38   0.0001096   0.0005369   0.0016532   0.0005729   0.0013268  -0.0007218
   39   0.0005321   0.0000660   0.0004638  -0.0006056  -0.0001040   0.0025034
           31          32          33          34          35          36
    1  -0.0033998  -0.0016347  -0.0007563   0.0037560   0.0004473   0.0017596
    2  -0.0013148   0.0039305  -0.0034094  -0.0093619  -0.0410539   0.0153098
    3   0.0011832  -0.0023057   0.0098001  -0.0028479  -0.0063663   0.0076001
    4  -0.0011861  -0.0007094  -0.0011799  -0.0112459   0.0299460   0.0004036
    5   0.0003193   0.0004587   0.0001986   0.0136301   0.0163353  -0.0052429
    6  -0.0000698   0.0002084  -0.0003733   0.0242980   0.0001318  -0.0024862
    7  -0.0013352  -0.0049944   0.0033136  -0.0840263   0.0197048   0.1005834
    8  -0.0044414  -0.0043593   0.0000528   0.0429079  -0.0989631  -0.0894350
    9  -0.0005022  -0.0027768   0.0019736   0.0683310  -0.0446212  -0.1092965
   10   0.0092723   0.0089350   0.0070749  -0.0465784   0.0381432  -0.0761307
   11  -0.0147777  -0.0220192  -0.0022210  -0.0139821   0.0054593   0.0747099
   12  -0.0010500  -0.0025608  -0.0024306   0.0116138   0.0907202  -0.2788678
   13  -0.1203952   0.1192088   0.0341394   0.0223595   0.0447725  -0.0037242
   14   0.1139366  -0.2393551  -0.0682751   0.0381814   0.0328557  -0.0096573
   15   0.0370236  -0.0546876  -0.0601293  -0.0138292  -0.0663069   0.0119378
   16  -0.0312389   0.0001835   0.0023122  -0.0362946  -0.0763110   0.0293773
   17   0.0265880   0.0080799   0.0037610  -0.0052538   0.0089492  -0.0049481
   18   0.0077747   0.0013828  -0.0022470   0.0124931   0.0306694  -0.0165324
   19  -0.0006065  -0.0001063   0.0000277  -0.0002873  -0.0004338   0.0004797
   20   0.0010391   0.0000562   0.0002320   0.0002084  -0.0004409  -0.0000303
   21   0.0003568   0.0000673   0.0001837  -0.0020460  -0.0026975   0.0018496
   22   0.0001478   0.0001725  -0.0004859  -0.0020987  -0.0009322  -0.0011600
   23   0.0003003   0.0000709  -0.0001238  -0.0008477   0.0001129   0.0005450
   24  -0.0002196   0.0003513  -0.0016059   0.0034741  -0.0013329  -0.0014658
   25   0.0008438   0.0014717  -0.0008012   0.0028384   0.0099354  -0.0007510
   26  -0.0009965  -0.0009846   0.0007669   0.0009861  -0.0119426  -0.0022239
   27   0.0006511   0.0008057   0.0009643  -0.0057672  -0.0267304  -0.0052568
   28   0.0002274  -0.0002312  -0.0000909   0.0078662  -0.0000444   0.0020374
   29   0.0009143  -0.0000081   0.0002375   0.0084396   0.0001760  -0.0006872
   30  -0.0002307  -0.0002840   0.0000635  -0.0246942   0.0060329  -0.0124777
   31   0.1465185  -0.1232994  -0.0408838   0.0010154   0.0015495  -0.0041497
   32  -0.1232994   0.2506605   0.0662551   0.0010152   0.0037463  -0.0068013
   33  -0.0408838   0.0662551   0.0470876  -0.0026012   0.0025221   0.0071221
   34   0.0010154   0.0010152  -0.0026012   0.2917267  -0.0405671  -0.2238286
   35   0.0015495   0.0037463   0.0025221  -0.0405671   0.1273602  -0.0331461
   36  -0.0041497  -0.0068013   0.0071221  -0.2238286  -0.0331461   0.6181922
   37   0.0001366  -0.0000112  -0.0000686  -0.1490309  -0.0262104   0.1751033
   38   0.0001826  -0.0002766   0.0000032  -0.0353561  -0.0425943   0.0616074
   39   0.0001164   0.0003456  -0.0004087   0.1554043   0.0511250  -0.2203184
           37          38          39
    1  -0.0017914   0.0013870  -0.0006657
    2   0.0004330  -0.0019706   0.0025315
    3   0.0004812  -0.0007432   0.0007073
    4  -0.0003869  -0.0033820  -0.0032260
    5  -0.0006259   0.0006640  -0.0002367
    6   0.0025230  -0.0019569   0.0010087
    7  -0.0041225   0.0127052   0.0006556
    8  -0.0081203   0.0035704   0.0011404
    9   0.0000593  -0.0087433  -0.0040847
   10   0.0105959  -0.0076399   0.0141983
   11   0.0053544  -0.0027960   0.0040198
   12  -0.0122383   0.0053647  -0.0111241
   13  -0.0020977   0.0090267  -0.0031338
   14  -0.0009788   0.0082761  -0.0026555
   15  -0.0025278  -0.0023585  -0.0024811
   16   0.0000378  -0.0079617   0.0020332
   17   0.0002587   0.0006540  -0.0014457
   18   0.0017466   0.0009386   0.0009244
   19  -0.0001253  -0.0000487  -0.0000567
   20  -0.0000241   0.0001166   0.0000634
   21  -0.0005689   0.0001554  -0.0000786
   22  -0.0003155   0.0002705  -0.0001696
   23  -0.0000518   0.0001487  -0.0000170
   24  -0.0000295  -0.0003659  -0.0002197
   25   0.0005076   0.0001096   0.0005321
   26   0.0004668   0.0005369   0.0000660
   27  -0.0007562   0.0016532   0.0004638
   28   0.0008835   0.0005729  -0.0006056
   29  -0.0006244   0.0013268  -0.0001040
   30   0.0013583  -0.0007218   0.0025034
   31   0.0001366   0.0001826   0.0001164
   32  -0.0000112  -0.0002766   0.0003456
   33  -0.0000686   0.0000032  -0.0004087
   34  -0.1490309  -0.0353561   0.1554043
   35  -0.0262104  -0.0425943   0.0511250
   36   0.1751033   0.0616074  -0.2203184
   37   0.1457089   0.0301338  -0.1650824
   38   0.0301338   0.0323439  -0.0548328
   39  -0.1650824  -0.0548328   0.2331078
 Gradient time:  CPU 544.92 s  wall 617.02 s
 **********************************************************************
 **                                                                  **
 **                       VIBRATIONAL ANALYSIS                       **
 **                       --------------------                       **
 **                                                                  **
 **        VIBRATIONAL FREQUENCIES (CM**-1) AND NORMAL MODES         **
 **     FORCE CONSTANTS (mDYN/ANGSTROM) AND REDUCED MASSES (AMU)     **
 **                  INFRARED INTENSITIES (KM/MOL)                   **
 **                                                                  **
 **********************************************************************
 

 Mode:                 1                      2                      3
 Frequency:      -599.52                 306.25                 350.85
 Force Cnst:      1.1541                 0.1735                 0.2017
 Red. Mass:       5.4497                 3.1393                 2.7812
 IR Active:          YES                    YES                    YES
 IR Intens:        7.445                  2.677                 16.845
 Raman Active:       YES                    YES                    YES
               X      Y      Z        X      Y      Z        X      Y      Z
 C         -0.001  0.055  0.010    0.010  0.025 -0.176   -0.041  0.019 -0.145
 C         -0.016 -0.019 -0.018    0.046  0.013  0.175   -0.022  0.017 -0.092
 C          0.008  0.023 -0.024    0.005  0.014  0.006    0.049 -0.018  0.203
 C         -0.063 -0.106 -0.178    0.036  0.043  0.007    0.111 -0.049 -0.080
 C         -0.111 -0.257  0.344    0.053 -0.005  0.200    0.024 -0.009 -0.024
 N          0.049 -0.043 -0.040    0.037  0.027 -0.156    0.025 -0.015  0.189
 H          0.024  0.013  0.072   -0.020  0.011 -0.341   -0.103  0.046 -0.444
 H          0.008 -0.010  0.017    0.092 -0.022  0.416   -0.111  0.049 -0.441
 H         -0.009 -0.006  0.209    0.049  0.020 -0.154    0.079 -0.047  0.301
 H         -0.021 -0.151 -0.219    0.178  0.103 -0.200    0.203 -0.118 -0.203
 H         -0.084 -0.249  0.329    0.096 -0.057  0.453   -0.031 -0.028 -0.085
 C          0.117  0.346 -0.121   -0.199 -0.104 -0.032   -0.120  0.070  0.009
 H          0.184  0.513 -0.019   -0.313 -0.255 -0.153   -0.406 -0.045 -0.235
 TransDip   0.051 -0.056  0.044    0.052  0.002  0.007   -0.025  0.004 -0.129

 Mode:                 4                      5                      6
 Frequency:       523.62                 551.72                 555.38
 Force Cnst:      0.3577                 0.5195                 0.5654
 Red. Mass:       2.2141                 2.8969                 3.1110
 IR Active:          YES                    YES                    YES
 IR Intens:       17.494                 13.404                 14.364
 Raman Active:       YES                    YES                    YES
               X      Y      Z        X      Y      Z        X      Y      Z
 C         -0.037 -0.038 -0.132   -0.169 -0.047 -0.041   -0.131  0.037  0.021
 C          0.106 -0.064  0.094   -0.018 -0.105  0.096   -0.136  0.019  0.049
 C          0.043  0.039 -0.015   -0.012 -0.022 -0.075   -0.089 -0.210  0.034
 C         -0.024  0.063 -0.032    0.170  0.038 -0.058    0.137 -0.030 -0.048
 C         -0.062  0.076 -0.029   -0.058  0.075  0.021    0.085  0.016  0.021
 N         -0.071 -0.095  0.139   -0.074  0.027  0.032    0.066  0.200 -0.012
 H         -0.092  0.093 -0.288   -0.180 -0.042 -0.085   -0.117 -0.141 -0.070
 H          0.120 -0.090  0.226    0.096 -0.072  0.276   -0.033  0.133 -0.096
 H          0.006  0.064 -0.107   -0.166  0.039 -0.045   -0.119 -0.179 -0.103
 H         -0.005  0.003 -0.062    0.019  0.038  0.169    0.164  0.042 -0.093
 H         -0.009  0.074  0.105   -0.117  0.037  0.019   -0.062 -0.089  0.046
 C          0.013 -0.021 -0.073    0.235  0.065  0.038    0.038 -0.096 -0.067
 H          0.494  0.518  0.417   -0.387 -0.412 -0.549    0.392  0.598  0.362
 TransDip  -0.023  0.082  0.103   -0.046 -0.005 -0.108   -0.066 -0.026  0.099

 Mode:                 7                      8                      9
 Frequency:       674.19                 718.05                 755.38
 Force Cnst:      1.1068                 0.5996                 0.5349
 Red. Mass:       4.1331                 1.9737                 1.5911
 IR Active:          YES                    YES                    YES
 IR Intens:        1.224                  7.988                 53.725
 Raman Active:       YES                    YES                    YES
               X      Y      Z        X      Y      Z        X      Y      Z
 C          0.071  0.083 -0.178   -0.008 -0.009 -0.029   -0.034 -0.001 -0.033
 C         -0.086  0.164  0.127   -0.020 -0.004 -0.138   -0.028 -0.012 -0.117
 C         -0.154  0.002 -0.145   -0.028  0.082 -0.060    0.051 -0.074  0.090
 C         -0.108 -0.133  0.002    0.155 -0.082  0.034   -0.068  0.028 -0.019
 C          0.104 -0.147 -0.138   -0.012 -0.003  0.007    0.017  0.074 -0.006
 N          0.113  0.024  0.185   -0.033 -0.008  0.006    0.020  0.020  0.023
 H          0.092 -0.036 -0.182    0.065 -0.009  0.353    0.064 -0.075  0.401
 H          0.007  0.084  0.657    0.118 -0.093  0.544    0.193 -0.058  0.622
 H          0.024 -0.090  0.003   -0.127  0.148 -0.217    0.114 -0.152  0.386
 H         -0.295 -0.012  0.267    0.362 -0.228 -0.254   -0.103  0.026  0.028
 H          0.057 -0.209 -0.055   -0.069 -0.027 -0.044    0.056  0.009  0.295
 C          0.059  0.035  0.065   -0.074  0.019  0.130    0.002  0.001 -0.083
 H         -0.086 -0.112 -0.079   -0.055  0.279  0.210    0.107 -0.215 -0.055
 TransDip   0.001 -0.021 -0.029    0.067  0.011  0.060    0.037 -0.051  0.226

 Mode:                10                     11                     12
 Frequency:       812.87                 879.55                 901.47
 Force Cnst:      0.5515                 2.0696                 0.6142
 Red. Mass:       1.4167                 4.5406                 1.2827
 IR Active:          YES                    YES                    YES
 IR Intens:       13.045                  4.485                  2.178
 Raman Active:       YES                    YES                    YES
               X      Y      Z        X      Y      Z        X      Y      Z
 C          0.024  0.025 -0.005   -0.083 -0.069  0.014    0.032 -0.017  0.011
 C          0.106 -0.032 -0.048    0.169 -0.220 -0.008   -0.008  0.006  0.031
 C         -0.019 -0.119 -0.016    0.032 -0.023 -0.182   -0.018  0.001 -0.020
 C          0.006  0.017  0.047   -0.152 -0.154  0.106   -0.009 -0.075  0.004
 C         -0.001 -0.001 -0.002    0.028  0.088  0.024   -0.009  0.101 -0.068
 N         -0.017  0.005 -0.001    0.105  0.253  0.056    0.001 -0.004 -0.005
 H          0.019  0.114  0.041   -0.143 -0.068 -0.292    0.046 -0.038  0.066
 H          0.226  0.029  0.021    0.303 -0.094 -0.149   -0.105  0.015 -0.253
 H         -0.048 -0.087 -0.128   -0.098 -0.039  0.243    0.011 -0.000 -0.080
 H         -0.265  0.200  0.428    0.073 -0.235 -0.235    0.015 -0.416 -0.019
 H         -0.013 -0.021  0.044   -0.109  0.088 -0.276    0.083 -0.109  0.820
 C         -0.050  0.036  0.007   -0.132  0.142  0.027    0.014  0.027  0.008
 H         -0.469  0.563 -0.190    0.154 -0.367  0.143   -0.099  0.089 -0.061
 TransDip  -0.082  0.082  0.008   -0.004 -0.031 -0.060    0.040  0.023 -0.008

 Mode:                13                     14                     15
 Frequency:       955.77                 964.56                 985.23
 Force Cnst:      0.7532                 0.8117                 1.2534
 Red. Mass:       1.3994                 1.4807                 2.1917
 IR Active:          YES                    YES                    YES
 IR Intens:        1.542                  7.231                 35.043
 Raman Active:       YES                    YES                    YES
               X      Y      Z        X      Y      Z        X      Y      Z
 C         -0.044  0.032 -0.140    0.010  0.007  0.055    0.010 -0.078 -0.025
 C          0.053 -0.026  0.077    0.060 -0.017 -0.027    0.008 -0.066 -0.007
 C         -0.024 -0.014 -0.003   -0.084  0.012 -0.026    0.026  0.196  0.032
 C          0.005  0.023  0.008    0.073  0.007 -0.042    0.045 -0.045 -0.106
 C          0.009 -0.033 -0.010    0.041 -0.057 -0.062   -0.027 -0.039  0.018
 N         -0.003 -0.001  0.014   -0.072 -0.003 -0.013    0.019  0.143  0.009
 H          0.160 -0.032  0.834   -0.068  0.166 -0.188    0.058 -0.162  0.145
 H         -0.005  0.068 -0.424    0.113  0.018 -0.028   -0.304 -0.283 -0.022
 H         -0.072 -0.002  0.042   -0.064 -0.069  0.409    0.157  0.117  0.200
 H          0.060  0.150 -0.076    0.041  0.575 -0.014   -0.426  0.037  0.567
 H         -0.012 -0.039 -0.037   -0.042 -0.257  0.410   -0.158 -0.140  0.064
 C         -0.013  0.015  0.019   -0.033  0.034  0.051   -0.024 -0.114 -0.006
 H          0.062 -0.101  0.052    0.220 -0.216  0.193   -0.049  0.193  0.038
 TransDip   0.025 -0.027  0.016    0.039  0.021  0.074   -0.107 -0.087  0.130

 Mode:                16                     17                     18
 Frequency:      1017.00                1027.71                1059.72
 Force Cnst:      2.1864                 1.2427                 0.9706
 Red. Mass:       3.5880                 1.9970                 1.4669
 IR Active:          YES                    YES                    YES
 IR Intens:        1.520                  6.924                  2.565
 Raman Active:       YES                    YES                    YES
               X      Y      Z        X      Y      Z        X      Y      Z
 C          0.286  0.020 -0.062    0.013 -0.013 -0.013   -0.021 -0.001  0.002
 C          0.073 -0.035 -0.022   -0.053  0.074  0.043   -0.017  0.028  0.002
 C         -0.235 -0.108  0.088    0.007 -0.020 -0.148    0.028 -0.028  0.037
 C          0.011 -0.014 -0.130    0.081 -0.086  0.004    0.082 -0.072 -0.018
 C         -0.119  0.134  0.096    0.013  0.143  0.089    0.022  0.033  0.015
 N         -0.025  0.053  0.008   -0.028 -0.096 -0.022   -0.006 -0.040 -0.006
 H          0.262  0.239 -0.041    0.029 -0.040  0.053   -0.016 -0.021  0.018
 H         -0.114 -0.206  0.039   -0.095  0.091 -0.106    0.061  0.089 -0.009
 H         -0.511 -0.007  0.081    0.339 -0.290  0.701   -0.090  0.114 -0.507
 H         -0.050 -0.250 -0.035   -0.064  0.003  0.211   -0.290 -0.008  0.512
 H         -0.169  0.221 -0.261    0.001  0.239 -0.244    0.002  0.029 -0.027
 C          0.048 -0.036  0.033   -0.047  0.003 -0.007   -0.090  0.105 -0.044
 H          0.153 -0.274  0.062    0.008  0.136  0.063    0.353 -0.406  0.173
 TransDip   0.006 -0.038  0.008   -0.008  0.042  0.072    0.014  0.041  0.027

 Mode:                19                     20                     21
 Frequency:      1104.83                1185.50                1211.85
 Force Cnst:      1.3602                 1.4204                 1.2097
 Red. Mass:       1.8912                 1.7154                 1.3981
 IR Active:          YES                    YES                    YES
 IR Intens:        4.099                  4.350                  9.404
 Raman Active:       YES                    YES                    YES
               X      Y      Z        X      Y      Z        X      Y      Z
 C         -0.126  0.056  0.040    0.010 -0.083 -0.006   -0.058  0.072  0.015
 C          0.074  0.003 -0.019    0.007  0.046 -0.006    0.010 -0.053 -0.006
 C         -0.092  0.081  0.030    0.015 -0.013  0.027    0.001 -0.018  0.008
 C         -0.024 -0.005 -0.108   -0.067 -0.051 -0.134   -0.045 -0.060 -0.077
 C          0.064  0.001  0.022   -0.058  0.064  0.021    0.062  0.040  0.010
 N          0.067 -0.068 -0.028    0.017  0.011 -0.002    0.019 -0.019 -0.010
 H         -0.138  0.084  0.004    0.079 -0.470 -0.023   -0.136  0.563  0.088
 H          0.516  0.336 -0.073    0.321  0.284 -0.054   -0.416 -0.378  0.068
 H         -0.285  0.124  0.211    0.360 -0.098 -0.319    0.296 -0.101 -0.232
 H         -0.182 -0.418  0.127   -0.047  0.459 -0.203   -0.053  0.178 -0.088
 H          0.326  0.183 -0.037   -0.019  0.099  0.025    0.268  0.180 -0.008
 C          0.009 -0.085  0.044    0.022 -0.001  0.141    0.014  0.002  0.072
 H         -0.033  0.033  0.042   -0.082  0.029  0.091   -0.034  0.011  0.050
 TransDip  -0.012  0.042  0.048    0.026  0.024 -0.057    0.038  0.086 -0.028

 Mode:                22                     23                     24
 Frequency:      1291.68                1344.67                1367.99
 Force Cnst:      1.7718                 3.9016                 1.6382
 Red. Mass:       1.8024                 3.6623                 1.4858
 IR Active:          YES                    YES                    YES
 IR Intens:        7.495                  3.678                  6.852
 Raman Active:       YES                    YES                    YES
               X      Y      Z        X      Y      Z        X      Y      Z
 C          0.005 -0.008  0.003    0.020 -0.191 -0.022    0.016 -0.009 -0.004
 C          0.003 -0.027 -0.003    0.045  0.043 -0.018    0.032  0.031 -0.003
 C         -0.026 -0.060 -0.046   -0.159  0.085  0.084    0.040 -0.042 -0.023
 C          0.036  0.201 -0.060   -0.049 -0.051  0.045    0.002  0.014 -0.029
 C         -0.021 -0.070 -0.013    0.265  0.015  0.077    0.046 -0.070  0.009
 N          0.005  0.020  0.001   -0.213  0.056  0.008   -0.140  0.062  0.018
 H         -0.004  0.022 -0.019   -0.064  0.300  0.116    0.084 -0.424 -0.043
 H          0.034 -0.011 -0.005    0.245  0.195 -0.055   -0.185 -0.130  0.018
 H          0.597 -0.319 -0.049    0.541 -0.139 -0.254   -0.178  0.032  0.066
 H         -0.077 -0.602  0.127    0.072 -0.208 -0.111   -0.022 -0.096  0.007
 H         -0.081 -0.120  0.003   -0.128 -0.159 -0.193    0.732  0.370  0.033
 C         -0.049  0.040  0.098    0.071  0.030 -0.116   -0.010  0.023  0.019
 H          0.085 -0.141  0.181   -0.010  0.055 -0.200    0.003  0.002  0.031
 TransDip   0.024 -0.083 -0.017    0.058  0.013 -0.016    0.041 -0.072  0.009

 Mode:                25                     26                     27
 Frequency:      1435.93                1456.66                1589.37
 Force Cnst:      2.1416                 2.7713                 6.9254
 Red. Mass:       1.7629                 2.2167                 4.6531
 IR Active:          YES                    YES                    YES
 IR Intens:        0.343                  1.476                 20.138
 Raman Active:       YES                    YES                    YES
               X      Y      Z        X      Y      Z        X      Y      Z
 C          0.088 -0.104 -0.033   -0.001 -0.037 -0.001   -0.128 -0.332  0.003
 C         -0.160 -0.050  0.033   -0.017  0.059  0.014    0.202  0.334 -0.023
 C          0.096 -0.002 -0.025    0.156 -0.070 -0.044   -0.032 -0.071 -0.005
 C          0.006  0.008 -0.021   -0.087  0.047 -0.117    0.025  0.028  0.017
 C         -0.043 -0.039 -0.010    0.168  0.045  0.035   -0.144 -0.046 -0.006
 N         -0.010  0.063  0.011   -0.066 -0.020 -0.009    0.130  0.034 -0.012
 H         -0.043  0.706  0.088   -0.024  0.055  0.030   -0.303  0.489  0.148
 H          0.365  0.354 -0.067   -0.173 -0.043  0.019   -0.450 -0.111  0.101
 H         -0.114  0.078  0.060   -0.555  0.197  0.093   -0.227 -0.009  0.091
 H         -0.033  0.051  0.029   -0.160 -0.161 -0.051    0.056 -0.011 -0.013
 H          0.312  0.176  0.059   -0.523 -0.379 -0.053    0.112  0.106  0.062
 C         -0.015 -0.003  0.024   -0.013  0.000  0.112   -0.008  0.015 -0.004
 H         -0.016  0.032  0.038   -0.091  0.065  0.105    0.019 -0.055  0.002
 TransDip   0.018  0.002 -0.004    0.007  0.012 -0.036   -0.118 -0.074  0.035

 Mode:                28                     29                     30
 Frequency:      3128.20                3157.75                3164.53
 Force Cnst:      6.2641                 6.3947                 6.4420
 Red. Mass:       1.0865                 1.0885                 1.0918
 IR Active:          YES                    YES                    YES
 IR Intens:       13.537                 13.566                 27.508
 Raman Active:       YES                    YES                    YES
               X      Y      Z        X      Y      Z        X      Y      Z
 C          0.000  0.001 -0.000    0.003  0.002 -0.001   -0.001 -0.001  0.000
 C         -0.003  0.006  0.001   -0.000  0.000  0.000   -0.001  0.001  0.000
 C         -0.032 -0.077 -0.011   -0.001 -0.004 -0.001    0.000 -0.006 -0.001
 C          0.005  0.001  0.003   -0.031 -0.001 -0.022   -0.064 -0.001 -0.045
 C         -0.002  0.002  0.001    0.042 -0.062 -0.018   -0.018  0.032  0.009
 N          0.000 -0.000 -0.000    0.000 -0.000 -0.000   -0.000  0.000  0.000
 H         -0.007 -0.002  0.001   -0.046 -0.009  0.009    0.018  0.004 -0.003
 H          0.048 -0.072 -0.017    0.006 -0.008 -0.002    0.010 -0.014 -0.004
 H          0.369  0.905  0.150    0.020  0.053  0.008    0.017  0.050  0.006
 H         -0.061 -0.004 -0.046    0.354  0.005  0.248    0.730  0.021  0.509
 H          0.015 -0.022 -0.006   -0.476  0.724  0.222    0.229 -0.354 -0.109
 C          0.001 -0.001 -0.001    0.000  0.001 -0.000    0.003 -0.000 -0.003
 H         -0.010 -0.003  0.017   -0.011 -0.005  0.018   -0.045 -0.013  0.064
 TransDip  -0.049 -0.106 -0.012    0.029 -0.102 -0.051   -0.143  0.043 -0.077

 Mode:                31                     32                     33
 Frequency:      3184.42                3208.00                3256.24
 Force Cnst:      6.4940                 6.6509                 6.8537
 Red. Mass:       1.0869                 1.0969                 1.0971
 IR Active:          YES                    YES                    YES
 IR Intens:        9.689                 22.990                  0.110
 Raman Active:       YES                    YES                    YES
               X      Y      Z        X      Y      Z        X      Y      Z
 C         -0.073 -0.016  0.014    0.041  0.013 -0.008    0.000 -0.000 -0.000
 C          0.023 -0.029 -0.009    0.041 -0.065 -0.016   -0.001  0.001  0.000
 C         -0.002 -0.004 -0.001   -0.004 -0.006 -0.000   -0.002  0.005  0.002
 C         -0.001  0.000 -0.000   -0.001  0.000 -0.000    0.007 -0.001  0.008
 C          0.003 -0.003 -0.001   -0.001  0.002  0.000    0.000 -0.001 -0.001
 N         -0.001  0.001 -0.000   -0.001  0.000  0.000   -0.000 -0.000  0.000
 H          0.850  0.163 -0.165   -0.442 -0.090  0.085    0.000  0.000 -0.000
 H         -0.262  0.365  0.102   -0.495  0.702  0.192    0.010 -0.014 -0.003
 H          0.019  0.044  0.007    0.031  0.066  0.010   -0.007 -0.024 -0.003
 H          0.007 -0.001  0.004    0.007  0.000  0.005   -0.060  0.000 -0.038
 H         -0.023  0.035  0.011    0.013 -0.019 -0.007   -0.006  0.015  0.001
 C          0.000  0.000 -0.001    0.001  0.000 -0.001    0.051  0.014 -0.072
 H         -0.005 -0.003  0.007   -0.011 -0.004  0.015   -0.595 -0.181  0.774
 TransDip  -0.093 -0.031  0.019    0.130 -0.073 -0.037   -0.005 -0.004 -0.009

 STANDARD THERMODYNAMIC QUANTITIES AT   298.15 K  AND     1.00 ATM

   This Molecule has  1 Imaginary Frequencies
   Zero point vibrational energy:       63.083 kcal/mol

   Atom    1 Element C  Has Mass   12.00000
   Atom    2 Element C  Has Mass   12.00000
   Atom    3 Element C  Has Mass   12.00000
   Atom    4 Element C  Has Mass   12.00000
   Atom    5 Element C  Has Mass   12.00000
   Atom    6 Element N  Has Mass   14.00307
   Atom    7 Element H  Has Mass    1.00783
   Atom    8 Element H  Has Mass    1.00783
   Atom    9 Element H  Has Mass    1.00783
   Atom   10 Element H  Has Mass    1.00783
   Atom   11 Element H  Has Mass    1.00783
   Atom   12 Element C  Has Mass   12.00000
   Atom   13 Element H  Has Mass    1.00783
   Molecular Mass:    92.050050 amu
   Principal axes and moments of inertia in amu*Bohr^2:
                             1           2           3
    Eigenvalues --      365.25951   485.12983   732.43721
          X               0.93140    -0.28160     0.23063
          Y               0.28738     0.95777     0.00883
          Z              -0.22337     0.05805     0.97300
   Rotational Symmetry Number is   1
   The Molecule is an Asymmetric Top
   Translational Enthalpy:        0.889 kcal/mol
   Rotational Enthalpy:           0.889 kcal/mol
   Vibrational Enthalpy:         64.456 kcal/mol
   gas constant (RT):             0.592 kcal/mol
   Translational Entropy:        39.471  cal/mol.K
   Rotational Entropy:           26.365  cal/mol.K
   Vibrational Entropy:           6.395  cal/mol.K

   Total Enthalpy:               66.825 kcal/mol
   Total Entropy:                72.230  cal/mol.K
Archival summary:
1\1\c8-89\FREQ\ProcedureUnspecified\6-31+G**\166(2)\hpark21\TueMar111:15:092022TueMar111:15:092022\0\\#,FREQ,ProcedureUnspecified,6-31+G**,\\0,2\N\C,1,1.32739\H,2,1.08923,1,116.418\C,1,1.37542,2,117.82,3,177.48,0\H,4,1.08654,1,115.501,2,169.65,0\C,4,1.35956,1,122.53,2,-13.2428,0\H,6,1.0855,4,121.737,1,179.37,0\C,6,1.48197,4,118.472,1,1.5012,0\H,8,1.09046,6,116.149,4,168.886,0\C,8,1.48539,6,124.127,4,-38.5205,0\H,10,1.08044,8,136.578,6,-130.154,0\C,10,1.45057,8,63.5781,6,100.673,0\H,12,1.08705,10,130.655,8,115.612,0\\\@

 Total job time:  638.36s(wall), 551.84s(cpu) 
 Tue Mar  1 11:15:09 2022

        *************************************************************
        *                                                           *
        *  Thank you very much for using Q-Chem.  Have a nice day.  *
        *                                                           *
        *************************************************************


