
Running Job 1 of 1 qcts2.in
qchem qcts2.in_7153.0 ./qcts2.d/ 1
/home/leeping/opt/qchem/5.0.2-openmp/exe/qcprog.exe_s qcts2.in_7153.0 ./qcts2.d/
Check license passed

                  Welcome to Q-Chem
     A Quantum Leap Into The Future Of Chemistry


 Q-Chem 5.0, Q-Chem, Inc., Pleasanton, CA (2017)

 Yihan Shao,  Zhengting Gan,  E. Epifanovsky,  A. T. B. Gilbert,  M. Wormit,  
 J. Kussmann,  A. W. Lange,  A. Behn,  Jia Deng,  Xintian Feng,  D. Ghosh,  
 M. Goldey,  P. R. Horn,  L. D. Jacobson,  I. Kaliman,  T. Kus,  A. Landau,  
 Jie Liu,  E. I. Proynov,  R. M. Richard,  R. P. Steele,  E. J. Sundstrom,  
 H. L. Woodcock III,  P. M. Zimmerman,  D. Zuev,  B. Albrecht,  E. Alguire,  
 S. A. Baeppler,  D. Barton,  Z. Benda,  Y. A. Bernard,  E. J. Berquist,  
 K. B. Bravaya,  H. Burton,  D. Casanova,  Chun-Min Chang,  Yunqing Chen,  
 A. Chien,  K. D. Closser,  M. P. Coons,  S. Dasgupta,  A. L. Dempwolff,  
 M. Diedenhofen,  Hainam Do,  R. G. Edgar,  Po-Tung Fang,  S. Fatehi,  
 Qingguo Feng,  J. Fosso-Tande,  Qinghui Ge,  A. Ghysels,  G. Gidofalvi,  
 J. Gomes,  J. Gonthier,  A. Gunina,  M. W. D. Hanson-Heine,  
 P. H. P. Harbach,  A. W. Hauser,  J. E. Herr,  E. G. Hohenstein,  
 Z. C. Holden,  Kerwin Hui,  T.-C. Jagau,  Hyunjun Ji,  B. Kaduk,  
 K. Khistyaev,  Jaehoon Kim,  P. Klunzinger,  K. Koh,  D. Kosenkov,  
 L. Koulias,  T. Kowalczyk,  C. M. Krauter,  A. Kunitsa,  Ka Un Lao,  
 A. Laurent,  K. V. Lawler,  Joonho Lee,  D. Lefrancois,  S. Lehtola,  
 D. S. Levine,  Yi-Pei Li,  You-Sheng Lin,  Fenglai Liu,  E. Livshits,  
 A. Luenser,  P. Manohar,  E. Mansoor,  S. F. Manzer,  Shan-Ping Mao,  
 Yuezhi Mao,  N. Mardirossian,  A. V. Marenich,  T. Markovich,  
 L. A. Martinez-Martinez,  S. A. Maurer,  N. J. Mayhall,  S. C. McKenzie,  
 J.-M. Mewes,  A. F. Morrison,  J. W. Mullinax,  K. Nanda,  
 T. S. Nguyen-Beck,  R. Olivares-Amaya,  J. A. Parkhill,  T. M. Perrine,  
 F. Plasser,  S. Prager,  A. Prociuk,  E. Ramos,  D. R. Rehn,  F. Rob,  
 M. Schneider,  N. Sergueev,  S. M. Sharada,  S. Sharma,  D. W. Small,  
 T. Stauch,  T. Stein,  Yu-Chuan Su,  A. J. W. Thom,  A. Tkatchenko,  
 T. Tsuchimochi,  L. Vogt,  O. Vydrov,  M. A. Watson,  J. Wenzel,  
 M. de Wergifosse,  T. A. Wesolowski,  A. White,  J. Witte,  A. Yamada,  
 Jun Yang,  K. Yao,  S. Yeganeh,  S. R. Yost,  Zhi-Qiang You,  A. Zech,  
 Igor Ying Zhang,  Xing Zhang,  Yan Zhao,  Ying Zhu,  B. R. Brooks,  
 G. K. L. Chan,  C. J. Cramer,  M. S. Gordon,  W. J. Hehre,  A. Klamt,  
 M. W. Schmidt,  C. D. Sherrill,  D. G. Truhlar,  A. Aspuru-Guzik,  R. Baer,  
 A. T. Bell,  N. A. Besley,  Jeng-Da Chai,  R. A. DiStasio Jr.,  A. Dreuw,  
 B. D. Dunietz,  T. R. Furlani,  Chao-Ping Hsu,  Yousung Jung,  Jing Kong,  
 D. S. Lambrecht,  WanZhen Liang,  C. Ochsenfeld,  V. A. Rassolov,  
 L. V. Slipchenko,  J. E. Subotnik,  T. Van Voorhis,  J. M. Herbert,  
 A. I. Krylov,  P. M. W. Gill,  M. Head-Gordon

 Contributors to earlier versions of Q-Chem not listed above: 
 R. D. Adamson,  B. Austin,  J. Baker,  G. J. O. Beran,  K. Brandhorst,  
 S. T. Brown,  E. F. C. Byrd,  A. K. Chakraborty,  C.-L. Cheng,  
 Siu Hung Chien,  D. M. Chipman,  D. L. Crittenden,  H. Dachsel,  
 R. J. Doerksen,  A. D. Dutoi,  L. Fusti-Molnar,  W. A. Goddard III,  
 A. Golubeva-Zadorozhnaya,  S. R. Gwaltney,  G. Hawkins,  A. Heyden,  
 S. Hirata,  G. Kedziora,  F. J. Keil,  C. Kelley,  Jihan Kim,  R. A. King,  
 R. Z. Khaliullin,  P. P. Korambath,  W. Kurlancheek,  A. M. Lee,  M. S. Lee,  
 S. V. Levchenko,  Ching Yeh Lin,  D. Liotard,  R. C. Lochan,  I. Lotan,  
 P. E. Maslen,  N. Nair,  D. P. O'Neill,  D. Neuhauser,  E. Neuscamman,  
 C. M. Oana,  R. Olson,  B. Peters,  R. Peverati,  P. A. Pieniazek,  
 Y. M. Rhee,  J. Ritchie,  M. A. Rohrdanz,  E. Rosta,  N. J. Russ,  
 H. F. Schaefer III,  N. E. Schultz,  N. Shenvi,  A. C. Simmonett,  A. Sodt,  
 D. Stuck,  K. S. Thanthiriwatte,  V. Vanovschi,  Tao Wang,  A. Warshel,  
 C. F. Williams,  Q. Wu,  X. Xu,  W. Zhang

 Please cite Q-Chem as follows:
 Y. Shao et al., Mol. Phys. 113, 184-215 (2015)
 DOI: 10.1080/00268976.2014.952696

 Q-Chem 5.0.2 for Intel X86 EM64T Linux

 Parts of Q-Chem use Armadillo 5.200.1 (Boston Tea Smuggler).
 http://arma.sourceforge.net/

 Q-Chem begins on Tue Mar  1 10:53:18 2022  

Host: 
0

     Scratch files written to ./qcts2.d//
 Dec517 15110_ 26548  26544 5633   
Processing $rem in /home/leeping/opt/qchem/5.0.2-openmp/config/preferences.
 MEM_STATIC 2000
 MEM_TOTAL  8000
 SYMMETRY   OFF
 SYM_IGNORE TRUE 

Checking the input file for inconsistencies... 	...done.

--------------------------------------------------------------
User input:
--------------------------------------------------------------
$molecule
0 2
C        1.6692165194    0.4020421922   -0.3329704537
C        1.1707511343   -0.8601924275   -0.3015675632
C       -0.2646096269   -1.0439326166    0.0199013927
C       -1.1916186055    0.1353965403   -0.3539592033
C       -0.4095048035    1.3527858618   -0.0006395827
N        0.9063419079    1.5095909548   -0.0468451581
H        2.7191364370    0.5993089318   -0.5378579626
H        1.7844943531   -1.7241872301   -0.5380100906
H       -0.6712464107   -2.0417918059   -0.1499796941
H       -2.0792510804    0.1147803293   -0.9825103802
H       -0.9927657722    2.2322221590    0.2726817779
C       -1.0018509631   -0.2433166335    1.0308973090
H       -1.6559786103   -0.4526155401    1.8658382727
$end

$rem
method                b3lyp
basis                 6-31+g(d,p)
unrestricted          true
symmetry              off
sym_ignore            true
incdft                false
incfock               0
scf_convergence       8
thresh                14
jobtype               ts
scf_guess             read
scf_algorithm         diis
max_scf_cycles        100
geom_opt_max_cycles   500
geom_opt_dmax         100
geom_opt_tol_gradient 10
geom_opt_hessian      read
$end

--------------------------------------------------------------
 ----------------------------------------------------------------
             Standard Nuclear Orientation (Angstroms)
    I     Atom           X                Y                Z
 ----------------------------------------------------------------
    1      C       1.6692165194     0.4020421922    -0.3329704537
    2      C       1.1707511343    -0.8601924275    -0.3015675632
    3      C      -0.2646096269    -1.0439326166     0.0199013927
    4      C      -1.1916186055     0.1353965403    -0.3539592033
    5      C      -0.4095048035     1.3527858618    -0.0006395827
    6      N       0.9063419079     1.5095909548    -0.0468451581
    7      H       2.7191364370     0.5993089318    -0.5378579626
    8      H       1.7844943531    -1.7241872301    -0.5380100906
    9      H      -0.6712464107    -2.0417918059    -0.1499796941
   10      H      -2.0792510804     0.1147803293    -0.9825103802
   11      H      -0.9927657722     2.2322221590     0.2726817779
   12      C      -1.0018509631    -0.2433166335     1.0308973090
   13      H      -1.6559786103    -0.4526155401     1.8658382727
 ----------------------------------------------------------------
 Nuclear Repulsion Energy =   273.7453842509 hartrees
 There are       25 alpha and       24 beta electrons
 Requested basis set is 6-31+G(d,p)
 There are 53 shells and 163 basis functions

 Total QAlloc Memory Limit   8000 MB
 Mega-Array Size      1956 MB
 MEM_STATIC part      2000 MB
 A cutoff of  1.0D-14 yielded   1386 shell pairs
 There are     13458 function pairs
 
 -------------------------------------------------------
 OpenMP Integral Computing Module                       
 Release: version 1.0, May 2013, Q-Chem Inc. Pittsburgh 
 -------------------------------------------------------
 Integral Job Info:
 Integral job number is                      11
 Integral operator is                         1
 short-range coefficients                     0
 long-range coefficients              100000000
 Omega coefficients                           0
 if combine SR and LR in K                    0
 Integral screening is                        0
 Integral computing path is                   2
 max size of driver memory is            800000
 size of driver memory is                593474
 size of scratch memory is              2361544
 max col of scratch BK array               1296
 max len of scratch array in speh3          155
 max len of scratch index in speh4           18
 max int batch size is                      520
 min int batch size is                       52
 fixed nKL is                                52
 max L of basis functions is                  2
 order of int derivative is                   0
 number of shells is                         53
 number of basis is                         163
 number of cartesian basis is               163
 number of contracted shell pairs          1386
 number of primitive shell pairs           4724
 maxK2 (contraction) of shell pair           36
 max number of K2 of shell pair               1
 max number of CS2 of shell pair            128
 max number of PS2 of shell pair            696
 mem total for path MDJ                  535308
 -------------------------------------------------------
 Smallest overlap matrix eigenvalue = 2.37E-05

 Scale SEOQF with 1.000000e-01/1.000000e-01/1.000000e-01

 Standard Electronic Orientation quadrupole field applied
 Nucleus-field energy     =     0.0000000046 hartrees
 Guess MOs from SCF MO coefficient file
 Reading MOs from coefficient file
 Reading MOs from coefficient file
 An unrestricted hybrid HF-DFT SCF calculation will be
 performed using Pulay DIIS extrapolation
 Exchange:     0.2000 Hartree-Fock + 0.0800 Slater + 0.7200 B88
 Correlation:  0.1900 VWN1RPA + 0.8100 LYP
 Using SG-1 standard quadrature grid
 SCF converges when DIIS error is below 1.0E-08
Using Q-Chem read-in guess as SCF_GUESS READ specified.

 using 4 threads for integral computing
 -------------------------------------------------------
 OpenMP Integral computing Module                
 Release: version 1.0, May 2013, Q-Chem Inc. Pittsburgh 
 -------------------------------------------------------
 -------------------------------------------------------
 OpenMP BLAS3 based DFT computing Module                
 Release: version 1.0, May 2013, Q-Chem Inc. Pittsburgh 
 -------------------------------------------------------
 ---------------------------------------
  Cycle       Energy         DIIS Error
 ---------------------------------------
    1    -286.8545880859      6.58E-10
    2    -286.8545880859      9.80E-10 Convergence criterion met
 ---------------------------------------
 <S^2> = 0.7893
 SCF time:  CPU 10.32 s  wall 6.38 s
 SCF   energy in the final basis set = -286.85458809
 Total energy in the final basis set = -286.85458809
 
 --------------------------------------------------------------
 
                    Orbital Energies (a.u.)
 --------------------------------------------------------------
 
 Alpha MOs
 -- Occupied --
-14.338 -10.252 -10.231 -10.230 -10.227 -10.216 -10.204  -0.960
 -0.886  -0.778  -0.661  -0.646  -0.591  -0.545  -0.505  -0.491
 -0.461  -0.422  -0.397  -0.382  -0.359  -0.312  -0.273  -0.255
 -0.197
 -- Virtual --
 -0.033   0.000   0.016   0.022   0.025   0.039   0.048   0.058
  0.070   0.075   0.083   0.094   0.097   0.100   0.112   0.118
  0.126   0.130   0.147   0.151   0.157   0.174   0.178   0.182
  0.189   0.194   0.202   0.210   0.230   0.244   0.250   0.255
  0.271   0.274   0.279   0.302   0.306   0.319   0.326   0.339
  0.360   0.377   0.465   0.499   0.624   0.636   0.654   0.668
  0.681   0.714   0.729   0.742   0.743   0.764   0.773   0.801
  0.811   0.849   0.873   0.901   0.928   0.939   0.956   0.998
  1.004   1.010   1.043   1.065   1.093   1.109   1.120   1.188
  1.194   1.220   1.263   1.300   1.363   1.382   1.417   1.476
  1.523   1.596   1.616   1.679   1.686   1.711   1.798   1.831
  1.852   1.914   1.925   1.983   2.029   2.051   2.078   2.099
  2.150   2.172   2.200   2.261   2.276   2.312   2.352   2.397
  2.408   2.446   2.454   2.469   2.504   2.508   2.526   2.541
  2.559   2.607   2.621   2.665   2.678   2.706   2.739   2.827
  2.919   2.948   2.967   3.161   3.193   3.282   3.287   3.420
  3.438   3.591   3.717   4.212   4.302   4.460   4.519   4.591
  4.643   4.737
 
 Beta MOs
 -- Occupied --
-14.332 -10.255 -10.231 -10.226 -10.221 -10.217 -10.200  -0.953
 -0.875  -0.773  -0.653  -0.644  -0.577  -0.540  -0.503  -0.484
 -0.457  -0.417  -0.394  -0.370  -0.348  -0.302  -0.265  -0.234
 -- Virtual --
 -0.099  -0.023   0.001   0.016   0.023   0.027   0.041   0.049
  0.061   0.075   0.078   0.085   0.095   0.097   0.104   0.113
  0.119   0.127   0.133   0.148   0.153   0.158   0.176   0.181
  0.184   0.190   0.198   0.203   0.213   0.232   0.245   0.251
  0.259   0.275   0.277   0.282   0.306   0.307   0.320   0.331
  0.342   0.364   0.381   0.469   0.502   0.627   0.641   0.663
  0.675   0.693   0.718   0.725   0.748   0.752   0.767   0.778
  0.807   0.815   0.852   0.875   0.903   0.930   0.940   0.958
  1.002   1.008   1.018   1.057   1.071   1.097   1.112   1.125
  1.190   1.200   1.223   1.270   1.305   1.373   1.385   1.419
  1.485   1.531   1.602   1.629   1.687   1.691   1.722   1.807
  1.842   1.855   1.920   1.932   1.988   2.031   2.058   2.087
  2.110   2.154   2.181   2.206   2.263   2.281   2.315   2.358
  2.399   2.411   2.452   2.456   2.475   2.508   2.512   2.532
  2.542   2.561   2.614   2.627   2.672   2.685   2.711   2.742
  2.838   2.924   2.953   2.969   3.164   3.195   3.284   3.288
  3.422   3.439   3.597   3.719   4.222   4.308   4.457   4.518
  4.608   4.649   4.739
 --------------------------------------------------------------
 
          Ground-State Mulliken Net Atomic Charges

     Atom                 Charge (a.u.)    Spin (a.u.)
  --------------------------------------------------------
      1 C                    -0.306378      -0.161718
      2 C                     0.281724       0.330522
      3 C                    -0.391047      -0.047987
      4 C                     0.239998       0.023029
      5 C                    -0.360926      -0.180503
      6 N                    -0.101118       0.341875
      7 H                     0.126577       0.008440
      8 H                     0.127989      -0.014435
      9 H                     0.139872       0.017295
     10 H                     0.139006       0.002085
     11 H                     0.143655       0.009359
     12 C                    -0.182629       0.693753
     13 H                     0.143277      -0.021714
  --------------------------------------------------------
  Sum of atomic charges =     0.000000
  Sum of spin   charges =     1.000000

 -----------------------------------------------------------------
                    Cartesian Multipole Moments
 -----------------------------------------------------------------
    Charge (ESU x 10^10)
                 0.0000
    Dipole Moment (Debye)
         X      -2.0468      Y      -2.1012      Z      -0.3717
       Tot       2.9568
    Quadrupole Moments (Debye-Ang)
        XX     -37.9970     XY      -3.3774     YY     -42.9866
        XZ      -1.5396     YZ      -0.1236     ZZ     -43.0556
    Octopole Moments (Debye-Ang^2)
       XXX     -11.0343    XXY      -8.6484    XYY     -12.9563
       YYY     -31.0031    XXZ      -2.6346    XYZ       0.6610
       YYZ      -1.1460    XZZ      -9.5899    YZZ      -7.1130
       ZZZ       2.0004
    Hexadecapole Moments (Debye-Ang^3)
      XXXX    -345.8150   XXXY     -11.6124   XXYY    -114.1133
      XYYY     -34.7918   YYYY    -310.3625   XXXZ      26.0543
      XXYZ      -0.5441   XYYZ       7.9149   YYYZ       6.9411
      XXZZ     -77.1433   XYZZ      -2.2611   YYZZ     -73.8844
      XZZZ      29.3534   YZZZ      -1.3701   ZZZZ    -118.2693
 -----------------------------------------------------------------
 Calculating analytic gradient of the SCF energy
 Gradient of SCF Energy
            1           2           3           4           5           6
    1  -0.0032677   0.0012272  -0.0000973  -0.0003036   0.0024562  -0.0000866
    2  -0.0014759   0.0017129   0.0008171  -0.0008166  -0.0014962   0.0004902
    3   0.0003103  -0.0000801   0.0004303   0.0018095  -0.0010083   0.0004908
            7           8           9          10          11          12
    1   0.0006860   0.0000992  -0.0001818  -0.0003206  -0.0002707   0.0003893
    2   0.0002271  -0.0002791  -0.0001381  -0.0000642   0.0002716   0.0010247
    3  -0.0000606  -0.0000182  -0.0003767  -0.0004699   0.0004136  -0.0015836
           13
    1  -0.0003297
    2  -0.0002736
    3   0.0001428
 Max gradient component =       3.268E-03
 RMS gradient           =       9.798E-04
 Gradient time:  CPU 17.07 s  wall 4.54 s
 Geometry Optimization Parameters
   NAtoms,    NIC,     NZ,  NCons,   NDum,   NFix, NCnnct, MaxDiis
       13     126       0       0       0       0       0       0

 Cartesian Hessian read from HESS file


** GEOMETRY OPTIMIZATION IN DELOCALIZED INTERNAL COORDINATES **
   Searching for a Transition State

   Optimization Cycle:   1

                       Coordinates (Angstroms)
     ATOM                X               Y               Z
      1  C         1.6692165194    0.4020421922   -0.3329704537
      2  C         1.1707511343   -0.8601924275   -0.3015675632
      3  C        -0.2646096269   -1.0439326166    0.0199013927
      4  C        -1.1916186055    0.1353965403   -0.3539592033
      5  C        -0.4095048035    1.3527858618   -0.0006395827
      6  N         0.9063419079    1.5095909548   -0.0468451581
      7  H         2.7191364370    0.5993089318   -0.5378579626
      8  H         1.7844943531   -1.7241872301   -0.5380100906
      9  H        -0.6712464107   -2.0417918059   -0.1499796941
     10  H        -2.0792510804    0.1147803293   -0.9825103802
     11  H        -0.9927657722    2.2322221590    0.2726817779
     12  C        -1.0018509631   -0.2433166335    1.0308973090
     13  H        -1.6559786103   -0.4526155401    1.8658382727
   Point Group: c1    Number of degrees of freedom:    33


   Energy is   -286.854588086


 Attempting to Generate Delocalized Internal Coordinates

 Transforming Cartesian Hessian to Internal Coordinates
 Hessian Transformation does not Include Derivative of B-matrix

 33 Hessian modes will be used to form the next step
  Hessian Eigenvalues:
    -0.039741    0.003002    0.007694    0.010074    0.012107    0.014805
     0.017176    0.017942    0.022831    0.025180    0.030883    0.033297
     0.047063    0.059127    0.067743    0.078941    0.102928    0.110645
     0.122674    0.127403    0.177095    0.211751    0.239451    0.290666
     0.327974    0.345909    0.350200    0.351125    0.360517    0.362402
     0.370284    0.468195    0.483882

 Transition State Search - Taking P-RFO Step
 Searching for Lamda that Maximizes Along the Lowest mode
 Value Taken    Lamda =   0.00000020
 Searching for Lamda that Minimizes Along All other modes
 Value Taken    Lamda =  -0.00005548
 Step Taken.  Stepsize is  0.038901

                             Maximum     Tolerance    Cnvgd?
         Gradient           0.001840      0.000010      NO
         Displacement       0.027117      0.001200      NO
         Energy change     *********      0.000001      NO


 New Cartesian Coordinates Obtained by Inverse Iteration

 Displacement from previous Coordinates is:  0.018446
 ----------------------------------------------------------------
             Standard Nuclear Orientation (Angstroms)
    I     Atom           X                Y                Z
 ----------------------------------------------------------------
    1      C       1.6714079431     0.4022361960    -0.3318078679
    2      C       1.1704595522    -0.8613019352    -0.3021127534
    3      C      -0.2648959810    -1.0449196075     0.0176875950
    4      C      -1.1913132209     0.1363191128    -0.3556007109
    5      C      -0.4122630234     1.3537197722     0.0009753757
    6      N       0.9051579744     1.5085144849    -0.0475847924
    7      H       2.7203618661     0.5994349313    -0.5351688020
    8      H       1.7844683229    -1.7246762442    -0.5385252670
    9      H      -0.6708978506    -2.0428938530    -0.1505569912
   10      H      -2.0804396879     0.1163010206    -0.9806802450
   11      H      -0.9941283746     2.2344639008     0.2695313795
   12      C      -1.0017649048    -0.2465348021     1.0306149406
   13      H      -1.6530381364    -0.4505722611     1.8682068027
 ----------------------------------------------------------------
 Nuclear Repulsion Energy =   273.6346204291 hartrees
 There are       25 alpha and       24 beta electrons
 Applying Cartesian multipole field
    Component          Value
    ---------          -----
     (2,0,0)        1.00000E-11
     (0,2,0)        2.00000E-11
     (0,0,2)       -3.00000E-11
 Nucleus-field energy     =     0.0000000046 hartrees
 Requested basis set is 6-31+G(d,p)
 There are 53 shells and 163 basis functions
 A cutoff of  1.0D-14 yielded   1386 shell pairs
 There are     13458 function pairs
 Smallest overlap matrix eigenvalue = 2.38E-05
 Guess MOs from SCF MO coefficient file
 Reading MOs from coefficient file
 Reading MOs from coefficient file
 An unrestricted hybrid HF-DFT SCF calculation will be
 performed using Pulay DIIS extrapolation
 Exchange:     0.2000 Hartree-Fock + 0.0800 Slater + 0.7200 B88
 Correlation:  0.1900 VWN1RPA + 0.8100 LYP
 Using SG-1 standard quadrature grid
 SCF converges when DIIS error is below 1.0E-08
 Geometry optimization detected.  Setting ReadMinima to 0
 Setting SaveMinima to 0
Using Q-Chem read-in guess as SCF_GUESS READ specified.

 using 4 threads for integral computing
 -------------------------------------------------------
 OpenMP Integral computing Module                
 Release: version 1.0, May 2013, Q-Chem Inc. Pittsburgh 
 -------------------------------------------------------
 -------------------------------------------------------
 OpenMP BLAS3 based DFT computing Module                
 Release: version 1.0, May 2013, Q-Chem Inc. Pittsburgh 
 -------------------------------------------------------
 ---------------------------------------
  Cycle       Energy         DIIS Error
 ---------------------------------------
    1    -286.8530759012      1.38E-04
    2    -286.8546094848      4.03E-05
    3    -286.8546037699      5.91E-05
    4    -286.8546151115      1.34E-05
    5    -286.8546157303      2.92E-06
    6    -286.8546157751      8.40E-07
    7    -286.8546157839      4.30E-07
    8    -286.8546157892      1.18E-07
    9    -286.8546157914      9.64E-08
   10    -286.8546157923      4.06E-08
   11    -286.8546157927      2.34E-08
   12    -286.8546157928      8.11E-09 Convergence criterion met
 ---------------------------------------
 <S^2> = 0.7899
 SCF time:  CPU 61.42 s  wall 38.55 s
 SCF   energy in the final basis set = -286.85461579
 Total energy in the final basis set = -286.85461579
 
 --------------------------------------------------------------
 
                    Orbital Energies (a.u.)
 --------------------------------------------------------------
 
 Alpha MOs
 -- Occupied --
-14.338 -10.252 -10.231 -10.230 -10.227 -10.216 -10.204  -0.960
 -0.885  -0.777  -0.661  -0.646  -0.591  -0.544  -0.506  -0.491
 -0.461  -0.422  -0.397  -0.382  -0.360  -0.312  -0.272  -0.254
 -0.197
 -- Virtual --
 -0.033   0.000   0.016   0.022   0.025   0.039   0.048   0.058
  0.070   0.075   0.083   0.094   0.097   0.100   0.112   0.118
  0.125   0.130   0.147   0.151   0.157   0.174   0.178   0.182
  0.189   0.194   0.202   0.211   0.230   0.244   0.250   0.255
  0.271   0.274   0.279   0.302   0.306   0.319   0.326   0.339
  0.359   0.376   0.465   0.499   0.624   0.636   0.655   0.668
  0.680   0.713   0.728   0.742   0.743   0.764   0.773   0.801
  0.811   0.849   0.873   0.902   0.929   0.939   0.957   0.998
  1.004   1.010   1.043   1.065   1.093   1.109   1.120   1.187
  1.193   1.219   1.263   1.301   1.364   1.381   1.417   1.477
  1.522   1.597   1.615   1.680   1.685   1.712   1.798   1.832
  1.851   1.913   1.924   1.984   2.028   2.051   2.077   2.098
  2.148   2.171   2.199   2.260   2.276   2.312   2.351   2.397
  2.407   2.446   2.454   2.469   2.504   2.508   2.526   2.540
  2.559   2.607   2.622   2.664   2.678   2.705   2.739   2.827
  2.919   2.947   2.967   3.161   3.193   3.284   3.288   3.422
  3.438   3.590   3.719   4.212   4.301   4.460   4.518   4.593
  4.642   4.736
 
 Beta MOs
 -- Occupied --
-14.331 -10.255 -10.232 -10.226 -10.221 -10.218 -10.200  -0.952
 -0.874  -0.773  -0.653  -0.644  -0.577  -0.540  -0.504  -0.484
 -0.457  -0.418  -0.394  -0.370  -0.348  -0.302  -0.265  -0.234
 -- Virtual --
 -0.098  -0.024   0.001   0.016   0.024   0.027   0.041   0.049
  0.061   0.075   0.078   0.085   0.095   0.097   0.104   0.113
  0.119   0.127   0.133   0.148   0.152   0.158   0.176   0.181
  0.184   0.190   0.198   0.203   0.213   0.232   0.245   0.251
  0.259   0.275   0.278   0.282   0.306   0.307   0.320   0.331
  0.342   0.363   0.380   0.469   0.501   0.627   0.641   0.663
  0.674   0.692   0.718   0.724   0.747   0.751   0.766   0.778
  0.807   0.815   0.852   0.875   0.903   0.930   0.940   0.959
  1.002   1.008   1.018   1.058   1.071   1.098   1.112   1.125
  1.189   1.199   1.222   1.269   1.305   1.373   1.384   1.418
  1.486   1.531   1.602   1.628   1.688   1.690   1.723   1.807
  1.842   1.855   1.920   1.931   1.989   2.030   2.057   2.087
  2.109   2.152   2.179   2.206   2.262   2.281   2.315   2.358
  2.400   2.410   2.452   2.456   2.474   2.508   2.512   2.532
  2.541   2.561   2.613   2.627   2.670   2.685   2.710   2.742
  2.838   2.923   2.952   2.970   3.165   3.195   3.286   3.290
  3.424   3.439   3.596   3.720   4.222   4.307   4.458   4.517
  4.609   4.648   4.739
 --------------------------------------------------------------
 
          Ground-State Mulliken Net Atomic Charges

     Atom                 Charge (a.u.)    Spin (a.u.)
  --------------------------------------------------------
      1 C                    -0.305952      -0.163537
      2 C                     0.280429       0.333744
      3 C                    -0.389439      -0.049485
      4 C                     0.239460       0.022910
      5 C                    -0.362500      -0.181070
      6 N                    -0.101793       0.342428
      7 H                     0.126895       0.008451
      8 H                     0.127825      -0.014556
      9 H                     0.140075       0.017459
     10 H                     0.139002       0.002137
     11 H                     0.143895       0.009387
     12 C                    -0.181242       0.694081
     13 H                     0.143346      -0.021951
  --------------------------------------------------------
  Sum of atomic charges =     0.000000
  Sum of spin   charges =     1.000000

 -----------------------------------------------------------------
                    Cartesian Multipole Moments
 -----------------------------------------------------------------
    Charge (ESU x 10^10)
                -0.0000
    Dipole Moment (Debye)
         X      -2.0477      Y      -2.0997      Z      -0.3630
       Tot       2.9552
    Quadrupole Moments (Debye-Ang)
        XX     -37.9831     XY      -3.3923     YY     -42.9769
        XZ      -1.5468     YZ      -0.1231     ZZ     -43.0576
    Octopole Moments (Debye-Ang^2)
       XXX     -10.9193    XXY      -8.5715    XYY     -13.0042
       YYY     -30.9308    XXZ      -2.6252    XYZ       0.6616
       YYZ      -1.1333    XZZ      -9.6039    YZZ      -7.0955
       ZZZ       2.0997
    Hexadecapole Moments (Debye-Ang^3)
      XXXX    -345.7750   XXXY     -11.5300   XXYY    -114.1732
      XYYY     -34.7874   YYYY    -310.4418   XXXZ      26.0042
      XXYZ      -0.5360   XYYZ       7.9159   YYYZ       6.9171
      XXZZ     -77.1983   XYZZ      -2.2472   YYZZ     -73.9544
      XZZZ      29.2168   YZZZ      -1.3794   ZZZZ    -118.2134
 -----------------------------------------------------------------
 Calculating analytic gradient of the SCF energy
 Gradient of SCF Energy
            1           2           3           4           5           6
    1   0.0000018   0.0000057  -0.0000081   0.0000047   0.0000149  -0.0000040
    2  -0.0000087   0.0000159   0.0000017   0.0000041  -0.0000006  -0.0000060
    3   0.0000367   0.0000045  -0.0000193  -0.0000027   0.0000078   0.0000339
            7           8           9          10          11          12
    1   0.0000063   0.0000042  -0.0000026   0.0000194   0.0000031  -0.0000134
    2  -0.0000003   0.0000029   0.0000047   0.0000183  -0.0000061   0.0000001
    3   0.0000520   0.0000059  -0.0000390  -0.0000336   0.0000176  -0.0000255
           13
    1  -0.0000319
    2  -0.0000260
    3  -0.0000384
 Max gradient component =       5.197E-05
 RMS gradient           =       1.911E-05
 Gradient time:  CPU 17.25 s  wall 5.08 s
 Geometry Optimization Parameters
   NAtoms,    NIC,     NZ,  NCons,   NDum,   NFix, NCnnct, MaxDiis
       13     126       0       0       0       0       0       0

 Cartesian Hessian Update
 Hessian Updated using Powell/Murtagh-Sargent Update
  Mixing factors:     0.891888 Powell
                      0.108112 Murtagh-Sargent


** GEOMETRY OPTIMIZATION IN DELOCALIZED INTERNAL COORDINATES **
   Searching for a Transition State

   Optimization Cycle:   2

                       Coordinates (Angstroms)
     ATOM                X               Y               Z
      1  C         1.6714079431    0.4022361960   -0.3318078679
      2  C         1.1704595522   -0.8613019352   -0.3021127534
      3  C        -0.2648959810   -1.0449196075    0.0176875950
      4  C        -1.1913132209    0.1363191128   -0.3556007109
      5  C        -0.4122630234    1.3537197722    0.0009753757
      6  N         0.9051579744    1.5085144849   -0.0475847924
      7  H         2.7203618661    0.5994349313   -0.5351688020
      8  H         1.7844683229   -1.7246762442   -0.5385252670
      9  H        -0.6708978506   -2.0428938530   -0.1505569912
     10  H        -2.0804396879    0.1163010206   -0.9806802450
     11  H        -0.9941283746    2.2344639008    0.2695313795
     12  C        -1.0017649048   -0.2465348021    1.0306149406
     13  H        -1.6530381364   -0.4505722611    1.8682068027
   Point Group: c1    Number of degrees of freedom:    33


   Energy is   -286.854615793

 Hessian Updated using Powell/Murtagh-Sargent Update
  Mixing factors:     0.932063 Powell
                      0.067937 Murtagh-Sargent

 33 Hessian modes will be used to form the next step
  Hessian Eigenvalues:
    -0.039739    0.002998    0.007675    0.010078    0.012100    0.014814
     0.017184    0.017941    0.022842    0.025184    0.030887    0.033289
     0.047050    0.059124    0.067734    0.078941    0.102916    0.110644
     0.122678    0.127404    0.177091    0.211747    0.239400    0.290666
     0.327974    0.345910    0.350205    0.351129    0.360519    0.362402
     0.370284    0.468185    0.483664

 Transition State Search - Taking P-RFO Step
 Searching for Lamda that Maximizes Along the Lowest mode
 Value Taken    Lamda =   0.00000000
 Searching for Lamda that Minimizes Along All other modes
 Value Taken    Lamda =   0.00000000
 Step Taken.  Stepsize is  0.001016

                             Maximum     Tolerance    Cnvgd?
         Gradient           0.000012      0.000010      NO
         Displacement       0.000559      0.001200     YES
         Energy change     -0.000028      0.000001      NO


 New Cartesian Coordinates Obtained by Inverse Iteration

 Displacement from previous Coordinates is:  0.000509
 ----------------------------------------------------------------
             Standard Nuclear Orientation (Angstroms)
    I     Atom           X                Y                Z
 ----------------------------------------------------------------
    1      C       1.6714095739     0.4022340436    -0.3317755981
    2      C       1.1704669718    -0.8613224022    -0.3021162924
    3      C      -0.2648978454    -1.0449452337     0.0176595293
    4      C      -1.1913226181     0.1363106710    -0.3556336152
    5      C      -0.4122905654     1.3537113278     0.0009797587
    6      N       0.9051474290     1.5085071675    -0.0475400404
    7      H       2.7203755964     0.5994431778    -0.5350941484
    8      H       1.7844753939    -1.7246853940    -0.5385708430
    9      H      -0.6709013274    -2.0429146369    -0.1506274993
   10      H      -2.0804776141     0.1163024159    -0.9806780761
   11      H      -0.9941606087     2.2344791840     0.2694725072
   12      C      -1.0017788403    -0.2465907358     1.0305851954
   13      H      -1.6529310666    -0.4504388696     1.8683177860
 ----------------------------------------------------------------
 Nuclear Repulsion Energy =   273.6331616405 hartrees
 There are       25 alpha and       24 beta electrons
 Applying Cartesian multipole field
    Component          Value
    ---------          -----
     (2,0,0)        1.00000E-11
     (0,2,0)        2.00000E-11
     (0,0,2)       -3.00000E-11
 Nucleus-field energy     =     0.0000000046 hartrees
 Requested basis set is 6-31+G(d,p)
 There are 53 shells and 163 basis functions
 A cutoff of  1.0D-14 yielded   1386 shell pairs
 There are     13458 function pairs
 Smallest overlap matrix eigenvalue = 2.38E-05
 Guess MOs from SCF MO coefficient file
 Reading MOs from coefficient file
 Reading MOs from coefficient file
 An unrestricted hybrid HF-DFT SCF calculation will be
 performed using Pulay DIIS extrapolation
 Exchange:     0.2000 Hartree-Fock + 0.0800 Slater + 0.7200 B88
 Correlation:  0.1900 VWN1RPA + 0.8100 LYP
 Using SG-1 standard quadrature grid
 SCF converges when DIIS error is below 1.0E-08
 Geometry optimization detected.  Setting ReadMinima to 0
 Setting SaveMinima to 0
Using Q-Chem read-in guess as SCF_GUESS READ specified.

 using 4 threads for integral computing
 -------------------------------------------------------
 OpenMP Integral computing Module                
 Release: version 1.0, May 2013, Q-Chem Inc. Pittsburgh 
 -------------------------------------------------------
 -------------------------------------------------------
 OpenMP BLAS3 based DFT computing Module                
 Release: version 1.0, May 2013, Q-Chem Inc. Pittsburgh 
 -------------------------------------------------------
 ---------------------------------------
  Cycle       Energy         DIIS Error
 ---------------------------------------
    1    -286.8545900769      1.57E-06
    2    -286.8546157950      3.98E-07
    3    -286.8546157939      6.84E-07
    4    -286.8546157958      1.15E-07
    5    -286.8546157959      4.64E-08
    6    -286.8546157959      1.40E-08
    7    -286.8546157959      7.36E-09 Convergence criterion met
 ---------------------------------------
 <S^2> = 0.7899
 SCF time:  CPU 35.82 s  wall 31.03 s
 SCF   energy in the final basis set = -286.85461580
 Total energy in the final basis set = -286.85461580
 
 --------------------------------------------------------------
 
                    Orbital Energies (a.u.)
 --------------------------------------------------------------
 
 Alpha MOs
 -- Occupied --
-14.338 -10.252 -10.231 -10.230 -10.227 -10.216 -10.204  -0.960
 -0.885  -0.777  -0.661  -0.646  -0.591  -0.544  -0.506  -0.491
 -0.461  -0.422  -0.397  -0.382  -0.360  -0.312  -0.272  -0.254
 -0.197
 -- Virtual --
 -0.033   0.000   0.016   0.022   0.025   0.039   0.048   0.058
  0.070   0.075   0.083   0.094   0.097   0.100   0.112   0.118
  0.125   0.130   0.147   0.151   0.157   0.174   0.178   0.182
  0.189   0.194   0.202   0.211   0.230   0.244   0.250   0.255
  0.271   0.274   0.279   0.302   0.306   0.319   0.326   0.339
  0.359   0.376   0.465   0.499   0.624   0.636   0.655   0.668
  0.680   0.713   0.728   0.742   0.743   0.764   0.773   0.801
  0.811   0.849   0.873   0.902   0.929   0.939   0.957   0.998
  1.004   1.010   1.043   1.065   1.093   1.109   1.120   1.187
  1.193   1.219   1.263   1.301   1.364   1.381   1.417   1.477
  1.522   1.597   1.615   1.680   1.685   1.712   1.798   1.832
  1.851   1.913   1.924   1.984   2.028   2.051   2.077   2.098
  2.148   2.171   2.199   2.260   2.276   2.312   2.351   2.397
  2.407   2.446   2.454   2.469   2.504   2.508   2.526   2.540
  2.559   2.607   2.622   2.664   2.678   2.705   2.739   2.827
  2.919   2.947   2.967   3.161   3.192   3.284   3.288   3.422
  3.438   3.590   3.719   4.212   4.301   4.460   4.518   4.593
  4.642   4.736
 
 Beta MOs
 -- Occupied --
-14.331 -10.255 -10.232 -10.226 -10.221 -10.218 -10.200  -0.952
 -0.874  -0.773  -0.653  -0.644  -0.577  -0.540  -0.504  -0.484
 -0.457  -0.418  -0.394  -0.370  -0.348  -0.302  -0.265  -0.234
 -- Virtual --
 -0.098  -0.024   0.001   0.016   0.024   0.027   0.041   0.049
  0.061   0.075   0.078   0.085   0.095   0.097   0.104   0.113
  0.119   0.127   0.133   0.148   0.152   0.158   0.176   0.181
  0.184   0.190   0.198   0.203   0.213   0.232   0.245   0.251
  0.259   0.275   0.278   0.282   0.306   0.307   0.320   0.331
  0.342   0.363   0.380   0.469   0.501   0.627   0.641   0.663
  0.674   0.692   0.718   0.724   0.747   0.751   0.766   0.778
  0.807   0.815   0.852   0.875   0.903   0.930   0.940   0.959
  1.002   1.008   1.018   1.058   1.071   1.098   1.112   1.125
  1.189   1.199   1.222   1.269   1.305   1.373   1.384   1.418
  1.486   1.531   1.602   1.628   1.688   1.690   1.723   1.807
  1.842   1.855   1.920   1.931   1.989   2.030   2.057   2.087
  2.109   2.152   2.179   2.206   2.262   2.281   2.315   2.358
  2.400   2.410   2.452   2.456   2.474   2.508   2.512   2.532
  2.541   2.561   2.613   2.627   2.670   2.685   2.710   2.742
  2.838   2.923   2.952   2.970   3.165   3.194   3.286   3.290
  3.424   3.439   3.596   3.720   4.222   4.307   4.458   4.517
  4.609   4.648   4.739
 --------------------------------------------------------------
 
          Ground-State Mulliken Net Atomic Charges

     Atom                 Charge (a.u.)    Spin (a.u.)
  --------------------------------------------------------
      1 C                    -0.305967      -0.163554
      2 C                     0.280401       0.333765
      3 C                    -0.389381      -0.049508
      4 C                     0.239458       0.022890
      5 C                    -0.362531      -0.181063
      6 N                    -0.101789       0.342436
      7 H                     0.126896       0.008453
      8 H                     0.127824      -0.014556
      9 H                     0.140077       0.017466
     10 H                     0.139004       0.002143
     11 H                     0.143893       0.009387
     12 C                    -0.181231       0.694102
     13 H                     0.143348      -0.021960
  --------------------------------------------------------
  Sum of atomic charges =    -0.000000
  Sum of spin   charges =     1.000000

 -----------------------------------------------------------------
                    Cartesian Multipole Moments
 -----------------------------------------------------------------
    Charge (ESU x 10^10)
                -0.0000
    Dipole Moment (Debye)
         X      -2.0478      Y      -2.0996      Z      -0.3628
       Tot       2.9552
    Quadrupole Moments (Debye-Ang)
        XX     -37.9834     XY      -3.3925     YY     -42.9772
        XZ      -1.5469     YZ      -0.1230     ZZ     -43.0570
    Octopole Moments (Debye-Ang^2)
       XXX     -10.9183    XXY      -8.5700    XYY     -13.0040
       YYY     -30.9291    XXZ      -2.6252    XYZ       0.6612
       YYZ      -1.1342    XZZ      -9.6046    YZZ      -7.0949
       ZZZ       2.1024
    Hexadecapole Moments (Debye-Ang^3)
      XXXX    -345.7795   XXXY     -11.5303   XXYY    -114.1747
      XYYY     -34.7869   YYYY    -310.4449   XXXZ      26.0030
      XXYZ      -0.5354   XYYZ       7.9150   YYYZ       6.9148
      XXZZ     -77.1990   XYZZ      -2.2478   YYZZ     -73.9553
      XZZZ      29.2112   YZZZ      -1.3809   ZZZZ    -118.2073
 -----------------------------------------------------------------
 Calculating analytic gradient of the SCF energy
 Gradient of SCF Energy
            1           2           3           4           5           6
    1   0.0000062   0.0000026  -0.0000034   0.0000060   0.0000037   0.0000047
    2   0.0000002   0.0000011   0.0000004   0.0000076   0.0000010  -0.0000017
    3   0.0000326   0.0000069  -0.0000188  -0.0000174   0.0000122   0.0000358
            7           8           9          10          11          12
    1   0.0000102   0.0000041  -0.0000030   0.0000160   0.0000014  -0.0000171
    2   0.0000003   0.0000028   0.0000038   0.0000191  -0.0000011  -0.0000116
    3   0.0000522   0.0000048  -0.0000393  -0.0000319   0.0000152  -0.0000194
           13
    1  -0.0000315
    2  -0.0000219
    3  -0.0000330
 Max gradient component =       5.225E-05
 RMS gradient           =       1.831E-05
 Gradient time:  CPU 17.26 s  wall 6.30 s
 Geometry Optimization Parameters
   NAtoms,    NIC,     NZ,  NCons,   NDum,   NFix, NCnnct, MaxDiis
       13     126       0       0       0       0       0       0

 Cartesian Hessian Update
 Hessian Updated using Powell/Murtagh-Sargent Update
**WARNING** Small Scalar Product
 Hessian Update Skipped this cycle


** GEOMETRY OPTIMIZATION IN DELOCALIZED INTERNAL COORDINATES **
   Searching for a Transition State

   Optimization Cycle:   3

                       Coordinates (Angstroms)
     ATOM                X               Y               Z
      1  C         1.6714095739    0.4022340436   -0.3317755981
      2  C         1.1704669718   -0.8613224022   -0.3021162924
      3  C        -0.2648978454   -1.0449452337    0.0176595293
      4  C        -1.1913226181    0.1363106710   -0.3556336152
      5  C        -0.4122905654    1.3537113278    0.0009797587
      6  N         0.9051474290    1.5085071675   -0.0475400404
      7  H         2.7203755964    0.5994431778   -0.5350941484
      8  H         1.7844753939   -1.7246853940   -0.5385708430
      9  H        -0.6709013274   -2.0429146369   -0.1506274993
     10  H        -2.0804776141    0.1163024159   -0.9806780761
     11  H        -0.9941606087    2.2344791840    0.2694725072
     12  C        -1.0017788403   -0.2465907358    1.0305851954
     13  H        -1.6529310666   -0.4504388696    1.8683177860
   Point Group: c1    Number of degrees of freedom:    33


   Energy is   -286.854615796

 Hessian Updated using Powell/Murtagh-Sargent Update
**WARNING** Small Scalar Product
 Hessian Update Skipped this cycle

 33 Hessian modes will be used to form the next step
  Hessian Eigenvalues:
    -0.039739    0.002998    0.007675    0.010078    0.012100    0.014814
     0.017184    0.017941    0.022842    0.025184    0.030887    0.033289
     0.047050    0.059124    0.067734    0.078941    0.102916    0.110644
     0.122678    0.127404    0.177091    0.211747    0.239400    0.290666
     0.327974    0.345910    0.350205    0.351129    0.360519    0.362402
     0.370284    0.468185    0.483664

 Transition State Search - Taking P-RFO Step
 Searching for Lamda that Maximizes Along the Lowest mode
 Value Taken    Lamda =   0.00000000
 Searching for Lamda that Minimizes Along All other modes
 Value Taken    Lamda =   0.00000000
 Step Taken.  Stepsize is  0.000033

                             Maximum     Tolerance    Cnvgd?
         Gradient           0.000000      0.000010     YES
         Displacement       0.000024      0.001200     YES
         Energy change     -0.000000      0.000001     YES


                       Distance Matrix (Angstroms)
             C (  1)   C (  2)   C (  3)   C (  4)   C (  5)   N (  6)
   C (  2)  1.359558
   C (  3)  2.442482  1.481974
   C (  4)  2.875156  2.564408  1.546925
   C (  5)  2.314701  2.739227  2.403239  1.488667
   N (  6)  1.375423  2.398186  2.809515  2.524486  1.327388
   H (  7)  1.086536  2.142506  3.452739  3.943105  3.266480  2.087860
   H (  8)  2.139938  1.085501  2.229657  3.514562  3.820134  3.386423
   H (  9)  3.390868  2.193113  1.090460  2.249864  3.409829  3.886792
   H ( 10)  3.818310  3.461912  2.375185  1.087050  2.297320  3.423878
   H ( 11)  3.289967  3.820512  3.368955  2.198168  1.089226  2.057888
   C ( 12)  3.069680  2.621572  1.485389  1.450566  1.992122  2.806972
   H ( 13)  4.076604  3.584855  2.388516  2.345915  2.877690  3.748566
             H (  7)   H (  8)   H (  9)   H ( 10)   H ( 11)   C ( 12)
   H (  8)  2.505493
   H (  9)  4.316321  2.506121
   H ( 10)  4.845633  4.303784  2.708894
   H ( 11)  4.137445  4.903951  4.310114  2.688798
   C ( 12)  4.125719  3.522815  2.175206  2.310944  2.595199
   H ( 13)  5.099456  4.385497  2.752545  2.936115  3.193598  1.080439

 
 Final energy is   -286.854615795865     


 ******************************
 **  OPTIMIZATION CONVERGED  **
 ******************************

                       Coordinates (Angstroms)
     ATOM                X               Y               Z
      1  C         1.6714095739    0.4022340436   -0.3317755981
      2  C         1.1704669718   -0.8613224022   -0.3021162924
      3  C        -0.2648978454   -1.0449452337    0.0176595293
      4  C        -1.1913226181    0.1363106710   -0.3556336152
      5  C        -0.4122905654    1.3537113278    0.0009797587
      6  N         0.9051474290    1.5085071675   -0.0475400404
      7  H         2.7203755964    0.5994431778   -0.5350941484
      8  H         1.7844753939   -1.7246853940   -0.5385708430
      9  H        -0.6709013274   -2.0429146369   -0.1506274993
     10  H        -2.0804776141    0.1163024159   -0.9806780761
     11  H        -0.9941606087    2.2344791840    0.2694725072
     12  C        -1.0017788403   -0.2465907358    1.0305851954
     13  H        -1.6529310666   -0.4504388696    1.8683177860

Z-matrix Print:
$molecule
0 2
N 
C  1 1.327388
H  2 1.089226 1 116.417738
C  1 1.375423 2 117.819735 3 177.479882 0
H  4 1.086536 1 115.501302 2 169.649773 0
C  4 1.359558 1 122.529882 2 -13.242783 0
H  6 1.085501 4 121.737416 1 179.370060 0
C  6 1.481974 4 118.472308 1 1.501202 0
H  8 1.090460 6 116.149082 4 168.885721 0
C  8 1.485389 6 124.127253 4 -38.520487 0
H  10 1.080439 8 136.578141 6 -130.154376 0
C  10 1.450566 8 63.578075 6 100.672920 0
H  12 1.087050 10 130.655317 8 115.612087 0
$end

 
 --------------------------------------------------------------
 
                    Orbital Energies (a.u.)
 --------------------------------------------------------------
 
 Alpha MOs
 -- Occupied --
-14.338 -10.252 -10.231 -10.230 -10.227 -10.216 -10.204  -0.960
 -0.885  -0.777  -0.661  -0.646  -0.591  -0.544  -0.506  -0.491
 -0.461  -0.422  -0.397  -0.382  -0.360  -0.312  -0.272  -0.254
 -0.197
 -- Virtual --
 -0.033   0.000   0.016   0.022   0.025   0.039   0.048   0.058
  0.070   0.075   0.083   0.094   0.097   0.100   0.112   0.118
  0.125   0.130   0.147   0.151   0.157   0.174   0.178   0.182
  0.189   0.194   0.202   0.211   0.230   0.244   0.250   0.255
  0.271   0.274   0.279   0.302   0.306   0.319   0.326   0.339
  0.359   0.376   0.465   0.499   0.624   0.636   0.655   0.668
  0.680   0.713   0.728   0.742   0.743   0.764   0.773   0.801
  0.811   0.849   0.873   0.902   0.929   0.939   0.957   0.998
  1.004   1.010   1.043   1.065   1.093   1.109   1.120   1.187
  1.193   1.219   1.263   1.301   1.364   1.381   1.417   1.477
  1.522   1.597   1.615   1.680   1.685   1.712   1.798   1.832
  1.851   1.913   1.924   1.984   2.028   2.051   2.077   2.098
  2.148   2.171   2.199   2.260   2.276   2.312   2.351   2.397
  2.407   2.446   2.454   2.469   2.504   2.508   2.526   2.540
  2.559   2.607   2.622   2.664   2.678   2.705   2.739   2.827
  2.919   2.947   2.967   3.161   3.192   3.284   3.288   3.422
  3.438   3.590   3.719   4.212   4.301   4.460   4.518   4.593
  4.642   4.736
 
 Beta MOs
 -- Occupied --
-14.331 -10.255 -10.232 -10.226 -10.221 -10.218 -10.200  -0.952
 -0.874  -0.773  -0.653  -0.644  -0.577  -0.540  -0.504  -0.484
 -0.457  -0.418  -0.394  -0.370  -0.348  -0.302  -0.265  -0.234
 -- Virtual --
 -0.098  -0.024   0.001   0.016   0.024   0.027   0.041   0.049
  0.061   0.075   0.078   0.085   0.095   0.097   0.104   0.113
  0.119   0.127   0.133   0.148   0.152   0.158   0.176   0.181
  0.184   0.190   0.198   0.203   0.213   0.232   0.245   0.251
  0.259   0.275   0.278   0.282   0.306   0.307   0.320   0.331
  0.342   0.363   0.380   0.469   0.501   0.627   0.641   0.663
  0.674   0.692   0.718   0.724   0.747   0.751   0.766   0.778
  0.807   0.815   0.852   0.875   0.903   0.930   0.940   0.959
  1.002   1.008   1.018   1.058   1.071   1.098   1.112   1.125
  1.189   1.199   1.222   1.269   1.305   1.373   1.384   1.418
  1.486   1.531   1.602   1.628   1.688   1.690   1.723   1.807
  1.842   1.855   1.920   1.931   1.989   2.030   2.057   2.087
  2.109   2.152   2.179   2.206   2.262   2.281   2.315   2.358
  2.400   2.410   2.452   2.456   2.474   2.508   2.512   2.532
  2.541   2.561   2.613   2.627   2.670   2.685   2.710   2.742
  2.838   2.923   2.952   2.970   3.165   3.194   3.286   3.290
  3.424   3.439   3.596   3.720   4.222   4.307   4.458   4.517
  4.609   4.648   4.739
 --------------------------------------------------------------
 
          Ground-State Mulliken Net Atomic Charges

     Atom                 Charge (a.u.)    Spin (a.u.)
  --------------------------------------------------------
      1 C                    -0.305967      -0.163554
      2 C                     0.280401       0.333765
      3 C                    -0.389381      -0.049508
      4 C                     0.239458       0.022890
      5 C                    -0.362531      -0.181063
      6 N                    -0.101789       0.342436
      7 H                     0.126896       0.008453
      8 H                     0.127824      -0.014556
      9 H                     0.140077       0.017466
     10 H                     0.139004       0.002143
     11 H                     0.143893       0.009387
     12 C                    -0.181231       0.694102
     13 H                     0.143348      -0.021960
  --------------------------------------------------------
  Sum of atomic charges =    -0.000000
  Sum of spin   charges =     1.000000

 -----------------------------------------------------------------
                    Cartesian Multipole Moments
 -----------------------------------------------------------------
    Charge (ESU x 10^10)
                -0.0000
    Dipole Moment (Debye)
         X      -2.0478      Y      -2.0996      Z      -0.3628
       Tot       2.9552
    Quadrupole Moments (Debye-Ang)
        XX     -37.9834     XY      -3.3925     YY     -42.9772
        XZ      -1.5469     YZ      -0.1230     ZZ     -43.0570
    Octopole Moments (Debye-Ang^2)
       XXX     -10.9183    XXY      -8.5700    XYY     -13.0040
       YYY     -30.9291    XXZ      -2.6252    XYZ       0.6612
       YYZ      -1.1342    XZZ      -9.6046    YZZ      -7.0949
       ZZZ       2.1024
    Hexadecapole Moments (Debye-Ang^3)
      XXXX    -345.7795   XXXY     -11.5303   XXYY    -114.1747
      XYYY     -34.7869   YYYY    -310.4449   XXXZ      26.0030
      XXYZ      -0.5354   XYYZ       7.9150   YYYZ       6.9148
      XXZZ     -77.1990   XYZZ      -2.2478   YYZZ     -73.9553
      XZZZ      29.2112   YZZZ      -1.3809   ZZZZ    -118.2073
 -----------------------------------------------------------------
Archival summary:
1\1\c8-89\TS\ProcedureUnspecified\6-31+G**\166(2)\hpark21\TueMar110:55:172022TueMar110:55:172022\0\\#,TS,ProcedureUnspecified,6-31+G**,\\0,2\N\C,1,1.32739\H,2,1.08923,1,116.418\C,1,1.37542,2,117.82,3,177.48,0\H,4,1.08654,1,115.501,2,169.65,0\C,4,1.35956,1,122.53,2,-13.2428,0\H,6,1.0855,4,121.737,1,179.37,0\C,6,1.48197,4,118.472,1,1.5012,0\H,8,1.09046,6,116.149,4,168.886,0\C,8,1.48539,6,124.127,4,-38.5205,0\H,10,1.08044,8,136.578,6,-130.154,0\C,10,1.45057,8,63.5781,6,100.673,0\H,12,1.08705,10,130.655,8,115.612,0\\\@

 Total job time:  119.18s(wall), 163.92s(cpu) 
 Tue Mar  1 10:55:17 2022

        *************************************************************
        *                                                           *
        *  Thank you very much for using Q-Chem.  Have a nice day.  *
        *                                                           *
        *************************************************************


