
Running Job 1 of 1 qcts1.in
qchem qcts1.in_4014.0 ./qcts1.d/ 1
/home/leeping/opt/qchem/5.0.2-openmp/exe/qcprog.exe_s qcts1.in_4014.0 ./qcts1.d/
Check license passed

                  Welcome to Q-Chem
     A Quantum Leap Into The Future Of Chemistry


 Q-Chem 5.0, Q-Chem, Inc., Pleasanton, CA (2017)

 Yihan Shao,  Zhengting Gan,  E. Epifanovsky,  A. T. B. Gilbert,  M. Wormit,  
 J. Kussmann,  A. W. Lange,  A. Behn,  Jia Deng,  Xintian Feng,  D. Ghosh,  
 M. Goldey,  P. R. Horn,  L. D. Jacobson,  I. Kaliman,  T. Kus,  A. Landau,  
 Jie Liu,  E. I. Proynov,  R. M. Richard,  R. P. Steele,  E. J. Sundstrom,  
 H. L. Woodcock III,  P. M. Zimmerman,  D. Zuev,  B. Albrecht,  E. Alguire,  
 S. A. Baeppler,  D. Barton,  Z. Benda,  Y. A. Bernard,  E. J. Berquist,  
 K. B. Bravaya,  H. Burton,  D. Casanova,  Chun-Min Chang,  Yunqing Chen,  
 A. Chien,  K. D. Closser,  M. P. Coons,  S. Dasgupta,  A. L. Dempwolff,  
 M. Diedenhofen,  Hainam Do,  R. G. Edgar,  Po-Tung Fang,  S. Fatehi,  
 Qingguo Feng,  J. Fosso-Tande,  Qinghui Ge,  A. Ghysels,  G. Gidofalvi,  
 J. Gomes,  J. Gonthier,  A. Gunina,  M. W. D. Hanson-Heine,  
 P. H. P. Harbach,  A. W. Hauser,  J. E. Herr,  E. G. Hohenstein,  
 Z. C. Holden,  Kerwin Hui,  T.-C. Jagau,  Hyunjun Ji,  B. Kaduk,  
 K. Khistyaev,  Jaehoon Kim,  P. Klunzinger,  K. Koh,  D. Kosenkov,  
 L. Koulias,  T. Kowalczyk,  C. M. Krauter,  A. Kunitsa,  Ka Un Lao,  
 A. Laurent,  K. V. Lawler,  Joonho Lee,  D. Lefrancois,  S. Lehtola,  
 D. S. Levine,  Yi-Pei Li,  You-Sheng Lin,  Fenglai Liu,  E. Livshits,  
 A. Luenser,  P. Manohar,  E. Mansoor,  S. F. Manzer,  Shan-Ping Mao,  
 Yuezhi Mao,  N. Mardirossian,  A. V. Marenich,  T. Markovich,  
 L. A. Martinez-Martinez,  S. A. Maurer,  N. J. Mayhall,  S. C. McKenzie,  
 J.-M. Mewes,  A. F. Morrison,  J. W. Mullinax,  K. Nanda,  
 T. S. Nguyen-Beck,  R. Olivares-Amaya,  J. A. Parkhill,  T. M. Perrine,  
 F. Plasser,  S. Prager,  A. Prociuk,  E. Ramos,  D. R. Rehn,  F. Rob,  
 M. Schneider,  N. Sergueev,  S. M. Sharada,  S. Sharma,  D. W. Small,  
 T. Stauch,  T. Stein,  Yu-Chuan Su,  A. J. W. Thom,  A. Tkatchenko,  
 T. Tsuchimochi,  L. Vogt,  O. Vydrov,  M. A. Watson,  J. Wenzel,  
 M. de Wergifosse,  T. A. Wesolowski,  A. White,  J. Witte,  A. Yamada,  
 Jun Yang,  K. Yao,  S. Yeganeh,  S. R. Yost,  Zhi-Qiang You,  A. Zech,  
 Igor Ying Zhang,  Xing Zhang,  Yan Zhao,  Ying Zhu,  B. R. Brooks,  
 G. K. L. Chan,  C. J. Cramer,  M. S. Gordon,  W. J. Hehre,  A. Klamt,  
 M. W. Schmidt,  C. D. Sherrill,  D. G. Truhlar,  A. Aspuru-Guzik,  R. Baer,  
 A. T. Bell,  N. A. Besley,  Jeng-Da Chai,  R. A. DiStasio Jr.,  A. Dreuw,  
 B. D. Dunietz,  T. R. Furlani,  Chao-Ping Hsu,  Yousung Jung,  Jing Kong,  
 D. S. Lambrecht,  WanZhen Liang,  C. Ochsenfeld,  V. A. Rassolov,  
 L. V. Slipchenko,  J. E. Subotnik,  T. Van Voorhis,  J. M. Herbert,  
 A. I. Krylov,  P. M. W. Gill,  M. Head-Gordon

 Contributors to earlier versions of Q-Chem not listed above: 
 R. D. Adamson,  B. Austin,  J. Baker,  G. J. O. Beran,  K. Brandhorst,  
 S. T. Brown,  E. F. C. Byrd,  A. K. Chakraborty,  C.-L. Cheng,  
 Siu Hung Chien,  D. M. Chipman,  D. L. Crittenden,  H. Dachsel,  
 R. J. Doerksen,  A. D. Dutoi,  L. Fusti-Molnar,  W. A. Goddard III,  
 A. Golubeva-Zadorozhnaya,  S. R. Gwaltney,  G. Hawkins,  A. Heyden,  
 S. Hirata,  G. Kedziora,  F. J. Keil,  C. Kelley,  Jihan Kim,  R. A. King,  
 R. Z. Khaliullin,  P. P. Korambath,  W. Kurlancheek,  A. M. Lee,  M. S. Lee,  
 S. V. Levchenko,  Ching Yeh Lin,  D. Liotard,  R. C. Lochan,  I. Lotan,  
 P. E. Maslen,  N. Nair,  D. P. O'Neill,  D. Neuhauser,  E. Neuscamman,  
 C. M. Oana,  R. Olson,  B. Peters,  R. Peverati,  P. A. Pieniazek,  
 Y. M. Rhee,  J. Ritchie,  M. A. Rohrdanz,  E. Rosta,  N. J. Russ,  
 H. F. Schaefer III,  N. E. Schultz,  N. Shenvi,  A. C. Simmonett,  A. Sodt,  
 D. Stuck,  K. S. Thanthiriwatte,  V. Vanovschi,  Tao Wang,  A. Warshel,  
 C. F. Williams,  Q. Wu,  X. Xu,  W. Zhang

 Please cite Q-Chem as follows:
 Y. Shao et al., Mol. Phys. 113, 184-215 (2015)
 DOI: 10.1080/00268976.2014.952696

 Q-Chem 5.0.2 for Intel X86 EM64T Linux

 Parts of Q-Chem use Armadillo 5.200.1 (Boston Tea Smuggler).
 http://arma.sourceforge.net/

 Q-Chem begins on Tue Mar  1 10:30:26 2022  

Host: 
0

     Scratch files written to ./qcts1.d//
 Dec517 15110_ 26548  26544 5633   
Processing $rem in /home/leeping/opt/qchem/5.0.2-openmp/config/preferences.
 MEM_STATIC 2000
 MEM_TOTAL  8000
 SYMMETRY   OFF
 SYM_IGNORE TRUE 

Checking the input file for inconsistencies... 	...done.

--------------------------------------------------------------
User input:
--------------------------------------------------------------
$molecule
0 2
C        1.6692165194    0.4020421922   -0.3329704537
C        1.1707511343   -0.8601924275   -0.3015675632
C       -0.2646096269   -1.0439326166    0.0199013927
C       -1.1916186055    0.1353965403   -0.3539592033
C       -0.4095048035    1.3527858618   -0.0006395827
N        0.9063419079    1.5095909548   -0.0468451581
H        2.7191364370    0.5993089318   -0.5378579626
H        1.7844943531   -1.7241872301   -0.5380100906
H       -0.6712464107   -2.0417918059   -0.1499796941
H       -2.0792510804    0.1147803293   -0.9825103802
H       -0.9927657722    2.2322221590    0.2726817779
C       -1.0018509631   -0.2433166335    1.0308973090
H       -1.6559786103   -0.4526155401    1.8658382727
$end

$rem
method                b3lyp
basis                 6-31g(d)
unrestricted          true
symmetry              off
sym_ignore            true
incdft                false
incfock               0
scf_convergence       6
thresh                14
jobtype               sp
scf_guess             read
scf_algorithm         diis
max_scf_cycles        100
stability_analysis    true
max_cis_cycles        100
cis_n_roots           4
$end

--------------------------------------------------------------
 ----------------------------------------------------------------
             Standard Nuclear Orientation (Angstroms)
    I     Atom           X                Y                Z
 ----------------------------------------------------------------
    1      C       1.6692165194     0.4020421922    -0.3329704537
    2      C       1.1707511343    -0.8601924275    -0.3015675632
    3      C      -0.2646096269    -1.0439326166     0.0199013927
    4      C      -1.1916186055     0.1353965403    -0.3539592033
    5      C      -0.4095048035     1.3527858618    -0.0006395827
    6      N       0.9063419079     1.5095909548    -0.0468451581
    7      H       2.7191364370     0.5993089318    -0.5378579626
    8      H       1.7844943531    -1.7241872301    -0.5380100906
    9      H      -0.6712464107    -2.0417918059    -0.1499796941
   10      H      -2.0792510804     0.1147803293    -0.9825103802
   11      H      -0.9927657722     2.2322221590     0.2726817779
   12      C      -1.0018509631    -0.2433166335     1.0308973090
   13      H      -1.6559786103    -0.4526155401     1.8658382727
 ----------------------------------------------------------------
 Nuclear Repulsion Energy =   273.7453842509 hartrees
 There are       25 alpha and       24 beta electrons
 Requested basis set is 6-31G(d)
 There are 40 shells and 117 basis functions

 Total QAlloc Memory Limit   8000 MB
 Mega-Array Size      1956 MB
 MEM_STATIC part      2000 MB

                       Distance Matrix (Angstroms)
             C (  1)   C (  2)   C (  3)   C (  4)   C (  5)   N (  6)
   C (  2)  1.357457
   C (  3)  2.440296  1.482351
   C (  4)  2.873311  2.564124  1.545941
   C (  5)  2.309857  2.735880  2.401182  1.489488
   N (  6)  1.374958  2.398055  2.809994  2.526691  1.325962
   H (  7)  1.087761  2.140905  3.451678  3.942466  3.262626  2.087087
   H (  8)  2.139201  1.085851  2.229986  3.514139  3.817088  3.386697
   H (  9)  3.388743  2.193652  1.090842  2.247786  3.407927  3.887382
   H ( 10)  3.815158  3.460747  2.374946  1.087839  2.298865  3.425599
   H ( 11)  3.286719  3.817538  3.365605  2.197476  1.090095  2.056916
   C ( 12)  3.067772  2.622251  1.485471  1.448193  1.990599  2.806317
   H ( 13)  4.077024  3.585271  2.386011  2.342838  2.880436  3.751546
             H (  7)   H (  8)   H (  9)   H ( 10)   H ( 11)   C ( 12)
   H (  8)  2.504434
   H (  9)  4.315155  2.506412
   H ( 10)  4.843243  4.302082  2.706730
   H ( 11)  4.135408  4.901385  4.306880  2.690635
   C ( 12)  4.125137  3.523942  2.176760  2.311457  2.589067
   H ( 13)  5.101562  4.385457  2.749309  2.934994  3.191607  1.081118

 
 A cutoff of  1.0D-14 yielded    807 shell pairs
 There are      7079 function pairs
 Smallest overlap matrix eigenvalue = 1.20E-03

 Scale SEOQF with 1.000000e-01/1.000000e-01/1.000000e-01

 Standard Electronic Orientation quadrupole field applied
 Nucleus-field energy     =     0.0000000046 hartrees
 Guess MOs from SCF MO coefficient file
 Reading MOs from coefficient file
 Reading MOs from coefficient file
 An unrestricted hybrid HF-DFT SCF calculation will be
 performed using Pulay DIIS extrapolation
 Exchange:     0.2000 Hartree-Fock + 0.0800 Slater + 0.7200 B88
 Correlation:  0.1900 VWN1RPA + 0.8100 LYP
 Using SG-1 standard quadrature grid
 SCF converges when DIIS error is below 1.0E-06
Using Q-Chem read-in guess as SCF_GUESS READ specified.

 -------------------------------------------------------
 OpenMP BLAS3 based DFT computing Module                
 -------------------------------------------------------
 ---------------------------------------
  Cycle       Energy         DIIS Error
 ---------------------------------------
    1    -286.8326171895      1.03E-09
    2    -286.8326171895      1.64E-09 Convergence criterion met
 ---------------------------------------
 <S^2> = 0.7920
 SCF time:  CPU 3.24 s  wall 8.46 s
 SCF   energy in the final basis set = -286.83261719
 Total energy in the final basis set = -286.83261719
 
 Direct TDDFT/TDA calculation will be performed
 Exchange:     0.2000 Hartree-Fock + 0.0800 Slater + 0.7200 B88
 Correlation:  0.1900 VWN1RPA + 0.8100 LYP
 Using SG-1 standard quadrature grid
 CIS energy converged when residual is below 10e- 6
 ---------------------------------------------------
 Iter    Rts Conv    Rts Left    Ttl Dev     Max Dev
 ---------------------------------------------------
   1         0           4      0.005827    0.002199
   2         0           4      0.001581    0.000504
   3         0           4      0.000646    0.000236
   4         0           4      0.000331    0.000142
   5         0           4      0.000493    0.000400
   6         1           3      0.000333    0.000296
   7         2           2      0.000087    0.000078
   8         2           2      0.000021    0.000019
   9         3           1      0.000005    0.000004
  10         4           0      0.000002    0.000001    Roots Converged
 ---------------------------------------------------
 
 ---------------------------------------------------
         TDDFT/TDA Excitation Energies              
 ---------------------------------------------------

 Excited state   1: excitation energy (eV) =    2.3121
 Total energy for state  1:                  -286.74764985 au
    <S**2>     :  0.8294
    Trans. Mom.: -0.3619 X   0.0775 Y   0.1097 Z
    Strength   :     0.0084408208
    S(  1) --> V(  1) amplitude =  0.3413 alpha
    D( 24) --> S(  1) amplitude =  0.9216 beta

 Excited state   2: excitation energy (eV) =    3.0328
 Total energy for state  2:                  -286.72116480 au
    <S**2>     :  0.8946
    Trans. Mom.: -0.1086 X   0.0487 Y   0.0517 Z
    Strength   :     0.0012505512
    S(  1) --> V(  1) amplitude =  0.4381 alpha
    D( 23) --> S(  1) amplitude =  0.8820 beta

 Excited state   3: excitation energy (eV) =    3.5856
 Total energy for state  3:                  -286.70085014 au
    <S**2>     :  0.9657
    Trans. Mom.:  0.4999 X  -0.1709 Y  -0.3443 Z
    Strength   :     0.0349318329
    S(  1) --> V(  1) amplitude =  0.7785 alpha
    D( 21) --> S(  1) amplitude =  0.1743 beta
    D( 23) --> S(  1) amplitude = -0.4099 beta
    D( 24) --> S(  1) amplitude = -0.3227 beta
    D( 24) --> V(  1) amplitude = -0.1595 beta

 Excited state   4: excitation energy (eV) =    4.0843
 Total energy for state  4:                  -286.68252129 au
    <S**2>     :  2.2381
    Trans. Mom.: -0.1398 X   0.1544 Y   0.0911 Z
    Strength   :     0.0051721157
    D( 23) --> V(  1) amplitude =  0.2456 alpha
    D( 24) --> V(  1) amplitude = -0.5193 alpha
    S(  1) --> V(  1) amplitude = -0.2210 alpha
    S(  1) --> V(  2) amplitude =  0.1828 alpha
    D( 22) --> S(  1) amplitude = -0.2421 beta
    D( 24) --> V(  1) amplitude = -0.6847 beta
 
 ---------------------------------------------------

 Stability analysis will be performed
 ---------------------------------------------------
 Iter    Rts Conv    Rts Left    Ttl Dev     Max Dev
 ---------------------------------------------------
   1         0           8      0.006254    0.001015
   2         0           8      0.002403    0.000506
   3         0           8      0.000991    0.000260
   4         2           6      0.000467    0.000195
   5         3           5      0.000307    0.000205
   6         4           4      0.000158    0.000119
   7         4           4      0.000068    0.000052
   8         5           3      0.000019    0.000013
   9         7           1      0.000008    0.000004
  10         7           1      0.000005    0.000001
  11         8           0      0.000004    0.000001    Roots Converged
 UKS-> UKS   stable,    smallest eigenvalue:      0.0692247
 UKS->CUKS   stable,    smallest eigenvalue:      0.0867314
 ---------------------------------------------------
  SETman timing summary (seconds)
  CPU time                80.55s
  System time              0.00s
  Wall time              124.48s
 
 --------------------------------------------------------------
 
                    Orbital Energies (a.u.)
 --------------------------------------------------------------
 
 Alpha MOs
 -- Occupied --
-14.324 -10.242 -10.221 -10.219 -10.216 -10.205 -10.193  -0.948
 -0.874  -0.767  -0.651  -0.636  -0.582  -0.536  -0.498  -0.480
 -0.452  -0.412  -0.388  -0.372  -0.349  -0.302  -0.261  -0.243
 -0.185
 -- Virtual --
 -0.013   0.071   0.095   0.132   0.136   0.143   0.155   0.166
  0.181   0.220   0.242   0.249   0.294   0.325   0.404   0.436
  0.499   0.507   0.527   0.543   0.553   0.582   0.595   0.599
  0.631   0.640   0.648   0.666   0.682   0.715   0.757   0.801
  0.821   0.840   0.850   0.864   0.877   0.896   0.920   0.935
  0.971   1.031   1.074   1.089   1.160   1.201   1.269   1.314
  1.364   1.428   1.502   1.511   1.583   1.613   1.633   1.673
  1.724   1.746   1.825   1.853   1.887   1.950   1.972   2.049
  2.079   2.115   2.149   2.217   2.265   2.301   2.319   2.340
  2.424   2.480   2.515   2.538   2.592   2.610   2.638   2.700
  2.747   2.758   2.835   2.989   3.225   4.009   4.100   4.242
  4.322   4.339   4.443   4.600
 
 Beta MOs
 -- Occupied --
-14.317 -10.244 -10.221 -10.216 -10.209 -10.207 -10.189  -0.940
 -0.863  -0.762  -0.643  -0.634  -0.568  -0.532  -0.496  -0.473
 -0.449  -0.408  -0.385  -0.359  -0.337  -0.291  -0.253  -0.222
 -- Virtual --
 -0.083  -0.001   0.087   0.098   0.134   0.143   0.145   0.160
  0.169   0.185   0.222   0.246   0.252   0.302   0.329   0.408
  0.438   0.503   0.518   0.531   0.550   0.562   0.586   0.600
  0.605   0.634   0.645   0.653   0.674   0.688   0.718   0.767
  0.804   0.822   0.847   0.851   0.871   0.880   0.903   0.926
  0.938   0.977   1.036   1.077   1.094   1.165   1.205   1.275
  1.318   1.375   1.434   1.507   1.516   1.592   1.617   1.647
  1.679   1.732   1.755   1.838   1.857   1.900   1.960   1.983
  2.053   2.082   2.114   2.160   2.228   2.278   2.310   2.326
  2.348   2.429   2.485   2.521   2.548   2.600   2.624   2.644
  2.707   2.750   2.762   2.842   2.991   3.228   4.019   4.107
  4.241   4.320   4.359   4.448   4.603
 --------------------------------------------------------------
 
          Ground-State Mulliken Net Atomic Charges

     Atom                 Charge (a.u.)    Spin (a.u.)
  --------------------------------------------------------
      1 C                     0.000207      -0.147408
      2 C                    -0.070362       0.310711
      3 C                    -0.188009      -0.032263
      4 C                    -0.126113       0.039053
      5 C                     0.027212      -0.173370
      6 N                    -0.374655       0.342174
      7 H                     0.136927       0.008572
      8 H                     0.133560      -0.014335
      9 H                     0.151390       0.016986
     10 H                     0.152905       0.001813
     11 H                     0.153340       0.010070
     12 C                    -0.154435       0.661031
     13 H                     0.158032      -0.023034
  --------------------------------------------------------
  Sum of atomic charges =    -0.000000
  Sum of spin   charges =     1.000000

 -----------------------------------------------------------------
                    Cartesian Multipole Moments
 -----------------------------------------------------------------
    Charge (ESU x 10^10)
                -0.0000
    Dipole Moment (Debye)
         X      -1.8603      Y      -1.9331      Z      -0.3468
       Tot       2.7052
    Quadrupole Moments (Debye-Ang)
        XX     -36.9865     XY      -3.0268     YY     -41.5346
        XZ      -1.4967     YZ      -0.0396     ZZ     -41.4959
    Octopole Moments (Debye-Ang^2)
       XXX     -10.1764    XXY      -8.2605    XYY     -11.4474
       YYY     -28.3784    XXZ      -2.1723    XYZ       0.6157
       YYZ      -1.0306    XZZ      -8.5807    YZZ      -6.6600
       ZZZ       1.9212
    Hexadecapole Moments (Debye-Ang^3)
      XXXX    -331.5405   XXXY     -10.6836   XXYY    -108.1418
      XYYY     -30.2973   YYYY    -292.5070   XXXZ      26.0616
      XXYZ      -0.5534   XYYZ       7.9359   YYYZ       6.5327
      XXZZ     -71.8646   XYZZ      -2.0038   YYZZ     -68.2120
      XZZZ      28.0737   YZZZ      -0.1774   ZZZZ    -104.7413
 -----------------------------------------------------------------
Archival summary:
1\1\c8-89\SP\ProcedureUnspecified\6-31G*\166(2)\hpark21\TueMar110:32:462022TueMar110:32:462022\0\\#,ProcedureUnspecified,6-31G*,\\0,2\N\C,1,1.32596\H,2,1.09009,1,116.379\C,1,1.37496,2,117.555,3,177.28,0\H,4,1.08776,1,115.382,2,169.496,0\C,4,1.35746,1,122.715,2,-13.5456,0\H,6,1.08585,4,121.822,1,179.499,0\C,6,1.48235,4,118.414,1,1.66484,0\H,8,1.09084,6,116.14,4,168.688,0\C,8,1.48547,6,124.15,4,-38.4187,0\H,10,1.08112,8,136.183,6,-130.523,0\C,10,1.44819,8,63.5865,6,100.637,0\H,12,1.08784,10,130.881,8,115.607,0\\\@

 Total job time:  140.10s(wall), 83.99s(cpu) 
 Tue Mar  1 10:32:46 2022

        *************************************************************
        *                                                           *
        *  Thank you very much for using Q-Chem.  Have a nice day.  *
        *                                                           *
        *************************************************************


