
Running Job 1 of 1 qcts1.in
qchem qcts1.in_2839.0 ./qcts1.d/ 1
/home/leeping/opt/qchem/5.0.2-openmp/exe/qcprog.exe_s qcts1.in_2839.0 ./qcts1.d/
Check license passed

                  Welcome to Q-Chem
     A Quantum Leap Into The Future Of Chemistry


 Q-Chem 5.0, Q-Chem, Inc., Pleasanton, CA (2017)

 Yihan Shao,  Zhengting Gan,  E. Epifanovsky,  A. T. B. Gilbert,  M. Wormit,  
 J. Kussmann,  A. W. Lange,  A. Behn,  Jia Deng,  Xintian Feng,  D. Ghosh,  
 M. Goldey,  P. R. Horn,  L. D. Jacobson,  I. Kaliman,  T. Kus,  A. Landau,  
 Jie Liu,  E. I. Proynov,  R. M. Richard,  R. P. Steele,  E. J. Sundstrom,  
 H. L. Woodcock III,  P. M. Zimmerman,  D. Zuev,  B. Albrecht,  E. Alguire,  
 S. A. Baeppler,  D. Barton,  Z. Benda,  Y. A. Bernard,  E. J. Berquist,  
 K. B. Bravaya,  H. Burton,  D. Casanova,  Chun-Min Chang,  Yunqing Chen,  
 A. Chien,  K. D. Closser,  M. P. Coons,  S. Dasgupta,  A. L. Dempwolff,  
 M. Diedenhofen,  Hainam Do,  R. G. Edgar,  Po-Tung Fang,  S. Fatehi,  
 Qingguo Feng,  J. Fosso-Tande,  Qinghui Ge,  A. Ghysels,  G. Gidofalvi,  
 J. Gomes,  J. Gonthier,  A. Gunina,  M. W. D. Hanson-Heine,  
 P. H. P. Harbach,  A. W. Hauser,  J. E. Herr,  E. G. Hohenstein,  
 Z. C. Holden,  Kerwin Hui,  T.-C. Jagau,  Hyunjun Ji,  B. Kaduk,  
 K. Khistyaev,  Jaehoon Kim,  P. Klunzinger,  K. Koh,  D. Kosenkov,  
 L. Koulias,  T. Kowalczyk,  C. M. Krauter,  A. Kunitsa,  Ka Un Lao,  
 A. Laurent,  K. V. Lawler,  Joonho Lee,  D. Lefrancois,  S. Lehtola,  
 D. S. Levine,  Yi-Pei Li,  You-Sheng Lin,  Fenglai Liu,  E. Livshits,  
 A. Luenser,  P. Manohar,  E. Mansoor,  S. F. Manzer,  Shan-Ping Mao,  
 Yuezhi Mao,  N. Mardirossian,  A. V. Marenich,  T. Markovich,  
 L. A. Martinez-Martinez,  S. A. Maurer,  N. J. Mayhall,  S. C. McKenzie,  
 J.-M. Mewes,  A. F. Morrison,  J. W. Mullinax,  K. Nanda,  
 T. S. Nguyen-Beck,  R. Olivares-Amaya,  J. A. Parkhill,  T. M. Perrine,  
 F. Plasser,  S. Prager,  A. Prociuk,  E. Ramos,  D. R. Rehn,  F. Rob,  
 M. Schneider,  N. Sergueev,  S. M. Sharada,  S. Sharma,  D. W. Small,  
 T. Stauch,  T. Stein,  Yu-Chuan Su,  A. J. W. Thom,  A. Tkatchenko,  
 T. Tsuchimochi,  L. Vogt,  O. Vydrov,  M. A. Watson,  J. Wenzel,  
 M. de Wergifosse,  T. A. Wesolowski,  A. White,  J. Witte,  A. Yamada,  
 Jun Yang,  K. Yao,  S. Yeganeh,  S. R. Yost,  Zhi-Qiang You,  A. Zech,  
 Igor Ying Zhang,  Xing Zhang,  Yan Zhao,  Ying Zhu,  B. R. Brooks,  
 G. K. L. Chan,  C. J. Cramer,  M. S. Gordon,  W. J. Hehre,  A. Klamt,  
 M. W. Schmidt,  C. D. Sherrill,  D. G. Truhlar,  A. Aspuru-Guzik,  R. Baer,  
 A. T. Bell,  N. A. Besley,  Jeng-Da Chai,  R. A. DiStasio Jr.,  A. Dreuw,  
 B. D. Dunietz,  T. R. Furlani,  Chao-Ping Hsu,  Yousung Jung,  Jing Kong,  
 D. S. Lambrecht,  WanZhen Liang,  C. Ochsenfeld,  V. A. Rassolov,  
 L. V. Slipchenko,  J. E. Subotnik,  T. Van Voorhis,  J. M. Herbert,  
 A. I. Krylov,  P. M. W. Gill,  M. Head-Gordon

 Contributors to earlier versions of Q-Chem not listed above: 
 R. D. Adamson,  B. Austin,  J. Baker,  G. J. O. Beran,  K. Brandhorst,  
 S. T. Brown,  E. F. C. Byrd,  A. K. Chakraborty,  C.-L. Cheng,  
 Siu Hung Chien,  D. M. Chipman,  D. L. Crittenden,  H. Dachsel,  
 R. J. Doerksen,  A. D. Dutoi,  L. Fusti-Molnar,  W. A. Goddard III,  
 A. Golubeva-Zadorozhnaya,  S. R. Gwaltney,  G. Hawkins,  A. Heyden,  
 S. Hirata,  G. Kedziora,  F. J. Keil,  C. Kelley,  Jihan Kim,  R. A. King,  
 R. Z. Khaliullin,  P. P. Korambath,  W. Kurlancheek,  A. M. Lee,  M. S. Lee,  
 S. V. Levchenko,  Ching Yeh Lin,  D. Liotard,  R. C. Lochan,  I. Lotan,  
 P. E. Maslen,  N. Nair,  D. P. O'Neill,  D. Neuhauser,  E. Neuscamman,  
 C. M. Oana,  R. Olson,  B. Peters,  R. Peverati,  P. A. Pieniazek,  
 Y. M. Rhee,  J. Ritchie,  M. A. Rohrdanz,  E. Rosta,  N. J. Russ,  
 H. F. Schaefer III,  N. E. Schultz,  N. Shenvi,  A. C. Simmonett,  A. Sodt,  
 D. Stuck,  K. S. Thanthiriwatte,  V. Vanovschi,  Tao Wang,  A. Warshel,  
 C. F. Williams,  Q. Wu,  X. Xu,  W. Zhang

 Please cite Q-Chem as follows:
 Y. Shao et al., Mol. Phys. 113, 184-215 (2015)
 DOI: 10.1080/00268976.2014.952696

 Q-Chem 5.0.2 for Intel X86 EM64T Linux

 Parts of Q-Chem use Armadillo 5.200.1 (Boston Tea Smuggler).
 http://arma.sourceforge.net/

 Q-Chem begins on Tue Mar  1 10:10:50 2022  

Host: 
0

     Scratch files written to ./qcts1.d//
 Dec517 15110_ 26548  26544 5633   
Processing $rem in /home/leeping/opt/qchem/5.0.2-openmp/config/preferences.
 MEM_STATIC 2000
 MEM_TOTAL  8000
 SYMMETRY   OFF
 SYM_IGNORE TRUE 

Checking the input file for inconsistencies... 	...done.

--------------------------------------------------------------
User input:
--------------------------------------------------------------
$molecule
0 2
C        1.6721228338    0.3870308682   -0.2802061979
C        1.1711266804   -0.8636996117   -0.3050175229
C       -0.2688433663   -1.1022679619   -0.0296518096
C       -1.1789109679    0.1015315289   -0.2898536928
C       -0.3895785923    1.4299737547   -0.0598731150
N        0.9043856560    1.5193061529   -0.0193946534
H        2.7289365582    0.5734337175   -0.4486294797
H        1.8054051068   -1.6858640299   -0.6317299114
H       -0.6112385242   -2.0789213698   -0.3951968561
H       -2.1535933938   -0.1199415608   -0.7406978422
H       -0.9166146584    2.3626959161    0.1982766500
C       -1.0022279484   -0.3082203469    1.0936781214
H       -1.7778549049   -0.2349663420    1.8532749734
$end

$rem
method                b3lyp
basis                 6-31g(d)
unrestricted          true
symmetry              off
sym_ignore            true
incdft                false
incfock               0
scf_convergence       8
thresh                14
jobtype               freq
scf_guess             read
scf_algorithm         diis
max_scf_cycles        100
$end

--------------------------------------------------------------
 ----------------------------------------------------------------
             Standard Nuclear Orientation (Angstroms)
    I     Atom           X                Y                Z
 ----------------------------------------------------------------
    1      C       1.6721228338     0.3870308682    -0.2802061979
    2      C       1.1711266804    -0.8636996117    -0.3050175229
    3      C      -0.2688433663    -1.1022679619    -0.0296518096
    4      C      -1.1789109679     0.1015315289    -0.2898536928
    5      C      -0.3895785923     1.4299737547    -0.0598731150
    6      N       0.9043856560     1.5193061529    -0.0193946534
    7      H       2.7289365582     0.5734337175    -0.4486294797
    8      H       1.8054051068    -1.6858640299    -0.6317299114
    9      H      -0.6112385242    -2.0789213698    -0.3951968561
   10      H      -2.1535933938    -0.1199415608    -0.7406978422
   11      H      -0.9166146584     2.3626959161     0.1982766500
   12      C      -1.0022279484    -0.3082203469     1.0936781214
   13      H      -1.7778549049    -0.2349663420     1.8532749734
 ----------------------------------------------------------------
 Nuclear Repulsion Energy =   270.5155415788 hartrees
 There are       25 alpha and       24 beta electrons
 Requested basis set is 6-31G(d)
 There are 40 shells and 117 basis functions

 Total QAlloc Memory Limit   8000 MB
 Mega-Array Size      1956 MB
 MEM_STATIC part      2000 MB

                       Distance Matrix (Angstroms)
             C (  1)   C (  2)   C (  3)   C (  4)   C (  5)   N (  6)
   C (  2)  1.347568
   C (  3)  2.459296  1.485347
   C (  4)  2.865309  2.540586  1.531359
   C (  5)  2.320967  2.785109  2.535298  1.562273
   N (  6)  1.392656  2.414839  2.872146  2.534434  1.297676
   H (  7)  1.086263  2.124323  3.459798  3.939438  3.257289  2.099501
   H (  8)  2.106710  1.088579  2.237317  3.495398  3.854013  3.385248
   H (  9)  3.362719  2.159102  1.097593  2.255598  3.531844  3.922446
   H ( 10)  3.886538  3.434641  2.241168  1.096502  2.444894  3.543818
   H ( 11)  3.291468  3.875771  3.532355  2.328075  1.101989  2.018596
   C ( 12)  3.085950  2.643554  1.558921  1.453710  2.174244  2.866001
   H ( 13)  4.103775  3.708103  2.564126  2.250548  2.891275  3.711978
             H (  7)   H (  8)   H (  9)   H ( 10)   H ( 11)   C ( 12)
   H (  8)  2.447624
   H (  9)  4.265514  2.459798
   H ( 10)  4.940159  4.258833  2.517108
   H ( 11)  4.112176  4.948650  4.491484  2.928358
   C ( 12)  4.132507  3.571798  2.346274  2.173943  2.818309
   H ( 13)  5.124787  4.595662  3.133176  2.623567  3.198219  1.088095

 
 A cutoff of  1.0D-14 yielded    807 shell pairs
 There are      7079 function pairs
 Smallest overlap matrix eigenvalue = 1.23E-03
 Guess MOs from SCF MO coefficient file
 Reading MOs from coefficient file
 Reading MOs from coefficient file
 An unrestricted hybrid HF-DFT SCF calculation will be
 performed using Pulay DIIS extrapolation
 Exchange:     0.2000 Hartree-Fock + 0.0800 Slater + 0.7200 B88
 Correlation:  0.1900 VWN1RPA + 0.8100 LYP
 Using SG-1 standard quadrature grid
 SCF converges when DIIS error is below 1.0E-08
Using Q-Chem read-in guess as SCF_GUESS READ specified.

 -------------------------------------------------------
 OpenMP BLAS3 based DFT computing Module                
 -------------------------------------------------------
 ---------------------------------------
  Cycle       Energy         DIIS Error
 ---------------------------------------
    1    -286.8158811166      9.68E-10
    2    -286.8158811166      1.52E-09 Convergence criterion met
 ---------------------------------------
 <S^2> = 0.7759
 SCF time:  CPU 3.36 s  wall 8.03 s
 SCF   energy in the final basis set = -286.81588112
 Total energy in the final basis set = -286.81588112
 
 --------------------------------------------------------------
 
                    Orbital Energies (a.u.)
 --------------------------------------------------------------
 
 Alpha MOs
 -- Occupied --
-14.325 -10.248 -10.231 -10.218 -10.215 -10.204 -10.192  -0.940
 -0.866  -0.766  -0.649  -0.628  -0.578  -0.531  -0.496  -0.483
 -0.445  -0.418  -0.383  -0.370  -0.339  -0.302  -0.256  -0.240
 -0.192
 -- Virtual --
 -0.029   0.060   0.087   0.112   0.128   0.139   0.152   0.165
  0.185   0.212   0.238   0.247   0.280   0.329   0.398   0.438
  0.502   0.511   0.533   0.546   0.562   0.577   0.597   0.611
  0.631   0.648   0.650   0.668   0.688   0.710   0.749   0.798
  0.818   0.846   0.856   0.857   0.875   0.894   0.916   0.925
  0.965   0.992   1.052   1.090   1.127   1.193   1.264   1.277
  1.406   1.469   1.481   1.517   1.530   1.594   1.621   1.695
  1.706   1.757   1.804   1.818   1.894   1.931   1.951   2.019
  2.072   2.095   2.145   2.185   2.235   2.243   2.297   2.320
  2.424   2.463   2.477   2.542   2.561   2.607   2.626   2.668
  2.719   2.755   2.815   3.000   3.219   4.004   4.095   4.201
  4.273   4.341   4.430   4.605
 
 Beta MOs
 -- Occupied --
-14.321 -10.249 -10.231 -10.215 -10.206 -10.205 -10.190  -0.934
 -0.856  -0.763  -0.645  -0.624  -0.559  -0.526  -0.494  -0.477
 -0.442  -0.415  -0.380  -0.362  -0.330  -0.295  -0.252  -0.217
 -- Virtual --
 -0.075  -0.017   0.071   0.092   0.120   0.129   0.141   0.154
  0.171   0.188   0.214   0.241   0.250   0.290   0.332   0.402
  0.440   0.513   0.519   0.536   0.554   0.579   0.581   0.601
  0.613   0.634   0.652   0.657   0.675   0.694   0.716   0.757
  0.800   0.821   0.849   0.857   0.863   0.879   0.900   0.921
  0.928   0.970   0.998   1.055   1.094   1.130   1.204   1.270
  1.281   1.415   1.471   1.489   1.519   1.536   1.600   1.627
  1.709   1.713   1.766   1.810   1.831   1.913   1.944   1.963
  2.023   2.074   2.098   2.155   2.190   2.249   2.253   2.300
  2.328   2.431   2.470   2.482   2.545   2.568   2.615   2.638
  2.674   2.722   2.759   2.822   3.001   3.221   4.009   4.102
  4.200   4.281   4.356   4.432   4.607
 --------------------------------------------------------------
 
          Ground-State Mulliken Net Atomic Charges

     Atom                 Charge (a.u.)    Spin (a.u.)
  --------------------------------------------------------
      1 C                    -0.002880      -0.091803
      2 C                    -0.073713       0.160923
      3 C                    -0.184526      -0.043444
      4 C                    -0.162966      -0.016648
      5 C                     0.056436      -0.114024
      6 N                    -0.376107       0.200437
      7 H                     0.138391       0.005519
      8 H                     0.134029      -0.006310
      9 H                     0.153420       0.022514
     10 H                     0.158908       0.014563
     11 H                     0.155344       0.010010
     12 C                    -0.159630       0.888705
     13 H                     0.163294      -0.030443
  --------------------------------------------------------
  Sum of atomic charges =    -0.000000
  Sum of spin   charges =     1.000000

 -----------------------------------------------------------------
                    Cartesian Multipole Moments
 -----------------------------------------------------------------
    Charge (ESU x 10^10)
                -0.0000
    Dipole Moment (Debye)
         X      -1.9333      Y      -1.6043      Z      -0.5705
       Tot       2.5762
    Quadrupole Moments (Debye-Ang)
        XX     -36.5916     XY      -3.0918     YY     -41.3617
        XZ      -1.8437     YZ       1.3026     ZZ     -42.2404
    Octopole Moments (Debye-Ang^2)
       XXX     -11.9396    XXY      -8.0758    XYY     -11.3806
       YYY     -24.9846    XXZ      -1.3465    XYZ      -0.5649
       YYZ      -3.2960    XZZ      -8.0393    YZZ      -5.4122
       ZZZ      -0.2863
    Hexadecapole Moments (Debye-Ang^3)
      XXXX    -327.7385   XXXY     -11.2468   XXYY    -112.3583
      XYYY     -33.3077   YYYY    -302.7491   XXXZ      24.1215
      XXYZ       1.6423   XYYZ       8.9708   YYYZ       7.4236
      XXZZ     -73.0867   XYZZ      -4.1869   YYZZ     -71.3611
      XZZZ      28.0688   YZZZ       1.3202   ZZZZ    -108.8982
 -----------------------------------------------------------------
 Calculating MO derivatives via CPSCF
   1         3          39      0.271650    0.060266
   2         3          39      0.030561    0.006071
   3         3          39      0.004707    0.001085
   4         3          39      0.000536    0.000132
   5        28          14      0.000038    0.000011
   6        41           1      0.000001    0.000001
   7        42           0      0.000000    0.000000    Roots Converged
 Time for AOints: 5.8 s (CPU) 11.3 s (wall)
 ------------------------------------------------------------------------------
                     AOints        : Timing summary (seconds)
 ------------------------------------------------------------------------------
     job step          cpu (% of tot)      sys (% of tot)     wall (% of tot)
 ------------------------------------------------------------------------------
  cpscf_lag         0.5462E+02 (28.5)   0.3000E-04 (36.6)   0.6174E+02 (27.2)
  iterzp            0.1312E+03 (68.4)   0.5000E-04 (61.0)   0.1539E+03 (67.8)
  make_fx           0.0000E+00 ( 0.0)   0.0000E+00 ( 0.0)   0.0000E+00 ( 0.0)
  AOints            0.5805E+01 ( 3.0)   0.0000E+00 ( 0.0)   0.1125E+02 ( 5.0)
 ------------------------------------------------------------------------------
   Grand Totals     0.1918E+03          0.8200E-04          0.2271E+03
 ------------------------------------------------------------------------------
 Calculating analytic Hessian of the SCF energy
 Polarizability Matrix (a.u.)
            1           2           3
    1 -74.0634834   0.5477968   9.6216639
    2   0.5477968 -68.0611726  -2.0880295
    3   9.6216639  -2.0880295 -42.3786671
 
 Direct stationary perturbation theory relativistic correction:
 
 rels  =       0.069276098371
 relv  =      -0.337722600450
 rel2e =       0.155640619377
 E_rel =      -0.112805882702
 
 Hessian of the SCF Energy
            1           2           3           4           5           6
    1   0.7096021   0.1166550  -0.0922389  -0.1705829  -0.1490092   0.0100507
    2   0.1166550   0.6948529   0.0318038  -0.1168947  -0.4123124  -0.0098065
    3  -0.0922389   0.0318038   0.1548830   0.0163669  -0.0061492  -0.0584805
    4  -0.1705829  -0.1168947   0.0163669   0.5672603   0.0372595  -0.1092115
    5  -0.1490092  -0.4123124  -0.0061492   0.0372595   0.7921440   0.0911244
    6   0.0100507  -0.0098065  -0.0584805  -0.1092115   0.0911244   0.1638115
    7  -0.0198996  -0.0372253  -0.0020875  -0.2064169  -0.0170816   0.0399981
    8  -0.0278839   0.0009735   0.0089450  -0.0439758  -0.0917248  -0.0009819
    9   0.0060493  -0.0032343   0.0018713   0.0242692  -0.0076958  -0.0612559
   10   0.0044987   0.0082439   0.0037251  -0.0330082   0.0164285  -0.0117314
   11   0.0040166  -0.0075350  -0.0016865   0.0133487   0.0048539  -0.0052408
   12  -0.0082345   0.0074427  -0.0048594   0.0130789  -0.0041585  -0.0028488
   13  -0.0651718   0.0567263   0.0118148  -0.0059317  -0.0335015  -0.0033453
   14   0.0319824   0.0091618   0.0053106  -0.0001893  -0.0149441  -0.0034670
   15   0.0123030  -0.0244968  -0.0025986   0.0070674   0.0100773   0.0008427
   16  -0.1403647   0.0429436   0.0181149   0.0302315   0.0470196   0.0031317
   17   0.0622211  -0.1867392  -0.0305025   0.0089851  -0.0646236  -0.0126131
   18   0.0237883  -0.0137910  -0.0668547  -0.0071237  -0.0168918   0.0107810
   19  -0.3195411  -0.0582847   0.0456670  -0.0077257   0.0000228   0.0022662
   20  -0.0582576  -0.0662876   0.0059871  -0.0302599  -0.0009681   0.0057248
   21   0.0434005   0.0011793  -0.0455470   0.0018787   0.0024001   0.0049970
   22   0.0101699  -0.0093764  -0.0025894  -0.1512000   0.1225853   0.0531727
   23   0.0222308  -0.0187385  -0.0081252   0.1193698  -0.2157297  -0.0677790
   24   0.0001958   0.0041812   0.0029939   0.0541545  -0.0715398  -0.0578895
   25  -0.0066242   0.0012657   0.0016211  -0.0093791  -0.0314413  -0.0089145
   26  -0.0011813   0.0026093  -0.0006165  -0.0018219  -0.0034661  -0.0005557
   27   0.0015629  -0.0021094   0.0008306   0.0035800   0.0062810   0.0030722
   28  -0.0006141  -0.0006568   0.0004972   0.0005259   0.0015950  -0.0016497
   29   0.0025200  -0.0000910  -0.0018391  -0.0009044  -0.0016077   0.0021532
   30  -0.0002951   0.0040465   0.0005418  -0.0013588  -0.0041422   0.0010730
   31  -0.0025767   0.0001463   0.0000810  -0.0016833   0.0004555   0.0002136
   32  -0.0008894   0.0040214  -0.0031860  -0.0007699   0.0007496   0.0001175
   33  -0.0011383  -0.0047404   0.0125016  -0.0015100   0.0001123  -0.0006038
   34   0.0022649  -0.0044634  -0.0015796  -0.0106822   0.0065868   0.0236528
   35  -0.0047652  -0.0170152   0.0004998   0.0173063   0.0057701   0.0035575
   36   0.0053729   0.0064127   0.0036800   0.0013811   0.0006574  -0.0050744
   37  -0.0011605   0.0009205   0.0006074  -0.0014079  -0.0009193   0.0023667
   38   0.0023608  -0.0029000  -0.0004412  -0.0014534   0.0018590  -0.0022334
   39  -0.0008165   0.0031122   0.0010382  -0.0025726  -0.0000751   0.0015755
            7           8           9          10          11          12
    1  -0.0198996  -0.0278839   0.0060493   0.0044987   0.0040166  -0.0082345
    2  -0.0372253   0.0009735  -0.0032343   0.0082439  -0.0075350   0.0074427
    3  -0.0020875   0.0089450   0.0018713   0.0037251  -0.0016865  -0.0048594
    4  -0.2064169  -0.0439758   0.0242692  -0.0330082   0.0133487   0.0130789
    5  -0.0170816  -0.0917248  -0.0076958   0.0164285   0.0048539  -0.0041585
    6   0.0399981  -0.0009819  -0.0612559  -0.0117314  -0.0052408  -0.0028488
    7   0.4793682   0.0494183  -0.0168859  -0.0914499   0.0567939  -0.0567469
    8   0.0494183   0.5632930   0.1113226   0.0558188  -0.1283911   0.0445949
    9  -0.0168859   0.1113226   0.2053859  -0.0212085  -0.0156706  -0.0211050
   10  -0.0914499   0.0558188  -0.0212085   0.5298245   0.0025012   0.1714962
   11   0.0567939  -0.1283911  -0.0156706   0.0025012   0.3476319  -0.0468070
   12  -0.0567469   0.0445949  -0.0211050   0.1714962  -0.0468070   0.3878200
   13   0.0265890   0.0293948   0.0083137  -0.1120678  -0.0070611  -0.0406615
   14   0.0029776  -0.0199785   0.0042148  -0.0178402  -0.1236893  -0.0382504
   15  -0.0124147  -0.0158716   0.0050766   0.0094102   0.0009811  -0.0358096
   16  -0.0221942  -0.0045801  -0.0057441  -0.0101152  -0.0187020   0.0173272
   17   0.0137960   0.0039359   0.0045052  -0.0379976   0.0041745  -0.0091849
   18   0.0047617   0.0030556  -0.0083712  -0.0166323  -0.0107244   0.0191833
   19   0.0015815  -0.0021016   0.0005594   0.0005193   0.0003126   0.0001284
   20  -0.0003689  -0.0049054  -0.0014541   0.0005756   0.0000111  -0.0003691
   21   0.0004767  -0.0007215   0.0089440   0.0024104   0.0011062  -0.0006468
   22  -0.0107957   0.0193283   0.0079616  -0.0030236   0.0010164   0.0010577
   23  -0.0050488   0.0069207   0.0029405  -0.0007362   0.0011189  -0.0001429
   24   0.0015894  -0.0056801   0.0030286  -0.0010473   0.0032730   0.0006621
   25  -0.0790023  -0.0773126  -0.0252707   0.0047834   0.0141431   0.0058615
   26  -0.0783714  -0.2555518  -0.0752333  -0.0087825  -0.0150476  -0.0069705
   27  -0.0334896  -0.0868760  -0.0671338   0.0117164   0.0147087   0.0055374
   28  -0.0124357  -0.0046796  -0.0069732  -0.2603834  -0.0422684  -0.1036698
   29   0.0183000   0.0034299   0.0105678  -0.0530208  -0.0619242  -0.0241583
   30   0.0108799   0.0057221  -0.0016603  -0.1035275  -0.0240009  -0.0748235
   31  -0.0017999  -0.0035302  -0.0006432   0.0092155  -0.0128898  -0.0020298
   32  -0.0047889  -0.0021606  -0.0024121   0.0087901  -0.0167802  -0.0039068
   33   0.0044130  -0.0016457   0.0030167   0.0040074   0.0061654  -0.0000856
   34  -0.0610777   0.0173881   0.0377360  -0.0478489  -0.0146634   0.0138324
   35  -0.0049057  -0.0744302  -0.0295150   0.0368146  -0.0060874   0.0714820
   36   0.0648139  -0.0649110  -0.0629283  -0.0671752   0.0757898  -0.2507137
   37  -0.0024668  -0.0072845  -0.0081638   0.0090557   0.0034523  -0.0114399
   38   0.0065048  -0.0014107   0.0016642  -0.0107954   0.0016646   0.0104289
   39  -0.0053081   0.0030475  -0.0048686   0.0185566   0.0021061  -0.0223106
           13          14          15          16          17          18
    1  -0.0651718   0.0319824   0.0123030  -0.1403647   0.0622211   0.0237883
    2   0.0567263   0.0091618  -0.0244968   0.0429436  -0.1867392  -0.0137910
    3   0.0118148   0.0053106  -0.0025986   0.0181149  -0.0305025  -0.0668547
    4  -0.0059317  -0.0001893   0.0070674   0.0302315   0.0089851  -0.0071237
    5  -0.0335015  -0.0149441   0.0100773   0.0470196  -0.0646236  -0.0168918
    6  -0.0033453  -0.0034670   0.0008427   0.0031317  -0.0126131   0.0107810
    7   0.0265890   0.0029776  -0.0124147  -0.0221942   0.0137960   0.0047617
    8   0.0293948  -0.0199785  -0.0158716  -0.0045801   0.0039359   0.0030556
    9   0.0083137   0.0042148   0.0050766  -0.0057441   0.0045052  -0.0083712
   10  -0.1120678  -0.0178402   0.0094102  -0.0101152  -0.0379976  -0.0166323
   11  -0.0070611  -0.1236893   0.0009811  -0.0187020   0.0041745  -0.0107244
   12  -0.0406615  -0.0382504  -0.0358096   0.0173272  -0.0091849   0.0191833
   13   0.6982564  -0.1425596   0.0075240  -0.4492022  -0.0101859  -0.0184963
   14  -0.1425596   0.4822038   0.1063977   0.0137899  -0.1039018  -0.0207079
   15   0.0075240   0.1063977   0.1398588  -0.0555550  -0.0021044  -0.0461102
   16  -0.4492022   0.0137899  -0.0555550   0.6644812  -0.0681385  -0.0037182
   17  -0.0101859  -0.1039018  -0.0021044  -0.0681385   0.3433118   0.0505588
   18  -0.0184963  -0.0207079  -0.0461102  -0.0037182   0.0505588   0.0918660
   19   0.0010827   0.0020865   0.0013053  -0.0188936   0.0063049   0.0030481
   20   0.0033921  -0.0034759  -0.0013678   0.0326471   0.0024166  -0.0059005
   21   0.0019973  -0.0002114   0.0012455   0.0045367   0.0010427  -0.0003188
   22  -0.0014464  -0.0020774  -0.0006319   0.0021683  -0.0026341   0.0027854
   23  -0.0022215  -0.0000831  -0.0002557  -0.0032440  -0.0044886  -0.0013138
   24  -0.0021844  -0.0025830  -0.0000077   0.0048053  -0.0008893   0.0099148
   25  -0.0056942  -0.0001703   0.0028042   0.0018800   0.0004942  -0.0003585
   26   0.0045007  -0.0001578  -0.0016414   0.0000640  -0.0002286   0.0000245
   27  -0.0013373   0.0042506  -0.0009257  -0.0022479   0.0004309   0.0001579
   28  -0.0021655   0.0019044   0.0004107  -0.0010385  -0.0002001  -0.0015202
   29  -0.0143926   0.0093633  -0.0052920  -0.0026289  -0.0055538   0.0005152
   30   0.0023581  -0.0047016   0.0020857   0.0069794  -0.0002556  -0.0002827
   31  -0.0993336   0.0929079   0.0279123  -0.0357108   0.0292225   0.0068914
   32   0.1024809  -0.2437850  -0.0515408   0.0037176   0.0069655   0.0022385
   33   0.0297154  -0.0615481  -0.0590765  -0.0013497   0.0058866  -0.0023480
   34   0.0157378   0.0182179   0.0008880  -0.0212804  -0.0018964   0.0058905
   35   0.0072693   0.0033798  -0.0144123  -0.0367312   0.0041269   0.0127992
   36   0.0090050   0.0157976  -0.0043809   0.0096576  -0.0048738  -0.0076886
   37  -0.0006527  -0.0010297  -0.0010233   0.0000387   0.0000289   0.0006838
   38   0.0061581   0.0059068  -0.0004733  -0.0061568   0.0006043   0.0001377
   39  -0.0047036  -0.0045020  -0.0002000   0.0040622  -0.0020006   0.0000710
           19          20          21          22          23          24
    1  -0.3195411  -0.0582576   0.0434005   0.0101699   0.0222308   0.0001958
    2  -0.0582847  -0.0662876   0.0011793  -0.0093764  -0.0187385   0.0041812
    3   0.0456670   0.0059871  -0.0455470  -0.0025894  -0.0081252   0.0029939
    4  -0.0077257  -0.0302599   0.0018787  -0.1512000   0.1193698   0.0541545
    5   0.0000228  -0.0009681   0.0024001   0.1225853  -0.2157297  -0.0715398
    6   0.0022662   0.0057248   0.0049970   0.0531727  -0.0677790  -0.0578895
    7   0.0015815  -0.0003689   0.0004767  -0.0107957  -0.0050488   0.0015894
    8  -0.0021016  -0.0049054  -0.0007215   0.0193283   0.0069207  -0.0056801
    9   0.0005594  -0.0014541   0.0089440   0.0079616   0.0029405   0.0030286
   10   0.0005193   0.0005756   0.0024104  -0.0030236  -0.0007362  -0.0010473
   11   0.0003126   0.0000111   0.0011062   0.0010164   0.0011189   0.0032730
   12   0.0001284  -0.0003691  -0.0006468   0.0010577  -0.0001429   0.0006621
   13   0.0010827   0.0033921   0.0019973  -0.0014464  -0.0022215  -0.0021844
   14   0.0020865  -0.0034759  -0.0002114  -0.0020774  -0.0000831  -0.0025830
   15   0.0013053  -0.0013678   0.0012455  -0.0006319  -0.0002557  -0.0000077
   16  -0.0188936   0.0326471   0.0045367   0.0021683  -0.0032440   0.0048053
   17   0.0063049   0.0024166   0.0010427  -0.0026341  -0.0044886  -0.0008893
   18   0.0030481  -0.0059005  -0.0003188   0.0027854  -0.0013138   0.0099148
   19   0.3436506   0.0522466  -0.0523354   0.0005202  -0.0001844  -0.0008709
   20   0.0522466   0.0731040  -0.0040442   0.0004112   0.0004557   0.0005581
   21  -0.0523354  -0.0040442   0.0335004  -0.0015475   0.0011496  -0.0045279
   22   0.0005202   0.0004112  -0.0015475   0.1545126  -0.1298075  -0.0591718
   23  -0.0001844   0.0004557   0.0011496  -0.1298075   0.2293951   0.0726224
   24  -0.0008709   0.0005581  -0.0045279  -0.0591718   0.0726224   0.0497041
   25  -0.0004229  -0.0015923   0.0005379   0.0010195   0.0004769  -0.0001086
   26  -0.0000399  -0.0002968  -0.0001316   0.0000967   0.0008413   0.0006286
   27   0.0000805   0.0002878  -0.0002188  -0.0001409   0.0001044   0.0000060
   28   0.0000554  -0.0000608   0.0002643  -0.0004591  -0.0000949  -0.0003019
   29  -0.0001867   0.0001886   0.0000430   0.0006215   0.0001737   0.0001917
   30   0.0000145   0.0000576   0.0001365   0.0006022   0.0001025  -0.0002188
   31  -0.0005922   0.0009921   0.0003324   0.0002749   0.0004374  -0.0000456
   32  -0.0000347  -0.0000708  -0.0000340   0.0002573   0.0000161   0.0004280
   33  -0.0000837   0.0004559   0.0004231  -0.0006267   0.0000634  -0.0018415
   34  -0.0001362   0.0003106  -0.0015115  -0.0014002  -0.0011082   0.0029773
   35  -0.0000748  -0.0003083  -0.0019665  -0.0006199  -0.0001982  -0.0005844
   36   0.0002447   0.0000632   0.0019921  -0.0004445   0.0007002  -0.0016795
   37  -0.0000981  -0.0000356  -0.0004403  -0.0003403  -0.0000692   0.0000081
   38  -0.0000664   0.0001368   0.0001885   0.0001985   0.0003166  -0.0006065
   39  -0.0000241   0.0000013   0.0000206  -0.0004269  -0.0000662  -0.0001445
           25          26          27          28          29          30
    1  -0.0066242  -0.0011813   0.0015629  -0.0006141   0.0025200  -0.0002951
    2   0.0012657   0.0026093  -0.0021094  -0.0006568  -0.0000910   0.0040465
    3   0.0016211  -0.0006165   0.0008306   0.0004972  -0.0018391   0.0005418
    4  -0.0093791  -0.0018219   0.0035800   0.0005259  -0.0009044  -0.0013588
    5  -0.0314413  -0.0034661   0.0062810   0.0015950  -0.0016077  -0.0041422
    6  -0.0089145  -0.0005557   0.0030722  -0.0016497   0.0021532   0.0010730
    7  -0.0790023  -0.0783714  -0.0334896  -0.0124357   0.0183000   0.0108799
    8  -0.0773126  -0.2555518  -0.0868760  -0.0046796   0.0034299   0.0057221
    9  -0.0252707  -0.0752333  -0.0671338  -0.0069732   0.0105678  -0.0016603
   10   0.0047834  -0.0087825   0.0117164  -0.2603834  -0.0530208  -0.1035275
   11   0.0141431  -0.0150476   0.0147087  -0.0422684  -0.0619242  -0.0240009
   12   0.0058615  -0.0069705   0.0055374  -0.1036698  -0.0241583  -0.0748235
   13  -0.0056942   0.0045007  -0.0013373  -0.0021655  -0.0143926   0.0023581
   14  -0.0001703  -0.0001578   0.0042506   0.0019044   0.0093633  -0.0047016
   15   0.0028042  -0.0016414  -0.0009257   0.0004107  -0.0052920   0.0020857
   16   0.0018800   0.0000640  -0.0022479  -0.0010385  -0.0026289   0.0069794
   17   0.0004942  -0.0002286   0.0004309  -0.0002001  -0.0055538  -0.0002556
   18  -0.0003585   0.0000245   0.0001579  -0.0015202   0.0005152  -0.0002827
   19  -0.0004229  -0.0000399   0.0000805   0.0000554  -0.0001867   0.0000145
   20  -0.0015923  -0.0002968   0.0002878  -0.0000608   0.0001886   0.0000576
   21   0.0005379  -0.0001316  -0.0002188   0.0002643   0.0000430   0.0001365
   22   0.0010195   0.0000967  -0.0001409  -0.0004591   0.0006215   0.0006022
   23   0.0004769   0.0008413   0.0001044  -0.0000949   0.0001737   0.0001025
   24  -0.0001086   0.0006286   0.0000060  -0.0003019   0.0001917  -0.0002188
   25   0.0886124   0.0831848   0.0255540   0.0011646  -0.0001602  -0.0010229
   26   0.0831848   0.2739592   0.0842134  -0.0002582   0.0012494   0.0001139
   27   0.0255540   0.0842134   0.0652341   0.0005361  -0.0011459   0.0004053
   28   0.0011646  -0.0002582   0.0005361   0.2708501   0.0431430   0.1150086
   29  -0.0001602   0.0012494  -0.0011459   0.0431430   0.0543711   0.0168401
   30  -0.0010229   0.0001139   0.0004053   0.1150086   0.0168401   0.0896201
   31   0.0006672  -0.0007727   0.0006381  -0.0001721   0.0005015  -0.0003277
   32   0.0008939  -0.0006674   0.0009993  -0.0002503  -0.0005863  -0.0002492
   33  -0.0006280   0.0003181   0.0003821  -0.0004092  -0.0005608   0.0003417
   34   0.0024169   0.0030855  -0.0057433   0.0035428   0.0064416  -0.0307017
   35   0.0099578  -0.0036854  -0.0206933   0.0014210  -0.0005079   0.0068023
   36  -0.0005208  -0.0000274  -0.0080190  -0.0017719   0.0022993  -0.0201820
   37   0.0005786   0.0002962  -0.0007087   0.0011294  -0.0002341   0.0013910
   38   0.0002604   0.0004423  -0.0004516   0.0004057   0.0014950  -0.0003355
   39   0.0004452  -0.0001221   0.0006718  -0.0004210   0.0003859   0.0029632
           31          32          33          34          35          36
    1  -0.0025767  -0.0008894  -0.0011383   0.0022649  -0.0047652   0.0053729
    2   0.0001463   0.0040214  -0.0047404  -0.0044634  -0.0170152   0.0064127
    3   0.0000810  -0.0031860   0.0125016  -0.0015796   0.0004998   0.0036800
    4  -0.0016833  -0.0007699  -0.0015100  -0.0106822   0.0173063   0.0013811
    5   0.0004555   0.0007496   0.0001123   0.0065868   0.0057701   0.0006574
    6   0.0002136   0.0001175  -0.0006038   0.0236528   0.0035575  -0.0050744
    7  -0.0017999  -0.0047889   0.0044130  -0.0610777  -0.0049057   0.0648139
    8  -0.0035302  -0.0021606  -0.0016457   0.0173881  -0.0744302  -0.0649110
    9  -0.0006432  -0.0024121   0.0030167   0.0377360  -0.0295150  -0.0629283
   10   0.0092155   0.0087901   0.0040074  -0.0478489   0.0368146  -0.0671752
   11  -0.0128898  -0.0167802   0.0061654  -0.0146634  -0.0060874   0.0757898
   12  -0.0020298  -0.0039068  -0.0000856   0.0138324   0.0714820  -0.2507137
   13  -0.0993336   0.1024809   0.0297154   0.0157378   0.0072693   0.0090050
   14   0.0929079  -0.2437850  -0.0615481   0.0182179   0.0033798   0.0157976
   15   0.0279123  -0.0515408  -0.0590765   0.0008880  -0.0144123  -0.0043809
   16  -0.0357108   0.0037176  -0.0013497  -0.0212804  -0.0367312   0.0096576
   17   0.0292225   0.0069655   0.0058866  -0.0018964   0.0041269  -0.0048738
   18   0.0068914   0.0022385  -0.0023480   0.0058905   0.0127992  -0.0076886
   19  -0.0005922  -0.0000347  -0.0000837  -0.0001362  -0.0000748   0.0002447
   20   0.0009921  -0.0000708   0.0004559   0.0003106  -0.0003083   0.0000632
   21   0.0003324  -0.0000340   0.0004231  -0.0015115  -0.0019665   0.0019921
   22   0.0002749   0.0002573  -0.0006267  -0.0014002  -0.0006199  -0.0004445
   23   0.0004374   0.0000161   0.0000634  -0.0011082  -0.0001982   0.0007002
   24  -0.0000456   0.0004280  -0.0018415   0.0029773  -0.0005844  -0.0016795
   25   0.0006672   0.0008939  -0.0006280   0.0024169   0.0099578  -0.0005208
   26  -0.0007727  -0.0006674   0.0003181   0.0030855  -0.0036854  -0.0000274
   27   0.0006381   0.0009993   0.0003821  -0.0057433  -0.0206933  -0.0080190
   28  -0.0001721  -0.0002503  -0.0004092   0.0035428   0.0014210  -0.0017719
   29   0.0005015  -0.0005863  -0.0005608   0.0064416  -0.0005079   0.0022993
   30  -0.0003277  -0.0002492   0.0003417  -0.0307017   0.0068023  -0.0201820
   31   0.1309993  -0.1098205  -0.0308813   0.0005749   0.0023093  -0.0022550
   32  -0.1098205   0.2481156   0.0598208   0.0006310   0.0045102  -0.0024967
   33  -0.0308813   0.0598208   0.0426496  -0.0016118  -0.0039310   0.0048823
   34   0.0005749   0.0006310  -0.0016118   0.3036829  -0.0537183  -0.2042921
   35   0.0023093   0.0045102  -0.0039310  -0.0537183   0.1100287  -0.0176148
   36  -0.0022550  -0.0024967   0.0048823  -0.2042921  -0.0176148   0.5209969
   37   0.0001366  -0.0002171   0.0001031  -0.1857947   0.0257368   0.1859843
   38   0.0000407  -0.0003281  -0.0003964   0.0231881  -0.0255833  -0.0117966
   39   0.0001139   0.0002215  -0.0002418   0.1604632  -0.0064237  -0.1708850
           37          38          39
    1  -0.0011605   0.0023608  -0.0008165
    2   0.0009205  -0.0029000   0.0031122
    3   0.0006074  -0.0004412   0.0010382
    4  -0.0014079  -0.0014534  -0.0025726
    5  -0.0009193   0.0018590  -0.0000751
    6   0.0023667  -0.0022334   0.0015755
    7  -0.0024668   0.0065048  -0.0053081
    8  -0.0072845  -0.0014107   0.0030475
    9  -0.0081638   0.0016642  -0.0048686
   10   0.0090557  -0.0107954   0.0185566
   11   0.0034523   0.0016646   0.0021061
   12  -0.0114399   0.0104289  -0.0223106
   13  -0.0006527   0.0061581  -0.0047036
   14  -0.0010297   0.0059068  -0.0045020
   15  -0.0010233  -0.0004733  -0.0002000
   16   0.0000387  -0.0061568   0.0040622
   17   0.0000289   0.0006043  -0.0020006
   18   0.0006838   0.0001377   0.0000710
   19  -0.0000981  -0.0000664  -0.0000241
   20  -0.0000356   0.0001368   0.0000013
   21  -0.0004403   0.0001885   0.0000206
   22  -0.0003403   0.0001985  -0.0004269
   23  -0.0000692   0.0003166  -0.0000662
   24   0.0000081  -0.0006065  -0.0001445
   25   0.0005786   0.0002604   0.0004452
   26   0.0002962   0.0004423  -0.0001221
   27  -0.0007087  -0.0004516   0.0006718
   28   0.0011294   0.0004057  -0.0004210
   29  -0.0002341   0.0014950   0.0003859
   30   0.0013910  -0.0003355   0.0029632
   31   0.0001366   0.0000407   0.0001139
   32  -0.0002171  -0.0003281   0.0002215
   33   0.0001031  -0.0003964  -0.0002418
   34  -0.1857947   0.0231881   0.1604632
   35   0.0257368  -0.0255833  -0.0064237
   36   0.1859843  -0.0117966  -0.1708850
   37   0.1809819  -0.0206450  -0.1693683
   38  -0.0206450   0.0177966   0.0043151
   39  -0.1693683   0.0043151   0.1923102
 Gradient time:  CPU 255.30 s  wall 299.44 s
 **********************************************************************
 **                                                                  **
 **                       VIBRATIONAL ANALYSIS                       **
 **                       --------------------                       **
 **                                                                  **
 **        VIBRATIONAL FREQUENCIES (CM**-1) AND NORMAL MODES         **
 **     FORCE CONSTANTS (mDYN/ANGSTROM) AND REDUCED MASSES (AMU)     **
 **                  INFRARED INTENSITIES (KM/MOL)                   **
 **                                                                  **
 **********************************************************************
 

 Mode:                 1                      2                      3
 Frequency:      -282.96                 294.84                 358.47
 Force Cnst:      0.1654                 0.1176                 0.1356
 Red. Mass:       3.5063                 2.2957                 1.7906
 IR Active:          YES                    YES                    YES
 IR Intens:        1.162                  5.374                 36.875
 Raman Active:       YES                    YES                    YES
               X      Y      Z        X      Y      Z        X      Y      Z
 C          0.014  0.021 -0.043   -0.009 -0.031  0.176    0.021  0.000 -0.006
 C          0.017 -0.000 -0.051   -0.026 -0.016 -0.101    0.037 -0.008  0.112
 C          0.033  0.050  0.018   -0.008 -0.002 -0.051   -0.012  0.011 -0.088
 C         -0.058 -0.120 -0.160   -0.055  0.005  0.010   -0.063  0.022  0.035
 C         -0.055 -0.173  0.212   -0.051  0.009 -0.141   -0.002  0.022  0.084
 N          0.005 -0.065  0.049   -0.050 -0.028  0.076    0.004  0.016 -0.122
 H          0.016  0.034 -0.025    0.018 -0.017  0.358    0.041 -0.017  0.101
 H          0.004 -0.010 -0.045   -0.039  0.010 -0.190    0.108 -0.056  0.375
 H          0.022 -0.043  0.290   -0.058 -0.008  0.015    0.005  0.042 -0.200
 H         -0.013 -0.164 -0.231   -0.123 -0.043  0.170   -0.029  0.037 -0.056
 H         -0.073 -0.252  0.438   -0.050  0.069 -0.352    0.042  0.012  0.222
 C          0.034  0.287 -0.072    0.183  0.034 -0.009   -0.043 -0.105 -0.070
 H          0.161  0.562  0.032    0.543  0.378  0.316    0.520  0.449  0.440
 TransDip  -0.003 -0.027  0.022   -0.022 -0.003  0.071    0.035  0.029  0.189

 Mode:                 4                      5                      6
 Frequency:       410.66                 512.88                 545.43
 Force Cnst:      0.2251                 0.8092                 1.1740
 Red. Mass:       2.2653                 5.2212                 6.6976
 IR Active:          YES                    YES                    YES
 IR Intens:        5.418                  4.704                  9.431
 Raman Active:       YES                    YES                    YES
               X      Y      Z        X      Y      Z        X      Y      Z
 C         -0.022  0.018 -0.099   -0.239 -0.052 -0.149   -0.130  0.079  0.135
 C         -0.000  0.015 -0.039   -0.002 -0.147  0.226   -0.278  0.100 -0.031
 C          0.031 -0.047  0.161   -0.024 -0.068 -0.012   -0.154 -0.293  0.024
 C          0.038 -0.008 -0.023    0.203  0.119 -0.141    0.153 -0.161 -0.072
 C          0.041  0.052 -0.072   -0.085  0.114  0.026    0.158 -0.059  0.084
 N          0.023  0.008  0.153   -0.105  0.013  0.131    0.164  0.334 -0.115
 H         -0.074  0.049 -0.385   -0.293 -0.009 -0.425   -0.055 -0.274  0.228
 H         -0.068  0.067 -0.310    0.109 -0.103  0.337   -0.133  0.240 -0.105
 H          0.056 -0.045  0.114   -0.155  0.018 -0.132   -0.101 -0.329  0.072
 H          0.148 -0.067 -0.241    0.080  0.116  0.139    0.070  0.061  0.010
 H          0.021  0.058 -0.129   -0.127  0.050  0.182   -0.087 -0.214  0.105
 C         -0.150 -0.084 -0.059    0.291  0.006 -0.091    0.080 -0.037 -0.026
 H          0.347  0.489  0.382    0.151  0.077 -0.241    0.063  0.295 -0.070
 TransDip  -0.000  0.048  0.057   -0.068  0.013 -0.007   -0.066 -0.060  0.041

 Mode:                 7                      8                      9
 Frequency:       643.14                 674.66                 733.54
 Force Cnst:      0.6395                 1.2213                 0.7989
 Red. Mass:       2.6242                 4.5539                 2.5201
 IR Active:          YES                    YES                    YES
 IR Intens:       23.993                  1.275                 13.268
 Raman Active:       YES                    YES                    YES
               X      Y      Z        X      Y      Z        X      Y      Z
 C         -0.024  0.009 -0.051   -0.103 -0.080  0.164   -0.050 -0.036 -0.056
 C          0.039 -0.016 -0.020    0.076 -0.167 -0.192    0.031 -0.070 -0.112
 C         -0.025 -0.005 -0.201    0.136 -0.012  0.115    0.058 -0.103 -0.030
 C          0.154 -0.068  0.083    0.219  0.115  0.020   -0.083 -0.118  0.028
 C          0.001 -0.056 -0.065   -0.110  0.085  0.162    0.028  0.240 -0.015
 N         -0.027  0.016  0.065   -0.108  0.009 -0.197    0.019  0.046  0.061
 H         -0.024  0.044 -0.012   -0.090  0.011  0.343    0.025 -0.071  0.378
 H          0.133 -0.025  0.190    0.088 -0.071 -0.416    0.290 -0.130  0.546
 H         -0.067  0.068 -0.352   -0.130  0.126 -0.005    0.060 -0.183  0.183
 H          0.146 -0.010  0.073    0.383  0.094 -0.309   -0.026 -0.302 -0.036
 H         -0.093 -0.098 -0.114   -0.094  0.141  0.011    0.069  0.191  0.267
 C         -0.096  0.060  0.198   -0.097  0.004 -0.006   -0.039  0.091 -0.004
 H         -0.297  0.718 -0.031   -0.098  0.228 -0.021   -0.021 -0.194  0.048
 TransDip   0.003  0.076 -0.137   -0.001  0.025  0.026    0.081  0.020  0.082

 Mode:                10                     11                     12
 Frequency:       783.96                 858.77                 890.15
 Force Cnst:      0.6971                 0.7464                 0.9345
 Red. Mass:       1.9250                 1.7177                 2.0018
 IR Active:          YES                    YES                    YES
 IR Intens:       28.754                  7.508                 12.194
 Raman Active:       YES                    YES                    YES
               X      Y      Z        X      Y      Z        X      Y      Z
 C          0.006  0.024 -0.075   -0.061 -0.054  0.017    0.073 -0.010  0.039
 C         -0.092  0.079 -0.111   -0.078 -0.020  0.038   -0.078  0.082  0.019
 C         -0.023  0.080  0.101    0.034  0.168 -0.054   -0.021  0.052  0.028
 C          0.096  0.056 -0.036    0.023 -0.096 -0.008    0.046 -0.083 -0.065
 C         -0.006 -0.082 -0.030    0.012  0.006  0.000   -0.022  0.158 -0.019
 N         -0.022 -0.052  0.025    0.026  0.050  0.002   -0.025 -0.109 -0.043
 H          0.115 -0.058  0.512   -0.072 -0.139 -0.118    0.064 -0.017 -0.026
 H          0.040 -0.144  0.733   -0.181 -0.062 -0.039   -0.254  0.028 -0.180
 H         -0.039  0.083  0.108   -0.033  0.207 -0.088    0.119  0.043 -0.089
 H          0.131  0.093 -0.102    0.333 -0.398 -0.534   -0.002 -0.437  0.181
 H         -0.028 -0.118  0.050   -0.029  0.009 -0.111    0.125  0.103  0.514
 C          0.022 -0.082  0.010    0.023 -0.000  0.056    0.046 -0.084  0.036
 H          0.064 -0.022  0.035    0.201 -0.364  0.259   -0.207  0.405 -0.253
 TransDip   0.024 -0.069  0.156    0.025 -0.045 -0.071    0.077  0.080 -0.013

 Mode:                13                     14                     15
 Frequency:       931.89                 950.23                 956.61
 Force Cnst:      0.8699                 0.9194                 0.8801
 Red. Mass:       1.7001                 1.7282                 1.6324
 IR Active:          YES                    YES                    YES
 IR Intens:        2.794                  6.622                  5.048
 Raman Active:       YES                    YES                    YES
               X      Y      Z        X      Y      Z        X      Y      Z
 C         -0.010  0.045 -0.019   -0.004 -0.013 -0.108    0.056 -0.036  0.109
 C         -0.024  0.052  0.057    0.085 -0.096  0.057    0.054 -0.054 -0.077
 C         -0.009 -0.107 -0.008   -0.041  0.081  0.017   -0.060  0.039  0.023
 C          0.052  0.032  0.072   -0.021 -0.010 -0.036    0.008  0.005 -0.022
 C          0.010 -0.007 -0.098   -0.012 -0.019 -0.050   -0.012 -0.023 -0.105
 N         -0.034 -0.094 -0.010    0.018  0.111  0.026   -0.017  0.090  0.003
 H          0.040  0.023  0.267    0.140 -0.082  0.690   -0.070  0.093 -0.529
 H         -0.001  0.198 -0.275   -0.128 -0.054 -0.485    0.081 -0.148  0.210
 H         -0.042  0.002 -0.288   -0.094  0.046  0.176   -0.125  0.036  0.098
 H          0.211  0.110 -0.287   -0.095  0.013  0.109   -0.039  0.134  0.030
 H          0.037 -0.169  0.552   -0.089 -0.154  0.278   -0.100 -0.280  0.648
 C         -0.015  0.106 -0.009   -0.002 -0.059  0.028   -0.009 -0.013  0.022
 H          0.192 -0.317  0.234   -0.048  0.067 -0.030    0.061 -0.101  0.097
 TransDip   0.049  0.021  0.004   -0.033 -0.062  0.042    0.005 -0.057  0.044

 Mode:                16                     17                     18
 Frequency:      1002.84                1041.67                1074.35
 Force Cnst:      1.2273                 1.0366                 1.3472
 Red. Mass:       2.0712                 1.6215                 1.9811
 IR Active:          YES                    YES                    YES
 IR Intens:        0.300                  2.956                  5.740
 Raman Active:       YES                    YES                    YES
               X      Y      Z        X      Y      Z        X      Y      Z
 C          0.189  0.001 -0.045    0.077  0.024 -0.008   -0.128  0.087  0.036
 C          0.044 -0.020 -0.018    0.026  0.012  0.021    0.106 -0.010 -0.028
 C         -0.144 -0.082  0.087   -0.119 -0.023 -0.091   -0.107  0.014  0.056
 C          0.023 -0.036 -0.048    0.051 -0.011 -0.054   -0.090  0.006 -0.045
 C         -0.063  0.038  0.067   -0.013  0.067  0.039    0.072 -0.020 -0.012
 N         -0.036  0.053  0.013   -0.046 -0.045 -0.014    0.062 -0.066 -0.023
 H          0.184  0.129  0.028    0.054  0.162 -0.022   -0.148  0.203  0.022
 H         -0.072 -0.144  0.038    0.004  0.028 -0.078    0.512  0.294 -0.013
 H         -0.407  0.249 -0.594   -0.057 -0.335  0.718   -0.411  0.177 -0.104
 H          0.055 -0.263 -0.029    0.141  0.262 -0.341    0.078 -0.225 -0.311
 H         -0.136  0.102 -0.306   -0.025  0.114 -0.137    0.290  0.094  0.016
 C          0.017  0.046  0.006    0.014 -0.027  0.085    0.057 -0.056  0.063
 H          0.099 -0.172  0.103    0.080 -0.094  0.157   -0.118  0.120 -0.119
 TransDip  -0.010 -0.010 -0.011    0.055 -0.004 -0.004   -0.006  0.062 -0.044

 Mode:                19                     20                     21
 Frequency:      1093.46                1200.38                1232.77
 Force Cnst:      1.2040                 1.4239                 1.0780
 Red. Mass:       1.7091                 1.6772                 1.2040
 IR Active:          YES                    YES                    YES
 IR Intens:       22.120                  2.840                  4.254
 Raman Active:       YES                    YES                    YES
               X      Y      Z        X      Y      Z        X      Y      Z
 C         -0.076  0.008  0.016   -0.010 -0.032 -0.002   -0.041  0.073  0.013
 C          0.030  0.019 -0.005    0.006  0.002 -0.011    0.006 -0.049 -0.005
 C         -0.029  0.065  0.004    0.036 -0.032  0.047   -0.004  0.003  0.005
 C          0.107 -0.088 -0.118   -0.081 -0.005 -0.144   -0.002 -0.049  0.025
 C          0.056  0.021  0.026   -0.022  0.023  0.003    0.063 -0.001 -0.004
 N         -0.003 -0.055 -0.022    0.005  0.015 -0.002    0.002 -0.014 -0.008
 H         -0.082  0.058  0.047    0.011 -0.126  0.022   -0.137  0.667  0.089
 H          0.141  0.129 -0.056   -0.032 -0.037  0.009   -0.492 -0.454  0.057
 H         -0.002  0.084 -0.068    0.526 -0.046 -0.451    0.065  0.006 -0.079
 H         -0.304  0.120  0.657   -0.114  0.555 -0.306   -0.007  0.149 -0.044
 H          0.055  0.041 -0.066    0.056  0.072  0.020    0.147  0.044  0.001
 C         -0.090  0.032  0.025    0.031 -0.011  0.159    0.012  0.004 -0.024
 H          0.253 -0.336  0.386   -0.040  0.038  0.108   -0.002  0.013 -0.044
 TransDip  -0.009  0.067  0.135    0.005  0.022 -0.049    0.016  0.063 -0.010

 Mode:                22                     23                     24
 Frequency:      1283.94                1349.90                1409.17
 Force Cnst:      1.7000                 1.6616                 1.6507
 Red. Mass:       1.7503                 1.5476                 1.4109
 IR Active:          YES                    YES                    YES
 IR Intens:        9.805                  6.259                  5.487
 Raman Active:       YES                    YES                    YES
               X      Y      Z        X      Y      Z        X      Y      Z
 C          0.008 -0.022 -0.007   -0.008 -0.076 -0.007   -0.002 -0.013 -0.001
 C          0.006  0.029  0.006    0.022 -0.008 -0.017    0.052  0.007 -0.015
 C          0.006  0.067  0.037   -0.141  0.067  0.037   -0.089  0.025  0.011
 C          0.005 -0.194  0.093    0.013 -0.014  0.071    0.041 -0.027  0.045
 C         -0.001  0.058 -0.004    0.068  0.028  0.020   -0.011 -0.069 -0.003
 N         -0.022 -0.018  0.007   -0.019 -0.009 -0.007   -0.085  0.056  0.014
 H          0.036 -0.194 -0.028   -0.061  0.249  0.062    0.041 -0.274 -0.023
 H          0.103  0.117 -0.016    0.264  0.183 -0.043   -0.006 -0.044 -0.011
 H         -0.362  0.239 -0.040    0.670 -0.168 -0.148    0.306 -0.112 -0.021
 H         -0.051  0.766 -0.165    0.091 -0.082 -0.060    0.076 -0.034 -0.003
 H         -0.074  0.037 -0.042   -0.430 -0.232 -0.099    0.788  0.381  0.057
 C          0.034 -0.007 -0.091    0.023  0.015 -0.063    0.005  0.021 -0.050
 H         -0.047  0.100 -0.202    0.005  0.025 -0.099    0.030 -0.023 -0.036
 TransDip   0.020  0.090 -0.040    0.056  0.056 -0.010    0.043 -0.057  0.022

 Mode:                25                     26                     27
 Frequency:      1442.00                1520.59                1655.37
 Force Cnst:      2.0133                 8.6999                 8.7299
 Red. Mass:       1.6433                 6.3862                 5.4072
 IR Active:          YES                    YES                    YES
 IR Intens:        1.896                 21.085                 18.708
 Raman Active:       YES                    YES                    YES
               X      Y      Z        X      Y      Z        X      Y      Z
 C          0.079 -0.120 -0.032   -0.006 -0.147 -0.010    0.128  0.379  0.014
 C         -0.144 -0.036  0.026    0.076  0.138  0.005   -0.216 -0.375  0.003
 C          0.075  0.009 -0.005    0.088 -0.049 -0.003    0.031  0.066  0.009
 C         -0.005 -0.002 -0.020   -0.098  0.055 -0.074   -0.011 -0.012 -0.007
 C         -0.001 -0.033 -0.005    0.467 -0.004  0.052    0.150  0.020  0.004
 N         -0.038  0.061  0.010   -0.399  0.049 -0.008   -0.139 -0.033  0.003
 H         -0.052  0.694  0.097   -0.013 -0.257  0.030    0.306 -0.442 -0.150
 H          0.381  0.394 -0.042   -0.279 -0.110 -0.019    0.438  0.090 -0.071
 H         -0.091  0.068  0.025   -0.430  0.127  0.056    0.253  0.016 -0.091
 H         -0.036  0.064  0.018   -0.068 -0.165 -0.088   -0.043  0.021  0.034
 H          0.321  0.142  0.059   -0.113 -0.322 -0.054   -0.036 -0.083 -0.048
 C         -0.003 -0.005  0.011    0.021  0.002  0.046    0.004 -0.008  0.003
 H         -0.012  0.025  0.003   -0.078  0.113 -0.032    0.002  0.015 -0.002
 TransDip   0.044 -0.000 -0.006    0.144  0.007 -0.027    0.118  0.068 -0.024

 Mode:                28                     29                     30
 Frequency:      3056.45                3074.43                3082.38
 Force Cnst:      5.9958                 6.0496                 6.0991
 Red. Mass:       1.0893                 1.0863                 1.0895
 IR Active:          YES                    YES                    YES
 IR Intens:       20.189                 11.696                 27.134
 Raman Active:       YES                    YES                    YES
               X      Y      Z        X      Y      Z        X      Y      Z
 C         -0.000  0.001 -0.000   -0.000  0.001 -0.000   -0.000  0.000  0.000
 C          0.000 -0.001 -0.000   -0.002  0.003  0.001   -0.001  0.002  0.001
 C          0.001  0.003  0.001   -0.023 -0.059 -0.019   -0.017 -0.047 -0.016
 C         -0.008 -0.001 -0.004    0.046  0.010  0.021   -0.061 -0.010 -0.029
 C          0.043 -0.072 -0.019    0.002 -0.007 -0.002   -0.001  0.006  0.002
 N          0.000 -0.000 -0.000    0.000 -0.000 -0.000    0.001  0.000 -0.000
 H         -0.012 -0.003  0.002   -0.003 -0.001 -0.001   -0.000 -0.001  0.000
 H         -0.005  0.005  0.002    0.028 -0.040 -0.013    0.026 -0.036 -0.013
 H         -0.012 -0.030 -0.011    0.262  0.695  0.247    0.202  0.546  0.189
 H          0.094  0.011  0.048   -0.538 -0.104 -0.261    0.695  0.130  0.331
 H         -0.487  0.831  0.228   -0.043  0.079  0.022    0.028 -0.052 -0.015
 C         -0.001  0.001  0.000    0.001  0.000  0.001    0.002 -0.000 -0.002
 H          0.002 -0.002 -0.001    0.007 -0.002 -0.006   -0.030  0.005  0.036
 TransDip   0.058 -0.131 -0.014    0.039 -0.098  0.029   -0.135 -0.055 -0.081

 Mode:                31                     32                     33
 Frequency:      3173.99                3190.98                3206.85
 Force Cnst:      6.4543                 6.5634                 6.6384
 Red. Mass:       1.0874                 1.0940                 1.0956
 IR Active:          YES                    YES                    YES
 IR Intens:        6.671                  1.215                 36.973
 Raman Active:       YES                    YES                    YES
               X      Y      Z        X      Y      Z        X      Y      Z
 C         -0.026 -0.003  0.004    0.002  0.000 -0.000   -0.080 -0.020  0.013
 C          0.046 -0.062 -0.023   -0.002  0.002  0.001   -0.015  0.027  0.008
 C         -0.003 -0.005 -0.001   -0.002  0.005  0.003    0.002  0.002  0.000
 C         -0.000  0.000  0.000    0.005 -0.001  0.004    0.000 -0.000  0.000
 C          0.001  0.000 -0.000   -0.000 -0.001 -0.000    0.002 -0.001 -0.000
 N         -0.001  0.001  0.000    0.000 -0.000  0.000   -0.000  0.001 -0.000
 H          0.327  0.057 -0.053   -0.020 -0.004  0.004    0.911  0.171 -0.146
 H         -0.541  0.711  0.275    0.020 -0.026 -0.009    0.189 -0.255 -0.096
 H          0.024  0.055  0.018   -0.007 -0.020 -0.003   -0.009 -0.018 -0.006
 H          0.002 -0.001  0.000   -0.036 -0.004 -0.015   -0.002 -0.001 -0.001
 H          0.001 -0.001 -0.001   -0.002  0.007 -0.001   -0.006  0.009  0.004
 C          0.002  0.000 -0.003    0.060 -0.006 -0.065    0.000  0.000 -0.001
 H         -0.028  0.002  0.029   -0.696  0.053  0.708   -0.005 -0.000  0.005
 TransDip   0.030 -0.074 -0.021   -0.013  0.015 -0.029   -0.188  0.031  0.040

 STANDARD THERMODYNAMIC QUANTITIES AT   298.15 K  AND     1.00 ATM

   This Molecule has  1 Imaginary Frequencies
   Zero point vibrational energy:       62.382 kcal/mol

   Atom    1 Element C  Has Mass   12.00000
   Atom    2 Element C  Has Mass   12.00000
   Atom    3 Element C  Has Mass   12.00000
   Atom    4 Element C  Has Mass   12.00000
   Atom    5 Element C  Has Mass   12.00000
   Atom    6 Element N  Has Mass   14.00307
   Atom    7 Element H  Has Mass    1.00783
   Atom    8 Element H  Has Mass    1.00783
   Atom    9 Element H  Has Mass    1.00783
   Atom   10 Element H  Has Mass    1.00783
   Atom   11 Element H  Has Mass    1.00783
   Atom   12 Element C  Has Mass   12.00000
   Atom   13 Element H  Has Mass    1.00783
   Molecular Mass:    92.050050 amu
   Principal axes and moments of inertia in amu*Bohr^2:
                             1           2           3
    Eigenvalues --      380.69168   491.35634   752.91352
          X               0.90610    -0.35043     0.23705
          Y               0.36212     0.93211    -0.00622
          Z              -0.21878     0.09148     0.97148
   Rotational Symmetry Number is   1
   The Molecule is an Asymmetric Top
   Translational Enthalpy:        0.889 kcal/mol
   Rotational Enthalpy:           0.889 kcal/mol
   Vibrational Enthalpy:         63.874 kcal/mol
   gas constant (RT):             0.592 kcal/mol
   Translational Entropy:        39.471  cal/mol.K
   Rotational Entropy:           26.446  cal/mol.K
   Vibrational Entropy:           7.028  cal/mol.K

   Total Enthalpy:               66.244 kcal/mol
   Total Entropy:                72.945  cal/mol.K
Archival summary:
1\1\c8-89\FREQ\ProcedureUnspecified\6-31G*\166(2)\hpark21\TueMar110:16:052022TueMar110:16:052022\0\\#,FREQ,ProcedureUnspecified,6-31G*,\\0,2\N\C,1,1.29768\H,2,1.10199,1,114.288\C,1,1.39266,2,119.202,3,177.684,0\H,4,1.08626,1,115.205,2,166.922,0\C,4,1.34757,1,123.58,2,-14.1916,0\H,6,1.08858,4,119.334,1,172.765,0\C,6,1.48535,4,120.403,1,-0.774241,0\H,8,1.09759,6,112.557,4,161.164,0\C,8,1.53136,6,114.732,4,23.7073,0\H,10,1.0965,8,116.062,6,141.007,0\C,10,1.45371,8,62.9018,6,-111.357,0\H,12,1.08809,10,123.972,8,-146.057,0\\\@

 Total job time:  315.27s(wall), 258.85s(cpu) 
 Tue Mar  1 10:16:05 2022

        *************************************************************
        *                                                           *
        *  Thank you very much for using Q-Chem.  Have a nice day.  *
        *                                                           *
        *************************************************************


