
Running Job 1 of 1 optimize.in
qchem optimize.in_18070.0 ./optimize.d/ 1
/home/leeping/opt/qchem/5.0.2-openmp/exe/qcprog.exe_s optimize.in_18070.0 ./optimize.d/
Check license passed

                  Welcome to Q-Chem
     A Quantum Leap Into The Future Of Chemistry


 Q-Chem 5.0, Q-Chem, Inc., Pleasanton, CA (2017)

 Yihan Shao,  Zhengting Gan,  E. Epifanovsky,  A. T. B. Gilbert,  M. Wormit,  
 J. Kussmann,  A. W. Lange,  A. Behn,  Jia Deng,  Xintian Feng,  D. Ghosh,  
 M. Goldey,  P. R. Horn,  L. D. Jacobson,  I. Kaliman,  T. Kus,  A. Landau,  
 Jie Liu,  E. I. Proynov,  R. M. Richard,  R. P. Steele,  E. J. Sundstrom,  
 H. L. Woodcock III,  P. M. Zimmerman,  D. Zuev,  B. Albrecht,  E. Alguire,  
 S. A. Baeppler,  D. Barton,  Z. Benda,  Y. A. Bernard,  E. J. Berquist,  
 K. B. Bravaya,  H. Burton,  D. Casanova,  Chun-Min Chang,  Yunqing Chen,  
 A. Chien,  K. D. Closser,  M. P. Coons,  S. Dasgupta,  A. L. Dempwolff,  
 M. Diedenhofen,  Hainam Do,  R. G. Edgar,  Po-Tung Fang,  S. Fatehi,  
 Qingguo Feng,  J. Fosso-Tande,  Qinghui Ge,  A. Ghysels,  G. Gidofalvi,  
 J. Gomes,  J. Gonthier,  A. Gunina,  M. W. D. Hanson-Heine,  
 P. H. P. Harbach,  A. W. Hauser,  J. E. Herr,  E. G. Hohenstein,  
 Z. C. Holden,  Kerwin Hui,  T.-C. Jagau,  Hyunjun Ji,  B. Kaduk,  
 K. Khistyaev,  Jaehoon Kim,  P. Klunzinger,  K. Koh,  D. Kosenkov,  
 L. Koulias,  T. Kowalczyk,  C. M. Krauter,  A. Kunitsa,  Ka Un Lao,  
 A. Laurent,  K. V. Lawler,  Joonho Lee,  D. Lefrancois,  S. Lehtola,  
 D. S. Levine,  Yi-Pei Li,  You-Sheng Lin,  Fenglai Liu,  E. Livshits,  
 A. Luenser,  P. Manohar,  E. Mansoor,  S. F. Manzer,  Shan-Ping Mao,  
 Yuezhi Mao,  N. Mardirossian,  A. V. Marenich,  T. Markovich,  
 L. A. Martinez-Martinez,  S. A. Maurer,  N. J. Mayhall,  S. C. McKenzie,  
 J.-M. Mewes,  A. F. Morrison,  J. W. Mullinax,  K. Nanda,  
 T. S. Nguyen-Beck,  R. Olivares-Amaya,  J. A. Parkhill,  T. M. Perrine,  
 F. Plasser,  S. Prager,  A. Prociuk,  E. Ramos,  D. R. Rehn,  F. Rob,  
 M. Schneider,  N. Sergueev,  S. M. Sharada,  S. Sharma,  D. W. Small,  
 T. Stauch,  T. Stein,  Yu-Chuan Su,  A. J. W. Thom,  A. Tkatchenko,  
 T. Tsuchimochi,  L. Vogt,  O. Vydrov,  M. A. Watson,  J. Wenzel,  
 M. de Wergifosse,  T. A. Wesolowski,  A. White,  J. Witte,  A. Yamada,  
 Jun Yang,  K. Yao,  S. Yeganeh,  S. R. Yost,  Zhi-Qiang You,  A. Zech,  
 Igor Ying Zhang,  Xing Zhang,  Yan Zhao,  Ying Zhu,  B. R. Brooks,  
 G. K. L. Chan,  C. J. Cramer,  M. S. Gordon,  W. J. Hehre,  A. Klamt,  
 M. W. Schmidt,  C. D. Sherrill,  D. G. Truhlar,  A. Aspuru-Guzik,  R. Baer,  
 A. T. Bell,  N. A. Besley,  Jeng-Da Chai,  R. A. DiStasio Jr.,  A. Dreuw,  
 B. D. Dunietz,  T. R. Furlani,  Chao-Ping Hsu,  Yousung Jung,  Jing Kong,  
 D. S. Lambrecht,  WanZhen Liang,  C. Ochsenfeld,  V. A. Rassolov,  
 L. V. Slipchenko,  J. E. Subotnik,  T. Van Voorhis,  J. M. Herbert,  
 A. I. Krylov,  P. M. W. Gill,  M. Head-Gordon

 Contributors to earlier versions of Q-Chem not listed above: 
 R. D. Adamson,  B. Austin,  J. Baker,  G. J. O. Beran,  K. Brandhorst,  
 S. T. Brown,  E. F. C. Byrd,  A. K. Chakraborty,  C.-L. Cheng,  
 Siu Hung Chien,  D. M. Chipman,  D. L. Crittenden,  H. Dachsel,  
 R. J. Doerksen,  A. D. Dutoi,  L. Fusti-Molnar,  W. A. Goddard III,  
 A. Golubeva-Zadorozhnaya,  S. R. Gwaltney,  G. Hawkins,  A. Heyden,  
 S. Hirata,  G. Kedziora,  F. J. Keil,  C. Kelley,  Jihan Kim,  R. A. King,  
 R. Z. Khaliullin,  P. P. Korambath,  W. Kurlancheek,  A. M. Lee,  M. S. Lee,  
 S. V. Levchenko,  Ching Yeh Lin,  D. Liotard,  R. C. Lochan,  I. Lotan,  
 P. E. Maslen,  N. Nair,  D. P. O'Neill,  D. Neuhauser,  E. Neuscamman,  
 C. M. Oana,  R. Olson,  B. Peters,  R. Peverati,  P. A. Pieniazek,  
 Y. M. Rhee,  J. Ritchie,  M. A. Rohrdanz,  E. Rosta,  N. J. Russ,  
 H. F. Schaefer III,  N. E. Schultz,  N. Shenvi,  A. C. Simmonett,  A. Sodt,  
 D. Stuck,  K. S. Thanthiriwatte,  V. Vanovschi,  Tao Wang,  A. Warshel,  
 C. F. Williams,  Q. Wu,  X. Xu,  W. Zhang

 Please cite Q-Chem as follows:
 Y. Shao et al., Mol. Phys. 113, 184-215 (2015)
 DOI: 10.1080/00268976.2014.952696

 Q-Chem 5.0.2 for Intel X86 EM64T Linux

 Parts of Q-Chem use Armadillo 5.200.1 (Boston Tea Smuggler).
 http://arma.sourceforge.net/

 Q-Chem begins on Tue Mar  1 21:53:42 2022  

Host: 
0

     Scratch files written to ./optimize.d//
 Dec517 15110_ 26548  26544 5633   
Processing $rem in /home/leeping/opt/qchem/5.0.2-openmp/config/preferences.
 MEM_STATIC 2000
 MEM_TOTAL  8000
 SYMMETRY   OFF
 SYM_IGNORE TRUE 

Checking the input file for inconsistencies... 	...done.

--------------------------------------------------------------
User input:
--------------------------------------------------------------
$molecule
0 2
C        1.3035349115    0.2523066102    0.3291060060
C        0.5913190029   -1.0055985115   -0.2087984477
C       -0.6517611496   -0.3983700877   -0.9062857724
C       -1.0960336310    0.1940264597    0.4023153426
C       -0.4550144255    1.1112153377   -0.6552227711
N        0.8877986525    1.4248347785   -0.3426448046
H        2.3209426189    0.1918218841    0.6997751194
H        1.0959359131   -1.9394821022   -0.4294483782
H       -1.2322645499   -0.8069703200   -1.7257967944
H       -2.0887632482    0.3397693960    0.8132460567
H       -1.0540937113    1.8412841126   -1.1880377433
C        0.1477433481   -0.4135200186    1.0993477139
H        0.2306562686   -0.7913175388    2.1124444732
$end

$rem
method                b3lyp
basis                 6-31g(d)
unrestricted          true
symmetry              off
sym_ignore            true
incdft                false
incfock               0
scf_convergence       8
thresh                14
jobtype               opt
scf_guess             read
scf_algorithm         diis
max_scf_cycles        100
geom_opt_tol_gradient 600
geom_opt_tol_displacement 2400
geom_opt_tol_energy   200
geom_opt_max_cycles   100
$end

--------------------------------------------------------------
 ----------------------------------------------------------------
             Standard Nuclear Orientation (Angstroms)
    I     Atom           X                Y                Z
 ----------------------------------------------------------------
    1      C       1.3035349115     0.2523066102     0.3291060060
    2      C       0.5913190029    -1.0055985115    -0.2087984477
    3      C      -0.6517611496    -0.3983700877    -0.9062857724
    4      C      -1.0960336310     0.1940264597     0.4023153426
    5      C      -0.4550144255     1.1112153377    -0.6552227711
    6      N       0.8877986525     1.4248347785    -0.3426448046
    7      H       2.3209426189     0.1918218841     0.6997751194
    8      H       1.0959359131    -1.9394821022    -0.4294483782
    9      H      -1.2322645499    -0.8069703200    -1.7257967944
   10      H      -2.0887632482     0.3397693960     0.8132460567
   11      H      -1.0540937113     1.8412841126    -1.1880377433
   12      C       0.1477433481    -0.4135200186     1.0993477139
   13      H       0.2306562686    -0.7913175388     2.1124444732
 ----------------------------------------------------------------
 Nuclear Repulsion Energy =   288.0182136854 hartrees
 There are       25 alpha and       24 beta electrons
 Requested basis set is 6-31G(d)
 There are 40 shells and 117 basis functions

 Total QAlloc Memory Limit   8000 MB
 Mega-Array Size      1956 MB
 MEM_STATIC part      2000 MB
 A cutoff of  1.0D-14 yielded    812 shell pairs
 There are      7084 function pairs
 
 -------------------------------------------------------
 OpenMP Integral Computing Module                       
 Release: version 1.0, May 2013, Q-Chem Inc. Pittsburgh 
 -------------------------------------------------------
 Integral Job Info:
 Integral job number is                      11
 Integral operator is                         1
 short-range coefficients                     0
 long-range coefficients              100000000
 Omega coefficients                           0
 if combine SR and LR in K                    0
 Integral screening is                        0
 Integral computing path is                   2
 max size of driver memory is            800000
 size of driver memory is                593474
 size of scratch memory is              2361544
 max col of scratch BK array               1296
 max len of scratch array in speh3          155
 max len of scratch index in speh4           18
 max int batch size is                      520
 min int batch size is                       52
 fixed nKL is                                52
 max L of basis functions is                  2
 order of int derivative is                   0
 number of shells is                         40
 number of basis is                         117
 number of cartesian basis is               117
 number of contracted shell pairs           812
 number of primitive shell pairs           3655
 maxK2 (contraction) of shell pair           36
 max number of K2 of shell pair               1
 max number of CS2 of shell pair             84
 max number of PS2 of shell pair            402
 mem total for path MDJ                  535308
 -------------------------------------------------------
 Smallest overlap matrix eigenvalue = 1.00E-03

 Scale SEOQF with 1.000000e-01/1.000000e-01/1.000000e-01

 Standard Electronic Orientation quadrupole field applied
 Nucleus-field energy     =     0.0000000013 hartrees
 Guess MOs from SCF MO coefficient file
 Reading MOs from coefficient file
 Reading MOs from coefficient file
 An unrestricted hybrid HF-DFT SCF calculation will be
 performed using Pulay DIIS extrapolation
 Exchange:     0.2000 Hartree-Fock + 0.0800 Slater + 0.7200 B88
 Correlation:  0.1900 VWN1RPA + 0.8100 LYP
 Using SG-1 standard quadrature grid
 SCF converges when DIIS error is below 1.0E-08
Using Q-Chem read-in guess as SCF_GUESS READ specified.

 using 4 threads for integral computing
 -------------------------------------------------------
 OpenMP Integral computing Module                
 Release: version 1.0, May 2013, Q-Chem Inc. Pittsburgh 
 -------------------------------------------------------
 -------------------------------------------------------
 OpenMP BLAS3 based DFT computing Module                
 Release: version 1.0, May 2013, Q-Chem Inc. Pittsburgh 
 -------------------------------------------------------
 ---------------------------------------
  Cycle       Energy         DIIS Error
 ---------------------------------------
    1    -286.8249802177      4.15E-10
    2    -286.8249802177      5.45E-10 Convergence criterion met
 ---------------------------------------
 <S^2> = 0.7558
 SCF time:  CPU 5.24 s  wall 3.01 s
 SCF   energy in the final basis set = -286.82498022
 Total energy in the final basis set = -286.82498022
 
 --------------------------------------------------------------
 
                    Orbital Energies (a.u.)
 --------------------------------------------------------------
 
 Alpha MOs
 -- Occupied --
-14.335 -10.215 -10.215 -10.207 -10.207 -10.207 -10.206  -0.986
 -0.837  -0.793  -0.649  -0.588  -0.574  -0.542  -0.533  -0.455
 -0.427  -0.415  -0.395  -0.384  -0.337  -0.275  -0.274  -0.248
 -0.212
 -- Virtual --
  0.090   0.094   0.117   0.147   0.150   0.156   0.167   0.180
  0.184   0.197   0.217   0.251   0.255   0.301   0.364   0.378
  0.477   0.520   0.537   0.541   0.561   0.565   0.574   0.608
  0.621   0.630   0.676   0.728   0.729   0.741   0.743   0.781
  0.786   0.801   0.828   0.831   0.848   0.856   0.918   0.938
  0.983   1.005   1.137   1.161   1.195   1.235   1.399   1.455
  1.490   1.538   1.622   1.630   1.653   1.658   1.667   1.691
  1.754   1.824   1.854   1.942   1.968   1.974   1.978   1.984
  2.043   2.128   2.134   2.242   2.272   2.404   2.412   2.489
  2.516   2.523   2.536   2.560   2.570   2.638   2.710   2.719
  2.757   2.769   2.837   2.881   2.932   3.847   4.233   4.317
  4.370   4.460   4.639   4.673
 
 Beta MOs
 -- Occupied --
-14.319 -10.217 -10.216 -10.205 -10.205 -10.205 -10.205  -0.975
 -0.811  -0.789  -0.644  -0.585  -0.568  -0.537  -0.529  -0.453
 -0.423  -0.392  -0.389  -0.378  -0.322  -0.269  -0.257  -0.244
 -- Virtual --
 -0.078   0.091   0.101   0.120   0.147   0.152   0.157   0.176
  0.182   0.188   0.202   0.225   0.259   0.259   0.302   0.367
  0.384   0.479   0.522   0.540   0.542   0.568   0.568   0.576
  0.613   0.621   0.639   0.679   0.732   0.733   0.743   0.782
  0.787   0.794   0.801   0.830   0.839   0.849   0.857   0.919
  0.944   1.003   1.007   1.140   1.164   1.205   1.236   1.401
  1.474   1.507   1.541   1.626   1.634   1.658   1.660   1.691
  1.696   1.758   1.827   1.858   1.946   1.970   1.979   1.982
  1.987   2.058   2.130   2.156   2.247   2.282   2.403   2.431
  2.502   2.523   2.529   2.541   2.565   2.603   2.639   2.713
  2.720   2.760   2.772   2.839   2.887   2.937   3.872   4.239
  4.320   4.370   4.462   4.641   4.676
 --------------------------------------------------------------
 
          Ground-State Mulliken Net Atomic Charges

     Atom                 Charge (a.u.)    Spin (a.u.)
  --------------------------------------------------------
      1 C                    -0.044884      -0.080380
      2 C                    -0.125300       0.090002
      3 C                    -0.124638       0.090143
      4 C                    -0.125067       0.088273
      5 C                    -0.044779      -0.080338
      6 N                    -0.285889       0.811216
      7 H                     0.149339       0.001043
      8 H                     0.144038      -0.002546
      9 H                     0.144157      -0.002544
     10 H                     0.143960      -0.002437
     11 H                     0.149276       0.001050
     12 C                    -0.124091       0.088974
     13 H                     0.143877      -0.002454
  --------------------------------------------------------
  Sum of atomic charges =     0.000000
  Sum of spin   charges =     1.000000

 -----------------------------------------------------------------
                    Cartesian Multipole Moments
 -----------------------------------------------------------------
    Charge (ESU x 10^10)
                 0.0000
    Dipole Moment (Debye)
         X      -1.2052      Y      -1.9293      Z       0.4697
       Tot       2.3228
    Quadrupole Moments (Debye-Ang)
        XX     -38.4220     XY      -4.1531     YY     -43.3014
        XZ       2.2406     YZ       0.3134     ZZ     -38.8946
    Octopole Moments (Debye-Ang^2)
       XXX     -10.8707    XXY      -7.8093    XYY      -8.4128
       YYY     -25.1003    XXZ       3.8431    XYZ       1.7056
       YYZ      -0.0675    XZZ      -6.1686    YZZ      -7.8446
       ZZZ       6.0937
    Hexadecapole Moments (Debye-Ang^3)
      XXXX    -226.5598   XXXY      -7.2984   XXYY     -82.5402
      XYYY     -19.0611   YYYY    -236.6169   XXXZ     -11.4980
      XXYZ       8.1672   XYYZ      -0.4219   YYYZ      19.6464
      XXZZ     -65.8334   XYZZ      -1.9052   YYZZ     -64.0385
      XZZZ     -12.2549   YZZZ      15.2816   ZZZZ    -164.1358
 -----------------------------------------------------------------
 Calculating analytic gradient of the SCF energy
 Gradient of SCF Energy
            1           2           3           4           5           6
    1   0.0001476  -0.0004858   0.0003465  -0.0001288  -0.0001042   0.0000183
    2   0.0001914  -0.0001363  -0.0008157   0.0001507   0.0003243   0.0000668
    3   0.0001930   0.0004104  -0.0005183  -0.0005566   0.0003874  -0.0000903
            7           8           9          10          11          12
    1   0.0000375   0.0000955  -0.0003215   0.0000703   0.0000424   0.0002625
    2  -0.0000627   0.0001141   0.0001216   0.0000370  -0.0000142  -0.0000568
    3  -0.0000359  -0.0000801   0.0001666   0.0001649   0.0000409  -0.0001911
           13
    1   0.0000196
    2   0.0000798
    3   0.0001092
 Max gradient component =       8.157E-04
 RMS gradient           =       2.555E-04
 Gradient time:  CPU 7.89 s  wall 3.49 s
 Geometry Optimization Parameters
   NAtoms,    NIC,     NZ,  NCons,   NDum,   NFix, NCnnct, MaxDiis
       13     151       0       0       0       0       0       0


** GEOMETRY OPTIMIZATION IN DELOCALIZED INTERNAL COORDINATES **
   Searching for a Minimum

   Optimization Cycle:   1

                       Coordinates (Angstroms)
     ATOM                X               Y               Z
      1  C         1.3035349115    0.2523066102    0.3291060060
      2  C         0.5913190029   -1.0055985115   -0.2087984477
      3  C        -0.6517611496   -0.3983700877   -0.9062857724
      4  C        -1.0960336310    0.1940264597    0.4023153426
      5  C        -0.4550144255    1.1112153377   -0.6552227711
      6  N         0.8877986525    1.4248347785   -0.3426448046
      7  H         2.3209426189    0.1918218841    0.6997751194
      8  H         1.0959359131   -1.9394821022   -0.4294483782
      9  H        -1.2322645499   -0.8069703200   -1.7257967944
     10  H        -2.0887632482    0.3397693960    0.8132460567
     11  H        -1.0540937113    1.8412841126   -1.1880377433
     12  C         0.1477433481   -0.4135200186    1.0993477139
     13  H         0.2306562686   -0.7913175388    2.1124444732
   Point Group: c1    Number of degrees of freedom:    33


   Energy is   -286.824980218


 Attempting to Generate Delocalized Internal Coordinates

 33 Hessian modes will be used to form the next step
  Hessian Eigenvalues:
     0.011254    0.013554    0.015584    0.017232    0.018145    0.018908
     0.020265    0.021566    0.054980    0.056087    0.064537    0.066361
     0.076588    0.084962    0.086871    0.114481    0.138906    0.139510
     0.145931    0.169326    0.210090    0.215344    0.257950    0.261387
     0.297918    0.354543    0.354653    0.354753    0.354846    0.354890
     0.354930    0.378044    0.383930

 Minimum Search - Taking Simple RFO Step
 Searching for Lamda that Minimizes Along All modes
 Value Taken    Lamda =  -0.00000616
 Step Taken.  Stepsize is  0.014274

                             Maximum     Tolerance    Cnvgd?
         Gradient           0.000282      0.000600     YES
         Displacement       0.007690      0.002400      NO
         Energy change     *********      0.000002      NO


 New Cartesian Coordinates Obtained by Inverse Iteration

 Displacement from previous Coordinates is:  0.007078
 ----------------------------------------------------------------
             Standard Nuclear Orientation (Angstroms)
    I     Atom           X                Y                Z
 ----------------------------------------------------------------
    1      C       1.3034507142     0.2523943381     0.3289021770
    2      C       0.5916288912    -1.0050617502    -0.2092493376
    3      C      -0.6521658330    -0.3977842094    -0.9051970667
    4      C      -1.0959655940     0.1946263386     0.4034514892
    5      C      -0.4551076180     1.1110877542    -0.6555010574
    6      N       0.8876436969     1.4247880960    -0.3429140796
    7      H       2.3207783254     0.1924115806     0.6997519828
    8      H       1.0948230062    -1.9399719960    -0.4290753594
    9      H      -1.2305035049    -0.8066767210    -1.7260922776
   10      H      -2.0890259988     0.3400213276     0.8136937589
   11      H      -1.0542354952     1.8406373216    -1.1891370801
   12      C       0.1477918138    -0.4136657065     1.0994543708
   13      H       0.2308875962    -0.7928063737     2.1119124798
 ----------------------------------------------------------------
 Nuclear Repulsion Energy =   288.0342412596 hartrees
 There are       25 alpha and       24 beta electrons
 Applying Cartesian multipole field
    Component          Value
    ---------          -----
     (2,0,0)        1.00000E-11
     (0,2,0)        2.00000E-11
     (0,0,2)       -3.00000E-11
 Nucleus-field energy     =     0.0000000013 hartrees
 Requested basis set is 6-31G(d)
 There are 40 shells and 117 basis functions
 A cutoff of  1.0D-14 yielded    812 shell pairs
 There are      7084 function pairs
 Smallest overlap matrix eigenvalue = 1.00E-03
 Guess MOs from SCF MO coefficient file
 Reading MOs from coefficient file
 Reading MOs from coefficient file
 An unrestricted hybrid HF-DFT SCF calculation will be
 performed using Pulay DIIS extrapolation
 Exchange:     0.2000 Hartree-Fock + 0.0800 Slater + 0.7200 B88
 Correlation:  0.1900 VWN1RPA + 0.8100 LYP
 Using SG-1 standard quadrature grid
 SCF converges when DIIS error is below 1.0E-08
 Geometry optimization detected.  Setting ReadMinima to 0
 Setting SaveMinima to 0
Using Q-Chem read-in guess as SCF_GUESS READ specified.

 using 4 threads for integral computing
 -------------------------------------------------------
 OpenMP Integral computing Module                
 Release: version 1.0, May 2013, Q-Chem Inc. Pittsburgh 
 -------------------------------------------------------
 -------------------------------------------------------
 OpenMP BLAS3 based DFT computing Module                
 Release: version 1.0, May 2013, Q-Chem Inc. Pittsburgh 
 -------------------------------------------------------
 ---------------------------------------
  Cycle       Energy         DIIS Error
 ---------------------------------------
    1    -286.8252975845      4.83E-05
    2    -286.8249841783      7.95E-06
    3    -286.8249842083      7.47E-06
    4    -286.8249842978      1.73E-06
    5    -286.8249843030      3.23E-07
    6    -286.8249843033      2.65E-07
    7    -286.8249843035      5.18E-08
    8    -286.8249843035      2.43E-08
    9    -286.8249843035      1.72E-08
   10    -286.8249843035      3.68E-09 Convergence criterion met
 ---------------------------------------
 <S^2> = 0.7558
 SCF time:  CPU 26.05 s  wall 21.95 s
 SCF   energy in the final basis set = -286.82498430
 Total energy in the final basis set = -286.82498430
 
 --------------------------------------------------------------
 
                    Orbital Energies (a.u.)
 --------------------------------------------------------------
 
 Alpha MOs
 -- Occupied --
-14.335 -10.215 -10.215 -10.207 -10.207 -10.207 -10.206  -0.986
 -0.837  -0.793  -0.649  -0.588  -0.574  -0.542  -0.533  -0.455
 -0.427  -0.415  -0.395  -0.384  -0.337  -0.275  -0.274  -0.248
 -0.212
 -- Virtual --
  0.090   0.094   0.117   0.147   0.150   0.156   0.167   0.180
  0.184   0.197   0.217   0.251   0.255   0.302   0.364   0.378
  0.477   0.520   0.537   0.541   0.561   0.565   0.574   0.608
  0.621   0.630   0.676   0.728   0.729   0.742   0.743   0.781
  0.786   0.801   0.828   0.831   0.848   0.856   0.918   0.938
  0.983   1.005   1.137   1.161   1.195   1.235   1.399   1.455
  1.490   1.538   1.622   1.630   1.653   1.658   1.667   1.691
  1.754   1.824   1.854   1.942   1.968   1.974   1.978   1.984
  2.043   2.128   2.134   2.242   2.272   2.404   2.412   2.489
  2.516   2.522   2.536   2.560   2.570   2.638   2.710   2.719
  2.757   2.769   2.837   2.881   2.932   3.847   4.233   4.317
  4.370   4.460   4.639   4.673
 
 Beta MOs
 -- Occupied --
-14.319 -10.217 -10.216 -10.205 -10.205 -10.205 -10.205  -0.976
 -0.811  -0.789  -0.644  -0.585  -0.568  -0.537  -0.529  -0.453
 -0.423  -0.392  -0.389  -0.378  -0.322  -0.269  -0.257  -0.244
 -- Virtual --
 -0.078   0.091   0.101   0.120   0.147   0.152   0.157   0.176
  0.182   0.188   0.202   0.225   0.259   0.259   0.302   0.367
  0.384   0.479   0.522   0.540   0.542   0.568   0.568   0.576
  0.613   0.621   0.639   0.679   0.732   0.733   0.743   0.782
  0.787   0.794   0.801   0.830   0.839   0.849   0.857   0.919
  0.944   1.003   1.007   1.141   1.164   1.205   1.236   1.401
  1.474   1.507   1.541   1.626   1.634   1.658   1.660   1.691
  1.696   1.758   1.827   1.858   1.947   1.970   1.979   1.982
  1.987   2.058   2.130   2.156   2.247   2.282   2.403   2.431
  2.502   2.523   2.529   2.541   2.565   2.603   2.640   2.714
  2.721   2.760   2.772   2.839   2.887   2.937   3.873   4.239
  4.320   4.370   4.462   4.641   4.676
 --------------------------------------------------------------
 
          Ground-State Mulliken Net Atomic Charges

     Atom                 Charge (a.u.)    Spin (a.u.)
  --------------------------------------------------------
      1 C                    -0.044920      -0.080360
      2 C                    -0.125028       0.089836
      3 C                    -0.124771       0.089815
      4 C                    -0.125006       0.088596
      5 C                    -0.044705      -0.080293
      6 N                    -0.285891       0.811328
      7 H                     0.149319       0.001044
      8 H                     0.144027      -0.002527
      9 H                     0.144084      -0.002533
     10 H                     0.143965      -0.002444
     11 H                     0.149299       0.001046
     12 C                    -0.124295       0.088955
     13 H                     0.143922      -0.002464
  --------------------------------------------------------
  Sum of atomic charges =    -0.000000
  Sum of spin   charges =     1.000000

 -----------------------------------------------------------------
                    Cartesian Multipole Moments
 -----------------------------------------------------------------
    Charge (ESU x 10^10)
                -0.0000
    Dipole Moment (Debye)
         X      -1.2045      Y      -1.9304      Z       0.4677
       Tot       2.3229
    Quadrupole Moments (Debye-Ang)
        XX     -38.4275     XY      -4.1519     YY     -43.2991
        XZ       2.2401     YZ       0.3084     ZZ     -38.8905
    Octopole Moments (Debye-Ang^2)
       XXX     -10.8667    XXY      -7.8059    XYY      -8.4058
       YYY     -25.1377    XXZ       3.8469    XYZ       1.7095
       YYZ      -0.0675    XZZ      -6.1677    YZZ      -7.8523
       ZZZ       6.0562
    Hexadecapole Moments (Debye-Ang^3)
      XXXX    -226.5625   XXXY      -7.2775   XXYY     -82.5407
      XYYY     -19.0359   YYYY    -236.5634   XXXZ     -11.4767
      XXYZ       8.1649   XYYZ      -0.4017   YYYZ      19.6629
      XXZZ     -65.8420   XYZZ      -1.9069   YYZZ     -64.0189
      XZZZ     -12.2188   YZZZ      15.2862   ZZZZ    -164.1148
 -----------------------------------------------------------------
 Calculating analytic gradient of the SCF energy
 Gradient of SCF Energy
            1           2           3           4           5           6
    1   0.0000115  -0.0002487   0.0001683   0.0000484  -0.0000803   0.0000018
    2   0.0002107  -0.0000428  -0.0005007   0.0002914   0.0001452  -0.0000465
    3   0.0000778   0.0001021  -0.0000902  -0.0002424   0.0002002  -0.0000514
            7           8           9          10          11          12
    1   0.0000003   0.0000694  -0.0001333   0.0000284   0.0000180   0.0001244
    2  -0.0000453   0.0000302   0.0000841   0.0000029  -0.0000166  -0.0001489
    3  -0.0000330  -0.0000242   0.0000849   0.0000940  -0.0000521  -0.0000870
           13
    1  -0.0000083
    2   0.0000363
    3   0.0000214
 Max gradient component =       5.007E-04
 RMS gradient           =       1.370E-04
 Gradient time:  CPU 7.59 s  wall 2.97 s
 Geometry Optimization Parameters
   NAtoms,    NIC,     NZ,  NCons,   NDum,   NFix, NCnnct, MaxDiis
       13     151       0       0       0       0       0       0

 Cartesian Hessian Update
 Hessian Updated using BFGS Update


** GEOMETRY OPTIMIZATION IN DELOCALIZED INTERNAL COORDINATES **
   Searching for a Minimum

   Optimization Cycle:   2

                       Coordinates (Angstroms)
     ATOM                X               Y               Z
      1  C         1.3034507142    0.2523943381    0.3289021770
      2  C         0.5916288912   -1.0050617502   -0.2092493376
      3  C        -0.6521658330   -0.3977842094   -0.9051970667
      4  C        -1.0959655940    0.1946263386    0.4034514892
      5  C        -0.4551076180    1.1110877542   -0.6555010574
      6  N         0.8876436969    1.4247880960   -0.3429140796
      7  H         2.3207783254    0.1924115806    0.6997519828
      8  H         1.0948230062   -1.9399719960   -0.4290753594
      9  H        -1.2305035049   -0.8066767210   -1.7260922776
     10  H        -2.0890259988    0.3400213276    0.8136937589
     11  H        -1.0542354952    1.8406373216   -1.1891370801
     12  C         0.1477918138   -0.4136657065    1.0994543708
     13  H         0.2308875962   -0.7928063737    2.1119124798
   Point Group: c1    Number of degrees of freedom:    33


   Energy is   -286.824984304

 Hessian Updated using BFGS Update

 33 Hessian modes will be used to form the next step
  Hessian Eigenvalues:
     0.008931    0.012976    0.015611    0.017874    0.018507    0.019193
     0.021468    0.023227    0.043392    0.055972    0.064465    0.066076
     0.077947    0.084622    0.087557    0.115054    0.136620    0.138922
     0.141883    0.165607    0.200908    0.215171    0.257393    0.261874
     0.297788    0.354511    0.354591    0.354746    0.354851    0.354900
     0.356167    0.380586    0.384153

 Minimum Search - Taking Simple RFO Step
 Searching for Lamda that Minimizes Along All modes
 Value Taken    Lamda =  -0.00000301
 Step Taken.  Stepsize is  0.015104

                             Maximum     Tolerance    Cnvgd?
         Gradient           0.000169      0.000600     YES
         Displacement       0.008690      0.002400      NO
         Energy change     -0.000004      0.000002      NO


 New Cartesian Coordinates Obtained by Inverse Iteration

 Displacement from previous Coordinates is:  0.009245
 ----------------------------------------------------------------
             Standard Nuclear Orientation (Angstroms)
    I     Atom           X                Y                Z
 ----------------------------------------------------------------
    1      C       1.3037529473     0.2520841170     0.3280775169
    2      C       0.5915594510    -1.0049136563    -0.2092460803
    3      C      -0.6521193976    -0.3968966450    -0.9050186827
    4      C      -1.0962484132     0.1941191817     0.4039889715
    5      C      -0.4552817161     1.1111015311    -0.6553156344
    6      N       0.8875912852     1.4247711619    -0.3430432341
    7      H       2.3211172133     0.1925561323     0.6989071112
    8      H       1.0926564829    -1.9412742986    -0.4276580212
    9      H      -1.2281375258    -0.8061315569    -1.7274461659
   10      H      -2.0897512145     0.3389827218     0.8132855182
   11      H      -1.0548513130     1.8408387526    -1.1882384732
   12      C       0.1480427155    -0.4129451366     1.0997136363
   13      H       0.2316694850    -0.7922923052     2.1119935378
 ----------------------------------------------------------------
 Nuclear Repulsion Energy =   288.0412748122 hartrees
 There are       25 alpha and       24 beta electrons
 Applying Cartesian multipole field
    Component          Value
    ---------          -----
     (2,0,0)        1.00000E-11
     (0,2,0)        2.00000E-11
     (0,0,2)       -3.00000E-11
 Nucleus-field energy     =     0.0000000013 hartrees
 Requested basis set is 6-31G(d)
 There are 40 shells and 117 basis functions
 A cutoff of  1.0D-14 yielded    812 shell pairs
 There are      7084 function pairs
 Smallest overlap matrix eigenvalue = 1.00E-03
 Guess MOs from SCF MO coefficient file
 Reading MOs from coefficient file
 Reading MOs from coefficient file
 An unrestricted hybrid HF-DFT SCF calculation will be
 performed using Pulay DIIS extrapolation
 Exchange:     0.2000 Hartree-Fock + 0.0800 Slater + 0.7200 B88
 Correlation:  0.1900 VWN1RPA + 0.8100 LYP
 Using SG-1 standard quadrature grid
 SCF converges when DIIS error is below 1.0E-08
 Geometry optimization detected.  Setting ReadMinima to 0
 Setting SaveMinima to 0
Using Q-Chem read-in guess as SCF_GUESS READ specified.

 using 4 threads for integral computing
 -------------------------------------------------------
 OpenMP Integral computing Module                
 Release: version 1.0, May 2013, Q-Chem Inc. Pittsburgh 
 -------------------------------------------------------
 -------------------------------------------------------
 OpenMP BLAS3 based DFT computing Module                
 Release: version 1.0, May 2013, Q-Chem Inc. Pittsburgh 
 -------------------------------------------------------
 ---------------------------------------
  Cycle       Energy         DIIS Error
 ---------------------------------------
    1    -286.8251110011      4.93E-05
    2    -286.8249851711      8.88E-06
    3    -286.8249851991      8.96E-06
    4    -286.8249853299      1.79E-06
    5    -286.8249853357      3.60E-07
    6    -286.8249853361      2.50E-07
    7    -286.8249853363      5.37E-08
    8    -286.8249853363      3.55E-08
    9    -286.8249853363      1.04E-08
   10    -286.8249853363      4.14E-09 Convergence criterion met
 ---------------------------------------
 <S^2> = 0.7558
 SCF time:  CPU 25.84 s  wall 18.34 s
 SCF   energy in the final basis set = -286.82498534
 Total energy in the final basis set = -286.82498534
 
 --------------------------------------------------------------
 
                    Orbital Energies (a.u.)
 --------------------------------------------------------------
 
 Alpha MOs
 -- Occupied --
-14.335 -10.215 -10.215 -10.207 -10.207 -10.207 -10.206  -0.986
 -0.837  -0.793  -0.649  -0.588  -0.574  -0.542  -0.533  -0.455
 -0.427  -0.415  -0.395  -0.384  -0.337  -0.275  -0.274  -0.248
 -0.212
 -- Virtual --
  0.090   0.094   0.117   0.147   0.150   0.156   0.167   0.180
  0.184   0.197   0.217   0.251   0.255   0.302   0.364   0.378
  0.477   0.520   0.537   0.541   0.562   0.565   0.574   0.608
  0.621   0.630   0.676   0.728   0.729   0.742   0.743   0.781
  0.786   0.801   0.828   0.831   0.848   0.856   0.918   0.938
  0.983   1.005   1.137   1.161   1.195   1.235   1.399   1.455
  1.490   1.538   1.622   1.629   1.653   1.658   1.667   1.691
  1.754   1.824   1.854   1.942   1.967   1.974   1.978   1.984
  2.043   2.128   2.134   2.242   2.273   2.404   2.412   2.489
  2.516   2.522   2.536   2.560   2.570   2.638   2.710   2.719
  2.757   2.769   2.837   2.881   2.932   3.847   4.233   4.317
  4.370   4.460   4.639   4.673
 
 Beta MOs
 -- Occupied --
-14.319 -10.217 -10.216 -10.205 -10.205 -10.205 -10.205  -0.976
 -0.811  -0.789  -0.644  -0.585  -0.568  -0.537  -0.529  -0.453
 -0.423  -0.392  -0.389  -0.378  -0.322  -0.269  -0.257  -0.244
 -- Virtual --
 -0.078   0.091   0.101   0.120   0.147   0.152   0.157   0.176
  0.182   0.188   0.202   0.225   0.259   0.259   0.302   0.367
  0.384   0.479   0.522   0.540   0.542   0.568   0.568   0.576
  0.613   0.621   0.639   0.679   0.732   0.733   0.743   0.782
  0.787   0.794   0.801   0.830   0.839   0.849   0.857   0.919
  0.944   1.003   1.007   1.141   1.164   1.205   1.236   1.401
  1.474   1.507   1.541   1.626   1.634   1.658   1.661   1.691
  1.697   1.759   1.827   1.858   1.947   1.970   1.979   1.982
  1.987   2.058   2.130   2.156   2.247   2.282   2.403   2.431
  2.502   2.523   2.529   2.541   2.565   2.603   2.640   2.714
  2.721   2.760   2.772   2.839   2.887   2.938   3.873   4.239
  4.320   4.370   4.462   4.641   4.676
 --------------------------------------------------------------
 
          Ground-State Mulliken Net Atomic Charges

     Atom                 Charge (a.u.)    Spin (a.u.)
  --------------------------------------------------------
      1 C                    -0.044907      -0.080315
      2 C                    -0.124633       0.089575
      3 C                    -0.125080       0.089430
      4 C                    -0.124659       0.088976
      5 C                    -0.044698      -0.080267
      6 N                    -0.285894       0.811493
      7 H                     0.149316       0.001045
      8 H                     0.144027      -0.002506
      9 H                     0.144020      -0.002504
     10 H                     0.143984      -0.002470
     11 H                     0.149315       0.001043
     12 C                    -0.124738       0.088968
     13 H                     0.143947      -0.002470
  --------------------------------------------------------
  Sum of atomic charges =     0.000000
  Sum of spin   charges =     1.000000

 -----------------------------------------------------------------
                    Cartesian Multipole Moments
 -----------------------------------------------------------------
    Charge (ESU x 10^10)
                -0.0000
    Dipole Moment (Debye)
         X      -1.2039      Y      -1.9312      Z       0.4662
       Tot       2.3230
    Quadrupole Moments (Debye-Ang)
        XX     -38.4298     XY      -4.1510     YY     -43.2966
        XZ       2.2395     YZ       0.3066     ZZ     -38.8901
    Octopole Moments (Debye-Ang^2)
       XXX     -10.8678    XXY      -7.7978    XYY      -8.4053
       YYY     -25.1659    XXZ       3.8550    XYZ       1.7093
       YYZ      -0.0653    XZZ      -6.1644    YZZ      -7.8593
       ZZZ       6.0388
    Hexadecapole Moments (Debye-Ang^3)
      XXXX    -226.5714   XXXY      -7.2606   XXYY     -82.5503
      XYYY     -19.0368   YYYY    -236.4735   XXXZ     -11.4702
      XXYZ       8.1488   XYYZ      -0.3862   YYYZ      19.6723
      XXZZ     -65.8631   XYZZ      -1.9026   YYZZ     -64.0235
      XZZZ     -12.1898   YZZZ      15.3060   ZZZZ    -164.0849
 -----------------------------------------------------------------
 Calculating analytic gradient of the SCF energy
 Gradient of SCF Energy
            1           2           3           4           5           6
    1   0.0000000  -0.0001642   0.0000851   0.0000100  -0.0000690   0.0000268
    2   0.0000988  -0.0001200   0.0000160   0.0000332   0.0000020  -0.0001072
    3  -0.0001152  -0.0000342   0.0000663  -0.0000219   0.0000818   0.0000029
            7           8           9          10          11          12
    1   0.0000043  -0.0000057   0.0000209  -0.0000041  -0.0000148   0.0001253
    2  -0.0000262  -0.0000264   0.0000260  -0.0000410  -0.0000072   0.0001109
    3  -0.0000456   0.0000605  -0.0000219   0.0000092  -0.0000314   0.0000514
           13
    1  -0.0000146
    2   0.0000411
    3  -0.0000017
 Max gradient component =       1.642E-04
 RMS gradient           =       6.144E-05
 Gradient time:  CPU 7.98 s  wall 3.38 s
 Geometry Optimization Parameters
   NAtoms,    NIC,     NZ,  NCons,   NDum,   NFix, NCnnct, MaxDiis
       13     151       0       0       0       0       0       0

 Cartesian Hessian Update
 Hessian Updated using BFGS Update


** GEOMETRY OPTIMIZATION IN DELOCALIZED INTERNAL COORDINATES **
   Searching for a Minimum

   Optimization Cycle:   3

                       Coordinates (Angstroms)
     ATOM                X               Y               Z
      1  C         1.3037529473    0.2520841170    0.3280775169
      2  C         0.5915594510   -1.0049136563   -0.2092460803
      3  C        -0.6521193976   -0.3968966450   -0.9050186827
      4  C        -1.0962484132    0.1941191817    0.4039889715
      5  C        -0.4552817161    1.1111015311   -0.6553156344
      6  N         0.8875912852    1.4247711619   -0.3430432341
      7  H         2.3211172133    0.1925561323    0.6989071112
      8  H         1.0926564829   -1.9412742986   -0.4276580212
      9  H        -1.2281375258   -0.8061315569   -1.7274461659
     10  H        -2.0897512145    0.3389827218    0.8132855182
     11  H        -1.0548513130    1.8408387526   -1.1882384732
     12  C         0.1480427155   -0.4129451366    1.0997136363
     13  H         0.2316694850   -0.7922923052    2.1119935378
   Point Group: c1    Number of degrees of freedom:    33


   Energy is   -286.824985336

 Hessian Updated using BFGS Update

 33 Hessian modes will be used to form the next step
  Hessian Eigenvalues:
     0.009892    0.013745    0.015784    0.017594    0.018914    0.020005
     0.021695    0.026166    0.040339    0.056344    0.064495    0.066059
     0.077600    0.084410    0.087250    0.115088    0.137704    0.139144
     0.142209    0.165304    0.197810    0.215607    0.258022    0.261731
     0.297788    0.354532    0.354619    0.354777    0.354853    0.354899
     0.356073    0.380785    0.385436

 Minimum Search - Taking Simple RFO Step
 Searching for Lamda that Minimizes Along All modes
 Value Taken    Lamda =   0.00000000
 Step Taken.  Stepsize is  0.006321

                             Maximum     Tolerance    Cnvgd?
         Gradient           0.000117      0.000600     YES
         Displacement       0.005295      0.002400      NO
         Energy change     -0.000001      0.000002     YES


                       Distance Matrix (Angstroms)
             C (  1)   C (  2)   C (  3)   C (  4)   C (  5)   N (  6)
   C (  2)  1.541421
   C (  3)  2.401487  1.549362
   C (  4)  2.401901  2.159267  1.503347
   C (  5)  2.190702  2.402577  1.541154  1.540721
   N (  6)  1.413785  2.451307  2.450510  2.451159  1.413934
   H (  7)  1.084476  2.291298  3.429310  3.430068  3.222737  2.158474
   H (  8)  2.329489  1.084239  2.378491  3.169045  3.430006  3.373348
   H (  9)  3.428625  2.378181  1.084277  2.358159  2.328638  3.371914
   H ( 10)  3.429118  3.168762  2.358150  1.084231  2.329044  3.373515
   H ( 11)  3.222789  3.430365  2.291259  2.290980  1.084439  2.158831
   C ( 12)  1.540569  1.503499  2.158580  1.549458  2.401426  2.450649
   H ( 13)  2.328614  2.358576  3.168562  2.377741  3.428237  3.372360
             H (  7)   H (  8)   H (  9)   H ( 10)   H ( 11)   C ( 12)
   H (  8)  2.707674
   H (  9)  4.413817  2.892072
   H ( 10)  4.414780  4.106974  2.917016
   H ( 11)  4.204202  4.415275  2.706885  2.707894
   C ( 12)  2.291185  2.358167  3.168801  2.378058  3.429464
   H ( 13)  2.707865  2.917411  4.107618  2.890574  4.413621  1.084255

 
 Final energy is   -286.824985336285     


 ******************************
 **  OPTIMIZATION CONVERGED  **
 ******************************

                       Coordinates (Angstroms)
     ATOM                X               Y               Z
      1  C         1.3037529473    0.2520841170    0.3280775169
      2  C         0.5915594510   -1.0049136563   -0.2092460803
      3  C        -0.6521193976   -0.3968966450   -0.9050186827
      4  C        -1.0962484132    0.1941191817    0.4039889715
      5  C        -0.4552817161    1.1111015311   -0.6553156344
      6  N         0.8875912852    1.4247711619   -0.3430432341
      7  H         2.3211172133    0.1925561323    0.6989071112
      8  H         1.0926564829   -1.9412742986   -0.4276580212
      9  H        -1.2281375258   -0.8061315569   -1.7274461659
     10  H        -2.0897512145    0.3389827218    0.8132855182
     11  H        -1.0548513130    1.8408387526   -1.1882384732
     12  C         0.1480427155   -0.4129451366    1.0997136363
     13  H         0.2316694850   -0.7922923052    2.1119935378

Z-matrix Print:
$molecule
0 2
N 
C  1 1.413785
H  2 1.084476 1 118.946572
C  1 1.413934 2 101.560027 3 179.992102 0
H  4 1.084439 1 118.969920 2 -179.994047 0
C  2 1.540569 1 112.024523 3 148.313988 0
H  6 1.084255 2 124.111035 1 -135.324674 0
C  6 1.503499 2 60.830058 1 103.060275 0
H  8 1.084239 6 130.672843 2 111.512639 0
C  4 1.540721 1 112.042624 2 31.680049 0
H  10 1.084231 4 124.140957 1 135.441373 0
C  10 1.503347 4 60.818144 1 -102.991436 0
H  12 1.084277 10 130.683884 4 -111.438405 0
$end

 
 --------------------------------------------------------------
 
                    Orbital Energies (a.u.)
 --------------------------------------------------------------
 
 Alpha MOs
 -- Occupied --
-14.335 -10.215 -10.215 -10.207 -10.207 -10.207 -10.206  -0.986
 -0.837  -0.793  -0.649  -0.588  -0.574  -0.542  -0.533  -0.455
 -0.427  -0.415  -0.395  -0.384  -0.337  -0.275  -0.274  -0.248
 -0.212
 -- Virtual --
  0.090   0.094   0.117   0.147   0.150   0.156   0.167   0.180
  0.184   0.197   0.217   0.251   0.255   0.302   0.364   0.378
  0.477   0.520   0.537   0.541   0.562   0.565   0.574   0.608
  0.621   0.630   0.676   0.728   0.729   0.742   0.743   0.781
  0.786   0.801   0.828   0.831   0.848   0.856   0.918   0.938
  0.983   1.005   1.137   1.161   1.195   1.235   1.399   1.455
  1.490   1.538   1.622   1.629   1.653   1.658   1.667   1.691
  1.754   1.824   1.854   1.942   1.967   1.974   1.978   1.984
  2.043   2.128   2.134   2.242   2.273   2.404   2.412   2.489
  2.516   2.522   2.536   2.560   2.570   2.638   2.710   2.719
  2.757   2.769   2.837   2.881   2.932   3.847   4.233   4.317
  4.370   4.460   4.639   4.673
 
 Beta MOs
 -- Occupied --
-14.319 -10.217 -10.216 -10.205 -10.205 -10.205 -10.205  -0.976
 -0.811  -0.789  -0.644  -0.585  -0.568  -0.537  -0.529  -0.453
 -0.423  -0.392  -0.389  -0.378  -0.322  -0.269  -0.257  -0.244
 -- Virtual --
 -0.078   0.091   0.101   0.120   0.147   0.152   0.157   0.176
  0.182   0.188   0.202   0.225   0.259   0.259   0.302   0.367
  0.384   0.479   0.522   0.540   0.542   0.568   0.568   0.576
  0.613   0.621   0.639   0.679   0.732   0.733   0.743   0.782
  0.787   0.794   0.801   0.830   0.839   0.849   0.857   0.919
  0.944   1.003   1.007   1.141   1.164   1.205   1.236   1.401
  1.474   1.507   1.541   1.626   1.634   1.658   1.661   1.691
  1.697   1.759   1.827   1.858   1.947   1.970   1.979   1.982
  1.987   2.058   2.130   2.156   2.247   2.282   2.403   2.431
  2.502   2.523   2.529   2.541   2.565   2.603   2.640   2.714
  2.721   2.760   2.772   2.839   2.887   2.938   3.873   4.239
  4.320   4.370   4.462   4.641   4.676
 --------------------------------------------------------------
 
          Ground-State Mulliken Net Atomic Charges

     Atom                 Charge (a.u.)    Spin (a.u.)
  --------------------------------------------------------
      1 C                    -0.044907      -0.080315
      2 C                    -0.124633       0.089575
      3 C                    -0.125080       0.089430
      4 C                    -0.124659       0.088976
      5 C                    -0.044698      -0.080267
      6 N                    -0.285894       0.811493
      7 H                     0.149316       0.001045
      8 H                     0.144027      -0.002506
      9 H                     0.144020      -0.002504
     10 H                     0.143984      -0.002470
     11 H                     0.149315       0.001043
     12 C                    -0.124738       0.088968
     13 H                     0.143947      -0.002470
  --------------------------------------------------------
  Sum of atomic charges =     0.000000
  Sum of spin   charges =     1.000000

 -----------------------------------------------------------------
                    Cartesian Multipole Moments
 -----------------------------------------------------------------
    Charge (ESU x 10^10)
                -0.0000
    Dipole Moment (Debye)
         X      -1.2039      Y      -1.9312      Z       0.4662
       Tot       2.3230
    Quadrupole Moments (Debye-Ang)
        XX     -38.4298     XY      -4.1510     YY     -43.2966
        XZ       2.2395     YZ       0.3066     ZZ     -38.8901
    Octopole Moments (Debye-Ang^2)
       XXX     -10.8678    XXY      -7.7978    XYY      -8.4053
       YYY     -25.1659    XXZ       3.8550    XYZ       1.7093
       YYZ      -0.0653    XZZ      -6.1644    YZZ      -7.8593
       ZZZ       6.0388
    Hexadecapole Moments (Debye-Ang^3)
      XXXX    -226.5714   XXXY      -7.2606   XXYY     -82.5503
      XYYY     -19.0368   YYYY    -236.4735   XXXZ     -11.4702
      XXYZ       8.1488   XYYZ      -0.3862   YYYZ      19.6723
      XXZZ     -65.8631   XYZZ      -1.9026   YYZZ     -64.0235
      XZZZ     -12.1898   YZZZ      15.3060   ZZZZ    -164.0849
 -----------------------------------------------------------------
Archival summary:
1\1\c8-66\OPT\ProcedureUnspecified\6-31G*\166(2)\hpark21\TueMar121:54:512022TueMar121:54:512022\0\\#,OPT,ProcedureUnspecified,6-31G*,\\0,2\N\C,1,1.41379\H,2,1.08448,1,118.947\C,1,1.41393,2,101.56,3,179.992,0\H,4,1.08444,1,118.97,2,-179.994,0\C,2,1.54057,1,112.025,3,148.314,0\H,6,1.08425,2,124.111,1,-135.325,0\C,6,1.5035,2,60.8301,1,103.06,0\H,8,1.08424,6,130.673,2,111.513,0\C,4,1.54072,1,112.043,2,31.68,0\H,10,1.08423,4,124.141,1,135.441,0\C,10,1.50335,4,60.8181,1,-102.991,0\H,12,1.08428,10,130.684,4,-111.438,0\\\@

 Total job time:  68.78s(wall), 85.11s(cpu) 
 Tue Mar  1 21:54:51 2022

        *************************************************************
        *                                                           *
        *  Thank you very much for using Q-Chem.  Have a nice day.  *
        *                                                           *
        *************************************************************


