13   
From optimize.out: Frame 1 / 3, Energy=    -286.8249802177
C       -0.0448840000   -0.0803800000    0.0000000000
C       -0.1253000000    0.0900020000   -0.0000000000
C       -0.1246380000    0.0901430000   -0.0000000000
C       -0.1250670000    0.0882730000    0.0000000000
C       -0.0447790000   -0.0803380000   -0.0000000000
N       -0.2858890000    0.8112160000   -0.0000000000
H        0.1493390000    0.0010430000    0.0000000000
H        0.1440380000   -0.0025460000   -0.0000000000
H        0.1441570000   -0.0025440000   -0.0000000000
H        0.1439600000   -0.0024370000    0.0000000000
H        0.1492760000    0.0010500000   -0.0000000000
C       -0.1240910000    0.0889740000    0.0000000000
H        0.1438770000   -0.0024540000    0.0000000000
13   
From optimize.out: Frame 2 / 3, Energy=    -286.8249843035
C       -0.0449200000   -0.0803600000    0.0000000000
C       -0.1250280000    0.0898360000   -0.0000000000
C       -0.1247710000    0.0898150000   -0.0000000000
C       -0.1250060000    0.0885960000    0.0000000000
C       -0.0447050000   -0.0802930000   -0.0000000000
N       -0.2858910000    0.8113280000   -0.0000000000
H        0.1493190000    0.0010440000    0.0000000000
H        0.1440270000   -0.0025270000   -0.0000000000
H        0.1440840000   -0.0025330000   -0.0000000000
H        0.1439650000   -0.0024440000    0.0000000000
H        0.1492990000    0.0010460000   -0.0000000000
C       -0.1242950000    0.0889550000    0.0000000000
H        0.1439220000   -0.0024640000    0.0000000000
