13   
From optimize.out: Frame 1 / 39, Energy=    -286.6215490992
C        0.0447140000   -0.1428090000   -0.0000000000
C       -0.0935090000    0.1858170000   -0.0000000000
C       -0.2147810000    0.1341690000   -0.0000000000
C       -0.1181250000    0.0719900000   -0.0000000000
C       -0.1032730000   -0.2406950000   -0.0000000000
N       -0.3542070000    1.0256490000   -0.0000000000
H        0.1349740000    0.0293200000   -0.0000000000
H        0.1393630000   -0.0070990000   -0.0000000000
H        0.1760750000   -0.0014350000   -0.0000000000
H        0.1887910000   -0.0051730000    0.0000000000
H        0.1934970000    0.0087200000   -0.0000000000
C       -0.0819520000   -0.0545910000   -0.0000000000
H        0.0884340000   -0.0038630000   -0.0000000000
13   
From optimize.out: Frame 2 / 39, Energy=    -286.7124679355
C        0.0247940000   -0.1657090000   -0.0000000000
C       -0.0855870000    0.2978870000   -0.0000000000
C       -0.2278670000    0.0145970000   -0.0000000000
C       -0.0945250000    0.0965520000   -0.0000000000
C       -0.0561140000   -0.0376840000   -0.0000000000
N       -0.3598600000    0.7730160000   -0.0000000000
H        0.1377440000    0.0188610000   -0.0000000000
H        0.1520250000   -0.0147160000   -0.0000000000
H        0.1666620000    0.0076620000   -0.0000000000
H        0.1726830000   -0.0037300000   -0.0000000000
H        0.1756740000    0.0218530000   -0.0000000000
C       -0.0979590000   -0.0210090000   -0.0000000000
H        0.0923300000    0.0124200000   -0.0000000000
13   
From optimize.out: Frame 3 / 39, Energy=    -286.7708650409
C        0.0272910000   -0.2058690000   -0.0000000000
C       -0.0880340000    0.4173630000   -0.0000000000
C       -0.2062640000   -0.0395700000   -0.0000000000
C       -0.0810950000    0.0074900000   -0.0000000000
C       -0.0956870000   -0.0027690000   -0.0000000000
N       -0.3369460000    0.7180220000   -0.0000000000
H        0.1365870000    0.0074760000   -0.0000000000
H        0.1444520000   -0.0209760000   -0.0000000000
H        0.1661660000    0.0137070000   -0.0000000000
H        0.1612350000   -0.0007450000   -0.0000000000
H        0.1650360000    0.0242790000   -0.0000000000
C       -0.1005560000    0.0611000000   -0.0000000000
H        0.1078160000    0.0204910000   -0.0000000000
13   
From optimize.out: Frame 4 / 39, Energy=    -286.8083226351
C        0.0380970000   -0.2239380000   -0.0000000000
C       -0.1001130000    0.5225660000   -0.0000000000
C       -0.2026850000   -0.0427070000   -0.0000000000
C       -0.0767770000    0.0141650000   -0.0000000000
C       -0.0928790000   -0.0131440000   -0.0000000000
N       -0.3414960000    0.6558910000   -0.0000000000
H        0.1424250000    0.0073310000   -0.0000000000
H        0.1383820000   -0.0254550000   -0.0000000000
H        0.1620110000    0.0175520000   -0.0000000000
H        0.1541100000   -0.0004750000   -0.0000000000
H        0.1615080000    0.0256580000   -0.0000000000
C       -0.0993760000    0.0475790000   -0.0000000000
H        0.1167940000    0.0149780000   -0.0000000000
13   
From optimize.out: Frame 5 / 39, Energy=    -286.8331168540
C        0.0492560000   -0.2362790000   -0.0000000000
C       -0.1068250000    0.6115120000   -0.0000000000
C       -0.1896160000   -0.0471820000   -0.0000000000
C       -0.0711380000    0.0137160000   -0.0000000000
C       -0.0975750000   -0.0184990000   -0.0000000000
N       -0.3484140000    0.6039810000   -0.0000000000
H        0.1396980000    0.0076480000   -0.0000000000
H        0.1347670000   -0.0289180000   -0.0000000000
H        0.1610880000    0.0212250000   -0.0000000000
H        0.1497410000   -0.0003300000   -0.0000000000
H        0.1580550000    0.0207380000   -0.0000000000
C       -0.1046530000    0.0415090000   -0.0000000000
H        0.1256140000    0.0108800000   -0.0000000000
13   
From optimize.out: Frame 6 / 39, Energy=    -286.8461344379
C        0.0413940000   -0.2284290000   -0.0000000000
C       -0.1125560000    0.6388340000   -0.0000000000
C       -0.1995290000   -0.0509010000   -0.0000000000
C       -0.0778190000    0.0058830000   -0.0000000000
C       -0.0737660000   -0.0177500000   -0.0000000000
N       -0.3356320000    0.5488080000   -0.0000000000
H        0.1411630000    0.0075150000   -0.0000000000
H        0.1396160000   -0.0300040000   -0.0000000000
H        0.1529390000    0.0211110000   -0.0000000000
H        0.1462310000    0.0011820000   -0.0000000000
H        0.1564010000    0.0307560000   -0.0000000000
C       -0.1072360000    0.0631250000   -0.0000000000
H        0.1287930000    0.0098700000   -0.0000000000
13   
From optimize.out: Frame 7 / 39, Energy=    -286.8583437179
C        0.0552790000   -0.2281230000   -0.0000000000
C       -0.1191520000    0.7105060000   -0.0000000000
C       -0.1985330000   -0.0546860000   -0.0000000000
C       -0.0729310000    0.0214590000   -0.0000000000
C       -0.0668940000   -0.0211800000   -0.0000000000
N       -0.3527680000    0.5101260000   -0.0000000000
H        0.1421290000    0.0073050000   -0.0000000000
H        0.1380860000   -0.0329730000   -0.0000000000
H        0.1528920000    0.0231630000   -0.0000000000
H        0.1423820000    0.0012830000   -0.0000000000
H        0.1539650000    0.0210540000   -0.0000000000
C       -0.1072560000    0.0356310000   -0.0000000000
H        0.1328010000    0.0064370000   -0.0000000000
13   
From optimize.out: Frame 8 / 39, Energy=    -286.8657620342
C        0.0479570000   -0.2325620000   -0.0000000000
C       -0.1181640000    0.7097010000   -0.0000000000
C       -0.1900020000   -0.0547110000   -0.0000000000
C       -0.0708950000    0.0223030000   -0.0000000000
C       -0.0712470000   -0.0232360000   -0.0000000000
N       -0.3446450000    0.5096400000   -0.0000000000
H        0.1392300000    0.0074840000   -0.0000000000
H        0.1406390000   -0.0327260000   -0.0000000000
H        0.1526490000    0.0243090000   -0.0000000000
H        0.1391680000    0.0018620000   -0.0000000000
H        0.1512190000    0.0236340000   -0.0000000000
C       -0.1101170000    0.0373310000   -0.0000000000
H        0.1342090000    0.0069700000   -0.0000000000
13   
From optimize.out: Frame 9 / 39, Energy=    -286.8702601867
C        0.0455570000   -0.2363830000   -0.0000000000
C       -0.1130410000    0.7063360000   -0.0000000000
C       -0.1914700000   -0.0539030000   -0.0000000000
C       -0.0681440000    0.0279880000   -0.0000000000
C       -0.0698430000   -0.0248420000   -0.0000000000
N       -0.3491410000    0.5149890000   -0.0000000000
H        0.1396180000    0.0076990000   -0.0000000000
H        0.1437480000   -0.0326280000   -0.0000000000
H        0.1515040000    0.0245580000   -0.0000000000
H        0.1378430000    0.0024070000   -0.0000000000
H        0.1509060000    0.0218770000   -0.0000000000
C       -0.1107120000    0.0354180000   -0.0000000000
H        0.1331750000    0.0064850000   -0.0000000000
13   
From optimize.out: Frame 10 / 39, Energy=    -286.8727708038
C        0.0490610000   -0.2307730000   -0.0000000000
C       -0.1170810000    0.7193460000   -0.0000000000
C       -0.1957750000   -0.0561330000   -0.0000000000
C       -0.0726770000    0.0281520000   -0.0000000000
C       -0.0647180000   -0.0243890000   -0.0000000000
N       -0.3470390000    0.4962990000   -0.0000000000
H        0.1403640000    0.0074510000   -0.0000000000
H        0.1435340000   -0.0332150000   -0.0000000000
H        0.1499220000    0.0250250000   -0.0000000000
H        0.1374450000    0.0028300000   -0.0000000000
H        0.1516690000    0.0233580000   -0.0000000000
C       -0.1084060000    0.0350610000   -0.0000000000
H        0.1337010000    0.0069880000   -0.0000000000
13   
From optimize.out: Frame 11 / 39, Energy=    -286.8744749078
C        0.0484190000   -0.2324990000   -0.0000000000
C       -0.1182030000    0.7096690000   -0.0000000000
C       -0.1922820000   -0.0543480000   -0.0000000000
C       -0.0745630000    0.0336120000   -0.0000000000
C       -0.0585150000   -0.0281200000   -0.0000000000
N       -0.3515900000    0.5070670000   -0.0000000000
H        0.1408460000    0.0074790000   -0.0000000000
H        0.1435800000   -0.0327740000   -0.0000000000
H        0.1505270000    0.0263430000   -0.0000000000
H        0.1370820000    0.0034530000   -0.0000000000
H        0.1509930000    0.0240970000   -0.0000000000
C       -0.1105640000    0.0295410000   -0.0000000000
H        0.1342700000    0.0064790000   -0.0000000000
13   
From optimize.out: Frame 22 / 39, Energy=    -286.8745180275
C        0.0486030000   -0.2331760000   -0.0000000000
C       -0.1178210000    0.6944890000   -0.0000000000
C       -0.1919190000   -0.0524800000   -0.0000000000
C       -0.0741420000    0.0369580000   -0.0000000000
C       -0.0595650000   -0.0295330000   -0.0000000000
N       -0.3520480000    0.5207590000   -0.0000000000
H        0.1400800000    0.0075520000   -0.0000000000
H        0.1435390000   -0.0322790000   -0.0000000000
H        0.1491280000    0.0263390000   -0.0000000000
H        0.1380170000    0.0036500000   -0.0000000000
H        0.1517130000    0.0239500000   -0.0000000000
C       -0.1098270000    0.0272340000   -0.0000000000
H        0.1342420000    0.0065380000   -0.0000000000
13   
From optimize.out: Frame 23 / 39, Energy=    -286.8749310570
C        0.0483290000   -0.2323950000   -0.0000000000
C       -0.1174840000    0.6975470000   -0.0000000000
C       -0.1924010000   -0.0529490000   -0.0000000000
C       -0.0754880000    0.0351380000   -0.0000000000
C       -0.0605070000   -0.0288470000   -0.0000000000
N       -0.3512870000    0.5173770000   -0.0000000000
H        0.1397600000    0.0075350000   -0.0000000000
H        0.1437890000   -0.0324880000   -0.0000000000
H        0.1485540000    0.0258700000   -0.0000000000
H        0.1378030000    0.0036880000   -0.0000000000
H        0.1520160000    0.0238730000   -0.0000000000
C       -0.1070920000    0.0291510000   -0.0000000000
H        0.1340090000    0.0065000000   -0.0000000000
13   
From optimize.out: Frame 24 / 39, Energy=    -286.8751422996
C        0.0483370000   -0.2315010000   -0.0000000000
C       -0.1167280000    0.6972050000   -0.0000000000
C       -0.1930530000   -0.0531080000   -0.0000000000
C       -0.0760540000    0.0342610000   -0.0000000000
C       -0.0610060000   -0.0285500000   -0.0000000000
N       -0.3511000000    0.5165340000   -0.0000000000
H        0.1397990000    0.0075000000   -0.0000000000
H        0.1438090000   -0.0324660000   -0.0000000000
H        0.1484910000    0.0256680000   -0.0000000000
H        0.1376730000    0.0037020000   -0.0000000000
H        0.1519800000    0.0241570000   -0.0000000000
C       -0.1057300000    0.0300940000   -0.0000000000
H        0.1335830000    0.0065050000   -0.0000000000
13   
From optimize.out: Frame 25 / 39, Energy=    -286.8752513348
C        0.0484380000   -0.2309050000   -0.0000000000
C       -0.1158920000    0.6952520000   -0.0000000000
C       -0.1936300000   -0.0531140000   -0.0000000000
C       -0.0762030000    0.0340260000   -0.0000000000
C       -0.0612790000   -0.0285540000   -0.0000000000
N       -0.3511980000    0.5173300000   -0.0000000000
H        0.1400490000    0.0074690000   -0.0000000000
H        0.1436860000   -0.0323470000   -0.0000000000
H        0.1485760000    0.0256890000   -0.0000000000
H        0.1375340000    0.0037090000   -0.0000000000
H        0.1519050000    0.0244820000   -0.0000000000
C       -0.1051680000    0.0304320000   -0.0000000000
H        0.1331820000    0.0065310000   -0.0000000000
13   
From optimize.out: Frame 26 / 39, Energy=    -286.8753109145
C        0.0485020000   -0.2306680000   -0.0000000000
C       -0.1152950000    0.6936740000   -0.0000000000
C       -0.1939630000   -0.0531280000   -0.0000000000
C       -0.0763510000    0.0340490000   -0.0000000000
C       -0.0614050000   -0.0286670000   -0.0000000000
N       -0.3513050000    0.5181440000   -0.0000000000
H        0.1403310000    0.0074500000   -0.0000000000
H        0.1435590000   -0.0322440000   -0.0000000000
H        0.1485860000    0.0258170000   -0.0000000000
H        0.1373850000    0.0037300000   -0.0000000000
H        0.1518940000    0.0246660000   -0.0000000000
C       -0.1049200000    0.0306200000   -0.0000000000
H        0.1329810000    0.0065570000   -0.0000000000
13   
From optimize.out: Frame 27 / 39, Energy=    -286.8753513847
C        0.0484880000   -0.2306550000   -0.0000000000
C       -0.1149550000    0.6930380000   -0.0000000000
C       -0.1940760000   -0.0532060000   -0.0000000000
C       -0.0766380000    0.0341560000   -0.0000000000
C       -0.0614240000   -0.0287530000   -0.0000000000
N       -0.3513410000    0.5182770000   -0.0000000000
H        0.1405670000    0.0074400000   -0.0000000000
H        0.1434910000   -0.0321870000   -0.0000000000
H        0.1484940000    0.0259550000   -0.0000000000
H        0.1372450000    0.0037610000   -0.0000000000
H        0.1519520000    0.0246890000   -0.0000000000
C       -0.1047570000    0.0308960000   -0.0000000000
H        0.1329540000    0.0065900000   -0.0000000000
13   
From optimize.out: Frame 28 / 39, Energy=    -286.8753787708
C        0.0484060000   -0.2307610000   -0.0000000000
C       -0.1148670000    0.6933540000   -0.0000000000
C       -0.1939890000   -0.0533450000   -0.0000000000
C       -0.0769550000    0.0342100000   -0.0000000000
C       -0.0613910000   -0.0287410000   -0.0000000000
N       -0.3513030000    0.5176950000   -0.0000000000
H        0.1406880000    0.0074380000   -0.0000000000
H        0.1435160000   -0.0321830000   -0.0000000000
H        0.1483400000    0.0260240000   -0.0000000000
H        0.1371600000    0.0037880000   -0.0000000000
H        0.1520120000    0.0246140000   -0.0000000000
C       -0.1046680000    0.0312760000   -0.0000000000
H        0.1330510000    0.0066320000   -0.0000000000
13   
From optimize.out: Frame 29 / 39, Energy=    -286.8753991710
C        0.0482870000   -0.2308930000   -0.0000000000
C       -0.1149290000    0.6940920000   -0.0000000000
C       -0.1937890000   -0.0535090000   -0.0000000000
C       -0.0771480000    0.0341570000   -0.0000000000
C       -0.0613710000   -0.0286270000   -0.0000000000
N       -0.3512370000    0.5168350000   -0.0000000000
H        0.1407130000    0.0074390000   -0.0000000000
H        0.1435960000   -0.0322090000   -0.0000000000
H        0.1481830000    0.0260040000   -0.0000000000
H        0.1371300000    0.0037920000   -0.0000000000
H        0.1520510000    0.0245230000   -0.0000000000
C       -0.1046610000    0.0317100000   -0.0000000000
H        0.1331750000    0.0066860000   -0.0000000000
13   
From optimize.out: Frame 30 / 39, Energy=    -286.8754156359
C        0.0481770000   -0.2310070000   -0.0000000000
C       -0.1150410000    0.6947430000   -0.0000000000
C       -0.1935640000   -0.0536630000   -0.0000000000
C       -0.0771220000    0.0339570000   -0.0000000000
C       -0.0614180000   -0.0284430000   -0.0000000000
N       -0.3511910000    0.5161800000   -0.0000000000
H        0.1406820000    0.0074410000   -0.0000000000
H        0.1436860000   -0.0322360000   -0.0000000000
H        0.1480590000    0.0259110000   -0.0000000000
H        0.1371480000    0.0037660000   -0.0000000000
H        0.1520440000    0.0244920000   -0.0000000000
C       -0.1047290000    0.0321160000   -0.0000000000
H        0.1332680000    0.0067430000   -0.0000000000
13   
From optimize.out: Frame 31 / 39, Energy=    -286.8754306210
C        0.0481080000   -0.2310820000   -0.0000000000
C       -0.1151470000    0.6950300000   -0.0000000000
C       -0.1933770000   -0.0537870000   -0.0000000000
C       -0.0768590000    0.0336180000   -0.0000000000
C       -0.0615470000   -0.0282220000   -0.0000000000
N       -0.3511850000    0.5159660000   -0.0000000000
H        0.1406330000    0.0074420000   -0.0000000000
H        0.1437360000   -0.0322470000   -0.0000000000
H        0.1479790000    0.0257730000   -0.0000000000
H        0.1371960000    0.0037110000   -0.0000000000
H        0.1520080000    0.0245430000   -0.0000000000
C       -0.1048450000    0.0324600000   -0.0000000000
H        0.1333000000    0.0067950000   -0.0000000000
13   
From optimize.out: Frame 32 / 39, Energy=    -286.8754440897
C        0.0480910000   -0.2311250000   -0.0000000000
C       -0.1151980000    0.6948370000   -0.0000000000
C       -0.1932840000   -0.0538570000   -0.0000000000
C       -0.0764370000    0.0332100000   -0.0000000000
C       -0.0617230000   -0.0280210000   -0.0000000000
N       -0.3512220000    0.5162820000   -0.0000000000
H        0.1405960000    0.0074430000   -0.0000000000
H        0.1437190000   -0.0322340000   -0.0000000000
H        0.1479470000    0.0256280000   -0.0000000000
H        0.1372640000    0.0036410000   -0.0000000000
H        0.1519370000    0.0246830000   -0.0000000000
C       -0.1049650000    0.0326820000   -0.0000000000
H        0.1332740000    0.0068310000   -0.0000000000
13   
From optimize.out: Frame 33 / 39, Energy=    -286.8754549893
C        0.0481260000   -0.2311130000   -0.0000000000
C       -0.1151830000    0.6943250000   -0.0000000000
C       -0.1933100000   -0.0538710000   -0.0000000000
C       -0.0760300000    0.0328510000   -0.0000000000
C       -0.0618730000   -0.0278870000   -0.0000000000
N       -0.3512690000    0.5168580000   -0.0000000000
H        0.1405820000    0.0074420000   -0.0000000000
H        0.1436330000   -0.0322000000   -0.0000000000
H        0.1479560000    0.0255160000   -0.0000000000
H        0.1373320000    0.0035810000   -0.0000000000
H        0.1518630000    0.0248630000   -0.0000000000
C       -0.1050340000    0.0327900000   -0.0000000000
H        0.1332080000    0.0068460000   -0.0000000000
13   
From optimize.out: Frame 34 / 39, Energy=    -286.8754625793
C        0.0481660000   -0.2310760000   -0.0000000000
C       -0.1151040000    0.6938160000   -0.0000000000
C       -0.1934220000   -0.0538530000   -0.0000000000
C       -0.0758080000    0.0326580000   -0.0000000000
C       -0.0619300000   -0.0278400000   -0.0000000000
N       -0.3512990000    0.5173340000   -0.0000000000
H        0.1405890000    0.0074400000   -0.0000000000
H        0.1435310000   -0.0321660000   -0.0000000000
H        0.1479840000    0.0254540000   -0.0000000000
H        0.1373890000    0.0035530000   -0.0000000000
H        0.1517850000    0.0250180000   -0.0000000000
C       -0.1050380000    0.0328200000   -0.0000000000
H        0.1331560000    0.0068430000   -0.0000000000
13   
From optimize.out: Frame 35 / 39, Energy=    -286.8754674787
C        0.0482000000   -0.2310020000   -0.0000000000
C       -0.1150060000    0.6935480000   -0.0000000000
C       -0.1935490000   -0.0538430000   -0.0000000000
C       -0.0757850000    0.0326090000   -0.0000000000
C       -0.0619090000   -0.0278320000   -0.0000000000
N       -0.3513000000    0.5174360000   -0.0000000000
H        0.1405910000    0.0074380000   -0.0000000000
H        0.1434530000   -0.0321470000   -0.0000000000
H        0.1480070000    0.0254210000   -0.0000000000
H        0.1374300000    0.0035530000   -0.0000000000
H        0.1517360000    0.0251040000   -0.0000000000
C       -0.1050060000    0.0328760000   -0.0000000000
H        0.1331370000    0.0068400000   -0.0000000000
13   
From optimize.out: Frame 36 / 39, Energy=    -286.8754711746
C        0.0482080000   -0.2309360000   -0.0000000000
C       -0.1148900000    0.6934290000   -0.0000000000
C       -0.1936570000   -0.0538490000   -0.0000000000
C       -0.0758610000    0.0326370000   -0.0000000000
C       -0.0618480000   -0.0278310000   -0.0000000000
N       -0.3513030000    0.5173420000   -0.0000000000
H        0.1405860000    0.0074370000   -0.0000000000
H        0.1434130000   -0.0321400000   -0.0000000000
H        0.1480230000    0.0253910000   -0.0000000000
H        0.1374640000    0.0035700000   -0.0000000000
H        0.1516890000    0.0251440000   -0.0000000000
C       -0.1049820000    0.0329650000   -0.0000000000
H        0.1331570000    0.0068420000   -0.0000000000
13   
From optimize.out: Frame 37 / 39, Energy=    -286.8754746048
C        0.0482190000   -0.2308350000   -0.0000000000
C       -0.1147680000    0.6933570000   -0.0000000000
C       -0.1937360000   -0.0538750000   -0.0000000000
C       -0.0759630000    0.0326530000   -0.0000000000
C       -0.0617950000   -0.0278040000   -0.0000000000
N       -0.3513160000    0.5171290000   -0.0000000000
H        0.1405650000    0.0074350000   -0.0000000000
H        0.1433910000   -0.0321410000   -0.0000000000
H        0.1480280000    0.0253450000   -0.0000000000
H        0.1374900000    0.0035880000   -0.0000000000
H        0.1516630000    0.0251580000   -0.0000000000
C       -0.1049760000    0.0331350000   -0.0000000000
H        0.1331970000    0.0068560000   -0.0000000000
13   
From optimize.out: Frame 38 / 39, Energy=    -286.8754776030
C        0.0482180000   -0.2307650000   -0.0000000000
C       -0.1146420000    0.6932120000   -0.0000000000
C       -0.1937670000   -0.0539090000   -0.0000000000
C       -0.0760180000    0.0326280000   -0.0000000000
C       -0.0617790000   -0.0277610000   -0.0000000000
N       -0.3513620000    0.5170510000   -0.0000000000
H        0.1405430000    0.0074340000   -0.0000000000
H        0.1433850000   -0.0321410000   -0.0000000000
H        0.1480300000    0.0252910000   -0.0000000000
H        0.1375030000    0.0036010000   -0.0000000000
H        0.1516330000    0.0251700000   -0.0000000000
C       -0.1049990000    0.0333160000   -0.0000000000
H        0.1332560000    0.0068740000   -0.0000000000
