13   
From optimize.out: Frame 1 / 39, Energy=    -286.6215490992
C        1.6635253014    0.2046191745   -2.1738293404
C        1.1294992475   -0.9476444980   -2.0180176036
C       -0.3206920500   -1.2033723640   -2.3305309782
C       -1.4313206952    0.4383775738   -0.5607329269
C       -0.8428386840    0.8498777909   -1.9379606984
N        0.9099379984    1.4249888288   -2.6280303480
H        2.6560750120    0.2879166356   -1.6615618354
H        1.7105044980   -1.7087239090   -1.4901458289
H       -0.8892840155   -1.9115029975   -2.8556221968
H       -2.2978293574    0.8825793414    0.0242809710
H       -1.1581432316    1.5073155898   -2.7372822991
C       -1.1411433008   -0.8380537758   -1.0181720119
H       -1.7343986081   -1.6553047355   -0.3903048957
13   
From optimize.out: Frame 2 / 39, Energy=    -286.7124679355
C        1.5203036330    0.2475502266   -2.0666138183
C        1.0843116715   -0.9680695154   -2.0274878443
C       -0.3587390488   -1.2038530913   -2.3267939387
C       -1.2706249792    0.4489531027   -0.6357649731
C       -0.7128084810    0.7579534633   -2.0435444797
N        0.5841535319    1.3730461157   -2.3015942886
H        2.5175157461    0.4031766414   -1.5937862626
H        1.7145033428   -1.7507860835   -1.5974430045
H       -0.9346184383   -1.8721612861   -2.9091182845
H       -2.0702243606    0.9772399714   -0.0496281923
H       -1.0182078475    1.3907653156   -2.8674845717
C       -1.1005716473   -0.8606312808   -1.0179544207
H       -1.7011010080   -1.6121109245   -0.3406959133
13   
From optimize.out: Frame 3 / 39, Energy=    -286.7708650409
C        1.5157368253    0.2748514443   -1.9737399559
C        1.0559271907   -0.9516500309   -2.0485863549
C       -0.4007950739   -1.1597527349   -2.3039580304
C       -1.2148461112    0.4583529991   -0.7121801071
C       -0.7390176920    0.6918607051   -2.1569752024
N        0.5669698661    1.3678672073   -1.9861676012
H        2.5307827609    0.4014995097   -1.5487135871
H        1.6990643555   -1.7726956522   -1.7239834166
H       -0.9645260955   -1.8159385512   -2.9277340137
H       -1.9774146129    1.0122874618   -0.1283847323
H       -1.1108540880    1.2582541529   -3.0077169529
C       -1.0770607850   -0.8649585972   -0.9992459725
H       -1.6300744254   -1.5689052588   -0.2605240654
13   
From optimize.out: Frame 4 / 39, Energy=    -286.8083226351
C        1.5460086008    0.2945835283   -1.9657201175
C        1.0535829623   -0.9467635664   -2.0454019559
C       -0.4204665107   -1.0926922702   -2.2405123365
C       -1.2459430628    0.4360730106   -0.7253451086
C       -0.7046977213    0.6634387565   -2.1399206172
N        0.5914494501    1.3096886168   -1.9516307776
H        2.5725413478    0.4638827639   -1.6148448606
H        1.6888804278   -1.7958102648   -1.7876628158
H       -0.9616549184   -1.7405405202   -2.9107677761
H       -2.0180920174    0.9864596004   -0.1854523968
H       -1.0702255812    1.2040039031   -3.0169579037
C       -1.1126114529   -0.8802693084   -0.9531369466
H       -1.6648794095   -1.5709815947   -0.2405563794
13   
From optimize.out: Frame 5 / 39, Energy=    -286.8331168540
C        1.5505927370    0.3159984001   -1.9407162662
C        1.0486199255   -0.9454724453   -2.0490541695
C       -0.4330569805   -1.0317107349   -2.1958276211
C       -1.2738740212    0.4196003130   -0.7412425014
C       -0.6734972353    0.6052452970   -2.1289054871
N        0.6346777938    1.3154161721   -1.9162437206
H        2.5876426824    0.5023230695   -1.6568184617
H        1.6736080101   -1.8203822452   -1.8648658185
H       -0.9470389135   -1.6576039919   -2.9193699038
H       -2.0417104584    0.9938722645   -0.2352950370
H       -1.0394143840    1.1132699308   -3.0260081761
C       -1.1471606292   -0.8998734923   -0.9013495144
H       -1.6854964121   -1.5796098825   -0.2022133147
13   
From optimize.out: Frame 6 / 39, Energy=    -286.8461344379
C        1.5425188949    0.2942549880   -1.9129036042
C        1.0786694569   -0.9897341610   -2.0563801737
C       -0.4039440250   -0.9871551068   -2.1755591228
C       -1.2908694114    0.4413330855   -0.7590360229
C       -0.6686936880    0.6218761482   -2.1303052091
N        0.5835516315    1.2204916611   -1.8845343426
H        2.5724320804    0.5404619264   -1.6599075569
H        1.6921904548   -1.8817397839   -1.9256469247
H       -0.9047447876   -1.5922175637   -2.9318587919
H       -2.0631552502    1.0205732255   -0.2668635518
H       -1.0727965700    1.0957859215   -3.0284054842
C       -1.1491462788   -0.8848178887   -0.8689711104
H       -1.6621203928   -1.5680397970   -0.1775380972
13   
From optimize.out: Frame 7 / 39, Energy=    -286.8583437179
C        1.5761630705    0.3020586700   -1.9148454961
C        1.0747375555   -0.9931361281   -2.0379361941
C       -0.4180835503   -0.9552323398   -2.1489382195
C       -1.3302519444    0.4191086264   -0.7752237892
C       -0.6654696924    0.6327763617   -2.1080686649
N        0.6615596452    1.2381966652   -1.9628182044
H        2.6103688788    0.5500752078   -1.6908749343
H        1.6627400723   -1.8994931559   -1.9080136943
H       -0.8747250954   -1.5650137917   -2.9395779824
H       -2.0943911611    1.0052165172   -0.2892074827
H       -1.1047985428    1.1087306501   -2.9897484858
C       -1.1760911215   -0.9080153218   -0.8424996877
H       -1.6678659998   -1.6041993062   -0.1701571569
13   
From optimize.out: Frame 8 / 39, Energy=    -286.8657620342
C        1.5672883103    0.3087703989   -1.9005493993
C        1.0753232187   -1.0026458912   -2.0351361098
C       -0.4169984004   -0.9476534906   -2.1257283686
C       -1.3528352237    0.4102395546   -0.8014030949
C       -0.6164603754    0.6169911239   -2.1059424551
N        0.6651910051    1.2737176812   -1.9264940910
H        2.6113137273    0.5567884223   -1.7214928264
H        1.6649772387   -1.9113587362   -1.9551231423
H       -0.8664224862   -1.5419969648   -2.9337647392
H       -2.0959357641    1.0355282852   -0.3250927813
H       -1.1047074924    1.0728878184   -2.9730613730
C       -1.2005567051   -0.9160530112   -0.8223239012
H       -1.6762849381   -1.6241425357   -0.1517977103
13   
From optimize.out: Frame 9 / 39, Energy=    -286.8702601867
C        1.5664366482    0.3000305839   -1.8751598186
C        1.0765579449   -1.0169233184   -2.0142433469
C       -0.4082069080   -0.9354695184   -2.1415890684
C       -1.3668448973    0.4097983157   -0.8237470177
C       -0.6333329373    0.6193842060   -2.1337589287
N        0.6728432982    1.2820887788   -1.9585025349
H        2.6089539914    0.5491284364   -1.6885339966
H        1.6555894894   -1.9309026614   -1.9291934342
H       -0.8592085614   -1.5244323925   -2.9524865448
H       -2.0537003428    1.0655897352   -0.3017577792
H       -1.1764901738    1.0752423078   -2.9662521276
C       -1.2034052105   -0.9136268041   -0.8368082119
H       -1.6253002263   -1.6488350142   -0.1558771828
13   
From optimize.out: Frame 10 / 39, Energy=    -286.8727708038
C        1.5751044280    0.3060822513   -1.8869771905
C        1.0831484505   -1.0192874089   -1.9913575496
C       -0.4083727245   -0.9575646863   -2.1318914063
C       -1.3942156280    0.4110616900   -0.8320626560
C       -0.6177638906    0.6354993547   -2.1216031508
N        0.6810252494    1.2763623652   -1.9613201616
H        2.6218506915    0.5676059699   -1.7450788761
H        1.6749602693   -1.9238905517   -1.9147522778
H       -0.8130588656   -1.5649645680   -2.9546286124
H       -2.0211420679    1.1017048495   -0.2761998234
H       -1.1943220302    1.0959900940   -2.9318610937
C       -1.2605099593   -0.9204407563   -0.8448136055
H       -1.6728118080   -1.6770859483   -0.1853635885
13   
From optimize.out: Frame 11 / 39, Energy=    -286.8744749078
C        1.5778571323    0.3027003990   -1.8966934374
C        1.0763906815   -1.0174124596   -1.9549149766
C       -0.4070528872   -0.9353137229   -2.1225372328
C       -1.4244894789    0.4067542548   -0.8381535068
C       -0.6199296722    0.6240760585   -2.1186717396
N        0.6785536331    1.2733873477   -1.9821799750
H        2.6296989950    0.5608052096   -1.7759873066
H        1.6645753057   -1.9232757668   -1.8723720132
H       -0.8119645305   -1.4983907173   -2.9739275745
H       -2.0072184806    1.1095789580   -0.2473712807
H       -1.1794410696    1.0704710334   -2.9494351687
C       -1.2771488756   -0.9278737316   -0.8509137368
H       -1.6459386382   -1.7144342078   -0.1947520435
13   
From optimize.out: Frame 22 / 39, Energy=    -286.8745180275
C        1.5655911800    0.3037342701   -1.8938302654
C        1.0717342692   -1.0115191614   -1.9243965467
C       -0.4130766952   -0.9435709847   -2.1256431490
C       -1.4268567120    0.4073621785   -0.8464094594
C       -0.6293184225    0.6157104786   -2.1395908016
N        0.6630479696    1.2771264962   -1.9914390686
H        2.6205364627    0.5599314548   -1.7857688660
H        1.6613269247   -1.9144849976   -1.7824395119
H       -0.7946446379   -1.5130066922   -2.9874007230
H       -1.9525500099    1.1507254458   -0.2504228334
H       -1.1845229038    1.0534247123   -2.9768420395
C       -1.2879458710   -0.9219790165   -0.8544709659
H       -1.6394294391   -1.7323815288   -0.2192557619
13   
From optimize.out: Frame 23 / 39, Energy=    -286.8749310570
C        1.5604762920    0.3035231262   -1.8866864638
C        1.0697256821   -1.0136019238   -1.9353451518
C       -0.4159619944   -0.9426153740   -2.1293299372
C       -1.4322690431    0.4138277392   -0.8562679406
C       -0.6303101814    0.6166237162   -2.1446552484
N        0.6618979654    1.2783244765   -1.9904900793
H        2.6130070881    0.5608631731   -1.7722991648
H        1.6635578449   -1.9141343645   -1.7867915859
H       -0.7927563683   -1.5233711246   -2.9852268043
H       -1.9394051697    1.1426077413   -0.2319848567
H       -1.1824088777    1.0470040517   -2.9860987706
C       -1.2836214259   -0.9144805296   -0.8533634257
H       -1.6380396973   -1.7234980526   -0.2193705632
13   
From optimize.out: Frame 24 / 39, Energy=    -286.8751422996
C        1.5591406430    0.3018295001   -1.8837568751
C        1.0685149340   -1.0139850831   -1.9423156549
C       -0.4154498962   -0.9421902749   -2.1321152529
C       -1.4358269535    0.4184704734   -0.8646909432
C       -0.6309705952    0.6183325171   -2.1473235992
N        0.6626090827    1.2770785178   -1.9914975576
H        2.6096893299    0.5592658366   -1.7597063502
H        1.6633623594   -1.9123418731   -1.7897453722
H       -0.7945312004   -1.5307392364   -2.9800277302
H       -1.9343756996    1.1352686668   -0.2218169568
H       -1.1860731342    1.0455173674   -2.9893915944
C       -1.2787964876   -0.9094668634   -0.8561159363
H       -1.6334002676   -1.7159668934   -0.2194061692
13   
From optimize.out: Frame 25 / 39, Energy=    -286.8752513348
C        1.5599650795    0.3004231730   -1.8836509106
C        1.0678205814   -1.0130299512   -1.9453746447
C       -0.4138286631   -0.9422532821   -2.1336550459
C       -1.4373445225    0.4202846700   -0.8697164271
C       -0.6312474786    0.6202666162   -2.1493724437
N        0.6636117320    1.2754161269   -1.9928403954
H        2.6092291241    0.5572237152   -1.7499130061
H        1.6615052504   -1.9099249900   -1.7918928322
H       -0.7983184874   -1.5353624967   -2.9744591099
H       -1.9334184544    1.1298124911   -0.2167033349
H       -1.1900188208    1.0463405802   -2.9911171206
C       -1.2755558175   -0.9075506004   -0.8603429612
H       -1.6285074082   -1.7105733972   -0.2188717601
13   
From optimize.out: Frame 26 / 39, Energy=    -286.8753109145
C        1.5611723081    0.3001554295   -1.8841611582
C        1.0674625791   -1.0117023946   -1.9459353944
C       -0.4126325093   -0.9423934333   -2.1343664525
C       -1.4374169342    0.4199429973   -0.8716569456
C       -0.6312546096    0.6218387533   -2.1516710969
N        0.6640623199    1.2744867147   -1.9938020035
H        2.6097244326    0.5563032528   -1.7428631056
H        1.6591296579   -1.9083729633   -1.7943016807
H       -0.8019103526   -1.5380867155   -2.9704168296
H       -1.9329200575    1.1267633271   -0.2137700617
H       -1.1919283420    1.0473171851   -2.9937094750
C       -1.2746252501   -0.9078113745   -0.8638880727
H       -1.6249711277   -1.7073681234   -0.2173677159
13   
From optimize.out: Frame 27 / 39, Energy=    -286.8753513847
C        1.5619563410    0.3008437412   -1.8840565106
C        1.0672857743   -1.0105469524   -1.9456688919
C       -0.4121234774   -0.9423249922   -2.1349509118
C       -1.4367583742    0.4187567581   -0.8719777391
C       -0.6311297480    0.6229187346   -2.1545221029
N        0.6639078037    1.2743263440   -1.9947019679
H        2.6099371057    0.5566963103   -1.7364406417
H        1.6566447369   -1.9082807396   -1.7979673376
H       -0.8046824767   -1.5400816984   -2.9677809622
H       -1.9315592361    1.1251842617   -0.2116843172
H       -1.1921122371    1.0477290260   -2.9972378092
C       -1.2751708638   -0.9088492324   -0.8662513337
H       -1.6223032336   -1.7052989057   -0.2146694664
13   
From optimize.out: Frame 28 / 39, Energy=    -286.8753787708
C        1.5619197865    0.3019972342   -1.8829586169
C        1.0672587637   -1.0099542610   -1.9453137142
C       -0.4122646058   -0.9420637230   -2.1356311623
C       -1.4360038681    0.4178348273   -0.8717939646
C       -0.6310780390    0.6232674250   -2.1572360573
N        0.6632618321    1.2747455222   -1.9955112533
H        2.6093598524    0.5581180875   -1.7305588290
H        1.6546707595   -1.9097326376   -1.8027323612
H       -0.8058942076   -1.5416000487   -2.9667175236
H       -1.9291622361    1.1249336080   -0.2102279316
H       -1.1913109975    1.0473697979   -3.0008279106
C       -1.2765623765   -0.9096526389   -0.8671414515
H       -1.6203025488   -1.7041905379   -0.2112592161
13   
From optimize.out: Frame 29 / 39, Energy=    -286.8753991710
C        1.5612637452    0.3030794385   -1.8812134328
C        1.0673124094   -1.0098712701   -1.9452740681
C       -0.4127246839   -0.9418217473   -2.1363822489
C       -1.4354646490    0.4177340942   -0.8718283653
C       -0.6312261967    0.6229832124   -2.1593598050
N        0.6623269361    1.2752873012   -1.9961080088
H        2.6080554190    0.5599319344   -1.7248246998
H        1.6533054441   -1.9120946908   -1.8085238212
H       -0.8058187019   -1.5429803280   -2.9666124642
H       -1.9264846246    1.1254385359   -0.2096358473
H       -1.1902128681    1.0465334986   -3.0036415332
C       -1.2780131343   -0.9097200887   -0.8669616070
H       -1.6184269805   -1.7034272354   -0.2075440907
13   
From optimize.out: Frame 30 / 39, Energy=    -286.8754156359
C        1.5603156867    0.3037323126   -1.8793526077
C        1.0673217996   -1.0101024009   -1.9454338665
C       -0.4132593914   -0.9418649842   -2.1369677058
C       -1.4353872417    0.4184691700   -0.8724671461
C       -0.6316732132    0.6222658187   -2.1605620293
N        0.6612843382    1.2756336953   -1.9962079008
H        2.6063885722    0.5615514089   -1.7194998182
H        1.6525511076   -1.9145331686   -1.8148752864
H       -0.8047933601   -1.5443013174   -2.9670157425
H       -1.9240965590    1.1265199119   -0.2097619120
H       -1.1892070368    1.0455252708   -3.0054944217
C       -1.2791705242   -0.9090735897   -0.8662330431
H       -1.6163820632   -1.7027494724   -0.2040385124
13   
From optimize.out: Frame 31 / 39, Energy=    -286.8754306210
C        1.5593591053    0.3038169773   -1.8777310829
C        1.0671774385   -1.0104482528   -1.9457211946
C       -0.4137415699   -0.9423242050   -2.1371470561
C       -1.4358091508    0.4197717767   -0.8736340646
C       -0.6324061356    0.6213047204   -2.1608928726
N        0.6602156715    1.2755545637   -1.9955248517
H        2.6046705111    0.5626391318   -1.7145239156
H        1.6522524923   -1.9165006945   -1.8219125688
H       -0.8033066513   -1.5455830746   -2.9674879347
H       -1.9226436742    1.1279882870   -0.2108467713
H       -1.1882463210    1.0445534747   -3.0064366831
C       -1.2797378161   -0.9079187374   -0.8652505030
H       -1.6138917850   -1.7017813124   -0.2008004934
13   
From optimize.out: Frame 32 / 39, Energy=    -286.8754440897
C        1.5586106560    0.3033415991   -1.8765879751
C        1.0667627961   -1.0107682304   -1.9458905610
C       -0.4141305393   -0.9431757698   -2.1367482675
C       -1.4368133555    0.4211073634   -0.8750851389
C       -0.6333148571    0.6203550504   -2.1604997947
N        0.6592604654    1.2750692835   -1.9940122149
H        2.6032746945    0.5629083053   -1.7104128503
H        1.6523048835   -1.9174927115   -1.8289655895
H       -0.8017940257   -1.5465990344   -2.9678265325
H       -1.9223929754    1.1298129922   -0.2125653074
H       -1.1872575980    1.0437823800   -3.0069114827
C       -1.2796360955   -0.9067005085   -0.8642867987
H       -1.6109819344   -1.7005680644   -0.1981174793
13   
From optimize.out: Frame 33 / 39, Energy=    -286.8754549893
C        1.5581985188    0.3025158075   -1.8759209445
C        1.0661389167   -1.0109729113   -1.9459964033
C       -0.4143874366   -0.9441075110   -2.1358640194
C       -1.4381900194    0.4219219691   -0.8762534887
C       -0.6341067312    0.6196971150   -2.1598584905
N        0.6585911155    1.2742804513   -1.9918998524
H        2.6024878405    0.5623312166   -1.7075546995
H        1.6525816473   -1.9174060227   -1.8352315754
H       -0.8008453716   -1.5471688069   -2.9677670440
H       -1.9235578597    1.1316106517   -0.2147676861
H       -1.1862028050    1.0433521692   -3.0072274291
C       -1.2788036991   -0.9058333381   -0.8634618376
H       -1.6080120016   -1.6991481353   -0.1961065218
13   
From optimize.out: Frame 34 / 39, Energy=    -286.8754625793
C        1.5580188160    0.3017517868   -1.8753948259
C        1.0654704151   -1.0110843430   -1.9460224797
C       -0.4145663708   -0.9447519698   -2.1349695850
C       -1.4396199296    0.4219611655   -0.8768582982
C       -0.6345804570    0.6194820692   -2.1594771365
N        0.6582621308    1.2736181410   -1.9899622014
H        2.6022480750    0.5612654797   -1.7059631245
H        1.6529445883   -1.9166904171   -1.8397755111
H       -0.8006312878   -1.5473612414   -2.9674047687
H       -1.9252774812    1.1331535154   -0.2165766299
H       -1.1852039694    1.0432891240   -3.0078902473
C       -1.2777214330   -0.9055610353   -0.8628689596
H       -1.6054509817   -1.6979996202   -0.1947462244
13   
From optimize.out: Frame 35 / 39, Energy=    -286.8754674787
C        1.5578827768    0.3012642543   -1.8746834668
C        1.0649931378   -1.0111538363   -1.9462412520
C       -0.4146907018   -0.9449328892   -2.1344614663
C       -1.4407444636    0.4215858384   -0.8769457230
C       -0.6347375774    0.6195898180   -2.1595817808
N        0.6581692544    1.2731848606   -1.9885311821
H        2.6022536057    0.5601629608   -1.7050144168
H        1.6533626673   -1.9160152444   -1.8428952323
H       -0.8010185322   -1.5475190913   -2.9668023208
H       -1.9270071154    1.1341890563   -0.2180062536
H       -1.1843866511    1.0435103258   -3.0087108947
C       -1.2766975617   -0.9056029050   -0.8623747858
H       -1.6034867241   -1.6971904930   -0.1936612172
13   
From optimize.out: Frame 36 / 39, Energy=    -286.8754711746
C        1.5576617706    0.3010147231   -1.8736626533
C        1.0646847434   -1.0112386939   -1.9465825530
C       -0.4148341711   -0.9448098755   -2.1344137368
C       -1.4416626139    0.4211725261   -0.8769262545
C       -0.6347934073    0.6198509748   -2.1599679764
N        0.6581525906    1.2730507960   -1.9876682110
H        2.6022460076    0.5590959976   -1.7042379983
H        1.6538772866   -1.9155665189   -1.8451374270
H       -0.8016697169   -1.5478974612   -2.9661456332
H       -1.9283484215    1.1349611592   -0.2189360952
H       -1.1836852165    1.0439890143   -3.0096798817
C       -1.2759527837   -0.9057041291   -0.8619233108
H       -1.6017839532   -1.6968458574   -0.1926282610
13   
From optimize.out: Frame 37 / 39, Energy=    -286.8754746048
C        1.5573408255    0.3008471492   -1.8723367724
C        1.0645547293   -1.0113189506   -1.9472145335
C       -0.4149853358   -0.9444886087   -2.1346855980
C       -1.4424688249    0.4209912581   -0.8769860824
C       -0.6348599536    0.6201650949   -2.1605008050
N        0.6581347830    1.2729671765   -1.9868839111
H        2.6022069534    0.5579300346   -1.7033896444
H        1.6546279355   -1.9152917417   -1.8473273686
H       -0.8025974366   -1.5486452142   -2.9652674533
H       -1.9297743212    1.1354884582   -0.2200085850
H       -1.1829592500    1.0447691160   -3.0105269115
C       -1.2753267445   -0.9056246342   -0.8613821758
H       -1.6000012455   -1.6967164831   -0.1914001515
13   
From optimize.out: Frame 38 / 39, Energy=    -286.8754776030
C        1.5570122171    0.3007342715   -1.8710486248
C        1.0645442203   -1.0113814645   -1.9478766985
C       -0.4151586522   -0.9441642186   -2.1351250300
C       -1.4431845980    0.4211269072   -0.8773311354
C       -0.6350206637    0.6204619790   -2.1608888738
N        0.6580810703    1.2730115363   -1.9862771119
H        2.6021757376    0.5567182685   -1.7027379814
H        1.6555292333   -1.9150565125   -1.8490424702
H       -0.8036415201   -1.5496550042   -2.9643373544
H       -1.9310627124    1.1357943815   -0.2209030547
H       -1.1821407437    1.0458474126   -3.0112021728
C       -1.2750314211   -0.9053833800   -0.8608929045
H       -1.5982100527   -1.6969815217   -0.1902465799
