13   
Frame   0 IRC: Energy =  -286.9461863524 ; +0.0000 kcal/mol
C        1.4298808355   -0.5162862668   -0.3197533289
C        0.4658761785   -1.3310214299    0.3755321344
C       -0.8117936186   -0.9840348135    0.7083348647
C       -1.4667160937    0.2701948990    0.4345863168
C       -0.9557545905    1.3814119512   -0.2130057634
N        0.2475122713    1.6539441195   -0.7738801079
H        2.4031032228   -0.9672164975   -0.4959803541
H        0.8017911517   -2.3257568506    0.6597651267
H       -1.4072674929   -1.7254740750    1.2361544740
H       -2.4937680354    0.3611577897    0.7788881065
H       -1.6471128029    2.2209528728   -0.3007546193
C        1.2776924928    0.7748223881   -0.7958691563
H        2.1565564808    1.1873059136   -1.2940176927
13   
Frame   1 IRC: Energy =  -286.9461857454 ; +0.0004 kcal/mol
C        1.4297000534   -0.5164210407   -0.3200262660
C        0.4661658368   -1.3307342730    0.3762926416
C       -0.8117511353   -0.9840712439    0.7084216889
C       -1.4672223742    0.2696156832    0.4331343514
C       -0.9554465753    1.3816996733   -0.2121007459
N        0.2483398221    1.6548513785   -0.7720862313
H        2.4024308375   -0.9678168975   -0.4976904883
H        0.8024807190   -2.3250269485    0.6616059318
H       -1.4069967033   -1.7252092784    1.2369140356
H       -2.4948268697    0.3600096521    0.7758879455
H       -1.6465282415    2.2215355606   -0.2991605852
C        1.2775101876    0.7748746200   -0.7960182343
H        2.1561444429    1.1866931144   -1.2951740436
13   
Frame   2 IRC: Energy =  -286.9461832224 ; +0.0020 kcal/mol
C        1.4296664817   -0.5169898017   -0.3211298519
C        0.4667805512   -1.3296947794    0.3778372536
C       -0.8118117881   -0.9840884385    0.7081479520
C       -1.4685423187    0.2687637557    0.4305376996
C       -0.9552186394    1.3820393840   -0.2107720107
N        0.2500688718    1.6559166462   -0.7676973895
H        2.4010360503   -0.9699577895   -0.5019715288
H        0.8039913864   -2.3228577069    0.6662213357
H       -1.4064097058   -1.7249518458    1.2377232612
H       -2.4970556916    0.3578823074    0.7708773739
H       -1.6454366967    2.2226899368   -0.2966805020
C        1.2775244865    0.7750637440   -0.7959708632
H        2.1554070124    1.1861845875   -1.2971227298
13   
Frame   3 IRC: Energy =  -286.9461790983 ; +0.0046 kcal/mol
C        1.4297686892   -0.5177017297   -0.3220296419
C        0.4671533470   -1.3288051824    0.3784396035
C       -0.8119891097   -0.9841294186    0.7077282765
C       -1.4692905878    0.2686582684    0.4294373894
C       -0.9554033307    1.3821966827   -0.2097899798
N        0.2515342638    1.6561220112   -0.7643225931
H        2.4002313544   -0.9717776556   -0.5047386960
H        0.8049475157   -2.3211654055    0.6691731814
H       -1.4060777544   -1.7249775778    1.2378352340
H       -2.4983891122    0.3567126186    0.7684544983
H       -1.6451263788    2.2231033434   -0.2963506198
C        1.2779304456    0.7757279961   -0.7950005478
H        2.1547106579    1.1860360493   -1.2988361047
13   
Frame   4 IRC: Energy =  -286.9461636994 ; +0.0142 kcal/mol
C        1.4273269557   -0.5215896213   -0.3285685767
C        0.4665805133   -1.3289179974    0.3755955713
C       -0.8108987020   -0.9830607096    0.7108507792
C       -1.4682076096    0.2705597576    0.4317341845
C       -0.9578322046    1.3807003524   -0.2117570923
N        0.2541113481    1.6559307459   -0.7608109176
H        2.3978052265   -0.9756303558   -0.5109810754
H        0.8044400847   -2.3211938111    0.6669186590
H       -1.4037282526   -1.7224983388    1.2440733047
H       -2.4977621264    0.3571118576    0.7703186103
H       -1.6486618557    2.2194034846   -0.3067840366
C        1.2780192015    0.7774529488   -0.7934030923
H        2.1588074212    1.1917316870   -1.2871863180
13   
Frame   5 IRC: Energy =  -286.9461224163 ; +0.0401 kcal/mol
C        1.4260042558   -0.5242149667   -0.3301602937
C        0.4654514113   -1.3306158112    0.3697721411
C       -0.8103079781   -0.9826742553    0.7139590340
C       -1.4655783165    0.2738238259    0.4370534483
C       -0.9615714068    1.3783174636   -0.2149986582
N        0.2554031237    1.6541116034   -0.7647724143
H        2.3981253296   -0.9757964011   -0.5095118490
H        0.8022494816   -2.3245309913    0.6571646332
H       -1.4031678659   -1.7209583626    1.2484311020
H       -2.4940641072    0.3609091931    0.7792291548
H       -1.6533987852    2.2147018288   -0.3190685904
C        1.2784353776    0.7812986146   -0.7891423394
H        2.1624194802    1.1956282586   -1.2779553684
13   
Frame   6 IRC: Energy =  -286.9460097675 ; +0.1108 kcal/mol
C        1.4247174976   -0.5242878607   -0.3265937638
C        0.4635084326   -1.3333298195    0.3632600636
C       -0.8080694255   -0.9822825116    0.7206573682
C       -1.4611170389    0.2780153621    0.4444399379
C       -0.9657535620    1.3735338151   -0.2207731822
N        0.2548788337    1.6515735881   -0.7799644574
H        2.3981004447   -0.9723055735   -0.5070916469
H        0.7947487841   -2.3334087247    0.6362283458
H       -1.4010203686   -1.7195432937    1.2557192086
H       -2.4865782014    0.3695865917    0.7946477914
H       -1.6600078150    2.2059493270   -0.3356281507
C        1.2761671862    0.7854671266   -0.7873974289
H        2.1704252326    1.2010319731   -1.2575040856
13   
Frame   7 IRC: Energy =  -286.9458718770 ; +0.1973 kcal/mol
C        1.4300321282   -0.5188767840   -0.3080972870
C        0.4644394479   -1.3320407211    0.3637392382
C       -0.8101049060   -0.9851739200    0.7167686034
C       -1.4595163426    0.2794715263    0.4466952150
C       -0.9674850826    1.3717423885   -0.2203061561
N        0.2507327890    1.6435130114   -0.8014191222
H        2.4053950260   -0.9632723448   -0.4860695367
H        0.7896879029   -2.3376286609    0.6244624021
H       -1.4053658477   -1.7268271925    1.2423825960
H       -2.4804285023    0.3773148711    0.8086564043
H       -1.6568820131    2.2088690730   -0.3263682588
C        1.2727368645    0.7871152619   -0.7914552383
H        2.1667585360    1.1957934912   -1.2689888598
13   
Frame   8 IRC: Energy =  -286.9454989491 ; +0.4314 kcal/mol
C        1.4470802425   -0.5038978089   -0.2608799245
C        0.4711962099   -1.3229113242    0.3721988472
C       -0.8242292793   -0.9960429032    0.6843514889
C       -1.4621287621    0.2785366217    0.4447237488
C       -0.9647111656    1.3774692765   -0.2014977878
N        0.2361311498    1.6162935002   -0.8438638014
H        2.4336888116   -0.9348015190   -0.4064518308
H        0.7945675215   -2.3295607878    0.6328119836
H       -1.4278779757   -1.7534896563    1.1761315376
H       -2.4742132081    0.3843889850    0.8296662472
H       -1.6290270753    2.2383894207   -0.2606452590
C        1.2609197890    0.7787678478   -0.8214197942
H        2.1386037416    1.1668583475   -1.3451254554
13   
Frame   9 IRC: Energy =  -286.9448860696 ; +0.8159 kcal/mol
C        1.4613037934   -0.4860131787   -0.2167008660
C        0.4779718059   -1.3124197450    0.3814431669
C       -0.8380616420   -1.0062013905    0.6472590259
C       -1.4661235424    0.2764304202    0.4402575389
C       -0.9590396517    1.3840169262   -0.1812902833
N        0.2214196483    1.5903696197   -0.8759855885
H        2.4591482312   -0.9015056062   -0.3260612662
H        0.8045347781   -2.3160088863    0.6509068604
H       -1.4501337669   -1.7791495599    1.1029140939
H       -2.4702566241    0.3864518563    0.8453536968
H       -1.5930633667    2.2690276612   -0.1893773736
C        1.2503621735    0.7690631126   -0.8464510606
H        2.1019381634    1.1259387706   -1.4322679444
13   
Frame  10 IRC: Energy =  -286.9440683993 ; +1.3290 kcal/mol
C        1.4701869325   -0.4667224510   -0.1802111438
C        0.4842466679   -1.3014228440    0.3930686730
C       -0.8500694989   -1.0161005238    0.6074833812
C       -1.4684505364    0.2749744416    0.4363419699
C       -0.9473713561    1.3919853204   -0.1553452948
N        0.2063770746    1.5675856784   -0.9022926090
H        2.4807264359   -0.8602176609   -0.2456365994
H        0.8184369520   -2.2975519625    0.6809416940
H       -1.4722609206   -1.8049950648    1.0205098624
H       -2.4670879735    0.3857408720    0.8554380052
H       -1.5509131833    2.2970919402   -0.1150043775
C        1.2357847670    0.7531159573   -0.8769901963
H        2.0603946390    1.0765162971   -1.5183033648
13   
Frame  11 IRC: Energy =  -286.9434020000 ; +1.7472 kcal/mol
C        1.4724304397   -0.4533826534   -0.1615719133
C        0.4873864272   -1.2937199919    0.4028831473
C       -0.8556769719   -1.0222786336    0.5825837980
C       -1.4696863154    0.2729752672    0.4307351023
C       -0.9398034844    1.3946608736   -0.1433723449
N        0.1985097183    1.5589563863   -0.9153877269
H        2.4902461317   -0.8309671446   -0.1995155411
H        0.8273140968   -2.2832801874    0.7061629507
H       -1.4839904106   -1.8211611399    0.9670682457
H       -2.4649430228    0.3837314411    0.8582317742
H       -1.5194417486    2.3123338069   -0.0632242374
C        1.2259710315    0.7431236531   -0.8937127971
H        2.0316841083    1.0390083224   -1.5708804575
13   
Frame  12 IRC: Energy =  -286.9432800000 ; +1.8238 kcal/mol
C        1.4735660737   -0.4510614822   -0.1582410282
C        0.4868083930   -1.2928343918    0.4038155875
C       -0.8562088473   -1.0233350281    0.5784725022
C       -1.4703447030    0.2722284734    0.4301450689
C       -0.9385773845    1.3952624321   -0.1399826659
N        0.1967407075    1.5575394466   -0.9175931780
H        2.4921944566   -0.8271390586   -0.1924324410
H        0.8286147462   -2.2807604498    0.7094238470
H       -1.4850526000   -1.8225750107    0.9597366880
H       -2.4651746846    0.3829255069    0.8575646215
H       -1.5147218037    2.3152876693   -0.0556774948
C        1.2250820280    0.7409795224   -0.8955990620
H        2.0270736183    1.0334823704   -1.5796324451
13   
Frame  13 IRC: Energy =  -286.9432240000 ; +1.8589 kcal/mol
C        1.4734519536   -0.4509550051   -0.1562670417
C        0.4885222268   -1.2917644305    0.4038821878
C       -0.8572286104   -1.0232057399    0.5767374211
C       -1.4701639664    0.2723385263    0.4296394794
C       -0.9380532183    1.3958404938   -0.1390466611
N        0.1968714517    1.5556743500   -0.9178842614
H        2.4928171714   -0.8254323651   -0.1894087836
H        0.8290519206   -2.2799967291    0.7108243066
H       -1.4858297134   -1.8236794158    0.9567602958
H       -2.4655673812    0.3825072887    0.8574578682
H       -1.5125121491    2.3161266097   -0.0522916867
C        1.2238477059    0.7416338684   -0.8974819825
H        2.0247926088    1.0309125485   -1.5829211421
13   
Frame  14 IRC: Energy =  -286.9431450000 ; +1.9085 kcal/mol
C        1.4742876572   -0.4492080037   -0.1544918898
C        0.4875421744   -1.2913109161    0.4045005975
C       -0.8572518784   -1.0237313556    0.5742935641
C       -1.4707869628    0.2717038873    0.4290014884
C       -0.9369557795    1.3960480150   -0.1365414735
N        0.1954087538    1.5551059856   -0.9192526636
H        2.4938893446   -0.8230182955   -0.1850283788
H        0.8298919608   -2.2780755462    0.7128206752
H       -1.4862605970   -1.8242243416    0.9520586822
H       -2.4654195386    0.3819515314    0.8568866147
H       -1.5094411519    2.3177715581   -0.0476938898
C        1.2234188598    0.7394775594   -0.8982613337
H        2.0216771576    1.0275099221   -1.5882919930
13   
Frame  15 IRC: Energy =  -286.9431110000 ; +1.9298 kcal/mol
C        1.4745691845   -0.4486460483   -0.1542538640
C        0.4872545059   -1.2915031754    0.4046237142
C       -0.8573155170   -1.0236219561    0.5737190462
C       -1.4713510893    0.2711451923    0.4291433143
C       -0.9366332152    1.3961041910   -0.1358661263
N        0.1941659210    1.5559259796   -0.9197603669
H        2.4940422395   -0.8224787977   -0.1841134290
H        0.8300802692   -2.2774955267    0.7132203422
H       -1.4863182767   -1.8242595864    0.9510625989
H       -2.4650390837    0.3818439197    0.8565949928
H       -1.5087837151    2.3182047450   -0.0467971818
C        1.2242063692    0.7378858067   -0.8979365511
H        2.0211224077    1.0268952562   -1.5896364894
13   
Frame  16 IRC: Energy =  -286.9426860000 ; +2.1965 kcal/mol
C        1.4765298426   -0.4442166504   -0.1426898282
C        0.4915986708   -1.2863893130    0.4067714843
C       -0.8611852046   -1.0254016039    0.5602514932
C       -1.4718352842    0.2705596203    0.4260124853
C       -0.9326248431    1.3995484071   -0.1255052389
N        0.1925841089    1.5474514943   -0.9235226907
H        2.4997276900   -0.8095554553   -0.1620402906
H        0.8342043193   -2.2701068906    0.7262537353
H       -1.4906263587   -1.8306233593    0.9277069967
H       -2.4681767237    0.3780567970    0.8527090871
H       -1.4924185442    2.3268664084   -0.0205669338
C        1.2176254736    0.7366110055   -0.9078509988
H        2.0045968532    1.0071995400   -1.6175293009
13   
Frame  17 IRC: Energy =  -286.9426360000 ; +2.2279 kcal/mol
C        1.4774572058   -0.4431017188   -0.1420657015
C        0.4910223036   -1.2865167559    0.4072456989
C       -0.8610214275   -1.0258952296    0.5587422016
C       -1.4724596166    0.2703764875    0.4261057307
C       -0.9320122025    1.3995074706   -0.1243452242
N        0.1915157353    1.5477115719   -0.9242638792
H        2.5001614672   -0.8082558174   -0.1598199493
H        0.8346545746   -2.2691573874    0.7276067953
H       -1.4910318505   -1.8311094802    0.9254170459
H       -2.4682421234    0.3776863148    0.8520946720
H       -1.4910312477    2.3282089641   -0.0180005617
C        1.2178458862    0.7352193271   -0.9080627206
H        2.0031412954    1.0053262533   -1.6206541080
13   
Frame  18 IRC: Energy =  -286.9424780000 ; +2.3270 kcal/mol
C        1.4771553625   -0.4421312687   -0.1381697133
C        0.4929945580   -1.2839800396    0.4077543945
C       -0.8625071367   -1.0255686412    0.5544087012
C       -1.4723169419    0.2698143668    0.4243275627
C       -0.9302604222    1.4007998019   -0.1203365968
N        0.1912063422    1.5443561262   -0.9248920603
H        2.5018382473   -0.8037319483   -0.1523525371
H        0.8360081531   -2.2660082933    0.7318959437
H       -1.4919312272   -1.8326501242    0.9170426490
H       -2.4689707970    0.3762495480    0.8505401870
H       -1.4846573672    2.3299560953   -0.0091702657
C        1.2148721457    0.7344517862   -0.9116979263
H        1.9965690835    0.9984425910   -1.6293503384
13   
Frame  19 IRC: Energy =  -286.9423880000 ; +2.3835 kcal/mol
C        1.4769541988   -0.4417020821   -0.1376528696
C        0.4920000847   -1.2836440484    0.4077894370
C       -0.8619220604   -1.0246248597    0.5539199495
C       -1.4731798504    0.2690681306    0.4215960386
C       -0.9281680048    1.4008379566   -0.1170429753
N        0.1897345087    1.5410421775   -0.9250060310
H        2.5004131659   -0.8004830995   -0.1491848868
H        0.8366453636   -2.2633723253    0.7335805657
H       -1.4914221027   -1.8324630229    0.9127534711
H       -2.4672838223    0.3755478378    0.8493818874
H       -1.4827860111    2.3312197219   -0.0057631140
C        1.2155969932    0.7328270314   -0.9109485711
H        1.9934175370    0.9957465819   -1.6334229014
13   
Frame  20 IRC: Energy =  -286.9419050000 ; +2.6866 kcal/mol
C        1.4800900084   -0.4363136745   -0.1272332620
C        0.4966595227   -1.2790537509    0.4108160338
C       -0.8659579496   -1.0275126481    0.5387338860
C       -1.4738939447    0.2682191923    0.4212650818
C       -0.9246020079    1.4046734570   -0.1072641303
N        0.1879317092    1.5385243140   -0.9278545717
H        2.5082585901   -0.7893400617   -0.1289153388
H        0.8409386762   -2.2562291797    0.7493939414
H       -1.4963622110   -1.8390906041    0.8904572643
H       -2.4732415994    0.3710436624    0.8427910587
H       -1.4653487097    2.3398620626    0.0214826078
C        1.2089100820    0.7297581968   -0.9218532644
H        1.9766178339    0.9754590337   -1.6618193067
13   
Frame  21 IRC: Energy =  -286.9418490000 ; +2.7217 kcal/mol
C        1.4818177309   -0.4355941200   -0.1264292531
C        0.4961786602   -1.2795676169    0.4116132649
C       -0.8662903601   -1.0280739099    0.5370805981
C       -1.4742139476    0.2682543871    0.4217904074
C       -0.9239435408    1.4044306985   -0.1066709839
N        0.1870482043    1.5394284333   -0.9281603176
H        2.5088984000   -0.7884232094   -0.1270869690
H        0.8413438895   -2.2553631689    0.7507843361
H       -1.4967723885   -1.8395950929    0.8885173686
H       -2.4738790052    0.3706163921    0.8421100531
H       -1.4638911284    2.3410698274    0.0239771192
C        1.2085016550    0.7292630329   -0.9231419919
H        1.9752018308    0.9735543466   -1.6643836318
13   
Frame  22 IRC: Energy =  -286.9413010000 ; +3.0656 kcal/mol
C        1.4814841471   -0.4321255906   -0.1189155939
C        0.5000807252   -1.2736404530    0.4136700052
C       -0.8684350868   -1.0277692745    0.5247692017
C       -1.4751844140    0.2662483123    0.4163840887
C       -0.9175273673    1.4083023135   -0.0929938180
N        0.1850781577    1.5319874550   -0.9284752507
H        2.5125495876   -0.7748596951   -0.1077415605
H        0.8456611820   -2.2447851101    0.7677693345
H       -1.4991458297   -1.8438324419    0.8641464995
H       -2.4766725088    0.3653196283    0.8329302539
H       -1.4462024077    2.3478268227    0.0510818927
C        1.2028421523    0.7242592412   -0.9311055632
H        1.9554716625    0.9530687923   -1.6915194899
13   
Frame  23 IRC: Energy =  -286.9412400000 ; +3.1039 kcal/mol
C        1.4825932598   -0.4310691795   -0.1189328659
C        0.4994292644   -1.2743531096    0.4144141807
C       -0.8685288242   -1.0278733748    0.5237471944
C       -1.4752892636    0.2661026777    0.4157315169
C       -0.9164426478    1.4082459530   -0.0916694226
N        0.1842890388    1.5314587367   -0.9284369246
H        2.5124076682   -0.7734436601   -0.1059017173
H        0.8460077307   -2.2432418942    0.7692730675
H       -1.4991075544   -1.8439432076    0.8617844499
H       -2.4768834113    0.3648061750    0.8320372643
H       -1.4448230368    2.3488231715    0.0535619737
C        1.2028808917    0.7234124191   -0.9316607842
H        1.9534668845    0.9510752929   -1.6939479330
13   
Frame  24 IRC: Energy =  -286.9406000000 ; +3.5055 kcal/mol
C        1.4834676156   -0.4280742553   -0.1113122204
C        0.5041982004   -1.2684877196    0.4171962417
C       -0.8712728010   -1.0286511933    0.5096994440
C       -1.4762490977    0.2642486501    0.4124553645
C       -0.9101600939    1.4122844885   -0.0783454160
N        0.1827986333    1.5276651797   -0.9280255416
H        2.5178254671   -0.7604814436   -0.0872836630
H        0.8506210713   -2.2327282763    0.7895052677
H       -1.5026130079   -1.8492439934    0.8371154063
H       -2.4819146079    0.3590456916    0.8205597561
H       -1.4259140634    2.3560923582    0.0827920625
C        1.1961700731    0.7187753418   -0.9416631155
H        1.9330426110    0.9295551716   -1.7226935863
13   
Frame  25 IRC: Energy =  -286.9405350000 ; +3.5463 kcal/mol
C        1.4846178745   -0.4283470402   -0.1105091805
C        0.5059110361   -1.2688860003    0.4176926220
C       -0.8725770382   -1.0275612475    0.5084539662
C       -1.4763933683    0.2636113724    0.4123596511
C       -0.9095410738    1.4127009205   -0.0775483158
N        0.1824830309    1.5275432950   -0.9278800848
H        2.5173192592   -0.7592194508   -0.0858818288
H        0.8507666274   -2.2314120782    0.7908206665
H       -1.5030869105   -1.8500523819    0.8353244336
H       -2.4821501381    0.3585856867    0.8196526700
H       -1.4243593119    2.3565910510    0.0851154630
C        1.1954256046    0.7185485571   -0.9425749135
H        1.9315844082    0.9278973162   -1.7250251489
13   
Frame  26 IRC: Energy =  -286.9399060000 ; +3.9410 kcal/mol
C        1.4843142169   -0.4251797041   -0.1064015870
C        0.5075342869   -1.2637404167    0.4203697231
C       -0.8731846423   -1.0291166481    0.4968291108
C       -1.4768231457    0.2624060158    0.4082453378
C       -0.9025412625    1.4156788886   -0.0641896058
N        0.1810248619    1.5238906012   -0.9263825990
H        2.5217583327   -0.7472824933   -0.0698796984
H        0.8550329841   -2.2207816342    0.8105617632
H       -1.5050881138   -1.8533656153    0.8125444364
H       -2.4864631970    0.3531203643    0.8076214156
H       -1.4075802235    2.3626467496    0.1114165058
C        1.1901528630    0.7131309461   -0.9510126605
H        1.9118630393    0.9085929461   -1.7497221420
13   
Frame  27 IRC: Energy =  -286.9398210000 ; +3.9943 kcal/mol
C        1.4852743307   -0.4253964465   -0.1057110136
C        0.5092343257   -1.2637946358    0.4208871176
C       -0.8742177949   -1.0278433365    0.4953177692
C       -1.4770638458    0.2614516210    0.4078843866
C       -0.9016434832    1.4165990869   -0.0628671425
N        0.1812388204    1.5230637014   -0.9261652552
H        2.5211633502   -0.7456144173   -0.0681114714
H        0.8553072824   -2.2191182813    0.8125649352
H       -1.5056372264   -1.8543050515    0.8101064088
H       -2.4867005225    0.3524986595    0.8062351305
H       -1.4055301442    2.3630618422    0.1144662391
C        1.1888039484    0.7129599562   -0.9518897780
H        1.9097709592    0.9064373018   -1.7527173263
13   
Frame  28 IRC: Energy =  -286.9390930000 ; +4.4511 kcal/mol
C        1.4851966885   -0.4229515212   -0.1024795471
C        0.5115887530   -1.2592644444    0.4239738293
C       -0.8754730984   -1.0294336078    0.4833158021
C       -1.4770902659    0.2600255559    0.4042125431
C       -0.8939471300    1.4193742799   -0.0489875492
N        0.1797904107    1.5211297813   -0.9236317242
H        2.5257509751   -0.7329389659   -0.0522878162
H        0.8596070912   -2.2074639630    0.8345888779
H       -1.5080555689   -1.8578767416    0.7866672490
H       -2.4917363438    0.3468330268    0.7920309684
H       -1.3877452862    2.3689732673    0.1423481561
C        1.1833477680    0.7070589153   -0.9614332807
H        1.8887660068    0.8865344174   -1.7783175086
13   
Frame  29 IRC: Energy =  -286.9389930000 ; +4.5139 kcal/mol
C        1.4860080751   -0.4241265637   -0.1012374240
C        0.5139312525   -1.2588362435    0.4242170845
C       -0.8767542956   -1.0279408030    0.4818060898
C       -1.4773851015    0.2586915567    0.4040589781
C       -0.8932342796    1.4202689686   -0.0477067727
N        0.1805222722    1.5204183701   -0.9235373472
H        2.5250294608   -0.7312645027   -0.0507717223
H        0.8598418935   -2.2058935357    0.8365656666
H       -1.5087011130   -1.8588766762    0.7843884806
H       -2.4919065015    0.3462850119    0.7905200658
H       -1.3857182853    2.3693342462    0.1453402281
C        1.1813882709    0.7073152436   -0.9622207244
H        1.8869783515    0.8846249275   -1.7814226029
13   
Frame  30 IRC: Energy =  -286.9382820000 ; +4.9601 kcal/mol
C        1.4853579799   -0.4210418643   -0.1007613321
C        0.5142805495   -1.2555464507    0.4273350354
C       -0.8769823580   -1.0300645441    0.4714976899
C       -1.4767938529    0.2578916136    0.4003467154
C       -0.8852352859    1.4224971529   -0.0346157486
N        0.1792661178    1.5188659750   -0.9203725600
H        2.5290413252   -0.7193240764   -0.0364625574
H        0.8637111937   -2.1947655712    0.8573578540
H       -1.5104581014   -1.8614535595    0.7634103390
H       -2.4964781897    0.3411013648    0.7763573130
H       -1.3695005105    2.3739350023    0.1706821056
C        1.1767769730    0.7011874247   -0.9712339777
H        1.8670141593    0.8667175329   -1.8035408766
13   
Frame  31 IRC: Energy =  -286.9381290000 ; +5.0561 kcal/mol
C        1.4857985464   -0.4231348020   -0.0988915375
C        0.5179256268   -1.2543742463    0.4273808413
C       -0.8786569118   -1.0282694423    0.4693685730
C       -1.4772051250    0.2563605277    0.3997899069
C       -0.8840362037    1.4233480978   -0.0322001509
N        0.1796068860    1.5184410056   -0.9201568110
H        2.5279733516   -0.7166034751   -0.0341558960
H        0.8640885321   -2.1923161741    0.8605959997
H       -1.5113223785   -1.8627277332    0.7598596668
H       -2.4965996470    0.3402308492    0.7737071214
H       -1.3663860120    2.3745046139    0.1753132988
C        1.1747597224    0.7007054777   -0.9723076880
H        1.8640536126    0.8638353012   -1.8083033245
13   
Frame  32 IRC: Energy =  -286.9372650000 ; +5.5982 kcal/mol
C        1.4848051652   -0.4206953152   -0.0997026476
C        0.5187252885   -1.2516200779    0.4305562649
C       -0.8793748977   -1.0304267926    0.4583448427
C       -1.4759688579    0.2547644969    0.3961762173
C       -0.8744561502    1.4258789793   -0.0180054779
N        0.1792594770    1.5176278821   -0.9159591834
H        2.5318653840   -0.7019171447   -0.0179406711
H        0.8681925208   -2.1799175347    0.8840349665
H       -1.5137921986   -1.8656435675    0.7379562218
H       -2.5016840340    0.3348137312    0.7562444483
H       -1.3479029617    2.3786050214    0.2039527783
C        1.1687107339    0.6941631009   -0.9831202581
H        1.8416205305    0.8443672208   -1.8325375017
13   
Frame  33 IRC: Energy =  -286.9371370000 ; +5.6786 kcal/mol
C        1.4846531899   -0.4188734669   -0.1009875484
C        0.5161717134   -1.2515530851    0.4311207895
C       -0.8788511662   -1.0323028152    0.4577526627
C       -1.4749493145    0.2549451367    0.3956407808
C       -0.8725303500    1.4257929946   -0.0173829675
N        0.1779397612    1.5178859421   -0.9148610089
H        2.5332492388   -0.7008748608   -0.0163402206
H        0.8688514271   -2.1792304999    0.8865589266
H       -1.5133423938   -1.8649696789    0.7357446373
H       -2.5030643597    0.3343268457    0.7549088068
H       -1.3465531168    2.3794920590    0.2065445791
C        1.1691794668    0.6929747469   -0.9844685122
H        1.8392459039    0.8423866818   -1.8342309251
13   
Frame  34 IRC: Energy =  -286.9363260000 ; +6.1875 kcal/mol
C        1.4834823998   -0.4214808882   -0.0995058330
C        0.5233232806   -1.2490229291    0.4326801291
C       -0.8818344482   -1.0302859563    0.4473670154
C       -1.4749507250    0.2512966881    0.3923214977
C       -0.8644133883    1.4285147778   -0.0037068044
N        0.1797903069    1.5176617537   -0.9118415631
H        2.5328839085   -0.6851691682   -0.0012074486
H        0.8716382713   -2.1670893678    0.9059778982
H       -1.5170782368   -1.8690492053    0.7183706799
H       -2.5050606283    0.3298450728    0.7375521659
H       -1.3290832257    2.3812369378    0.2325999504
C        1.1616831793    0.6877336098   -0.9935479009
H        1.8196193058    0.8258086749   -1.8570597867
13   
Frame  35 IRC: Energy =  -286.9361040000 ; +6.3268 kcal/mol
C        1.4837454728   -0.4202911622   -0.1007164262
C        0.5209304413   -1.2484745219    0.4332866401
C       -0.8813044409   -1.0324270057    0.4454350159
C       -1.4738173529    0.2513798907    0.3912524351
C       -0.8613411819    1.4283161449   -0.0010976033
N        0.1796421302    1.5175735504   -0.9104279255
H        2.5338857886   -0.6816043733    0.0026501664
H        0.8727826321   -2.1649019184    0.9112722946
H       -1.5171586569   -1.8687994943    0.7139775789
H       -2.5067036691    0.3287536337    0.7335673281
H       -1.3253705574    2.3824097939    0.2389292778
C        1.1601269608    0.6864610320   -0.9961992103
H        1.8145824333    0.8216044302   -1.8619295716
13   
Frame  36 IRC: Energy =  -286.9350810000 ; +6.9687 kcal/mol
C        1.4804698197   -0.4221598753   -0.1021552767
C        0.5259869869   -1.2478070487    0.4338601451
C       -0.8844075334   -1.0327088600    0.4346053778
C       -1.4717901229    0.2468577740    0.3867990551
C       -0.8503313015    1.4307804057    0.0131013607
N        0.1822268992    1.5194320077   -0.9057520273
H        2.5334411874   -0.6611243323    0.0224162450
H        0.8757779203   -2.1528003337    0.9316479854
H       -1.5216220154   -1.8718591454    0.6989175037
H       -2.5085050783    0.3246679212    0.7127126398
H       -1.3060031350    2.3827683686    0.2682241803
C        1.1525925767    0.6799852337   -1.0075871319
H        1.7921637961    0.8039678847   -1.8867900569
13   
Frame  37 IRC: Energy =  -286.9348900000 ; +7.0886 kcal/mol
C        1.4805790056   -0.4208158237   -0.1038045819
C        0.5230240650   -1.2477630094    0.4341440041
C       -0.8833435022   -1.0352011716    0.4334266125
C       -1.4706642452    0.2477413050    0.3858932833
C       -0.8479367190    1.4301244328    0.0147960101
N        0.1819963976    1.5199033206   -0.9044272656
H        2.5342389774   -0.6581875789    0.0256241610
H        0.8766464730   -2.1516139409    0.9353357070
H       -1.5217425439   -1.8714428218    0.6964851682
H       -2.5096877221    0.3239858274    0.7096460721
H       -1.3034390268    2.3833880928    0.2726955772
C        1.1519484129    0.6788147245   -1.0099719184
H        1.7883804276    0.8010666431   -1.8898428294
13   
Frame  38 IRC: Energy =  -286.9338540000 ; +7.7387 kcal/mol
C        1.4762019018   -0.4241844524   -0.1062095979
C        0.5282148198   -1.2491189305    0.4326143789
C       -0.8873751178   -1.0357670070    0.4235041963
C       -1.4676990971    0.2417264333    0.3808827180
C       -0.8363581244    1.4321201011    0.0270385414
N        0.1865114758    1.5236644418   -0.8991359938
H        2.5312500876   -0.6355360828    0.0471954679
H        0.8787857724   -2.1416941727    0.9516678897
H       -1.5267911080   -1.8736726825    0.6880721318
H       -2.5092895908    0.3212376829    0.6892124998
H       -1.2859310008    2.3816912831    0.2994210144
C        1.1446361434    0.6730810277   -1.0209323719
H        1.7678438383    0.7864523580   -1.9133308747
13   