13   
Frame   0 IRC: Energy =  -286.9461863524 ; +0.0000 kcal/mol
C        0.1007960000    0.3723070000   -0.0000000000
C       -0.1646950000    0.0762380000    0.0000000000
C       -0.1649020000    0.0809270000    0.0000000000
C        0.1009830000    0.3682630000    0.0000000000
C       -0.2354020000   -0.1132800000   -0.0000000000
N       -0.1761880000    0.3753970000   -0.0000000000
H        0.1273600000   -0.0187600000   -0.0000000000
H        0.1328230000   -0.0066550000    0.0000000000
H        0.1326860000   -0.0068560000    0.0000000000
H        0.1273930000   -0.0185900000    0.0000000000
H        0.1270050000    0.0032400000   -0.0000000000
C       -0.2348090000   -0.1155740000   -0.0000000000
H        0.1269510000    0.0033440000   -0.0000000000
13   
Frame   1 IRC: Energy =  -286.9461857454 ; +0.0004 kcal/mol
C        0.1007130000    0.3732020000   -0.0000000000
C       -0.1645160000    0.0751480000    0.0000000000
C       -0.1649850000    0.0820360000    0.0000000000
C        0.1010680000    0.3673280000    0.0000000000
C       -0.2355790000   -0.1127610000   -0.0000000000
N       -0.1761540000    0.3754020000   -0.0000000000
H        0.1273520000   -0.0187970000   -0.0000000000
H        0.1328330000   -0.0066080000    0.0000000000
H        0.1326790000   -0.0069040000    0.0000000000
H        0.1274070000   -0.0185510000    0.0000000000
H        0.1270040000    0.0032170000   -0.0000000000
C       -0.2347510000   -0.1160800000   -0.0000000000
H        0.1269290000    0.0033680000   -0.0000000000
13   
Frame   2 IRC: Energy =  -286.9461832224 ; +0.0020 kcal/mol
C        0.1005780000    0.3755970000   -0.0000000000
C       -0.1645640000    0.0723970000    0.0000000000
C       -0.1653140000    0.0847090000    0.0000000000
C        0.1011830000    0.3653840000    0.0000000000
C       -0.2356680000   -0.1115350000   -0.0000000000
N       -0.1761670000    0.3751110000   -0.0000000000
H        0.1273540000   -0.0188950000   -0.0000000000
H        0.1328160000   -0.0064910000    0.0000000000
H        0.1326520000   -0.0070180000    0.0000000000
H        0.1274350000   -0.0184700000    0.0000000000
H        0.1270150000    0.0031620000   -0.0000000000
C       -0.2342240000   -0.1173800000   -0.0000000000
H        0.1269050000    0.0034290000   -0.0000000000
13   
Frame   3 IRC: Energy =  -286.9461790983 ; +0.0046 kcal/mol
C        0.1003950000    0.3798260000   -0.0000000000
C       -0.1647090000    0.0672950000    0.0000000000
C       -0.1657510000    0.0898090000    0.0000000000
C        0.1013070000    0.3614920000    0.0000000000
C       -0.2358480000   -0.1090640000   -0.0000000000
N       -0.1762430000    0.3746800000   -0.0000000000
H        0.1273450000   -0.0190710000   -0.0000000000
H        0.1328000000   -0.0062720000    0.0000000000
H        0.1326210000   -0.0072370000    0.0000000000
H        0.1274550000   -0.0183070000    0.0000000000
H        0.1270660000    0.0030490000   -0.0000000000
C       -0.2333310000   -0.1197410000   -0.0000000000
H        0.1268930000    0.0035410000   -0.0000000000
13   
Frame   4 IRC: Energy =  -286.9461636994 ; +0.0142 kcal/mol
C        0.0995920000    0.3943430000   -0.0000000000
C       -0.1641490000    0.0488620000    0.0000000000
C       -0.1666360000    0.1087540000    0.0000000000
C        0.1017030000    0.3459740000    0.0000000000
C       -0.2372790000   -0.0993500000   -0.0000000000
N       -0.1763070000    0.3736770000   -0.0000000000
H        0.1272450000   -0.0196860000   -0.0000000000
H        0.1328510000   -0.0054690000    0.0000000000
H        0.1325330000   -0.0080570000    0.0000000000
H        0.1274890000   -0.0176500000    0.0000000000
H        0.1272580000    0.0026010000   -0.0000000000
C       -0.2311450000   -0.1279240000   -0.0000000000
H        0.1268450000    0.0039260000   -0.0000000000
13   
Frame   5 IRC: Energy =  -286.9461224163 ; +0.0401 kcal/mol
C        0.0978730000    0.4162240000   -0.0000000000
C       -0.1623030000    0.0195820000    0.0000000000
C       -0.1679690000    0.1401050000    0.0000000000
C        0.1022840000    0.3189560000    0.0000000000
C       -0.2400930000   -0.0820780000   -0.0000000000
N       -0.1760860000    0.3712340000   -0.0000000000
H        0.1270630000   -0.0206020000   -0.0000000000
H        0.1330250000   -0.0041900000    0.0000000000
H        0.1324190000   -0.0094110000    0.0000000000
H        0.1275960000   -0.0165070000    0.0000000000
H        0.1275600000    0.0017890000   -0.0000000000
C       -0.2280670000   -0.1395610000   -0.0000000000
H        0.1266980000    0.0044570000   -0.0000000000
13   
Frame   6 IRC: Energy =  -286.9460097675 ; +0.1108 kcal/mol
C        0.0959250000    0.4424300000   -0.0000000000
C       -0.1579930000   -0.0170900000    0.0000000000
C       -0.1707430000    0.1801280000    0.0000000000
C        0.1052170000    0.2823690000    0.0000000000
C       -0.2461780000   -0.0582920000   -0.0000000000
N       -0.1749290000    0.3670280000   -0.0000000000
H        0.1268850000   -0.0216810000   -0.0000000000
H        0.1332610000   -0.0026020000    0.0000000000
H        0.1322270000   -0.0111160000    0.0000000000
H        0.1279130000   -0.0149630000    0.0000000000
H        0.1276790000    0.0006790000   -0.0000000000
C       -0.2254070000   -0.1518880000   -0.0000000000
H        0.1261430000    0.0049980000   -0.0000000000
13   
Frame   7 IRC: Energy =  -286.9458718770 ; +0.1973 kcal/mol
C        0.0951540000    0.4636300000   -0.0000000000
C       -0.1553500000   -0.0476270000    0.0000000000
C       -0.1750780000    0.2149630000    0.0000000000
C        0.1091400000    0.2499380000    0.0000000000
C       -0.2515240000   -0.0357010000   -0.0000000000
N       -0.1738240000    0.3602420000   -0.0000000000
H        0.1267510000   -0.0225660000   -0.0000000000
H        0.1333750000   -0.0012850000    0.0000000000
H        0.1320530000   -0.0125880000    0.0000000000
H        0.1281440000   -0.0136040000    0.0000000000
H        0.1277820000   -0.0003450000   -0.0000000000
C       -0.2223500000   -0.1604550000   -0.0000000000
H        0.1257280000    0.0053970000   -0.0000000000
13   
Frame   8 IRC: Energy =  -286.9454989491 ; +0.4314 kcal/mol
C        0.0861150000    0.4923450000   -0.0000000000
C       -0.1512080000   -0.0959080000    0.0000000000
C       -0.1778270000    0.2789570000    0.0000000000
C        0.1070720000    0.1878480000    0.0000000000
C       -0.2519420000    0.0138690000   -0.0000000000
N       -0.1726640000    0.3382870000   -0.0000000000
H        0.1264270000   -0.0239120000   -0.0000000000
H        0.1336320000    0.0012780000    0.0000000000
H        0.1315560000   -0.0153870000    0.0000000000
H        0.1285410000   -0.0106580000    0.0000000000
H        0.1282180000   -0.0025840000   -0.0000000000
C       -0.2139740000   -0.1702930000   -0.0000000000
H        0.1260530000    0.0061590000   -0.0000000000
13   
Frame   9 IRC: Energy =  -286.9448860696 ; +0.8159 kcal/mol
C        0.0677440000    0.5062850000   -0.0000000000
C       -0.1461570000   -0.1277020000    0.0000000000
C       -0.1730410000    0.3303980000    0.0000000000
C        0.0966920000    0.1313450000    0.0000000000
C       -0.2455240000    0.0633120000   -0.0000000000
N       -0.1705490000    0.3120340000   -0.0000000000
H        0.1263540000   -0.0246750000   -0.0000000000
H        0.1340180000    0.0037170000    0.0000000000
H        0.1308490000   -0.0177290000    0.0000000000
H        0.1291810000   -0.0074320000    0.0000000000
H        0.1285220000   -0.0048050000   -0.0000000000
C       -0.2051230000   -0.1714050000   -0.0000000000
H        0.1270350000    0.0066570000   -0.0000000000
13   
Frame  10 IRC: Energy =  -286.9440683993 ; +1.3290 kcal/mol
C        0.0470050000    0.5115860000   -0.0000000000
C       -0.1435190000   -0.1452590000    0.0000000000
C       -0.1636220000    0.3661210000    0.0000000000
C        0.0855140000    0.0864320000    0.0000000000
C       -0.2387260000    0.1047930000   -0.0000000000
N       -0.1668860000    0.2873470000   -0.0000000000
H        0.1267050000   -0.0249800000   -0.0000000000
H        0.1345050000    0.0060760000    0.0000000000
H        0.1301310000   -0.0194270000    0.0000000000
H        0.1300650000   -0.0042710000    0.0000000000
H        0.1286060000   -0.0067190000   -0.0000000000
C       -0.1981170000   -0.1686900000   -0.0000000000
H        0.1283400000    0.0069900000   -0.0000000000
13   
Frame  11 IRC: Energy =  -286.9434020000 ; +1.7472 kcal/mol
C        0.0354590000    0.5134200000   -0.0000000000
C       -0.1435880000   -0.1500410000    0.0000000000
C       -0.1573880000    0.3788720000    0.0000000000
C        0.0810870000    0.0682360000    0.0000000000
C       -0.2370970000    0.1210620000   -0.0000000000
N       -0.1645350000    0.2765360000   -0.0000000000
H        0.1271980000   -0.0250060000   -0.0000000000
H        0.1347670000    0.0073500000    0.0000000000
H        0.1297590000   -0.0200400000    0.0000000000
H        0.1306660000   -0.0026100000    0.0000000000
H        0.1284970000   -0.0074110000   -0.0000000000
C       -0.1939010000   -0.1674720000   -0.0000000000
H        0.1290770000    0.0071030000   -0.0000000000
13   
Frame  12 IRC: Energy =  -286.9432800000 ; +1.8238 kcal/mol
C        0.0340590000    0.5135930000   -0.0000000000
C       -0.1437600000   -0.1482460000    0.0000000000
C       -0.1558170000    0.3758860000    0.0000000000
C        0.0795990000    0.0693900000    0.0000000000
C       -0.2363880000    0.1203940000   -0.0000000000
N       -0.1641550000    0.2777690000   -0.0000000000
H        0.1273410000   -0.0250080000   -0.0000000000
H        0.1347670000    0.0074040000    0.0000000000
H        0.1296680000   -0.0199070000    0.0000000000
H        0.1307800000   -0.0025300000    0.0000000000
H        0.1285750000   -0.0073470000   -0.0000000000
C       -0.1939620000   -0.1686360000   -0.0000000000
H        0.1292930000    0.0072380000   -0.0000000000
13   
Frame  13 IRC: Energy =  -286.9432240000 ; +1.8589 kcal/mol
C        0.0323430000    0.5149330000   -0.0000000000
C       -0.1433320000   -0.1554410000    0.0000000000
C       -0.1572730000    0.3885640000    0.0000000000
C        0.0804150000    0.0555240000    0.0000000000
C       -0.2372940000    0.1334250000   -0.0000000000
N       -0.1632960000    0.2689430000   -0.0000000000
H        0.1272480000   -0.0250380000   -0.0000000000
H        0.1348120000    0.0078470000    0.0000000000
H        0.1295580000   -0.0204810000    0.0000000000
H        0.1308140000   -0.0018280000    0.0000000000
H        0.1285630000   -0.0080050000   -0.0000000000
C       -0.1918640000   -0.1654490000   -0.0000000000
H        0.1293080000    0.0070050000   -0.0000000000
13   
Frame  14 IRC: Energy =  -286.9431450000 ; +1.9085 kcal/mol
C        0.0319900000    0.5142720000   -0.0000000000
C       -0.1432790000   -0.1514630000    0.0000000000
C       -0.1556660000    0.3817430000    0.0000000000
C        0.0789720000    0.0614380000    0.0000000000
C       -0.2364490000    0.1285130000   -0.0000000000
N       -0.1633410000    0.2730160000   -0.0000000000
H        0.1273820000   -0.0250160000   -0.0000000000
H        0.1347830000    0.0077290000    0.0000000000
H        0.1295170000   -0.0201760000    0.0000000000
H        0.1308760000   -0.0020050000    0.0000000000
H        0.1285770000   -0.0077330000   -0.0000000000
C       -0.1928180000   -0.1675120000   -0.0000000000
H        0.1294550000    0.0071940000   -0.0000000000
13   
Frame  15 IRC: Energy =  -286.9431110000 ; +1.9298 kcal/mol
C        0.0322560000    0.5111130000   -0.0000000000
C       -0.1430460000   -0.1465070000    0.0000000000
C       -0.1547360000    0.3745310000    0.0000000000
C        0.0784070000    0.0694140000    0.0000000000
C       -0.2358340000    0.1222130000   -0.0000000000
N       -0.1638920000    0.2784000000   -0.0000000000
H        0.1274500000   -0.0248940000   -0.0000000000
H        0.1348270000    0.0075040000    0.0000000000
H        0.1295220000   -0.0198630000    0.0000000000
H        0.1308810000   -0.0023540000    0.0000000000
H        0.1285500000   -0.0074060000   -0.0000000000
C       -0.1941150000   -0.1695190000   -0.0000000000
H        0.1297280000    0.0073680000   -0.0000000000
13   
Frame  16 IRC: Energy =  -286.9426860000 ; +2.1965 kcal/mol
C        0.0241920000    0.5172510000   -0.0000000000
C       -0.1426830000   -0.1676330000    0.0000000000
C       -0.1563450000    0.4111700000    0.0000000000
C        0.0779960000    0.0236410000    0.0000000000
C       -0.2381090000    0.1657460000   -0.0000000000
N       -0.1596460000    0.2492810000   -0.0000000000
H        0.1275060000   -0.0250200000   -0.0000000000
H        0.1349200000    0.0090940000    0.0000000000
H        0.1290390000   -0.0215160000    0.0000000000
H        0.1312360000    0.0002170000    0.0000000000
H        0.1287770000   -0.0095620000   -0.0000000000
C       -0.1867910000   -0.1593550000   -0.0000000000
H        0.1299080000    0.0066870000   -0.0000000000
13   
Frame  17 IRC: Energy =  -286.9426360000 ; +2.2279 kcal/mol
C        0.0238060000    0.5170550000   -0.0000000000
C       -0.1428660000   -0.1641520000    0.0000000000
C       -0.1550990000    0.4048600000    0.0000000000
C        0.0771400000    0.0303400000    0.0000000000
C       -0.2374920000    0.1595830000   -0.0000000000
N       -0.1598190000    0.2538630000   -0.0000000000
H        0.1275840000   -0.0250100000   -0.0000000000
H        0.1349410000    0.0089500000    0.0000000000
H        0.1290290000   -0.0212380000    0.0000000000
H        0.1313120000   -0.0000680000    0.0000000000
H        0.1287720000   -0.0092400000   -0.0000000000
C       -0.1873740000   -0.1618290000   -0.0000000000
H        0.1300660000    0.0068860000   -0.0000000000
13   
Frame  18 IRC: Energy =  -286.9424780000 ; +2.3270 kcal/mol
C        0.0216170000    0.5168760000   -0.0000000000
C       -0.1420790000   -0.1720840000    0.0000000000
C       -0.1563010000    0.4201280000    0.0000000000
C        0.0775230000    0.0109880000    0.0000000000
C       -0.2389980000    0.1792700000   -0.0000000000
N       -0.1582230000    0.2409120000   -0.0000000000
H        0.1276120000   -0.0249540000   -0.0000000000
H        0.1349180000    0.0095670000    0.0000000000
H        0.1288080000   -0.0219270000    0.0000000000
H        0.1313590000    0.0010310000    0.0000000000
H        0.1287800000   -0.0102200000   -0.0000000000
C       -0.1850820000   -0.1560680000   -0.0000000000
H        0.1300660000    0.0064810000   -0.0000000000
13   
Frame  19 IRC: Energy =  -286.9423880000 ; +2.3835 kcal/mol
C        0.0211040000    0.5159300000   -0.0000000000
C       -0.1392970000   -0.1699250000    0.0000000000
C       -0.1558980000    0.4153230000    0.0000000000
C        0.0745860000    0.0146930000    0.0000000000
C       -0.2358100000    0.1776870000   -0.0000000000
N       -0.1581910000    0.2436580000   -0.0000000000
H        0.1273820000   -0.0249340000   -0.0000000000
H        0.1347900000    0.0094560000    0.0000000000
H        0.1287460000   -0.0217110000    0.0000000000
H        0.1312020000    0.0010220000    0.0000000000
H        0.1287530000   -0.0100890000   -0.0000000000
C       -0.1875770000   -0.1577600000   -0.0000000000
H        0.1302120000    0.0066510000   -0.0000000000
13   
Frame  20 IRC: Energy =  -286.9419050000 ; +2.6866 kcal/mol
C        0.0139290000    0.5159690000   -0.0000000000
C       -0.1421000000   -0.1810650000    0.0000000000
C       -0.1552300000    0.4386820000    0.0000000000
C        0.0757410000   -0.0166690000    0.0000000000
C       -0.2413320000    0.2091340000   -0.0000000000
N       -0.1543290000    0.2217840000   -0.0000000000
H        0.1280110000   -0.0247510000   -0.0000000000
H        0.1350670000    0.0106500000    0.0000000000
H        0.1283640000   -0.0227840000    0.0000000000
H        0.1318100000    0.0028290000    0.0000000000
H        0.1289930000   -0.0116830000    0.0000000000
C       -0.1796160000   -0.1480580000   -0.0000000000
H        0.1306940000    0.0059600000   -0.0000000000
13   
Frame  21 IRC: Energy =  -286.9418490000 ; +2.7217 kcal/mol
C        0.0124450000    0.5179940000   -0.0000000000
C       -0.1425960000   -0.1798150000    0.0000000000
C       -0.1544210000    0.4351800000    0.0000000000
C        0.0759900000   -0.0130490000    0.0000000000
C       -0.2419060000    0.2052380000   -0.0000000000
N       -0.1542230000    0.2236460000   -0.0000000000
H        0.1280550000   -0.0248120000   -0.0000000000
H        0.1350650000    0.0106120000    0.0000000000
H        0.1283040000   -0.0226290000    0.0000000000
H        0.1319510000    0.0026630000    0.0000000000
H        0.1289270000   -0.0114950000    0.0000000000
C       -0.1783990000   -0.1495890000   -0.0000000000
H        0.1308070000    0.0060560000   -0.0000000000
13   
Frame  22 IRC: Energy =  -286.9413010000 ; +3.0656 kcal/mol
C        0.0076400000    0.5113320000   -0.0000000000
C       -0.1400440000   -0.1879100000    0.0000000000
C       -0.1542420000    0.4542320000    0.0000000000
C        0.0730740000   -0.0419760000    0.0000000000
C       -0.2433070000    0.2394160000   -0.0000000000
N       -0.1504410000    0.2031280000   -0.0000000000
H        0.1283490000   -0.0243980000   -0.0000000000
H        0.1350570000    0.0116090000    0.0000000000
H        0.1278900000   -0.0235060000    0.0000000000
H        0.1320870000    0.0045840000    0.0000000000
H        0.1290720000   -0.0131450000    0.0000000000
C       -0.1763250000   -0.1386730000   -0.0000000000
H        0.1311900000    0.0053070000   -0.0000000000
13   
Frame  23 IRC: Energy =  -286.9412400000 ; +3.1039 kcal/mol
C        0.0067530000    0.5132360000   -0.0000000000
C       -0.1395530000   -0.1867170000    0.0000000000
C       -0.1537630000    0.4496250000    0.0000000000
C        0.0725720000   -0.0377130000    0.0000000000
C       -0.2426280000    0.2355450000   -0.0000000000
N       -0.1505600000    0.2061770000   -0.0000000000
H        0.1282810000   -0.0244720000   -0.0000000000
H        0.1350330000    0.0115240000    0.0000000000
H        0.1278400000   -0.0233010000    0.0000000000
H        0.1321380000    0.0044410000    0.0000000000
H        0.1290680000   -0.0129360000    0.0000000000
C       -0.1764550000   -0.1408750000   -0.0000000000
H        0.1312760000    0.0054650000   -0.0000000000
13   
Frame  24 IRC: Energy =  -286.9406000000 ; +3.5055 kcal/mol
C        0.0008100000    0.5044750000   -0.0000000000
C       -0.1391850000   -0.1935640000    0.0000000000
C       -0.1523600000    0.4689050000    0.0000000000
C        0.0707130000   -0.0670240000    0.0000000000
C       -0.2470210000    0.2702790000   -0.0000000000
N       -0.1461160000    0.1834690000   -0.0000000000
H        0.1289280000   -0.0239080000   -0.0000000000
H        0.1351410000    0.0125830000    0.0000000000
H        0.1274680000   -0.0241950000    0.0000000000
H        0.1324970000    0.0063040000    0.0000000000
H        0.1291870000   -0.0146540000    0.0000000000
C       -0.1718230000   -0.1271350000   -0.0000000000
H        0.1317610000    0.0044640000   -0.0000000000
13   
Frame  25 IRC: Energy =  -286.9405350000 ; +3.5463 kcal/mol
C       -0.0004500000    0.5013480000   -0.0000000000
C       -0.1388680000   -0.1948720000    0.0000000000
C       -0.1529390000    0.4725790000    0.0000000000
C        0.0714730000   -0.0731400000    0.0000000000
C       -0.2478140000    0.2785700000   -0.0000000000
N       -0.1454660000    0.1785480000   -0.0000000000
H        0.1288320000   -0.0237090000   -0.0000000000
H        0.1351530000    0.0126620000    0.0000000000
H        0.1273750000   -0.0243770000    0.0000000000
H        0.1325520000    0.0066570000    0.0000000000
H        0.1291230000   -0.0150730000    0.0000000000
C       -0.1707720000   -0.1234000000   -0.0000000000
H        0.1318000000    0.0042090000   -0.0000000000
13   
Frame  26 IRC: Energy =  -286.9399060000 ; +3.9410 kcal/mol
C       -0.0044440000    0.4959270000   -0.0000000000
C       -0.1375040000   -0.1966450000    0.0000000000
C       -0.1500390000    0.4788670000    0.0000000000
C        0.0675920000   -0.0864120000    0.0000000000
C       -0.2501800000    0.2963280000   -0.0000000000
N       -0.1422600000    0.1675730000   -0.0000000000
H        0.1295250000   -0.0233760000   -0.0000000000
H        0.1351760000    0.0133810000    0.0000000000
H        0.1271230000   -0.0246690000    0.0000000000
H        0.1328080000    0.0077320000    0.0000000000
H        0.1292510000   -0.0158960000    0.0000000000
C       -0.1693020000   -0.1164840000   -0.0000000000
H        0.1322540000    0.0036740000   -0.0000000000
13   
Frame  27 IRC: Energy =  -286.9398210000 ; +3.9943 kcal/mol
C       -0.0056360000    0.4922430000   -0.0000000000
C       -0.1372310000   -0.1978980000    0.0000000000
C       -0.1500900000    0.4823080000    0.0000000000
C        0.0675940000   -0.0939730000    0.0000000000
C       -0.2508460000    0.3069610000   -0.0000000000
N       -0.1412440000    0.1613230000   -0.0000000000
H        0.1294530000   -0.0231410000   -0.0000000000
H        0.1351690000    0.0134720000    0.0000000000
H        0.1270520000   -0.0248420000    0.0000000000
H        0.1328440000    0.0081700000    0.0000000000
H        0.1292400000   -0.0164120000    0.0000000000
C       -0.1684190000   -0.1115370000   -0.0000000000
H        0.1321130000    0.0033250000   -0.0000000000
13   
Frame  28 IRC: Energy =  -286.9390930000 ; +4.4511 kcal/mol
C       -0.0101050000    0.4834050000   -0.0000000000
C       -0.1357520000   -0.1986350000    0.0000000000
C       -0.1469650000    0.4882630000    0.0000000000
C        0.0640680000   -0.1073690000    0.0000000000
C       -0.2542440000    0.3261100000   -0.0000000000
N       -0.1378630000    0.1494900000   -0.0000000000
H        0.1302860000   -0.0226330000   -0.0000000000
H        0.1352560000    0.0142030000    0.0000000000
H        0.1268140000   -0.0251270000    0.0000000000
H        0.1331670000    0.0092620000    0.0000000000
H        0.1292980000   -0.0173110000    0.0000000000
C       -0.1667240000   -0.1022940000   -0.0000000000
H        0.1327640000    0.0026360000   -0.0000000000
13   
Frame  29 IRC: Energy =  -286.9389930000 ; +4.5139 kcal/mol
C       -0.0110910000    0.4764330000   -0.0000000000
C       -0.1357640000   -0.1993590000    0.0000000000
C       -0.1469500000    0.4934990000    0.0000000000
C        0.0637770000   -0.1180420000    0.0000000000
C       -0.2552260000    0.3410280000   -0.0000000000
N       -0.1362790000    0.1400560000   -0.0000000000
H        0.1302640000   -0.0222290000   -0.0000000000
H        0.1351900000    0.0143010000    0.0000000000
H        0.1267590000   -0.0253750000    0.0000000000
H        0.1331860000    0.0098390000    0.0000000000
H        0.1292920000   -0.0180420000    0.0000000000
C       -0.1656180000   -0.0941760000   -0.0000000000
H        0.1324610000    0.0020670000   -0.0000000000
13   
Frame  30 IRC: Energy =  -286.9382820000 ; +4.9601 kcal/mol
C       -0.0148120000    0.4723080000   -0.0000000000
C       -0.1337760000   -0.1991200000    0.0000000000
C       -0.1432150000    0.4927590000    0.0000000000
C        0.0599050000   -0.1228290000    0.0000000000
C       -0.2578310000    0.3499330000   -0.0000000000
N       -0.1338940000    0.1354900000   -0.0000000000
H        0.1310900000   -0.0219740000   -0.0000000000
H        0.1353210000    0.0149030000    0.0000000000
H        0.1265890000   -0.0253590000    0.0000000000
H        0.1334820000    0.0104820000    0.0000000000
H        0.1293480000   -0.0183980000    0.0000000000
C       -0.1653410000   -0.0899170000   -0.0000000000
H        0.1331340000    0.0017230000   -0.0000000000
13   
Frame  31 IRC: Energy =  -286.9381290000 ; +5.0561 kcal/mol
C       -0.0154220000    0.4594310000   -0.0000000000
C       -0.1333450000   -0.1981100000    0.0000000000
C       -0.1431060000    0.4994790000    0.0000000000
C        0.0590940000   -0.1354120000    0.0000000000
C       -0.2588970000    0.3686780000   -0.0000000000
N       -0.1320070000    0.1236970000   -0.0000000000
H        0.1311290000   -0.0212870000   -0.0000000000
H        0.1352210000    0.0149860000    0.0000000000
H        0.1265350000   -0.0256750000    0.0000000000
H        0.1334820000    0.0111880000    0.0000000000
H        0.1292810000   -0.0193040000    0.0000000000
C       -0.1649390000   -0.0786370000   -0.0000000000
H        0.1329740000    0.0009660000   -0.0000000000
13   
Frame  32 IRC: Energy =  -286.9372650000 ; +5.5982 kcal/mol
C       -0.0198630000    0.4514410000   -0.0000000000
C       -0.1309420000   -0.1971060000    0.0000000000
C       -0.1385840000    0.4980100000    0.0000000000
C        0.0546820000   -0.1431530000    0.0000000000
C       -0.2624250000    0.3828860000   -0.0000000000
N       -0.1288160000    0.1156630000   -0.0000000000
H        0.1321590000   -0.0208030000   -0.0000000000
H        0.1353860000    0.0156650000    0.0000000000
H        0.1263910000   -0.0256340000    0.0000000000
H        0.1338180000    0.0119970000    0.0000000000
H        0.1293160000   -0.0199010000    0.0000000000
C       -0.1647230000   -0.0693690000   -0.0000000000
H        0.1336010000    0.0003020000   -0.0000000000
13   
Frame  33 IRC: Energy =  -286.9371370000 ; +5.6786 kcal/mol
C       -0.0208180000    0.4579450000   -0.0000000000
C       -0.1300110000   -0.1975160000    0.0000000000
C       -0.1388810000    0.4928000000    0.0000000000
C        0.0546870000   -0.1364260000    0.0000000000
C       -0.2624990000    0.3739850000   -0.0000000000
N       -0.1291040000    0.1214310000   -0.0000000000
H        0.1323440000   -0.0211440000   -0.0000000000
H        0.1354620000    0.0157860000    0.0000000000
H        0.1263890000   -0.0253900000    0.0000000000
H        0.1338950000    0.0117360000    0.0000000000
H        0.1292840000   -0.0194720000    0.0000000000
C       -0.1647350000   -0.0743830000   -0.0000000000
H        0.1339870000    0.0006490000   -0.0000000000
13   
Frame  34 IRC: Energy =  -286.9363260000 ; +6.1875 kcal/mol
C       -0.0235130000    0.4271220000   -0.0000000000
C       -0.1281260000   -0.1920580000    0.0000000000
C       -0.1337650000    0.4993760000    0.0000000000
C        0.0495470000   -0.1602050000    0.0000000000
C       -0.2661320000    0.4138160000   -0.0000000000
N       -0.1243260000    0.0970930000   -0.0000000000
H        0.1331110000   -0.0194550000   -0.0000000000
H        0.1354270000    0.0161570000    0.0000000000
H        0.1262330000   -0.0257380000    0.0000000000
H        0.1340610000    0.0132600000    0.0000000000
H        0.1292030000   -0.0212730000    0.0000000000
C       -0.1657800000   -0.0469310000   -0.0000000000
H        0.1340600000   -0.0011650000   -0.0000000000
13   
Frame  35 IRC: Energy =  -286.9361040000 ; +6.3268 kcal/mol
C       -0.0252020000    0.4329830000   -0.0000000000
C       -0.1270580000   -0.1935620000    0.0000000000
C       -0.1331190000    0.4961930000    0.0000000000
C        0.0482020000   -0.1572060000    0.0000000000
C       -0.2668970000    0.4089330000   -0.0000000000
N       -0.1234670000    0.0998020000   -0.0000000000
H        0.1334380000   -0.0197130000    0.0000000000
H        0.1354010000    0.0164410000    0.0000000000
H        0.1262650000   -0.0255760000    0.0000000000
H        0.1341770000    0.0132010000    0.0000000000
H        0.1292250000   -0.0210180000    0.0000000000
C       -0.1651000000   -0.0494560000   -0.0000000000
H        0.1341360000   -0.0010210000   -0.0000000000
13   
Frame  36 IRC: Energy =  -286.9350810000 ; +6.9687 kcal/mol
C       -0.0280330000    0.4027610000   -0.0000000000
C       -0.1241470000   -0.1851520000    0.0000000000
C       -0.1268450000    0.4934520000    0.0000000000
C        0.0424160000   -0.1735920000    0.0000000000
C       -0.2703810000    0.4417770000    0.0000000000
N       -0.1188240000    0.0794250000   -0.0000000000
H        0.1345500000   -0.0180250000    0.0000000000
H        0.1354540000    0.0167530000    0.0000000000
H        0.1261160000   -0.0255040000    0.0000000000
H        0.1343350000    0.0143540000    0.0000000000
H        0.1291010000   -0.0224370000    0.0000000000
C       -0.1683300000   -0.0210320000   -0.0000000000
H        0.1345890000   -0.0027790000   -0.0000000000
13   
Frame  37 IRC: Energy =  -286.9348900000 ; +7.0886 kcal/mol
C       -0.0294660000    0.4123420000   -0.0000000000
C       -0.1229940000   -0.1881470000    0.0000000000
C       -0.1266120000    0.4913710000    0.0000000000
C        0.0418840000   -0.1691320000    0.0000000000
C       -0.2711430000    0.4325760000    0.0000000000
N       -0.1186070000    0.0842940000   -0.0000000000
H        0.1348250000   -0.0184780000    0.0000000000
H        0.1354670000    0.0170840000    0.0000000000
H        0.1261460000   -0.0254010000    0.0000000000
H        0.1344540000    0.0141820000    0.0000000000
H        0.1290820000   -0.0219860000    0.0000000000
C       -0.1678580000   -0.0262690000   -0.0000000000
H        0.1348220000   -0.0024370000   -0.0000000000
13   
Frame  38 IRC: Energy =  -286.9338540000 ; +7.7387 kcal/mol
C       -0.0315570000    0.3769090000   -0.0000000000
C       -0.1202250000   -0.1759310000    0.0000000000
C       -0.1197450000    0.4829210000    0.0000000000
C        0.0358840000   -0.1830340000    0.0000000000
C       -0.2737550000    0.4652530000    0.0000000000
N       -0.1136880000    0.0625910000   -0.0000000000
H        0.1359510000   -0.0164620000    0.0000000000
H        0.1354460000    0.0171120000    0.0000000000
H        0.1259890000   -0.0250720000    0.0000000000
H        0.1345080000    0.0150740000    0.0000000000
H        0.1289050000   -0.0233810000    0.0000000000
C       -0.1728970000    0.0085040000   -0.0000000000
H        0.1351860000   -0.0044830000   -0.0000000000
13   