
Running Job 1 of 1 irc_transition.in
qchem irc_transition.in_26231.0 ./irc_transition.d/ 1
/home/leeping/opt/qchem/5.0.2-openmp/exe/qcprog.exe_s irc_transition.in_26231.0 ./irc_transition.d/
Check license passed

                  Welcome to Q-Chem
     A Quantum Leap Into The Future Of Chemistry


 Q-Chem 5.0, Q-Chem, Inc., Pleasanton, CA (2017)

 Yihan Shao,  Zhengting Gan,  E. Epifanovsky,  A. T. B. Gilbert,  M. Wormit,  
 J. Kussmann,  A. W. Lange,  A. Behn,  Jia Deng,  Xintian Feng,  D. Ghosh,  
 M. Goldey,  P. R. Horn,  L. D. Jacobson,  I. Kaliman,  T. Kus,  A. Landau,  
 Jie Liu,  E. I. Proynov,  R. M. Richard,  R. P. Steele,  E. J. Sundstrom,  
 H. L. Woodcock III,  P. M. Zimmerman,  D. Zuev,  B. Albrecht,  E. Alguire,  
 S. A. Baeppler,  D. Barton,  Z. Benda,  Y. A. Bernard,  E. J. Berquist,  
 K. B. Bravaya,  H. Burton,  D. Casanova,  Chun-Min Chang,  Yunqing Chen,  
 A. Chien,  K. D. Closser,  M. P. Coons,  S. Dasgupta,  A. L. Dempwolff,  
 M. Diedenhofen,  Hainam Do,  R. G. Edgar,  Po-Tung Fang,  S. Fatehi,  
 Qingguo Feng,  J. Fosso-Tande,  Qinghui Ge,  A. Ghysels,  G. Gidofalvi,  
 J. Gomes,  J. Gonthier,  A. Gunina,  M. W. D. Hanson-Heine,  
 P. H. P. Harbach,  A. W. Hauser,  J. E. Herr,  E. G. Hohenstein,  
 Z. C. Holden,  Kerwin Hui,  T.-C. Jagau,  Hyunjun Ji,  B. Kaduk,  
 K. Khistyaev,  Jaehoon Kim,  P. Klunzinger,  K. Koh,  D. Kosenkov,  
 L. Koulias,  T. Kowalczyk,  C. M. Krauter,  A. Kunitsa,  Ka Un Lao,  
 A. Laurent,  K. V. Lawler,  Joonho Lee,  D. Lefrancois,  S. Lehtola,  
 D. S. Levine,  Yi-Pei Li,  You-Sheng Lin,  Fenglai Liu,  E. Livshits,  
 A. Luenser,  P. Manohar,  E. Mansoor,  S. F. Manzer,  Shan-Ping Mao,  
 Yuezhi Mao,  N. Mardirossian,  A. V. Marenich,  T. Markovich,  
 L. A. Martinez-Martinez,  S. A. Maurer,  N. J. Mayhall,  S. C. McKenzie,  
 J.-M. Mewes,  A. F. Morrison,  J. W. Mullinax,  K. Nanda,  
 T. S. Nguyen-Beck,  R. Olivares-Amaya,  J. A. Parkhill,  T. M. Perrine,  
 F. Plasser,  S. Prager,  A. Prociuk,  E. Ramos,  D. R. Rehn,  F. Rob,  
 M. Schneider,  N. Sergueev,  S. M. Sharada,  S. Sharma,  D. W. Small,  
 T. Stauch,  T. Stein,  Yu-Chuan Su,  A. J. W. Thom,  A. Tkatchenko,  
 T. Tsuchimochi,  L. Vogt,  O. Vydrov,  M. A. Watson,  J. Wenzel,  
 M. de Wergifosse,  T. A. Wesolowski,  A. White,  J. Witte,  A. Yamada,  
 Jun Yang,  K. Yao,  S. Yeganeh,  S. R. Yost,  Zhi-Qiang You,  A. Zech,  
 Igor Ying Zhang,  Xing Zhang,  Yan Zhao,  Ying Zhu,  B. R. Brooks,  
 G. K. L. Chan,  C. J. Cramer,  M. S. Gordon,  W. J. Hehre,  A. Klamt,  
 M. W. Schmidt,  C. D. Sherrill,  D. G. Truhlar,  A. Aspuru-Guzik,  R. Baer,  
 A. T. Bell,  N. A. Besley,  Jeng-Da Chai,  R. A. DiStasio Jr.,  A. Dreuw,  
 B. D. Dunietz,  T. R. Furlani,  Chao-Ping Hsu,  Yousung Jung,  Jing Kong,  
 D. S. Lambrecht,  WanZhen Liang,  C. Ochsenfeld,  V. A. Rassolov,  
 L. V. Slipchenko,  J. E. Subotnik,  T. Van Voorhis,  J. M. Herbert,  
 A. I. Krylov,  P. M. W. Gill,  M. Head-Gordon

 Contributors to earlier versions of Q-Chem not listed above: 
 R. D. Adamson,  B. Austin,  J. Baker,  G. J. O. Beran,  K. Brandhorst,  
 S. T. Brown,  E. F. C. Byrd,  A. K. Chakraborty,  C.-L. Cheng,  
 Siu Hung Chien,  D. M. Chipman,  D. L. Crittenden,  H. Dachsel,  
 R. J. Doerksen,  A. D. Dutoi,  L. Fusti-Molnar,  W. A. Goddard III,  
 A. Golubeva-Zadorozhnaya,  S. R. Gwaltney,  G. Hawkins,  A. Heyden,  
 S. Hirata,  G. Kedziora,  F. J. Keil,  C. Kelley,  Jihan Kim,  R. A. King,  
 R. Z. Khaliullin,  P. P. Korambath,  W. Kurlancheek,  A. M. Lee,  M. S. Lee,  
 S. V. Levchenko,  Ching Yeh Lin,  D. Liotard,  R. C. Lochan,  I. Lotan,  
 P. E. Maslen,  N. Nair,  D. P. O'Neill,  D. Neuhauser,  E. Neuscamman,  
 C. M. Oana,  R. Olson,  B. Peters,  R. Peverati,  P. A. Pieniazek,  
 Y. M. Rhee,  J. Ritchie,  M. A. Rohrdanz,  E. Rosta,  N. J. Russ,  
 H. F. Schaefer III,  N. E. Schultz,  N. Shenvi,  A. C. Simmonett,  A. Sodt,  
 D. Stuck,  K. S. Thanthiriwatte,  V. Vanovschi,  Tao Wang,  A. Warshel,  
 C. F. Williams,  Q. Wu,  X. Xu,  W. Zhang

 Please cite Q-Chem as follows:
 Y. Shao et al., Mol. Phys. 113, 184-215 (2015)
 DOI: 10.1080/00268976.2014.952696

 Q-Chem 5.0.2 for Intel X86 EM64T Linux

 Parts of Q-Chem use Armadillo 5.200.1 (Boston Tea Smuggler).
 http://arma.sourceforge.net/

 Q-Chem begins on Wed Mar  2 11:28:28 2022  

Host: 
0

     Scratch files written to ./irc_transition.d//
 Dec517 15110_ 26548  26544 5633   
Processing $rem in /home/leeping/opt/qchem/5.0.2-openmp/config/preferences.
 MEM_STATIC 2000
 MEM_TOTAL  8000
 SYMMETRY   OFF
 SYM_IGNORE TRUE 

Checking the input file for inconsistencies... 	...done.

--------------------------------------------------------------
User input:
--------------------------------------------------------------
$molecule
0 2
C        1.3277963679   -0.2117653334   -0.0992011141
C        0.4362342385   -1.2606096948    0.3833014826
C       -0.9102431008   -1.0865058870    0.4553382881
C       -1.5083776880    0.2221164911    0.3217857832
C       -0.7540403017    1.3174460859    0.0555584349
N        0.5878106200    1.2513559837   -0.3515638806
H        2.3140390293   -0.1260350642    0.3588801629
H        0.8953034780   -2.1754966966    0.7506530170
H       -1.5377762948   -1.9053667019    0.7954785165
H       -2.5440704689    0.3569372735    0.6202320965
H       -1.1126711099    2.3249600569    0.2481944594
C        1.0484761561    0.4346234534   -1.3742561968
H        1.7004827762    0.7685596258   -2.1765782745
$end

$rem
method                b3lyp
basis                 6-31+g(d,p)
unrestricted          true
symmetry              off
sym_ignore            true
incdft                false
incfock               0
scf_convergence       8
thresh                14
jobtype               sp
scf_guess             core
scf_guess_mix         5
scf_algorithm         diis
max_scf_cycles        100
$end

--------------------------------------------------------------
 ----------------------------------------------------------------
             Standard Nuclear Orientation (Angstroms)
    I     Atom           X                Y                Z
 ----------------------------------------------------------------
    1      C       1.3277963679    -0.2117653334    -0.0992011141
    2      C       0.4362342385    -1.2606096948     0.3833014826
    3      C      -0.9102431008    -1.0865058870     0.4553382881
    4      C      -1.5083776880     0.2221164911     0.3217857832
    5      C      -0.7540403017     1.3174460859     0.0555584349
    6      N       0.5878106200     1.2513559837    -0.3515638806
    7      H       2.3140390293    -0.1260350642     0.3588801629
    8      H       0.8953034780    -2.1754966966     0.7506530170
    9      H      -1.5377762948    -1.9053667019     0.7954785165
   10      H      -2.5440704689     0.3569372735     0.6202320965
   11      H      -1.1126711099     2.3249600569     0.2481944594
   12      C       1.0484761561     0.4346234534    -1.3742561968
   13      H       1.7004827762     0.7685596258    -2.1765782745
 ----------------------------------------------------------------
 Nuclear Repulsion Energy =   269.4525875593 hartrees
 There are       25 alpha and       24 beta electrons
 Requested basis set is 6-31+G(d,p)
 There are 53 shells and 163 basis functions

 Total QAlloc Memory Limit   8000 MB
 Mega-Array Size      1956 MB
 MEM_STATIC part      2000 MB

                       Distance Matrix (Angstroms)
             C (  1)   C (  2)   C (  3)   C (  4)   C (  5)   N (  6)
   C (  2)  1.458686
   C (  3)  2.466071  1.359597
   C (  4)  2.899891  2.446176  1.445024
   C (  5)  2.587756  2.858416  2.441968  1.356337
   N (  6)  1.658912  2.621636  2.891514  2.430378  1.403809
   H (  7)  1.090808  2.194085  3.365680  3.838418  3.404226  2.319871
   H (  8)  2.183012  1.087525  2.129110  3.422011  3.924811  3.612859
   H (  9)  3.446773  2.117149  1.086290  2.179778  3.398271  3.974761
   H ( 10)  3.978990  3.399237  2.186346  1.086235  2.108469  3.398978
   H ( 11)  3.537166  3.908155  3.423739  2.141016  1.086650  2.098565
   C ( 12)  1.456573  2.517472  3.081855  3.075584  2.464307  1.387503
   H ( 13)  2.327107  3.502690  4.145376  4.103317  3.362796  2.191303
             H (  7)   H (  8)   H (  9)   H ( 10)   H ( 11)   C ( 12)
   H (  8)  2.523210
   H (  9)  4.265339  2.448440
   H ( 10)  4.889048  4.273116  2.482208
   H ( 11)  4.214495  4.953639  4.286712  2.461794
   C ( 12)  2.218051  3.369188  4.107555  4.109794  3.297920
   H ( 13)  2.757771  4.229003  5.144835  5.099786  4.026877  1.086438

 
 A cutoff of  1.0D-14 yielded   1374 shell pairs
 There are     13426 function pairs
 
 -------------------------------------------------------
 OpenMP Integral Computing Module                       
 Release: version 1.0, May 2013, Q-Chem Inc. Pittsburgh 
 -------------------------------------------------------
 Integral Job Info:
 Integral job number is                      11
 Integral operator is                         1
 short-range coefficients                     0
 long-range coefficients              100000000
 Omega coefficients                           0
 if combine SR and LR in K                    0
 Integral screening is                        0
 Integral computing path is                   2
 max size of driver memory is            800000
 size of driver memory is                593474
 size of scratch memory is              2361544
 max col of scratch BK array               1296
 max len of scratch array in speh3          155
 max len of scratch index in speh4           18
 max int batch size is                      520
 min int batch size is                       52
 fixed nKL is                                52
 max L of basis functions is                  2
 order of int derivative is                   0
 number of shells is                         53
 number of basis is                         163
 number of cartesian basis is               163
 number of contracted shell pairs          1374
 number of primitive shell pairs           4637
 maxK2 (contraction) of shell pair           36
 max number of K2 of shell pair               1
 max number of CS2 of shell pair            130
 max number of PS2 of shell pair            684
 mem total for path MDJ                  535308
 -------------------------------------------------------
 Smallest overlap matrix eigenvalue = 1.77E-05

 Scale SEOQF with 1.000000e-01/1.000000e-01/1.000000e-01

 Standard Electronic Orientation quadrupole field applied
 Nucleus-field energy     =     0.0000000038 hartrees
 Guess MOs from core Hamiltonian diagonalization
 Mixing HOMO and LUMO in initial guess
 Adding  50% of the LUMO to the HOMO
 An unrestricted hybrid HF-DFT SCF calculation will be
 performed using Pulay DIIS extrapolation
 Exchange:     0.2000 Hartree-Fock + 0.0800 Slater + 0.7200 B88
 Correlation:  0.1900 VWN1RPA + 0.8100 LYP
 Using SG-1 standard quadrature grid
 SCF converges when DIIS error is below 1.0E-08
 using 4 threads for integral computing
 -------------------------------------------------------
 OpenMP Integral computing Module                
 Release: version 1.0, May 2013, Q-Chem Inc. Pittsburgh 
 -------------------------------------------------------
 -------------------------------------------------------
 OpenMP BLAS3 based DFT computing Module                
 Release: version 1.0, May 2013, Q-Chem Inc. Pittsburgh 
 -------------------------------------------------------
 ---------------------------------------
  Cycle       Energy         DIIS Error
 ---------------------------------------
    1    -237.6979610446      9.60E-02
    2    -214.3361188471      7.29E-02
    3    -248.8797363668      7.94E-02
    4    -280.9251598296      3.60E-02
    5    -280.0882265024      3.75E-02
    6    -285.5519469967      1.59E-02
    7    -286.0648116353      1.39E-02
    8    -286.7815983920      4.73E-03
    9    -286.8381867900      2.64E-03
   10    -286.8608666934      6.03E-04
   11    -286.8619395175      2.12E-04
   12    -286.8621646942      6.88E-05
   13    -286.8622072970      3.09E-05
   14    -286.8622161080      1.45E-05
   15    -286.8622215840      3.73E-06
   16    -286.8622227457      1.16E-06
   17    -286.8622232090      5.36E-07
   18    -286.8622235213      1.82E-07
   19    -286.8622237034      1.00E-07
   20    -286.8622237855      5.31E-08
   21    -286.8622238074      1.98E-08
   22    -286.8622238097      4.43E-09 Convergence criterion met
 ---------------------------------------
 <S^2> = 0.7534
 SCF time:  CPU 110.73 s  wall 74.49 s
 SCF   energy in the final basis set = -286.86222381
 Total energy in the final basis set = -286.86222381
 
 --------------------------------------------------------------
 
                    Orbital Energies (a.u.)
 --------------------------------------------------------------
 
 Alpha MOs
 -- Occupied --
-14.373 -10.243 -10.234 -10.230 -10.207 -10.204 -10.199  -0.984
 -0.816  -0.789  -0.675  -0.653  -0.571  -0.530  -0.502  -0.489
 -0.459  -0.433  -0.400  -0.379  -0.370  -0.322  -0.277  -0.234
 -0.200
 -- Virtual --
 -0.042   0.006   0.011   0.020   0.027   0.036   0.046   0.047
  0.068   0.072   0.077   0.086   0.096   0.112   0.116   0.118
  0.133   0.135   0.139   0.147   0.159   0.177   0.184   0.189
  0.194   0.198   0.208   0.212   0.220   0.234   0.241   0.257
  0.270   0.280   0.283   0.295   0.304   0.319   0.339   0.343
  0.361   0.393   0.487   0.501   0.597   0.618   0.661   0.670
  0.693   0.713   0.729   0.737   0.748   0.756   0.771   0.785
  0.805   0.866   0.901   0.912   0.929   0.937   0.951   0.970
  0.995   1.019   1.035   1.060   1.086   1.110   1.126   1.143
  1.198   1.214   1.246   1.257   1.344   1.369   1.438   1.451
  1.482   1.540   1.574   1.671   1.686   1.756   1.799   1.841
  1.852   1.890   1.933   1.943   1.969   1.979   2.038   2.061
  2.107   2.154   2.185   2.217   2.285   2.341   2.376   2.392
  2.398   2.412   2.421   2.454   2.485   2.502   2.544   2.553
  2.587   2.595   2.621   2.653   2.692   2.708   2.770   2.844
  2.885   2.932   3.031   3.104   3.255   3.277   3.305   3.334
  3.431   3.576   3.779   4.183   4.309   4.351   4.429   4.494
  4.551   4.733
 
 Beta MOs
 -- Occupied --
-14.371 -10.244 -10.229 -10.221 -10.207 -10.205 -10.199  -0.975
 -0.814  -0.785  -0.667  -0.652  -0.558  -0.526  -0.497  -0.484
 -0.452  -0.426  -0.395  -0.377  -0.368  -0.307  -0.274  -0.222
 -- Virtual --
 -0.070  -0.039   0.007   0.012   0.021   0.028   0.037   0.047
  0.048   0.069   0.075   0.082   0.087   0.096   0.112   0.117
  0.119   0.133   0.136   0.140   0.147   0.160   0.178   0.186
  0.191   0.195   0.202   0.211   0.212   0.223   0.236   0.244
  0.261   0.273   0.283   0.286   0.299   0.306   0.321   0.345
  0.348   0.369   0.405   0.490   0.503   0.602   0.620   0.665
  0.683   0.699   0.717   0.738   0.740   0.751   0.762   0.774
  0.790   0.818   0.869   0.902   0.915   0.929   0.939   0.958
  0.971   1.000   1.025   1.039   1.064   1.088   1.116   1.129
  1.146   1.204   1.218   1.249   1.266   1.348   1.373   1.440
  1.454   1.490   1.548   1.578   1.682   1.696   1.762   1.804
  1.855   1.857   1.905   1.941   1.946   1.974   1.981   2.041
  2.063   2.119   2.165   2.191   2.227   2.293   2.347   2.377
  2.397   2.402   2.413   2.423   2.456   2.489   2.505   2.547
  2.559   2.589   2.599   2.636   2.657   2.693   2.717   2.780
  2.849   2.890   2.940   3.034   3.108   3.257   3.278   3.307
  3.337   3.434   3.584   3.779   4.189   4.311   4.352   4.431
  4.518   4.557   4.734
 --------------------------------------------------------------
 
          Ground-State Mulliken Net Atomic Charges

     Atom                 Charge (a.u.)    Spin (a.u.)
  --------------------------------------------------------
      1 C                    -0.076512      -0.103195
      2 C                    -0.012435       0.053792
      3 C                    -0.189037      -0.035662
      4 C                     0.090714       0.083352
      5 C                    -0.234531      -0.114031
      6 N                    -0.156488       0.125251
      7 H                     0.147008       0.009571
      8 H                     0.133855      -0.001194
      9 H                     0.126499       0.000656
     10 H                     0.126817       0.001829
     11 H                     0.136499      -0.001376
     12 C                    -0.233569       0.980376
     13 H                     0.141179       0.000631
  --------------------------------------------------------
  Sum of atomic charges =     0.000000
  Sum of spin   charges =     1.000000

 -----------------------------------------------------------------
                    Cartesian Multipole Moments
 -----------------------------------------------------------------
    Charge (ESU x 10^10)
                 0.0000
    Dipole Moment (Debye)
         X       0.1189      Y      -0.8059      Z       0.5023
       Tot       0.9570
    Quadrupole Moments (Debye-Ang)
        XX     -37.3118     XY      -1.8763     YY     -41.0962
        XZ      -2.1803     YZ      -1.8142     ZZ     -43.2939
    Octopole Moments (Debye-Ang^2)
       XXX      -2.7938    XXY      -4.8389    XYY      -6.6637
       YYY     -13.8817    XXZ       4.7960    XYZ      -1.8148
       YYZ       6.8792    XZZ       4.1322    YZZ      -1.2815
       ZZZ       4.9119
    Hexadecapole Moments (Debye-Ang^3)
      XXXX    -328.0471   XXXY       2.4406   XXYY    -108.7004
      XYYY     -11.3874   YYYY    -303.8911   XXXZ      42.0478
      XXYZ       8.3953   XYYZ      15.1277   YYYZ      32.9389
      XXZZ     -80.4292   XYZZ       5.7613   YYZZ     -79.8038
      XZZZ      43.5433   YZZZ      33.5312   ZZZZ    -162.3668
 -----------------------------------------------------------------
Archival summary:
1\1\c8-72\SP\ProcedureUnspecified\6-31+G**\166(2)\hpark21\WedMar211:29:532022WedMar211:29:532022\0\\#,ProcedureUnspecified,6-31+G**,\\0,2\N\C,1,1.3875\H,2,1.08644,1,124.239\C,1,1.40381,2,123.975,3,132.021,0\H,4,1.08665,1,114.238,2,-137.397,0\C,4,1.35634,1,123.402,2,49.0562,0\H,6,1.08623,4,118.945,1,-179.25,0\C,6,1.44502,4,121.283,1,12.1933,0\H,8,1.08629,6,118.195,4,172.155,0\C,8,1.3596,6,121.4,4,3.20167,0\H,10,1.08752,8,120.523,6,163.01,0\C,2,1.45657,1,71.317,3,128.503,0\H,12,1.09081,2,120.406,1,-97.491,0\\\@

 Total job time:  84.59s(wall), 112.63s(cpu) 
 Wed Mar  2 11:29:53 2022

        *************************************************************
        *                                                           *
        *  Thank you very much for using Q-Chem.  Have a nice day.  *
        *                                                           *
        *************************************************************


