
Running Job 1 of 1 qcopt_rct.in
qchem qcopt_rct.in_35929.0 ./qcopt_rct.d/ 1
/home/leeping/opt/qchem/5.0.2-openmp/exe/qcprog.exe_s qcopt_rct.in_35929.0 ./qcopt_rct.d/
Check license passed

                  Welcome to Q-Chem
     A Quantum Leap Into The Future Of Chemistry


 Q-Chem 5.0, Q-Chem, Inc., Pleasanton, CA (2017)

 Yihan Shao,  Zhengting Gan,  E. Epifanovsky,  A. T. B. Gilbert,  M. Wormit,  
 J. Kussmann,  A. W. Lange,  A. Behn,  Jia Deng,  Xintian Feng,  D. Ghosh,  
 M. Goldey,  P. R. Horn,  L. D. Jacobson,  I. Kaliman,  T. Kus,  A. Landau,  
 Jie Liu,  E. I. Proynov,  R. M. Richard,  R. P. Steele,  E. J. Sundstrom,  
 H. L. Woodcock III,  P. M. Zimmerman,  D. Zuev,  B. Albrecht,  E. Alguire,  
 S. A. Baeppler,  D. Barton,  Z. Benda,  Y. A. Bernard,  E. J. Berquist,  
 K. B. Bravaya,  H. Burton,  D. Casanova,  Chun-Min Chang,  Yunqing Chen,  
 A. Chien,  K. D. Closser,  M. P. Coons,  S. Dasgupta,  A. L. Dempwolff,  
 M. Diedenhofen,  Hainam Do,  R. G. Edgar,  Po-Tung Fang,  S. Fatehi,  
 Qingguo Feng,  J. Fosso-Tande,  Qinghui Ge,  A. Ghysels,  G. Gidofalvi,  
 J. Gomes,  J. Gonthier,  A. Gunina,  M. W. D. Hanson-Heine,  
 P. H. P. Harbach,  A. W. Hauser,  J. E. Herr,  E. G. Hohenstein,  
 Z. C. Holden,  Kerwin Hui,  T.-C. Jagau,  Hyunjun Ji,  B. Kaduk,  
 K. Khistyaev,  Jaehoon Kim,  P. Klunzinger,  K. Koh,  D. Kosenkov,  
 L. Koulias,  T. Kowalczyk,  C. M. Krauter,  A. Kunitsa,  Ka Un Lao,  
 A. Laurent,  K. V. Lawler,  Joonho Lee,  D. Lefrancois,  S. Lehtola,  
 D. S. Levine,  Yi-Pei Li,  You-Sheng Lin,  Fenglai Liu,  E. Livshits,  
 A. Luenser,  P. Manohar,  E. Mansoor,  S. F. Manzer,  Shan-Ping Mao,  
 Yuezhi Mao,  N. Mardirossian,  A. V. Marenich,  T. Markovich,  
 L. A. Martinez-Martinez,  S. A. Maurer,  N. J. Mayhall,  S. C. McKenzie,  
 J.-M. Mewes,  A. F. Morrison,  J. W. Mullinax,  K. Nanda,  
 T. S. Nguyen-Beck,  R. Olivares-Amaya,  J. A. Parkhill,  T. M. Perrine,  
 F. Plasser,  S. Prager,  A. Prociuk,  E. Ramos,  D. R. Rehn,  F. Rob,  
 M. Schneider,  N. Sergueev,  S. M. Sharada,  S. Sharma,  D. W. Small,  
 T. Stauch,  T. Stein,  Yu-Chuan Su,  A. J. W. Thom,  A. Tkatchenko,  
 T. Tsuchimochi,  L. Vogt,  O. Vydrov,  M. A. Watson,  J. Wenzel,  
 M. de Wergifosse,  T. A. Wesolowski,  A. White,  J. Witte,  A. Yamada,  
 Jun Yang,  K. Yao,  S. Yeganeh,  S. R. Yost,  Zhi-Qiang You,  A. Zech,  
 Igor Ying Zhang,  Xing Zhang,  Yan Zhao,  Ying Zhu,  B. R. Brooks,  
 G. K. L. Chan,  C. J. Cramer,  M. S. Gordon,  W. J. Hehre,  A. Klamt,  
 M. W. Schmidt,  C. D. Sherrill,  D. G. Truhlar,  A. Aspuru-Guzik,  R. Baer,  
 A. T. Bell,  N. A. Besley,  Jeng-Da Chai,  R. A. DiStasio Jr.,  A. Dreuw,  
 B. D. Dunietz,  T. R. Furlani,  Chao-Ping Hsu,  Yousung Jung,  Jing Kong,  
 D. S. Lambrecht,  WanZhen Liang,  C. Ochsenfeld,  V. A. Rassolov,  
 L. V. Slipchenko,  J. E. Subotnik,  T. Van Voorhis,  J. M. Herbert,  
 A. I. Krylov,  P. M. W. Gill,  M. Head-Gordon

 Contributors to earlier versions of Q-Chem not listed above: 
 R. D. Adamson,  B. Austin,  J. Baker,  G. J. O. Beran,  K. Brandhorst,  
 S. T. Brown,  E. F. C. Byrd,  A. K. Chakraborty,  C.-L. Cheng,  
 Siu Hung Chien,  D. M. Chipman,  D. L. Crittenden,  H. Dachsel,  
 R. J. Doerksen,  A. D. Dutoi,  L. Fusti-Molnar,  W. A. Goddard III,  
 A. Golubeva-Zadorozhnaya,  S. R. Gwaltney,  G. Hawkins,  A. Heyden,  
 S. Hirata,  G. Kedziora,  F. J. Keil,  C. Kelley,  Jihan Kim,  R. A. King,  
 R. Z. Khaliullin,  P. P. Korambath,  W. Kurlancheek,  A. M. Lee,  M. S. Lee,  
 S. V. Levchenko,  Ching Yeh Lin,  D. Liotard,  R. C. Lochan,  I. Lotan,  
 P. E. Maslen,  N. Nair,  D. P. O'Neill,  D. Neuhauser,  E. Neuscamman,  
 C. M. Oana,  R. Olson,  B. Peters,  R. Peverati,  P. A. Pieniazek,  
 Y. M. Rhee,  J. Ritchie,  M. A. Rohrdanz,  E. Rosta,  N. J. Russ,  
 H. F. Schaefer III,  N. E. Schultz,  N. Shenvi,  A. C. Simmonett,  A. Sodt,  
 D. Stuck,  K. S. Thanthiriwatte,  V. Vanovschi,  Tao Wang,  A. Warshel,  
 C. F. Williams,  Q. Wu,  X. Xu,  W. Zhang

 Please cite Q-Chem as follows:
 Y. Shao et al., Mol. Phys. 113, 184-215 (2015)
 DOI: 10.1080/00268976.2014.952696

 Q-Chem 5.0.2 for Intel X86 EM64T Linux

 Parts of Q-Chem use Armadillo 5.200.1 (Boston Tea Smuggler).
 http://arma.sourceforge.net/

 Q-Chem begins on Wed Mar  2 02:07:34 2022  

Host: 
0

     Scratch files written to ./qcopt_rct.d//
 Dec517 15110_ 26548  26544 5633   
Processing $rem in /home/leeping/opt/qchem/5.0.2-openmp/config/preferences.
 MEM_STATIC 2000
 MEM_TOTAL  8000
 SYMMETRY   OFF
 SYM_IGNORE TRUE 

Checking the input file for inconsistencies... 	...done.

--------------------------------------------------------------
User input:
--------------------------------------------------------------
$molecule
0 2
C        1.4248047795    0.8351905861   -0.3608573685
C        0.2641754905   -1.4178065682   -0.2075422499
C       -0.9823267957   -1.0560105798    0.2082138302
C       -1.4531096034    0.2801671230    0.4719680000
C       -0.7560878234    1.4684735380    0.3605923550
N        0.5127386001    1.7692626350   -0.0041128838
H        2.3887301342    1.2820544124   -0.6143378257
H        0.4497371851   -2.4790931123   -0.3605291759
H       -1.7079332310   -1.8526234531    0.3598812301
H       -2.4868337669    0.3703446867    0.7968987782
H       -1.3309948254    2.3624711309    0.6124714574
C        1.3779230141   -0.5422021264   -0.4692217660
H        2.2991768418   -1.0202282729   -0.7934243814
$end

$rem
method                b3lyp
basis                 6-31g(d)
unrestricted          true
symmetry              off
sym_ignore            true
incdft                false
incfock               0
scf_convergence       8
thresh                14
jobtype               opt
scf_guess             core
scf_guess_mix         5
scf_algorithm         diis
max_scf_cycles        100
geom_opt_max_cycles   300
$end

--------------------------------------------------------------
 ----------------------------------------------------------------
             Standard Nuclear Orientation (Angstroms)
    I     Atom           X                Y                Z
 ----------------------------------------------------------------
    1      C       1.4248047795     0.8351905861    -0.3608573685
    2      C       0.2641754905    -1.4178065682    -0.2075422499
    3      C      -0.9823267957    -1.0560105798     0.2082138302
    4      C      -1.4531096034     0.2801671230     0.4719680000
    5      C      -0.7560878234     1.4684735380     0.3605923550
    6      N       0.5127386001     1.7692626350    -0.0041128838
    7      H       2.3887301342     1.2820544124    -0.6143378257
    8      H       0.4497371851    -2.4790931123    -0.3605291759
    9      H      -1.7079332310    -1.8526234531     0.3598812301
   10      H      -2.4868337669     0.3703446867     0.7968987782
   11      H      -1.3309948254     2.3624711309     0.6124714574
   12      C       1.3779230141    -0.5422021264    -0.4692217660
   13      H       2.2991768418    -1.0202282729    -0.7934243814
 ----------------------------------------------------------------
 Nuclear Repulsion Energy =   260.7164902025 hartrees
 There are       25 alpha and       24 beta electrons
 Requested basis set is 6-31G(d)
 There are 40 shells and 117 basis functions

 Total QAlloc Memory Limit   8000 MB
 Mega-Array Size      1956 MB
 MEM_STATIC part      2000 MB
 A cutoff of  1.0D-14 yielded    791 shell pairs
 There are      7063 function pairs
 
 -------------------------------------------------------
 OpenMP Integral Computing Module                       
 Release: version 1.0, May 2013, Q-Chem Inc. Pittsburgh 
 -------------------------------------------------------
 Integral Job Info:
 Integral job number is                      11
 Integral operator is                         1
 short-range coefficients                     0
 long-range coefficients              100000000
 Omega coefficients                           0
 if combine SR and LR in K                    0
 Integral screening is                        0
 Integral computing path is                   2
 max size of driver memory is            800000
 size of driver memory is                593474
 size of scratch memory is              2361544
 max col of scratch BK array               1296
 max len of scratch array in speh3          155
 max len of scratch index in speh4           18
 max int batch size is                      520
 min int batch size is                       52
 fixed nKL is                                52
 max L of basis functions is                  2
 order of int derivative is                   0
 number of shells is                         40
 number of basis is                         117
 number of cartesian basis is               117
 number of contracted shell pairs           791
 number of primitive shell pairs           3395
 maxK2 (contraction) of shell pair           36
 max number of K2 of shell pair               1
 max number of CS2 of shell pair             94
 max number of PS2 of shell pair            402
 mem total for path MDJ                  535308
 -------------------------------------------------------
 Smallest overlap matrix eigenvalue = 1.33E-03

 Scale SEOQF with 1.000000e-01/1.000000e-01/1.000000e+00

 Standard Electronic Orientation quadrupole field applied
 Nucleus-field energy     =     0.0000000005 hartrees
 Guess MOs from core Hamiltonian diagonalization
 Mixing HOMO and LUMO in initial guess
 Adding  50% of the LUMO to the HOMO
 An unrestricted hybrid HF-DFT SCF calculation will be
 performed using Pulay DIIS extrapolation
 Exchange:     0.2000 Hartree-Fock + 0.0800 Slater + 0.7200 B88
 Correlation:  0.1900 VWN1RPA + 0.8100 LYP
 Using SG-1 standard quadrature grid
 SCF converges when DIIS error is below 1.0E-08
 using 4 threads for integral computing
 -------------------------------------------------------
 OpenMP Integral computing Module                
 Release: version 1.0, May 2013, Q-Chem Inc. Pittsburgh 
 -------------------------------------------------------
 -------------------------------------------------------
 OpenMP BLAS3 based DFT computing Module                
 Release: version 1.0, May 2013, Q-Chem Inc. Pittsburgh 
 -------------------------------------------------------
 ---------------------------------------
  Cycle       Energy         DIIS Error
 ---------------------------------------
    1    -239.4943339520      1.26E-01
    2    -227.9313995060      1.03E-01
    3    -250.2754011261      1.03E-01
    4    -281.9123214736      4.85E-02
    5    -282.4535571062      4.74E-02
    6    -285.5296695736      2.31E-02
    7    -286.6135086343      1.25E-02
    8    -286.8607542031      4.94E-03
    9    -286.9210151470      8.94E-04
   10    -286.9229632785      7.33E-04
   11    -286.9239717592      1.82E-04
   12    -286.9241732249      8.15E-05
   13    -286.9242662802      4.55E-05
   14    -286.9243083315      1.21E-05
   15    -286.9243171470      4.35E-06
   16    -286.9243191564      2.11E-06
   17    -286.9243193485      6.59E-07
   18    -286.9243193820      2.31E-07
   19    -286.9243193845      8.49E-08
   20    -286.9243193850      7.12E-08
   21    -286.9243193851      4.42E-08
   22    -286.9243193853      2.02E-08
   23    -286.9243193853      4.40E-09 Convergence criterion met
 ---------------------------------------
 <S^2> = 0.7684
 SCF time:  CPU 59.14 s  wall 45.25 s
 SCF   energy in the final basis set = -286.92431939
 Total energy in the final basis set = -286.92431939
 
 --------------------------------------------------------------
 
                    Orbital Energies (a.u.)
 --------------------------------------------------------------
 
 Alpha MOs
 -- Occupied --
-14.322 -10.232 -10.232 -10.212 -10.211 -10.201 -10.200  -0.922
 -0.818  -0.784  -0.693  -0.667  -0.551  -0.537  -0.518  -0.449
 -0.439  -0.414  -0.394  -0.387  -0.349  -0.322  -0.299  -0.251
 -0.162
 -- Virtual --
 -0.072   0.077   0.097   0.101   0.117   0.142   0.181   0.184
  0.193   0.213   0.266   0.320   0.356   0.390   0.412   0.483
  0.497   0.521   0.547   0.576   0.584   0.587   0.591   0.610
  0.619   0.624   0.646   0.658   0.713   0.718   0.833   0.840
  0.847   0.854   0.868   0.872   0.885   0.922   0.965   0.975
  1.024   1.027   1.043   1.127   1.177   1.185   1.300   1.303
  1.326   1.402   1.429   1.480   1.482   1.546   1.574   1.586
  1.682   1.732   1.769   1.829   1.850   1.919   1.924   2.030
  2.046   2.048   2.100   2.141   2.141   2.191   2.247   2.391
  2.410   2.414   2.446   2.545   2.577   2.601   2.614   2.739
  2.748   2.807   3.052   3.249   3.250   4.018   4.046   4.102
  4.196   4.239   4.532   4.595
 
 Beta MOs
 -- Occupied --
-14.314 -10.233 -10.233 -10.210 -10.210 -10.196 -10.196  -0.911
 -0.809  -0.777  -0.681  -0.665  -0.546  -0.534  -0.514  -0.447
 -0.438  -0.411  -0.383  -0.373  -0.348  -0.295  -0.276  -0.241
 -- Virtual --
 -0.078  -0.070   0.078   0.118   0.124   0.125   0.142   0.182
  0.187   0.196   0.219   0.268   0.324   0.360   0.392   0.415
  0.486   0.505   0.525   0.552   0.587   0.588   0.592   0.596
  0.614   0.623   0.629   0.649   0.676   0.716   0.729   0.834
  0.843   0.846   0.869   0.875   0.880   0.887   0.925   0.967
  0.979   1.026   1.030   1.045   1.133   1.180   1.189   1.311
  1.315   1.333   1.411   1.429   1.489   1.492   1.560   1.582
  1.597   1.685   1.737   1.781   1.831   1.854   1.922   1.933
  2.036   2.058   2.061   2.110   2.141   2.147   2.203   2.259
  2.399   2.422   2.425   2.448   2.558   2.579   2.611   2.624
  2.742   2.761   2.810   3.054   3.252   3.254   4.030   4.053
  4.109   4.200   4.239   4.537   4.601
 --------------------------------------------------------------
 
          Ground-State Mulliken Net Atomic Charges

     Atom                 Charge (a.u.)    Spin (a.u.)
  --------------------------------------------------------
      1 C                     0.035821      -0.113483
      2 C                    -0.111086       0.091960
      3 C                    -0.111487       0.095415
      4 C                    -0.131276       0.345781
      5 C                     0.035191      -0.111896
      6 N                    -0.423392       0.386933
      7 H                     0.142605       0.003446
      8 H                     0.141915      -0.006552
      9 H                     0.141898      -0.006718
     10 H                     0.134422      -0.018278
     11 H                     0.142669       0.003367
     12 C                    -0.131674       0.348423
     13 H                     0.134393      -0.018399
  --------------------------------------------------------
  Sum of atomic charges =     0.000000
  Sum of spin   charges =     1.000000

 -----------------------------------------------------------------
                    Cartesian Multipole Moments
 -----------------------------------------------------------------
    Charge (ESU x 10^10)
                 0.0000
    Dipole Moment (Debye)
         X      -0.6239      Y      -2.1537      Z       0.0054
       Tot       2.2423
    Quadrupole Moments (Debye-Ang)
        XX     -35.6747     XY      -1.9362     YY     -41.7945
        XZ      -2.5158     YZ       0.7496     ZZ     -42.5260
    Octopole Moments (Debye-Ang^2)
       XXX      -4.0565    XXY      -6.0412    XYY      -8.3482
       YYY     -36.6946    XXZ      -0.3054    XYZ      -0.4836
       YYZ       0.3542    XZZ      -1.6305    YZZ      -5.6231
       ZZZ       0.0098
    Hexadecapole Moments (Debye-Ang^3)
      XXXX    -348.6948   XXXY      -1.7628   XXYY    -122.6442
      XYYY     -23.1481   YYYY    -427.6373   XXXZ      37.1011
      XXYZ      -4.5362   XYYZ      11.1131   YYYZ      -9.1332
      XXZZ     -76.0903   XYZZ      -2.4853   YYZZ     -84.0326
      XZZZ      53.9844   YZZZ     -15.5123   ZZZZ     -79.9668
 -----------------------------------------------------------------
 Calculating analytic gradient of the SCF energy
 Gradient of SCF Energy
            1           2           3           4           5           6
    1   0.0000986  -0.0000540   0.0000617  -0.0001324  -0.0000256  -0.0000541
    2   0.0000444   0.0000417  -0.0000744   0.0000210  -0.0000312  -0.0000113
    3   0.0002174  -0.0000238   0.0000183  -0.0000066   0.0002918  -0.0003537
            7           8           9          10          11          12
    1  -0.0000061  -0.0000071   0.0000055   0.0000066  -0.0000251   0.0001514
    2   0.0000086   0.0000075  -0.0000103   0.0000192   0.0000363  -0.0000374
    3   0.0000211  -0.0000145   0.0000057  -0.0000271  -0.0000461  -0.0000147
           13
    1  -0.0000194
    2  -0.0000141
    3  -0.0000677
 Max gradient component =       3.537E-04
 RMS gradient           =       9.375E-05
 Gradient time:  CPU 7.40 s  wall 2.26 s
 Geometry Optimization Parameters
   NAtoms,    NIC,     NZ,  NCons,   NDum,   NFix, NCnnct, MaxDiis
       13      82       0       0       0       0       0       0


** GEOMETRY OPTIMIZATION IN DELOCALIZED INTERNAL COORDINATES **
   Searching for a Minimum

   Optimization Cycle:   1

                       Coordinates (Angstroms)
     ATOM                X               Y               Z
      1  C         1.4248047795    0.8351905861   -0.3608573685
      2  C         0.2641754905   -1.4178065682   -0.2075422499
      3  C        -0.9823267957   -1.0560105798    0.2082138302
      4  C        -1.4531096034    0.2801671230    0.4719680000
      5  C        -0.7560878234    1.4684735380    0.3605923550
      6  N         0.5127386001    1.7692626350   -0.0041128838
      7  H         2.3887301342    1.2820544124   -0.6143378257
      8  H         0.4497371851   -2.4790931123   -0.3605291759
      9  H        -1.7079332310   -1.8526234531    0.3598812301
     10  H        -2.4868337669    0.3703446867    0.7968987782
     11  H        -1.3309948254    2.3624711309    0.6124714574
     12  C         1.3779230141   -0.5422021264   -0.4692217660
     13  H         2.2991768418   -1.0202282729   -0.7934243814
   Point Group: c1    Number of degrees of freedom:    33


   Energy is   -286.924319385


 Attempting to Generate Delocalized Internal Coordinates

 33 Hessian modes will be used to form the next step
  Hessian Eigenvalues:
     0.018544    0.019875    0.020870    0.021840    0.022016    0.022688
     0.023096    0.023783    0.024004    0.025343    0.159999    0.160000
     0.160000    0.160000    0.160000    0.160000    0.219999    0.220000
     0.220000    0.233945    0.345443    0.345496    0.350221    0.350257
     0.351210    0.351224    0.382460    0.389531    0.467016    0.484458
     0.507087    0.534036    0.538359

 Minimum Search - Taking Simple RFO Step
 Searching for Lamda that Minimizes Along All modes
 Value Taken    Lamda =  -0.00000219
 Step Taken.  Stepsize is  0.009188

                             Maximum     Tolerance    Cnvgd?
         Gradient           0.000185      0.000300     YES
         Displacement       0.005618      0.001200      NO
         Energy change     *********      0.000001      NO


 New Cartesian Coordinates Obtained by Inverse Iteration

 Displacement from previous Coordinates is:  0.006378
 ----------------------------------------------------------------
             Standard Nuclear Orientation (Angstroms)
    I     Atom           X                Y                Z
 ----------------------------------------------------------------
    1      C       1.4243330331     0.8353186705    -0.3617294883
    2      C       0.2641690359    -1.4179842757    -0.2073411607
    3      C      -0.9824831178    -1.0560135469     0.2076891963
    4      C      -1.4530460566     0.2802209880     0.4709416363
    5      C      -0.7560103017     1.4685461202     0.3600252888
    6      N       0.5132066891     1.7694259595    -0.0028196764
    7      H       2.3884222383     1.2819375315    -0.6150596407
    8      H       0.4502303783    -2.4793493904    -0.3592417859
    9      H      -1.7080833522    -1.8525314213     0.3598344676
   10      H      -2.4866634000     0.3702550263     0.7963183330
   11      H      -1.3305043891     2.3621649238     0.6139710758
   12      C       1.3773576074    -0.5420471567    -0.4697785111
   13      H       2.2990716349    -1.0199434295    -0.7928097350
 ----------------------------------------------------------------
 Nuclear Repulsion Energy =   260.7279711987 hartrees
 There are       25 alpha and       24 beta electrons
 Applying Cartesian multipole field
    Component          Value
    ---------          -----
     (2,0,0)        1.00000E-11
     (0,2,0)        2.00000E-11
     (0,0,2)       -3.00000E-10
 Nucleus-field energy     =     0.0000000006 hartrees
 Requested basis set is 6-31G(d)
 There are 40 shells and 117 basis functions
 A cutoff of  1.0D-14 yielded    791 shell pairs
 There are      7063 function pairs
 Smallest overlap matrix eigenvalue = 1.33E-03
 Guess MOs from SCF MO coefficient file
 Reading MOs from coefficient file
 Mixing HOMO and LUMO in initial guess
 Adding  50% of the LUMO to the HOMO
 Reading MOs from coefficient file
 An unrestricted hybrid HF-DFT SCF calculation will be
 performed using Pulay DIIS extrapolation
 Exchange:     0.2000 Hartree-Fock + 0.0800 Slater + 0.7200 B88
 Correlation:  0.1900 VWN1RPA + 0.8100 LYP
 Using SG-1 standard quadrature grid
 SCF converges when DIIS error is below 1.0E-08
 Geometry optimization detected.  Setting ReadMinima to 0
 Setting SaveMinima to 0
 using 4 threads for integral computing
 -------------------------------------------------------
 OpenMP Integral computing Module                
 Release: version 1.0, May 2013, Q-Chem Inc. Pittsburgh 
 -------------------------------------------------------
 -------------------------------------------------------
 OpenMP BLAS3 based DFT computing Module                
 Release: version 1.0, May 2013, Q-Chem Inc. Pittsburgh 
 -------------------------------------------------------
 ---------------------------------------
  Cycle       Energy         DIIS Error
 ---------------------------------------
    1    -286.9146279240      1.13E-03
    2    -286.9159036673      2.08E-03
    3    -286.9226912178      3.74E-04
    4    -286.9231446744      3.02E-04
    5    -286.9235776170      2.02E-04
    6    -286.9240398911      7.98E-05
    7    -286.9241436853      4.06E-05
    8    -286.9242656401      2.11E-05
    9    -286.9242944742      1.31E-05
   10    -286.9243178034      3.39E-06
   11    -286.9243201325      2.06E-06
   12    -286.9243205633      1.14E-06
   13    -286.9243206190      4.42E-07
   14    -286.9243206382      1.91E-07
   15    -286.9243206421      7.58E-08
   16    -286.9243206425      3.82E-08
   17    -286.9243206425      1.63E-08
   18    -286.9243206425      2.98E-09 Convergence criterion met
 ---------------------------------------
 <S^2> = 0.7684
 SCF time:  CPU 46.09 s  wall 48.43 s
 SCF   energy in the final basis set = -286.92432064
 Total energy in the final basis set = -286.92432064
 
 --------------------------------------------------------------
 
                    Orbital Energies (a.u.)
 --------------------------------------------------------------
 
 Alpha MOs
 -- Occupied --
-14.322 -10.232 -10.232 -10.212 -10.211 -10.201 -10.200  -0.922
 -0.818  -0.784  -0.693  -0.667  -0.551  -0.537  -0.518  -0.449
 -0.439  -0.414  -0.394  -0.387  -0.349  -0.322  -0.299  -0.251
 -0.162
 -- Virtual --
 -0.072   0.077   0.097   0.101   0.117   0.142   0.181   0.184
  0.193   0.213   0.266   0.320   0.356   0.390   0.412   0.483
  0.497   0.521   0.547   0.576   0.584   0.587   0.591   0.610
  0.619   0.624   0.646   0.658   0.714   0.718   0.833   0.840
  0.847   0.854   0.868   0.872   0.885   0.922   0.965   0.975
  1.024   1.027   1.043   1.127   1.177   1.185   1.300   1.303
  1.326   1.401   1.429   1.480   1.482   1.546   1.574   1.586
  1.682   1.732   1.769   1.829   1.850   1.919   1.925   2.030
  2.046   2.048   2.100   2.141   2.142   2.191   2.247   2.391
  2.410   2.414   2.446   2.545   2.577   2.601   2.614   2.739
  2.749   2.808   3.052   3.249   3.250   4.018   4.046   4.102
  4.196   4.239   4.532   4.595
 
 Beta MOs
 -- Occupied --
-14.314 -10.233 -10.233 -10.210 -10.210 -10.196 -10.196  -0.911
 -0.809  -0.777  -0.681  -0.665  -0.546  -0.535  -0.514  -0.447
 -0.438  -0.411  -0.383  -0.373  -0.348  -0.295  -0.276  -0.241
 -- Virtual --
 -0.078  -0.070   0.078   0.118   0.124   0.125   0.142   0.182
  0.187   0.196   0.219   0.268   0.324   0.360   0.393   0.415
  0.486   0.505   0.525   0.551   0.587   0.588   0.592   0.596
  0.614   0.624   0.629   0.649   0.676   0.716   0.729   0.834
  0.843   0.846   0.869   0.875   0.880   0.887   0.925   0.967
  0.979   1.026   1.030   1.045   1.133   1.180   1.189   1.311
  1.315   1.333   1.411   1.429   1.489   1.492   1.560   1.582
  1.597   1.685   1.737   1.781   1.831   1.854   1.922   1.933
  2.036   2.058   2.061   2.110   2.141   2.147   2.203   2.259
  2.399   2.422   2.425   2.448   2.558   2.579   2.611   2.624
  2.742   2.761   2.810   3.054   3.252   3.254   4.030   4.053
  4.109   4.200   4.239   4.537   4.601
 --------------------------------------------------------------
 
          Ground-State Mulliken Net Atomic Charges

     Atom                 Charge (a.u.)    Spin (a.u.)
  --------------------------------------------------------
      1 C                     0.035763      -0.113337
      2 C                    -0.111062       0.092206
      3 C                    -0.111434       0.095229
      4 C                    -0.131321       0.345878
      5 C                     0.035208      -0.111949
      6 N                    -0.423337       0.386904
      7 H                     0.142588       0.003439
      8 H                     0.141931      -0.006563
      9 H                     0.141902      -0.006709
     10 H                     0.134400      -0.018282
     11 H                     0.142657       0.003369
     12 C                    -0.131662       0.348203
     13 H                     0.134367      -0.018390
  --------------------------------------------------------
  Sum of atomic charges =    -0.000000
  Sum of spin   charges =     1.000000

 -----------------------------------------------------------------
                    Cartesian Multipole Moments
 -----------------------------------------------------------------
    Charge (ESU x 10^10)
                -0.0000
    Dipole Moment (Debye)
         X      -0.6243      Y      -2.1543      Z       0.0048
       Tot       2.2429
    Quadrupole Moments (Debye-Ang)
        XX     -35.6783     XY      -1.9384     YY     -41.7942
        XZ      -2.5172     YZ       0.7406     ZZ     -42.5255
    Octopole Moments (Debye-Ang^2)
       XXX      -4.0441    XXY      -6.0536    XYY      -8.3466
       YYY     -36.7075    XXZ      -0.2914    XYZ      -0.4948
       YYZ       0.3582    XZZ      -1.6330    YZZ      -5.6180
       ZZZ       0.0437
    Hexadecapole Moments (Debye-Ang^3)
      XXXX    -348.6260   XXXY      -1.7849   XXYY    -122.6521
      XYYY     -23.1833   YYYY    -427.6732   XXXZ      37.0840
      XXYZ      -4.5489   XYYZ      11.0894   YYYZ      -9.1882
      XXZZ     -76.0767   XYZZ      -2.4935   YYZZ     -84.0305
      XZZZ      53.9578   YZZZ     -15.5290   ZZZZ     -79.9476
 -----------------------------------------------------------------
 Calculating analytic gradient of the SCF energy
 Gradient of SCF Energy
            1           2           3           4           5           6
    1  -0.0000346  -0.0000223   0.0000402  -0.0000127  -0.0000495   0.0000104
    2   0.0000456   0.0000503  -0.0000186   0.0000185  -0.0000237  -0.0000343
    3   0.0000350   0.0000038   0.0000055   0.0000262  -0.0000371  -0.0001027
            7           8           9          10          11          12
    1   0.0000066   0.0000022   0.0000089   0.0000062   0.0000164   0.0000351
    2   0.0000111  -0.0000043  -0.0000083  -0.0000101  -0.0000036  -0.0000233
    3   0.0000504  -0.0000051  -0.0000026   0.0000096   0.0000319  -0.0000213
           13
    1  -0.0000069
    2   0.0000006
    3   0.0000065
 Max gradient component =       1.027E-04
 RMS gradient           =       2.939E-05
 Gradient time:  CPU 7.75 s  wall 7.51 s
 Geometry Optimization Parameters
   NAtoms,    NIC,     NZ,  NCons,   NDum,   NFix, NCnnct, MaxDiis
       13      82       0       0       0       0       0       0

 Cartesian Hessian Update
 Hessian Updated using BFGS Update


** GEOMETRY OPTIMIZATION IN DELOCALIZED INTERNAL COORDINATES **
   Searching for a Minimum

   Optimization Cycle:   2

                       Coordinates (Angstroms)
     ATOM                X               Y               Z
      1  C         1.4243330331    0.8353186705   -0.3617294883
      2  C         0.2641690359   -1.4179842757   -0.2073411607
      3  C        -0.9824831178   -1.0560135469    0.2076891963
      4  C        -1.4530460566    0.2802209880    0.4709416363
      5  C        -0.7560103017    1.4685461202    0.3600252888
      6  N         0.5132066891    1.7694259595   -0.0028196764
      7  H         2.3884222383    1.2819375315   -0.6150596407
      8  H         0.4502303783   -2.4793493904   -0.3592417859
      9  H        -1.7080833522   -1.8525314213    0.3598344676
     10  H        -2.4866634000    0.3702550263    0.7963183330
     11  H        -1.3305043891    2.3621649238    0.6139710758
     12  C         1.3773576074   -0.5420471567   -0.4697785111
     13  H         2.2990716349   -1.0199434295   -0.7928097350
   Point Group: c1    Number of degrees of freedom:    33


   Energy is   -286.924320643

 Hessian Updated using BFGS Update

 31 Hessian modes will be used to form the next step
  Hessian Eigenvalues:
     0.012671    0.019692    0.019994    0.021094    0.021873    0.022577
     0.023157    0.023732    0.025012    0.034524    0.158893    0.160000
     0.160000    0.160450    0.213810    0.220000    0.220004    0.231740
     0.345493    0.345675    0.350249    0.350282    0.351186    0.351344
     0.382394    0.390359    0.466894    0.485138    0.506973    0.535251
     0.541679

 Minimum Search - Taking Simple RFO Step
 Searching for Lamda that Minimizes Along All modes
 Value Taken    Lamda =   0.00000000
 Step Taken.  Stepsize is  0.006755

                             Maximum     Tolerance    Cnvgd?
         Gradient           0.000060      0.000300     YES
         Displacement       0.003750      0.001200      NO
         Energy change     -0.000001      0.000001      NO


 New Cartesian Coordinates Obtained by Inverse Iteration

 Displacement from previous Coordinates is:  0.006581
 ----------------------------------------------------------------
             Standard Nuclear Orientation (Angstroms)
    I     Atom           X                Y                Z
 ----------------------------------------------------------------
    1      C       1.4242743716     0.8353427941    -0.3616690010
    2      C       0.2643171839    -1.4181838372    -0.2067771885
    3      C      -0.9825272487    -1.0560637176     0.2076024894
    4      C      -1.4529982031     0.2802445350     0.4704201565
    5      C      -0.7556637669     1.4685398739     0.3607693024
    6      N       0.5138100408     1.7694656913    -0.0009509843
    7      H       2.3879472837     1.2819110123    -0.6166848686
    8      H       0.4506345533    -2.4795574468    -0.3582563135
    9      H      -1.7082678252    -1.8524633778     0.3596866415
   10      H      -2.4869208852     0.3703554210     0.7948489496
   11      H      -1.3305301572     2.3620600000     0.6141942999
   12      C       1.3771353815    -0.5419832185    -0.4698191442
   13      H       2.2987892711    -1.0196677304    -0.7933643394
 ----------------------------------------------------------------
 Nuclear Repulsion Energy =   260.7293335716 hartrees
 There are       25 alpha and       24 beta electrons
 Applying Cartesian multipole field
    Component          Value
    ---------          -----
     (2,0,0)        1.00000E-11
     (0,2,0)        2.00000E-11
     (0,0,2)       -3.00000E-10
 Nucleus-field energy     =     0.0000000006 hartrees
 Requested basis set is 6-31G(d)
 There are 40 shells and 117 basis functions
 A cutoff of  1.0D-14 yielded    791 shell pairs
 There are      7063 function pairs
 Smallest overlap matrix eigenvalue = 1.33E-03
 Guess MOs from SCF MO coefficient file
 Reading MOs from coefficient file
 Mixing HOMO and LUMO in initial guess
 Adding  50% of the LUMO to the HOMO
 Reading MOs from coefficient file
 An unrestricted hybrid HF-DFT SCF calculation will be
 performed using Pulay DIIS extrapolation
 Exchange:     0.2000 Hartree-Fock + 0.0800 Slater + 0.7200 B88
 Correlation:  0.1900 VWN1RPA + 0.8100 LYP
 Using SG-1 standard quadrature grid
 SCF converges when DIIS error is below 1.0E-08
 Geometry optimization detected.  Setting ReadMinima to 0
 Setting SaveMinima to 0
 using 4 threads for integral computing
 -------------------------------------------------------
 OpenMP Integral computing Module                
 Release: version 1.0, May 2013, Q-Chem Inc. Pittsburgh 
 -------------------------------------------------------
 -------------------------------------------------------
 OpenMP BLAS3 based DFT computing Module                
 Release: version 1.0, May 2013, Q-Chem Inc. Pittsburgh 
 -------------------------------------------------------
 ---------------------------------------
  Cycle       Energy         DIIS Error
 ---------------------------------------
    1    -286.9144153712      1.13E-03
    2    -286.9159007731      2.08E-03
    3    -286.9226907777      3.75E-04
    4    -286.9231433611      3.02E-04
    5    -286.9235761264      2.02E-04
    6    -286.9240405835      7.97E-05
    7    -286.9241441232      4.05E-05
    8    -286.9242659502      2.11E-05
    9    -286.9242948378      1.31E-05
   10    -286.9243181883      3.42E-06
   11    -286.9243205292      2.06E-06
   12    -286.9243209639      1.14E-06
   13    -286.9243210194      4.51E-07
   14    -286.9243210390      1.93E-07
   15    -286.9243210431      7.54E-08
   16    -286.9243210435      3.83E-08
   17    -286.9243210435      1.69E-08
   18    -286.9243210436      3.10E-09 Convergence criterion met
 ---------------------------------------
 <S^2> = 0.7684
 SCF time:  CPU 46.44 s  wall 48.52 s
 SCF   energy in the final basis set = -286.92432104
 Total energy in the final basis set = -286.92432104
 
 --------------------------------------------------------------
 
                    Orbital Energies (a.u.)
 --------------------------------------------------------------
 
 Alpha MOs
 -- Occupied --
-14.322 -10.232 -10.232 -10.212 -10.211 -10.201 -10.200  -0.922
 -0.818  -0.784  -0.693  -0.667  -0.551  -0.537  -0.518  -0.449
 -0.439  -0.414  -0.394  -0.387  -0.349  -0.322  -0.299  -0.251
 -0.162
 -- Virtual --
 -0.072   0.077   0.097   0.101   0.117   0.142   0.181   0.184
  0.193   0.213   0.266   0.320   0.357   0.390   0.412   0.483
  0.497   0.521   0.547   0.576   0.584   0.587   0.591   0.610
  0.619   0.624   0.646   0.658   0.714   0.718   0.833   0.840
  0.847   0.854   0.868   0.872   0.885   0.922   0.965   0.975
  1.024   1.027   1.043   1.127   1.177   1.185   1.300   1.303
  1.326   1.401   1.429   1.480   1.482   1.546   1.574   1.586
  1.682   1.732   1.769   1.829   1.850   1.919   1.925   2.030
  2.046   2.048   2.100   2.141   2.141   2.191   2.247   2.391
  2.410   2.414   2.446   2.545   2.577   2.601   2.614   2.739
  2.749   2.808   3.052   3.249   3.250   4.018   4.046   4.102
  4.196   4.239   4.532   4.595
 
 Beta MOs
 -- Occupied --
-14.314 -10.233 -10.233 -10.210 -10.210 -10.196 -10.196  -0.911
 -0.809  -0.777  -0.681  -0.665  -0.546  -0.535  -0.514  -0.447
 -0.438  -0.411  -0.383  -0.373  -0.348  -0.295  -0.276  -0.241
 -- Virtual --
 -0.078  -0.070   0.078   0.118   0.124   0.125   0.142   0.182
  0.187   0.196   0.219   0.268   0.324   0.360   0.393   0.415
  0.486   0.505   0.525   0.551   0.587   0.588   0.592   0.596
  0.614   0.624   0.629   0.649   0.676   0.716   0.729   0.834
  0.843   0.846   0.869   0.875   0.880   0.887   0.925   0.967
  0.979   1.026   1.030   1.045   1.133   1.180   1.189   1.311
  1.315   1.333   1.411   1.429   1.489   1.492   1.560   1.582
  1.597   1.685   1.737   1.781   1.831   1.854   1.922   1.933
  2.036   2.058   2.061   2.110   2.142   2.147   2.203   2.259
  2.399   2.422   2.426   2.448   2.558   2.579   2.611   2.624
  2.742   2.761   2.810   3.054   3.252   3.254   4.030   4.053
  4.109   4.200   4.239   4.537   4.601
 --------------------------------------------------------------
 
          Ground-State Mulliken Net Atomic Charges

     Atom                 Charge (a.u.)    Spin (a.u.)
  --------------------------------------------------------
      1 C                     0.035716      -0.113198
      2 C                    -0.111065       0.092481
      3 C                    -0.111394       0.094983
      4 C                    -0.131367       0.346037
      5 C                     0.035238      -0.112056
      6 N                    -0.423319       0.386930
      7 H                     0.142586       0.003432
      8 H                     0.141946      -0.006576
      9 H                     0.141911      -0.006697
     10 H                     0.134384      -0.018290
     11 H                     0.142655       0.003374
     12 C                    -0.131645       0.347959
     13 H                     0.134352      -0.018379
  --------------------------------------------------------
  Sum of atomic charges =     0.000000
  Sum of spin   charges =     1.000000

 -----------------------------------------------------------------
                    Cartesian Multipole Moments
 -----------------------------------------------------------------
    Charge (ESU x 10^10)
                -0.0000
    Dipole Moment (Debye)
         X      -0.6256      Y      -2.1544      Z       0.0013
       Tot       2.2434
    Quadrupole Moments (Debye-Ang)
        XX     -35.6805     XY      -1.9410     YY     -41.7936
        XZ      -2.5196     YZ       0.7318     ZZ     -42.5255
    Octopole Moments (Debye-Ang^2)
       XXX      -4.0673    XXY      -6.0578    XYY      -8.3561
       YYY     -36.7087    XXZ      -0.3149    XYZ      -0.5030
       YYZ       0.3304    XZZ      -1.6306    YZZ      -5.6152
       ZZZ       0.0048
    Hexadecapole Moments (Debye-Ang^3)
      XXXX    -348.6152   XXXY      -1.8152   XXYY    -122.6606
      XYYY     -23.2244   YYYY    -427.6893   XXXZ      37.0580
      XXYZ      -4.5772   XYYZ      11.0666   YYYZ      -9.2898
      XXZZ     -76.0718   XYZZ      -2.4981   YYZZ     -84.0325
      XZZZ      53.9328   YZZZ     -15.5837   ZZZZ     -79.9399
 -----------------------------------------------------------------
 Calculating analytic gradient of the SCF energy
 Gradient of SCF Energy
            1           2           3           4           5           6
    1  -0.0000411   0.0000166  -0.0000048   0.0000353  -0.0000201   0.0000266
    2   0.0000378   0.0000194   0.0000028   0.0000175  -0.0000206  -0.0000217
    3   0.0000243   0.0000061  -0.0000117   0.0000147  -0.0000084  -0.0000178
            7           8           9          10          11          12
    1   0.0000001   0.0000083   0.0000064   0.0000010  -0.0000067  -0.0000287
    2   0.0000080  -0.0000040  -0.0000056  -0.0000173  -0.0000113  -0.0000151
    3  -0.0000019  -0.0000022  -0.0000067   0.0000162  -0.0000167  -0.0000249
           13
    1   0.0000072
    2   0.0000102
    3   0.0000291
 Max gradient component =       4.108E-05
 RMS gradient           =       1.804E-05
 Gradient time:  CPU 7.60 s  wall 4.01 s
 Geometry Optimization Parameters
   NAtoms,    NIC,     NZ,  NCons,   NDum,   NFix, NCnnct, MaxDiis
       13      82       0       0       0       0       0       0

 Cartesian Hessian Update
 Hessian Updated using BFGS Update


** GEOMETRY OPTIMIZATION IN DELOCALIZED INTERNAL COORDINATES **
   Searching for a Minimum

   Optimization Cycle:   3

                       Coordinates (Angstroms)
     ATOM                X               Y               Z
      1  C         1.4242743716    0.8353427941   -0.3616690010
      2  C         0.2643171839   -1.4181838372   -0.2067771885
      3  C        -0.9825272487   -1.0560637176    0.2076024894
      4  C        -1.4529982031    0.2802445350    0.4704201565
      5  C        -0.7556637669    1.4685398739    0.3607693024
      6  N         0.5138100408    1.7694656913   -0.0009509843
      7  H         2.3879472837    1.2819110123   -0.6166848686
      8  H         0.4506345533   -2.4795574468   -0.3582563135
      9  H        -1.7082678252   -1.8524633778    0.3596866415
     10  H        -2.4869208852    0.3703554210    0.7948489496
     11  H        -1.3305301572    2.3620600000    0.6141942999
     12  C         1.3771353815   -0.5419832185   -0.4698191442
     13  H         2.2987892711   -1.0196677304   -0.7933643394
   Point Group: c1    Number of degrees of freedom:    33


   Energy is   -286.924321044

 Hessian Updated using BFGS Update

 33 Hessian modes will be used to form the next step
  Hessian Eigenvalues:
     0.008750    0.019766    0.020659    0.021154    0.022018    0.022574
     0.023676    0.024864    0.025274    0.035555    0.159614    0.160000
     0.160000    0.160000    0.160140    0.160510    0.218054    0.220003
     0.220154    0.233807    0.345515    0.345722    0.350230    0.350268
     0.351184    0.351307    0.382319    0.391446    0.466526    0.485232
     0.507230    0.534082    0.538417

 Minimum Search - Taking Simple RFO Step
 Searching for Lamda that Minimizes Along All modes
 Value Taken    Lamda =   0.00000000
 Step Taken.  Stepsize is  0.003508

                             Maximum     Tolerance    Cnvgd?
         Gradient           0.000036      0.000300     YES
         Displacement       0.002974      0.001200      NO
         Energy change     -0.000000      0.000001     YES


                       Distance Matrix (Angstroms)
             C (  1)   C (  2)   C (  3)   C (  4)   C (  5)   N (  6)
   C (  2)  2.539267
   C (  3)  3.113548  1.362888
   C (  4)  3.046179  2.508471  1.440880
   C (  5)  2.382223  3.113783  2.539400  1.382152
   N (  6)  1.353384  3.204016  3.204081  2.511634  1.353869
   H (  7)  1.092301  3.459529  4.183978  4.115580  3.297353  2.032050
   H (  8)  3.454931  1.088198  2.097733  3.453553  4.190421  4.264488
   H (  9)  4.190164  2.097754  1.088155  2.150783  3.454927  4.264512
   H ( 10)  4.105021  3.430953  2.154700  1.087368  2.095635  3.405172
   H ( 11)  3.297290  4.184229  3.459768  2.090365  1.092279  2.032526
   C ( 12)  1.382370  1.440584  2.508224  3.093504  3.046459  2.511566
   H ( 13)  2.095758  2.154525  3.430787  4.166873  4.105227  3.404899
             H (  7)   H (  8)   H (  9)   H ( 10)   H ( 11)   C ( 12)
   H (  8)  4.238940
   H (  9)  5.249436  2.359989
   H ( 10)  5.156326  4.252163  2.395118
   H ( 11)  4.063110  5.249711  4.239064  2.310143
   C ( 12)  2.090431  2.150592  3.453281  4.166855  4.115824
   H ( 13)  2.310071  2.395052  4.252009  5.230450  5.156478  1.087341

 
 Final energy is   -286.924321043553     


 ******************************
 **  OPTIMIZATION CONVERGED  **
 ******************************

                       Coordinates (Angstroms)
     ATOM                X               Y               Z
      1  C         1.4242743716    0.8353427941   -0.3616690010
      2  C         0.2643171839   -1.4181838372   -0.2067771885
      3  C        -0.9825272487   -1.0560637176    0.2076024894
      4  C        -1.4529982031    0.2802445350    0.4704201565
      5  C        -0.7556637669    1.4685398739    0.3607693024
      6  N         0.5138100408    1.7694656913   -0.0009509843
      7  H         2.3879472837    1.2819110123   -0.6166848686
      8  H         0.4506345533   -2.4795574468   -0.3582563135
      9  H        -1.7082678252   -1.8524633778    0.3596866415
     10  H        -2.4869208852    0.3703554210    0.7948489496
     11  H        -1.3305301572    2.3620600000    0.6141942999
     12  C         1.3771353815   -0.5419832185   -0.4698191442
     13  H         2.2987892711   -1.0196677304   -0.7933643394

Z-matrix Print:
$molecule
0 2
N 
C  1 1.353384
H  2 1.092301 1 111.935097
C  1 1.353869 2 123.270477 3 -179.980803 0
H  4 1.092279 1 111.941264 2 -179.941542 0
C  4 1.382152 1 133.264660 2 0.057752 0
H  6 1.087368 4 115.604230 1 179.963882 0
C  2 1.382370 1 133.283314 3 -179.951679 0
H  8 1.087341 2 115.600082 1 179.998943 0
C  8 1.440584 2 128.174828 1 -0.080244 0
H  10 1.088198 8 115.820611 2 -179.994833 0
C  10 1.362888 8 126.913974 2 -0.002045 0
H  12 1.088155 10 117.270502 8 -179.967875 0
$end

 
 --------------------------------------------------------------
 
                    Orbital Energies (a.u.)
 --------------------------------------------------------------
 
 Alpha MOs
 -- Occupied --
-14.322 -10.232 -10.232 -10.212 -10.211 -10.201 -10.200  -0.922
 -0.818  -0.784  -0.693  -0.667  -0.551  -0.537  -0.518  -0.449
 -0.439  -0.414  -0.394  -0.387  -0.349  -0.322  -0.299  -0.251
 -0.162
 -- Virtual --
 -0.072   0.077   0.097   0.101   0.117   0.142   0.181   0.184
  0.193   0.213   0.266   0.320   0.357   0.390   0.412   0.483
  0.497   0.521   0.547   0.576   0.584   0.587   0.591   0.610
  0.619   0.624   0.646   0.658   0.714   0.718   0.833   0.840
  0.847   0.854   0.868   0.872   0.885   0.922   0.965   0.975
  1.024   1.027   1.043   1.127   1.177   1.185   1.300   1.303
  1.326   1.401   1.429   1.480   1.482   1.546   1.574   1.586
  1.682   1.732   1.769   1.829   1.850   1.919   1.925   2.030
  2.046   2.048   2.100   2.141   2.141   2.191   2.247   2.391
  2.410   2.414   2.446   2.545   2.577   2.601   2.614   2.739
  2.749   2.808   3.052   3.249   3.250   4.018   4.046   4.102
  4.196   4.239   4.532   4.595
 
 Beta MOs
 -- Occupied --
-14.314 -10.233 -10.233 -10.210 -10.210 -10.196 -10.196  -0.911
 -0.809  -0.777  -0.681  -0.665  -0.546  -0.535  -0.514  -0.447
 -0.438  -0.411  -0.383  -0.373  -0.348  -0.295  -0.276  -0.241
 -- Virtual --
 -0.078  -0.070   0.078   0.118   0.124   0.125   0.142   0.182
  0.187   0.196   0.219   0.268   0.324   0.360   0.393   0.415
  0.486   0.505   0.525   0.551   0.587   0.588   0.592   0.596
  0.614   0.624   0.629   0.649   0.676   0.716   0.729   0.834
  0.843   0.846   0.869   0.875   0.880   0.887   0.925   0.967
  0.979   1.026   1.030   1.045   1.133   1.180   1.189   1.311
  1.315   1.333   1.411   1.429   1.489   1.492   1.560   1.582
  1.597   1.685   1.737   1.781   1.831   1.854   1.922   1.933
  2.036   2.058   2.061   2.110   2.142   2.147   2.203   2.259
  2.399   2.422   2.426   2.448   2.558   2.579   2.611   2.624
  2.742   2.761   2.810   3.054   3.252   3.254   4.030   4.053
  4.109   4.200   4.239   4.537   4.601
 --------------------------------------------------------------
 
          Ground-State Mulliken Net Atomic Charges

     Atom                 Charge (a.u.)    Spin (a.u.)
  --------------------------------------------------------
      1 C                     0.035716      -0.113198
      2 C                    -0.111065       0.092481
      3 C                    -0.111394       0.094983
      4 C                    -0.131367       0.346037
      5 C                     0.035238      -0.112056
      6 N                    -0.423319       0.386930
      7 H                     0.142586       0.003432
      8 H                     0.141946      -0.006576
      9 H                     0.141911      -0.006697
     10 H                     0.134384      -0.018290
     11 H                     0.142655       0.003374
     12 C                    -0.131645       0.347959
     13 H                     0.134352      -0.018379
  --------------------------------------------------------
  Sum of atomic charges =     0.000000
  Sum of spin   charges =     1.000000

 -----------------------------------------------------------------
                    Cartesian Multipole Moments
 -----------------------------------------------------------------
    Charge (ESU x 10^10)
                -0.0000
    Dipole Moment (Debye)
         X      -0.6256      Y      -2.1544      Z       0.0013
       Tot       2.2434
    Quadrupole Moments (Debye-Ang)
        XX     -35.6805     XY      -1.9410     YY     -41.7936
        XZ      -2.5196     YZ       0.7318     ZZ     -42.5255
    Octopole Moments (Debye-Ang^2)
       XXX      -4.0673    XXY      -6.0578    XYY      -8.3561
       YYY     -36.7087    XXZ      -0.3149    XYZ      -0.5030
       YYZ       0.3304    XZZ      -1.6306    YZZ      -5.6152
       ZZZ       0.0048
    Hexadecapole Moments (Debye-Ang^3)
      XXXX    -348.6152   XXXY      -1.8152   XXYY    -122.6606
      XYYY     -23.2244   YYYY    -427.6893   XXXZ      37.0580
      XXYZ      -4.5772   XYYZ      11.0666   YYYZ      -9.2898
      XXZZ     -76.0718   XYZZ      -2.4981   YYZZ     -84.0325
      XZZZ      53.9328   YZZZ     -15.5837   ZZZZ     -79.9399
 -----------------------------------------------------------------
Archival summary:
1\1\c8-72\OPT\ProcedureUnspecified\6-31G*\166(2)\hpark21\WedMar202:10:302022WedMar202:10:302022\0\\#,OPT,ProcedureUnspecified,6-31G*,\\0,2\N\C,1,1.35338\H,2,1.0923,1,111.935\C,1,1.35387,2,123.27,3,-179.981,0\H,4,1.09228,1,111.941,2,-179.942,0\C,4,1.38215,1,133.265,2,0.057752,0\H,6,1.08737,4,115.604,1,179.964,0\C,2,1.38237,1,133.283,3,-179.952,0\H,8,1.08734,2,115.6,1,179.999,0\C,8,1.44058,2,128.175,1,-0.0802441,0\H,10,1.0882,8,115.821,2,-179.995,0\C,10,1.36289,8,126.914,2,-0.00204462,0\H,12,1.08816,10,117.271,8,-179.968,0\\\@

 Total job time:  176.10s(wall), 178.87s(cpu) 
 Wed Mar  2 02:10:30 2022

        *************************************************************
        *                                                           *
        *  Thank you very much for using Q-Chem.  Have a nice day.  *
        *                                                           *
        *************************************************************


