
Running Job 1 of 1 qcts1.in
qchem qcts1.in_50330.0 ./qcts1.d/ 1
/home/leeping/opt/qchem/5.0.2-openmp/exe/qcprog.exe_s qcts1.in_50330.0 ./qcts1.d/
Check license passed

                  Welcome to Q-Chem
     A Quantum Leap Into The Future Of Chemistry


 Q-Chem 5.0, Q-Chem, Inc., Pleasanton, CA (2017)

 Yihan Shao,  Zhengting Gan,  E. Epifanovsky,  A. T. B. Gilbert,  M. Wormit,  
 J. Kussmann,  A. W. Lange,  A. Behn,  Jia Deng,  Xintian Feng,  D. Ghosh,  
 M. Goldey,  P. R. Horn,  L. D. Jacobson,  I. Kaliman,  T. Kus,  A. Landau,  
 Jie Liu,  E. I. Proynov,  R. M. Richard,  R. P. Steele,  E. J. Sundstrom,  
 H. L. Woodcock III,  P. M. Zimmerman,  D. Zuev,  B. Albrecht,  E. Alguire,  
 S. A. Baeppler,  D. Barton,  Z. Benda,  Y. A. Bernard,  E. J. Berquist,  
 K. B. Bravaya,  H. Burton,  D. Casanova,  Chun-Min Chang,  Yunqing Chen,  
 A. Chien,  K. D. Closser,  M. P. Coons,  S. Dasgupta,  A. L. Dempwolff,  
 M. Diedenhofen,  Hainam Do,  R. G. Edgar,  Po-Tung Fang,  S. Fatehi,  
 Qingguo Feng,  J. Fosso-Tande,  Qinghui Ge,  A. Ghysels,  G. Gidofalvi,  
 J. Gomes,  J. Gonthier,  A. Gunina,  M. W. D. Hanson-Heine,  
 P. H. P. Harbach,  A. W. Hauser,  J. E. Herr,  E. G. Hohenstein,  
 Z. C. Holden,  Kerwin Hui,  T.-C. Jagau,  Hyunjun Ji,  B. Kaduk,  
 K. Khistyaev,  Jaehoon Kim,  P. Klunzinger,  K. Koh,  D. Kosenkov,  
 L. Koulias,  T. Kowalczyk,  C. M. Krauter,  A. Kunitsa,  Ka Un Lao,  
 A. Laurent,  K. V. Lawler,  Joonho Lee,  D. Lefrancois,  S. Lehtola,  
 D. S. Levine,  Yi-Pei Li,  You-Sheng Lin,  Fenglai Liu,  E. Livshits,  
 A. Luenser,  P. Manohar,  E. Mansoor,  S. F. Manzer,  Shan-Ping Mao,  
 Yuezhi Mao,  N. Mardirossian,  A. V. Marenich,  T. Markovich,  
 L. A. Martinez-Martinez,  S. A. Maurer,  N. J. Mayhall,  S. C. McKenzie,  
 J.-M. Mewes,  A. F. Morrison,  J. W. Mullinax,  K. Nanda,  
 T. S. Nguyen-Beck,  R. Olivares-Amaya,  J. A. Parkhill,  T. M. Perrine,  
 F. Plasser,  S. Prager,  A. Prociuk,  E. Ramos,  D. R. Rehn,  F. Rob,  
 M. Schneider,  N. Sergueev,  S. M. Sharada,  S. Sharma,  D. W. Small,  
 T. Stauch,  T. Stein,  Yu-Chuan Su,  A. J. W. Thom,  A. Tkatchenko,  
 T. Tsuchimochi,  L. Vogt,  O. Vydrov,  M. A. Watson,  J. Wenzel,  
 M. de Wergifosse,  T. A. Wesolowski,  A. White,  J. Witte,  A. Yamada,  
 Jun Yang,  K. Yao,  S. Yeganeh,  S. R. Yost,  Zhi-Qiang You,  A. Zech,  
 Igor Ying Zhang,  Xing Zhang,  Yan Zhao,  Ying Zhu,  B. R. Brooks,  
 G. K. L. Chan,  C. J. Cramer,  M. S. Gordon,  W. J. Hehre,  A. Klamt,  
 M. W. Schmidt,  C. D. Sherrill,  D. G. Truhlar,  A. Aspuru-Guzik,  R. Baer,  
 A. T. Bell,  N. A. Besley,  Jeng-Da Chai,  R. A. DiStasio Jr.,  A. Dreuw,  
 B. D. Dunietz,  T. R. Furlani,  Chao-Ping Hsu,  Yousung Jung,  Jing Kong,  
 D. S. Lambrecht,  WanZhen Liang,  C. Ochsenfeld,  V. A. Rassolov,  
 L. V. Slipchenko,  J. E. Subotnik,  T. Van Voorhis,  J. M. Herbert,  
 A. I. Krylov,  P. M. W. Gill,  M. Head-Gordon

 Contributors to earlier versions of Q-Chem not listed above: 
 R. D. Adamson,  B. Austin,  J. Baker,  G. J. O. Beran,  K. Brandhorst,  
 S. T. Brown,  E. F. C. Byrd,  A. K. Chakraborty,  C.-L. Cheng,  
 Siu Hung Chien,  D. M. Chipman,  D. L. Crittenden,  H. Dachsel,  
 R. J. Doerksen,  A. D. Dutoi,  L. Fusti-Molnar,  W. A. Goddard III,  
 A. Golubeva-Zadorozhnaya,  S. R. Gwaltney,  G. Hawkins,  A. Heyden,  
 S. Hirata,  G. Kedziora,  F. J. Keil,  C. Kelley,  Jihan Kim,  R. A. King,  
 R. Z. Khaliullin,  P. P. Korambath,  W. Kurlancheek,  A. M. Lee,  M. S. Lee,  
 S. V. Levchenko,  Ching Yeh Lin,  D. Liotard,  R. C. Lochan,  I. Lotan,  
 P. E. Maslen,  N. Nair,  D. P. O'Neill,  D. Neuhauser,  E. Neuscamman,  
 C. M. Oana,  R. Olson,  B. Peters,  R. Peverati,  P. A. Pieniazek,  
 Y. M. Rhee,  J. Ritchie,  M. A. Rohrdanz,  E. Rosta,  N. J. Russ,  
 H. F. Schaefer III,  N. E. Schultz,  N. Shenvi,  A. C. Simmonett,  A. Sodt,  
 D. Stuck,  K. S. Thanthiriwatte,  V. Vanovschi,  Tao Wang,  A. Warshel,  
 C. F. Williams,  Q. Wu,  X. Xu,  W. Zhang

 Please cite Q-Chem as follows:
 Y. Shao et al., Mol. Phys. 113, 184-215 (2015)
 DOI: 10.1080/00268976.2014.952696

 Q-Chem 5.0.2 for Intel X86 EM64T Linux

 Parts of Q-Chem use Armadillo 5.200.1 (Boston Tea Smuggler).
 http://arma.sourceforge.net/

 Q-Chem begins on Wed Mar  2 04:36:35 2022  

Host: 
0

     Scratch files written to ./qcts1.d//
 Dec517 15110_ 26548  26544 5633   
Processing $rem in /home/leeping/opt/qchem/5.0.2-openmp/config/preferences.
 MEM_STATIC 2000
 MEM_TOTAL  8000
 SYMMETRY   OFF
 SYM_IGNORE TRUE 

Checking the input file for inconsistencies... 	...done.

--------------------------------------------------------------
User input:
--------------------------------------------------------------
$molecule
0 2
C        1.3663655259   -0.1740321422   -0.0162280658
C        0.4553812523   -1.2618257250    0.3836124277
C       -0.8835202121   -1.0810110349    0.4425326325
C       -1.4786163171    0.2359120626    0.3044473825
C       -0.7207500670    1.3271428338    0.0698572371
N        0.6681080925    1.2651886755   -0.2200131266
H        2.3280261842   -0.1147238047    0.5004259707
H        0.9035721452   -2.2088796215    0.6766571924
H       -1.5287671824   -1.9092259814    0.7240994786
H       -2.5332300231    0.3620213794    0.5345527588
H       -1.1053909338    2.3377961267    0.1812260220
C        1.1621306822    0.5102897764   -1.2668281181
H        1.3096545552    0.6215670477   -2.3265190166
$end

$rem
method                b3lyp
basis                 6-31g(d)
unrestricted          true
symmetry              off
sym_ignore            true
incdft                false
incfock               0
scf_convergence       8
thresh                14
jobtype               sp
scf_guess             read
scf_algorithm         diis
max_scf_cycles        100
$end

--------------------------------------------------------------
 ----------------------------------------------------------------
             Standard Nuclear Orientation (Angstroms)
    I     Atom           X                Y                Z
 ----------------------------------------------------------------
    1      C       1.3663655259    -0.1740321422    -0.0162280658
    2      C       0.4553812523    -1.2618257250     0.3836124277
    3      C      -0.8835202121    -1.0810110349     0.4425326325
    4      C      -1.4786163171     0.2359120626     0.3044473825
    5      C      -0.7207500670     1.3271428338     0.0698572371
    6      N       0.6681080925     1.2651886755    -0.2200131266
    7      H       2.3280261842    -0.1147238047     0.5004259707
    8      H       0.9035721452    -2.2088796215     0.6766571924
    9      H      -1.5287671824    -1.9092259814     0.7240994786
   10      H      -2.5332300231     0.3620213794     0.5345527588
   11      H      -1.1053909338     2.3377961267     0.1812260220
   12      C       1.1621306822     0.5102897764    -1.2668281181
   13      H       1.3096545552     0.6215670477    -2.3265190166
 ----------------------------------------------------------------
 Nuclear Repulsion Energy =   269.9059335761 hartrees
 There are       25 alpha and       24 beta electrons
 Requested basis set is 6-31G(d)
 There are 40 shells and 117 basis functions

 Total QAlloc Memory Limit   8000 MB
 Mega-Array Size      1956 MB
 MEM_STATIC part      2000 MB

                       Distance Matrix (Angstroms)
             C (  1)   C (  2)   C (  3)   C (  4)   C (  5)   N (  6)
   C (  2)  1.474130
   C (  3)  2.468817  1.352340
   C (  4)  2.892198  2.447413  1.451721
   C (  5)  2.572351  2.860854  2.442250  1.349140
   N (  6)  1.612591  2.606802  2.889839  2.437805  1.420137
   H (  7)  1.093270  2.199156  3.354265  3.827777  3.399913  2.275636
   H (  8)  2.198834  1.087962  2.126170  3.433711  3.938284  3.595638
   H (  9)  3.455543  2.114688  1.086997  2.186376  3.399266  3.974232
   H ( 10)  3.974614  3.404623  2.193708  1.086767  2.105347  3.410813
   H ( 11)  3.529568  3.928644  3.435950  2.138316  1.087093  2.111108
   C ( 12)  1.440142  2.522666  3.104648  3.085083  2.449330  1.381938
   H ( 13)  2.444103  3.409071  3.921280  3.852943  3.219161  2.294166
             H (  7)   H (  8)   H (  9)   H ( 10)   H ( 11)   C ( 12)
   H (  8)  2.538822
   H (  9)  4.259709  2.451187
   H ( 10)  4.884697  4.294338  2.490670
   H ( 11)  4.231441  4.995362  4.302459  2.463179
   C ( 12)  2.207519  3.352293  4.130228  4.113715  3.252429
   H ( 13)  3.093675  4.146733  4.875226  4.798006  3.881581  1.075682

 
 A cutoff of  1.0D-14 yielded    804 shell pairs
 There are      7076 function pairs
 
 -------------------------------------------------------
 OpenMP Integral Computing Module                       
 Release: version 1.0, May 2013, Q-Chem Inc. Pittsburgh 
 -------------------------------------------------------
 Integral Job Info:
 Integral job number is                      11
 Integral operator is                         1
 short-range coefficients                     0
 long-range coefficients              100000000
 Omega coefficients                           0
 if combine SR and LR in K                    0
 Integral screening is                        0
 Integral computing path is                   2
 max size of driver memory is            800000
 size of driver memory is                593474
 size of scratch memory is              2361544
 max col of scratch BK array               1296
 max len of scratch array in speh3          155
 max len of scratch index in speh4           18
 max int batch size is                      520
 min int batch size is                       52
 fixed nKL is                                52
 max L of basis functions is                  2
 order of int derivative is                   0
 number of shells is                         40
 number of basis is                         117
 number of cartesian basis is               117
 number of contracted shell pairs           804
 number of primitive shell pairs           3465
 maxK2 (contraction) of shell pair           36
 max number of K2 of shell pair               1
 max number of CS2 of shell pair             86
 max number of PS2 of shell pair            384
 mem total for path MDJ                  535308
 -------------------------------------------------------
 Smallest overlap matrix eigenvalue = 1.01E-03

 Scale SEOQF with 1.000000e-01/1.000000e-01/1.000000e-01

 Standard Electronic Orientation quadrupole field applied
 Nucleus-field energy     =     0.0000000041 hartrees
 Guess MOs from SCF MO coefficient file
 Reading MOs from coefficient file
 Reading MOs from coefficient file
 An unrestricted hybrid HF-DFT SCF calculation will be
 performed using Pulay DIIS extrapolation
 Exchange:     0.2000 Hartree-Fock + 0.0800 Slater + 0.7200 B88
 Correlation:  0.1900 VWN1RPA + 0.8100 LYP
 Using SG-1 standard quadrature grid
 SCF converges when DIIS error is below 1.0E-08
Using Q-Chem read-in guess as SCF_GUESS READ specified.

 using 4 threads for integral computing
 -------------------------------------------------------
 OpenMP Integral computing Module                
 Release: version 1.0, May 2013, Q-Chem Inc. Pittsburgh 
 -------------------------------------------------------
 -------------------------------------------------------
 OpenMP BLAS3 based DFT computing Module                
 Release: version 1.0, May 2013, Q-Chem Inc. Pittsburgh 
 -------------------------------------------------------
 ---------------------------------------
  Cycle       Energy         DIIS Error
 ---------------------------------------
    1    -286.8346325817      1.74E-09
    2    -286.8346325817      3.16E-09 Convergence criterion met
 ---------------------------------------
 <S^2> = 0.7550
 SCF time:  CPU 5.26 s  wall 11.68 s
 SCF   energy in the final basis set = -286.83463258
 Total energy in the final basis set = -286.83463258
 
 --------------------------------------------------------------
 
                    Orbital Energies (a.u.)
 --------------------------------------------------------------
 
 Alpha MOs
 -- Occupied --
-14.358 -10.234 -10.219 -10.212 -10.194 -10.193 -10.187  -0.975
 -0.804  -0.774  -0.658  -0.640  -0.572  -0.518  -0.498  -0.482
 -0.445  -0.421  -0.387  -0.370  -0.357  -0.307  -0.281  -0.218
 -0.161
 -- Virtual --
 -0.026   0.051   0.097   0.117   0.133   0.141   0.163   0.173
  0.187   0.197   0.254   0.278   0.322   0.365   0.447   0.473
  0.480   0.510   0.523   0.545   0.554   0.579   0.587   0.610
  0.627   0.636   0.644   0.679   0.695   0.720   0.763   0.788
  0.841   0.849   0.853   0.869   0.882   0.897   0.916   0.954
  0.986   1.042   1.058   1.081   1.112   1.165   1.212   1.255
  1.341   1.441   1.500   1.519   1.533   1.561   1.599   1.722
  1.752   1.791   1.834   1.858   1.889   1.905   1.984   1.997
  2.035   2.068   2.138   2.158   2.199   2.255   2.307   2.329
  2.406   2.504   2.508   2.553   2.567   2.622   2.668   2.675
  2.792   2.838   2.852   2.982   3.241   4.009   4.096   4.151
  4.251   4.285   4.400   4.602
 
 Beta MOs
 -- Occupied --
-14.354 -10.235 -10.217 -10.199 -10.194 -10.193 -10.187  -0.966
 -0.802  -0.770  -0.650  -0.638  -0.555  -0.513  -0.493  -0.479
 -0.438  -0.414  -0.383  -0.366  -0.354  -0.293  -0.274  -0.209
 -- Virtual --
 -0.031  -0.016   0.053   0.099   0.120   0.142   0.144   0.166
  0.174   0.188   0.203   0.256   0.283   0.325   0.378   0.451
  0.476   0.484   0.514   0.543   0.554   0.569   0.580   0.589
  0.614   0.628   0.644   0.660   0.685   0.697   0.726   0.768
  0.795   0.842   0.852   0.855   0.871   0.887   0.900   0.918
  0.955   0.988   1.048   1.063   1.090   1.120   1.167   1.215
  1.258   1.347   1.446   1.512   1.523   1.537   1.565   1.602
  1.734   1.765   1.799   1.849   1.865   1.896   1.919   1.989
  2.007   2.039   2.074   2.140   2.182   2.203   2.266   2.321
  2.333   2.418   2.507   2.514   2.556   2.573   2.630   2.670
  2.679   2.802   2.851   2.859   2.984   3.243   4.015   4.098
  4.153   4.259   4.303   4.405   4.603
 --------------------------------------------------------------
 
          Ground-State Mulliken Net Atomic Charges

     Atom                 Charge (a.u.)    Spin (a.u.)
  --------------------------------------------------------
      1 C                    -0.089090      -0.061461
      2 C                    -0.100956      -0.003299
      3 C                    -0.137755       0.027557
      4 C                    -0.123880      -0.017310
      5 C                     0.015779       0.052971
      6 N                    -0.393822       0.105039
      7 H                     0.156264       0.018124
      8 H                     0.137681       0.000743
      9 H                     0.132834      -0.000922
     10 H                     0.131261       0.005923
     11 H                     0.149665      -0.002762
     12 C                    -0.036953       0.920693
     13 H                     0.158970      -0.045294
  --------------------------------------------------------
  Sum of atomic charges =     0.000000
  Sum of spin   charges =     1.000000

 -----------------------------------------------------------------
                    Cartesian Multipole Moments
 -----------------------------------------------------------------
    Charge (ESU x 10^10)
                 0.0000
    Dipole Moment (Debye)
         X      -0.4378      Y      -0.9310      Z      -0.0871
       Tot       1.0325
    Quadrupole Moments (Debye-Ang)
        XX     -37.8594     XY      -2.4268     YY     -39.7865
        XZ      -1.1713     YZ      -1.5962     ZZ     -40.2414
    Octopole Moments (Debye-Ang^2)
       XXX     -11.4805    XXY      -6.7951    XYY      -8.5246
       YYY     -15.5533    XXZ       4.8036    XYZ      -0.9249
       YYZ       3.9752    XZZ       1.7583    YZZ      -2.0028
       ZZZ      -4.3964
    Hexadecapole Moments (Debye-Ang^3)
      XXXX    -327.3738   XXXY      -4.1833   XXYY    -106.3411
      XYYY     -14.2334   YYYY    -290.3493   XXXZ      44.3835
      XXYZ       9.7278   XYYZ      14.0936   YYYZ      30.3077
      XXZZ     -78.1676   XYZZ       2.7420   YYZZ     -73.8884
      XZZZ      36.3425   YZZZ      30.1054   ZZZZ    -120.4737
 -----------------------------------------------------------------
Archival summary:
1\1\c8-72\SP\ProcedureUnspecified\6-31G*\166(2)\hpark21\WedMar204:37:112022WedMar204:37:112022\0\\#,ProcedureUnspecified,6-31G*,\\0,2\N\C,1,1.38194\H,2,1.07568,1,137.625\C,1,1.42014,2,121.874,3,84.0414,0\H,4,1.08709,1,114.048,2,-129.834,0\C,4,1.34914,1,123.338,2,55.7283,0\H,6,1.08677,4,119.214,1,179.094,0\C,2,1.44014,1,69.6635,3,173.949,0\H,8,1.09327,2,120.62,1,-97.3948,0\C,6,1.45172,4,121.332,1,7.90217,0\H,10,1.087,6,118.196,4,174.29,0\C,10,1.35234,6,121.534,4,2.09982,0\H,12,1.08796,10,120.831,6,168.081,0\\\@

 Total job time:  36.63s(wall), 7.08s(cpu) 
 Wed Mar  2 04:37:11 2022

        *************************************************************
        *                                                           *
        *  Thank you very much for using Q-Chem.  Have a nice day.  *
        *                                                           *
        *************************************************************


