
Running Job 1 of 1 qcts2.in
qchem qcts2.in_51619.0 ./qcts2.d/ 1
/home/leeping/opt/qchem/5.0.2-openmp/exe/qcprog.exe_s qcts2.in_51619.0 ./qcts2.d/
Check license passed

                  Welcome to Q-Chem
     A Quantum Leap Into The Future Of Chemistry


 Q-Chem 5.0, Q-Chem, Inc., Pleasanton, CA (2017)

 Yihan Shao,  Zhengting Gan,  E. Epifanovsky,  A. T. B. Gilbert,  M. Wormit,  
 J. Kussmann,  A. W. Lange,  A. Behn,  Jia Deng,  Xintian Feng,  D. Ghosh,  
 M. Goldey,  P. R. Horn,  L. D. Jacobson,  I. Kaliman,  T. Kus,  A. Landau,  
 Jie Liu,  E. I. Proynov,  R. M. Richard,  R. P. Steele,  E. J. Sundstrom,  
 H. L. Woodcock III,  P. M. Zimmerman,  D. Zuev,  B. Albrecht,  E. Alguire,  
 S. A. Baeppler,  D. Barton,  Z. Benda,  Y. A. Bernard,  E. J. Berquist,  
 K. B. Bravaya,  H. Burton,  D. Casanova,  Chun-Min Chang,  Yunqing Chen,  
 A. Chien,  K. D. Closser,  M. P. Coons,  S. Dasgupta,  A. L. Dempwolff,  
 M. Diedenhofen,  Hainam Do,  R. G. Edgar,  Po-Tung Fang,  S. Fatehi,  
 Qingguo Feng,  J. Fosso-Tande,  Qinghui Ge,  A. Ghysels,  G. Gidofalvi,  
 J. Gomes,  J. Gonthier,  A. Gunina,  M. W. D. Hanson-Heine,  
 P. H. P. Harbach,  A. W. Hauser,  J. E. Herr,  E. G. Hohenstein,  
 Z. C. Holden,  Kerwin Hui,  T.-C. Jagau,  Hyunjun Ji,  B. Kaduk,  
 K. Khistyaev,  Jaehoon Kim,  P. Klunzinger,  K. Koh,  D. Kosenkov,  
 L. Koulias,  T. Kowalczyk,  C. M. Krauter,  A. Kunitsa,  Ka Un Lao,  
 A. Laurent,  K. V. Lawler,  Joonho Lee,  D. Lefrancois,  S. Lehtola,  
 D. S. Levine,  Yi-Pei Li,  You-Sheng Lin,  Fenglai Liu,  E. Livshits,  
 A. Luenser,  P. Manohar,  E. Mansoor,  S. F. Manzer,  Shan-Ping Mao,  
 Yuezhi Mao,  N. Mardirossian,  A. V. Marenich,  T. Markovich,  
 L. A. Martinez-Martinez,  S. A. Maurer,  N. J. Mayhall,  S. C. McKenzie,  
 J.-M. Mewes,  A. F. Morrison,  J. W. Mullinax,  K. Nanda,  
 T. S. Nguyen-Beck,  R. Olivares-Amaya,  J. A. Parkhill,  T. M. Perrine,  
 F. Plasser,  S. Prager,  A. Prociuk,  E. Ramos,  D. R. Rehn,  F. Rob,  
 M. Schneider,  N. Sergueev,  S. M. Sharada,  S. Sharma,  D. W. Small,  
 T. Stauch,  T. Stein,  Yu-Chuan Su,  A. J. W. Thom,  A. Tkatchenko,  
 T. Tsuchimochi,  L. Vogt,  O. Vydrov,  M. A. Watson,  J. Wenzel,  
 M. de Wergifosse,  T. A. Wesolowski,  A. White,  J. Witte,  A. Yamada,  
 Jun Yang,  K. Yao,  S. Yeganeh,  S. R. Yost,  Zhi-Qiang You,  A. Zech,  
 Igor Ying Zhang,  Xing Zhang,  Yan Zhao,  Ying Zhu,  B. R. Brooks,  
 G. K. L. Chan,  C. J. Cramer,  M. S. Gordon,  W. J. Hehre,  A. Klamt,  
 M. W. Schmidt,  C. D. Sherrill,  D. G. Truhlar,  A. Aspuru-Guzik,  R. Baer,  
 A. T. Bell,  N. A. Besley,  Jeng-Da Chai,  R. A. DiStasio Jr.,  A. Dreuw,  
 B. D. Dunietz,  T. R. Furlani,  Chao-Ping Hsu,  Yousung Jung,  Jing Kong,  
 D. S. Lambrecht,  WanZhen Liang,  C. Ochsenfeld,  V. A. Rassolov,  
 L. V. Slipchenko,  J. E. Subotnik,  T. Van Voorhis,  J. M. Herbert,  
 A. I. Krylov,  P. M. W. Gill,  M. Head-Gordon

 Contributors to earlier versions of Q-Chem not listed above: 
 R. D. Adamson,  B. Austin,  J. Baker,  G. J. O. Beran,  K. Brandhorst,  
 S. T. Brown,  E. F. C. Byrd,  A. K. Chakraborty,  C.-L. Cheng,  
 Siu Hung Chien,  D. M. Chipman,  D. L. Crittenden,  H. Dachsel,  
 R. J. Doerksen,  A. D. Dutoi,  L. Fusti-Molnar,  W. A. Goddard III,  
 A. Golubeva-Zadorozhnaya,  S. R. Gwaltney,  G. Hawkins,  A. Heyden,  
 S. Hirata,  G. Kedziora,  F. J. Keil,  C. Kelley,  Jihan Kim,  R. A. King,  
 R. Z. Khaliullin,  P. P. Korambath,  W. Kurlancheek,  A. M. Lee,  M. S. Lee,  
 S. V. Levchenko,  Ching Yeh Lin,  D. Liotard,  R. C. Lochan,  I. Lotan,  
 P. E. Maslen,  N. Nair,  D. P. O'Neill,  D. Neuhauser,  E. Neuscamman,  
 C. M. Oana,  R. Olson,  B. Peters,  R. Peverati,  P. A. Pieniazek,  
 Y. M. Rhee,  J. Ritchie,  M. A. Rohrdanz,  E. Rosta,  N. J. Russ,  
 H. F. Schaefer III,  N. E. Schultz,  N. Shenvi,  A. C. Simmonett,  A. Sodt,  
 D. Stuck,  K. S. Thanthiriwatte,  V. Vanovschi,  Tao Wang,  A. Warshel,  
 C. F. Williams,  Q. Wu,  X. Xu,  W. Zhang

 Please cite Q-Chem as follows:
 Y. Shao et al., Mol. Phys. 113, 184-215 (2015)
 DOI: 10.1080/00268976.2014.952696

 Q-Chem 5.0.2 for Intel X86 EM64T Linux

 Parts of Q-Chem use Armadillo 5.200.1 (Boston Tea Smuggler).
 http://arma.sourceforge.net/

 Q-Chem begins on Wed Mar  2 04:49:58 2022  

Host: 
0

     Scratch files written to ./qcts2.d//
 Dec517 15110_ 26548  26544 5633   
Processing $rem in /home/leeping/opt/qchem/5.0.2-openmp/config/preferences.
 MEM_STATIC 2000
 MEM_TOTAL  8000
 SYMMETRY   OFF
 SYM_IGNORE TRUE 

Checking the input file for inconsistencies... 	...done.

--------------------------------------------------------------
User input:
--------------------------------------------------------------
$molecule
0 2
C        1.3663655259   -0.1740321422   -0.0162280658
C        0.4553812523   -1.2618257250    0.3836124277
C       -0.8835202121   -1.0810110349    0.4425326325
C       -1.4786163171    0.2359120626    0.3044473825
C       -0.7207500670    1.3271428338    0.0698572371
N        0.6681080925    1.2651886755   -0.2200131266
H        2.3280261842   -0.1147238047    0.5004259707
H        0.9035721452   -2.2088796215    0.6766571924
H       -1.5287671824   -1.9092259814    0.7240994786
H       -2.5332300231    0.3620213794    0.5345527588
H       -1.1053909338    2.3377961267    0.1812260220
C        1.1621306822    0.5102897764   -1.2668281181
H        1.3096545552    0.6215670477   -2.3265190166
$end

$rem
method                b3lyp
basis                 6-31+g(d,p)
unrestricted          true
symmetry              off
sym_ignore            true
incdft                false
incfock               0
scf_convergence       8
thresh                14
jobtype               freq
scf_guess             read
scf_algorithm         diis
max_scf_cycles        100
$end

--------------------------------------------------------------
 ----------------------------------------------------------------
             Standard Nuclear Orientation (Angstroms)
    I     Atom           X                Y                Z
 ----------------------------------------------------------------
    1      C       1.3663655259    -0.1740321422    -0.0162280658
    2      C       0.4553812523    -1.2618257250     0.3836124277
    3      C      -0.8835202121    -1.0810110349     0.4425326325
    4      C      -1.4786163171     0.2359120626     0.3044473825
    5      C      -0.7207500670     1.3271428338     0.0698572371
    6      N       0.6681080925     1.2651886755    -0.2200131266
    7      H       2.3280261842    -0.1147238047     0.5004259707
    8      H       0.9035721452    -2.2088796215     0.6766571924
    9      H      -1.5287671824    -1.9092259814     0.7240994786
   10      H      -2.5332300231     0.3620213794     0.5345527588
   11      H      -1.1053909338     2.3377961267     0.1812260220
   12      C       1.1621306822     0.5102897764    -1.2668281181
   13      H       1.3096545552     0.6215670477    -2.3265190166
 ----------------------------------------------------------------
 Nuclear Repulsion Energy =   269.9059335761 hartrees
 There are       25 alpha and       24 beta electrons
 Requested basis set is 6-31+G(d,p)
 There are 53 shells and 163 basis functions

 Total QAlloc Memory Limit   8000 MB
 Mega-Array Size      1956 MB
 MEM_STATIC part      2000 MB

                       Distance Matrix (Angstroms)
             C (  1)   C (  2)   C (  3)   C (  4)   C (  5)   N (  6)
   C (  2)  1.474130
   C (  3)  2.468817  1.352340
   C (  4)  2.892198  2.447413  1.451721
   C (  5)  2.572351  2.860854  2.442250  1.349140
   N (  6)  1.612591  2.606802  2.889839  2.437805  1.420137
   H (  7)  1.093270  2.199156  3.354265  3.827777  3.399913  2.275636
   H (  8)  2.198834  1.087962  2.126170  3.433711  3.938284  3.595638
   H (  9)  3.455543  2.114688  1.086997  2.186376  3.399266  3.974232
   H ( 10)  3.974614  3.404623  2.193708  1.086767  2.105347  3.410813
   H ( 11)  3.529568  3.928644  3.435950  2.138316  1.087093  2.111108
   C ( 12)  1.440142  2.522666  3.104648  3.085083  2.449330  1.381938
   H ( 13)  2.444103  3.409071  3.921280  3.852943  3.219161  2.294166
             H (  7)   H (  8)   H (  9)   H ( 10)   H ( 11)   C ( 12)
   H (  8)  2.538822
   H (  9)  4.259709  2.451187
   H ( 10)  4.884697  4.294338  2.490670
   H ( 11)  4.231441  4.995362  4.302459  2.463179
   C ( 12)  2.207519  3.352293  4.130228  4.113715  3.252429
   H ( 13)  3.093675  4.146733  4.875226  4.798006  3.881581  1.075682

 
 A cutoff of  1.0D-14 yielded   1377 shell pairs
 There are     13431 function pairs
 Smallest overlap matrix eigenvalue = 1.75E-05
 Guess MOs from SCF MO coefficient file
 Reading MOs from coefficient file
 Reading MOs from coefficient file
 An unrestricted hybrid HF-DFT SCF calculation will be
 performed using Pulay DIIS extrapolation
 Exchange:     0.2000 Hartree-Fock + 0.0800 Slater + 0.7200 B88
 Correlation:  0.1900 VWN1RPA + 0.8100 LYP
 Using SG-1 standard quadrature grid
 SCF converges when DIIS error is below 1.0E-08
Using Q-Chem read-in guess as SCF_GUESS READ specified.

 -------------------------------------------------------
 OpenMP BLAS3 based DFT computing Module                
 -------------------------------------------------------
 ---------------------------------------
  Cycle       Energy         DIIS Error
 ---------------------------------------
    1    -286.8575446480      1.88E-09
    2    -286.8575446480      3.22E-09 Convergence criterion met
 ---------------------------------------
 <S^2> = 0.7549
 SCF time:  CPU 7.06 s  wall 23.96 s
 SCF   energy in the final basis set = -286.85754465
 Total energy in the final basis set = -286.85754465
 
 --------------------------------------------------------------
 
                    Orbital Energies (a.u.)
 --------------------------------------------------------------
 
 Alpha MOs
 -- Occupied --
-14.372 -10.245 -10.230 -10.225 -10.206 -10.204 -10.199  -0.989
 -0.816  -0.786  -0.670  -0.651  -0.582  -0.527  -0.508  -0.491
 -0.455  -0.431  -0.398  -0.380  -0.368  -0.319  -0.292  -0.230
 -0.175
 -- Virtual --
 -0.045   0.006   0.020   0.021   0.029   0.034   0.047   0.049
  0.068   0.070   0.078   0.086   0.096   0.110   0.113   0.122
  0.134   0.137   0.140   0.146   0.157   0.175   0.184   0.191
  0.195   0.197   0.206   0.211   0.219   0.237   0.243   0.249
  0.267   0.273   0.281   0.295   0.302   0.319   0.337   0.352
  0.359   0.416   0.485   0.510   0.607   0.636   0.653   0.688
  0.695   0.718   0.723   0.738   0.752   0.755   0.772   0.785
  0.814   0.857   0.899   0.915   0.930   0.943   0.953   0.971
  1.002   1.030   1.039   1.074   1.097   1.113   1.129   1.147
  1.196   1.221   1.242   1.272   1.341   1.373   1.425   1.441
  1.492   1.535   1.585   1.690   1.716   1.751   1.784   1.822
  1.848   1.870   1.929   1.957   1.964   1.987   2.029   2.072
  2.095   2.150   2.189   2.218   2.323   2.337   2.373   2.380
  2.404   2.423   2.453   2.462   2.498   2.508   2.516   2.544
  2.579   2.604   2.620   2.678   2.685   2.702   2.766   2.862
  2.895   2.984   3.012   3.103   3.264   3.279   3.312   3.386
  3.496   3.555   3.780   4.196   4.324   4.352   4.446   4.536
  4.646   4.757
 
 Beta MOs
 -- Occupied --
-14.369 -10.246 -10.229 -10.213 -10.206 -10.204 -10.199  -0.979
 -0.814  -0.782  -0.661  -0.649  -0.565  -0.523  -0.503  -0.489
 -0.448  -0.425  -0.394  -0.376  -0.365  -0.305  -0.286  -0.221
 -- Virtual --
 -0.051  -0.039   0.007   0.020   0.022   0.030   0.035   0.047
  0.051   0.068   0.072   0.084   0.088   0.097   0.112   0.113
  0.124   0.134   0.138   0.141   0.146   0.157   0.177   0.184
  0.192   0.197   0.198   0.212   0.212   0.222   0.239   0.246
  0.253   0.269   0.274   0.283   0.298   0.304   0.322   0.342
  0.355   0.362   0.427   0.488   0.512   0.612   0.640   0.666
  0.690   0.702   0.721   0.736   0.742   0.757   0.765   0.775
  0.791   0.821   0.860   0.899   0.917   0.931   0.945   0.955
  0.975   1.005   1.032   1.046   1.077   1.099   1.119   1.138
  1.151   1.200   1.225   1.246   1.276   1.346   1.377   1.429
  1.445   1.501   1.541   1.588   1.704   1.724   1.767   1.790
  1.827   1.854   1.881   1.932   1.961   1.971   1.988   2.031
  2.075   2.099   2.163   2.208   2.223   2.331   2.342   2.375
  2.382   2.406   2.425   2.456   2.463   2.501   2.511   2.529
  2.547   2.582   2.607   2.627   2.681   2.690   2.703   2.776
  2.869   2.899   2.990   3.015   3.106   3.265   3.280   3.313
  3.388   3.498   3.566   3.781   4.201   4.325   4.353   4.449
  4.541   4.668   4.759
 --------------------------------------------------------------
 
          Ground-State Mulliken Net Atomic Charges

     Atom                 Charge (a.u.)    Spin (a.u.)
  --------------------------------------------------------
      1 C                    -0.075043      -0.142800
      2 C                    -0.029473       0.037341
      3 C                    -0.197508       0.010446
      4 C                     0.093916       0.049478
      5 C                    -0.254262      -0.048013
      6 N                    -0.145977       0.102646
      7 H                     0.146545       0.017684
      8 H                     0.131931       0.000494
      9 H                     0.127003      -0.000942
     10 H                     0.126651       0.005120
     11 H                     0.136893      -0.003008
     12 C                    -0.213055       1.012142
     13 H                     0.152378      -0.040587
  --------------------------------------------------------
  Sum of atomic charges =     0.000000
  Sum of spin   charges =     1.000000

 -----------------------------------------------------------------
                    Cartesian Multipole Moments
 -----------------------------------------------------------------
    Charge (ESU x 10^10)
                 0.0000
    Dipole Moment (Debye)
         X      -0.4344      Y      -0.9946      Z      -0.0318
       Tot       1.0858
    Quadrupole Moments (Debye-Ang)
        XX     -39.0104     XY      -2.6365     YY     -41.2092
        XZ      -1.2863     YZ      -1.7542     ZZ     -41.9679
    Octopole Moments (Debye-Ang^2)
       XXX     -12.2758    XXY      -7.6213    XYY      -9.2565
       YYY     -16.5429    XXZ       5.7300    XYZ      -0.8379
       YYZ       4.3998    XZZ       2.2050    YZZ      -1.9338
       ZZZ      -4.4984
    Hexadecapole Moments (Debye-Ang^3)
      XXXX    -343.8472   XXXY      -5.1988   XXYY    -112.3374
      XYYY     -16.5599   YYYY    -306.8199   XXXZ      46.1153
      XXYZ      10.3938   XYYZ      14.3784   YYYZ      29.9044
      XXZZ     -84.8639   XYZZ       2.8161   YYZZ     -80.1702
      XZZZ      37.5001   YZZZ      30.9014   ZZZZ    -136.1545
 -----------------------------------------------------------------
 Calculating MO derivatives via CPSCF
   1         3          39      0.287416    0.064130
   2         3          39      0.035093    0.007724
   3         3          39      0.003894    0.000743
   4         3          39      0.000577    0.000111
   5        28          14      0.000045    0.000010
   6        42           0      0.000000    0.000000    Roots Converged
 Time for AOints: 19.8 s (CPU) 27.3 s (wall)
 ------------------------------------------------------------------------------
                     AOints        : Timing summary (seconds)
 ------------------------------------------------------------------------------
     job step          cpu (% of tot)      sys (% of tot)     wall (% of tot)
 ------------------------------------------------------------------------------
  cpscf_lag         0.1278E+03 (30.7)   0.7100E-04 (45.8)   0.1423E+03 (29.4)
  iterzp            0.2680E+03 (64.4)   0.8000E-04 (51.6)   0.3129E+03 (64.7)
  make_fx           0.0000E+00 ( 0.0)   0.0000E+00 ( 0.0)   0.0000E+00 ( 0.0)
  AOints            0.1984E+02 ( 4.8)   0.3000E-05 ( 1.9)   0.2729E+02 ( 5.6)
 ------------------------------------------------------------------------------
   Grand Totals     0.4160E+03          0.1550E-03          0.4833E+03
 ------------------------------------------------------------------------------
 Calculating analytic Hessian of the SCF energy
 Polarizability Matrix (a.u.)
            1           2           3
    1 -82.6197961   2.8401446   7.9443001
    2   2.8401446 -79.3816227   7.1641343
    3   7.9443001   7.1641343 -59.7852138
 
 Direct stationary perturbation theory relativistic correction:
 
 rels  =       0.069354093527
 relv  =      -0.337942014738
 rel2e =       0.155713811353
 E_rel =      -0.112874109858
 
 Hessian of the SCF Energy
            1           2           3           4           5           6
    1   0.5326725   0.0873360   0.1248957  -0.1673015  -0.0805005   0.0246778
    2   0.0873360   0.3223138  -0.1720812  -0.0496575  -0.1514008   0.0387603
    3   0.1248957  -0.1720812   0.4300622   0.0133598   0.0239675  -0.0724127
    4  -0.1673015  -0.0496575   0.0133598   0.7689326  -0.0858616  -0.0117609
    5  -0.0805005  -0.1514008   0.0239675  -0.0858616   0.5739470  -0.1391455
    6   0.0246778   0.0387603  -0.0724127  -0.0117609  -0.1391455   0.1776334
    7  -0.0198776  -0.0325454   0.0125811  -0.4666203   0.0611326   0.0122047
    8  -0.0319989   0.0201286   0.0020656   0.0317092  -0.1137984   0.0184048
    9   0.0098894  -0.0070686   0.0049361   0.0313499   0.0142046  -0.0608325
   10   0.0001195  -0.0054924  -0.0053325  -0.0163851   0.0313644  -0.0051306
   11   0.0036852  -0.0286181   0.0016924   0.0481426  -0.0007428  -0.0073719
   12  -0.0005708  -0.0037082  -0.0066566  -0.0054823   0.0000955   0.0086530
   13  -0.0164252   0.0378218   0.0100638  -0.0173043   0.0013823   0.0024249
   14   0.0196525   0.0030353  -0.0093566  -0.0167213  -0.0045426   0.0038367
   15  -0.0102147  -0.0113050  -0.0043452   0.0065104  -0.0000183   0.0006506
   16  -0.0434115  -0.0082376  -0.0185819   0.0284237  -0.0027444  -0.0068883
   17   0.0034752  -0.0351333   0.0392432  -0.0055301  -0.0251674  -0.0024959
   18   0.0310407  -0.0297363  -0.0116581   0.0068432   0.0287627  -0.0042325
   19  -0.2561413  -0.0218285  -0.1066042  -0.0158593  -0.0018216  -0.0065509
   20  -0.0233321  -0.0510915  -0.0087007  -0.0191882   0.0070112  -0.0103820
   21  -0.1179732  -0.0084201  -0.1005533   0.0111461   0.0018168   0.0061850
   22   0.0097263  -0.0143688   0.0054550  -0.1021794   0.0960576  -0.0315119
   23   0.0112122  -0.0103363   0.0048933   0.0977874  -0.2680638   0.0721158
   24  -0.0026563   0.0155074  -0.0004385  -0.0392925   0.0714414  -0.0538222
   25  -0.0039931   0.0029385  -0.0003622  -0.0160966  -0.0260230   0.0098135
   26   0.0020555   0.0017612   0.0020213   0.0043023   0.0068204  -0.0012506
   27   0.0020038   0.0023329   0.0108704   0.0001515   0.0021349   0.0031119
   28   0.0010453   0.0000799   0.0000376   0.0008272   0.0019960   0.0003428
   29   0.0003598  -0.0007536  -0.0001036   0.0008179  -0.0054386   0.0014119
   30   0.0010717   0.0009470  -0.0002966  -0.0003801   0.0003334   0.0019795
   31  -0.0024420   0.0024097   0.0024740  -0.0014984  -0.0014536   0.0003533
   32  -0.0011944   0.0016865  -0.0000916   0.0000065   0.0003503  -0.0001817
   33  -0.0010315   0.0102032  -0.0002791  -0.0057214  -0.0032025   0.0009299
   34  -0.0297787   0.0052387  -0.0333259   0.0040080   0.0062949   0.0114262
   35   0.0127903  -0.0701288   0.1110445  -0.0067713  -0.0220982   0.0262656
   36  -0.0627764   0.1680534  -0.2482807  -0.0061562   0.0003017  -0.0084672
   37  -0.0041926  -0.0036943  -0.0046604   0.0010532   0.0001768   0.0005996
   38  -0.0035408  -0.0014630   0.0054061   0.0009640   0.0031238   0.0000326
   39   0.0016439  -0.0034847  -0.0009479  -0.0005674  -0.0006922   0.0006237
            7           8           9          10          11          12
    1  -0.0198776  -0.0319989   0.0098894   0.0001195   0.0036852  -0.0005708
    2  -0.0325454   0.0201286  -0.0070686  -0.0054924  -0.0286181  -0.0037082
    3   0.0125811   0.0020656   0.0049361  -0.0053325   0.0016924  -0.0066566
    4  -0.4666203   0.0317092   0.0313499  -0.0163851   0.0481426  -0.0054823
    5   0.0611326  -0.1137984   0.0142046   0.0313644  -0.0007428   0.0000955
    6   0.0122047   0.0184048  -0.0608325  -0.0051306  -0.0073719   0.0086530
    7   0.7805118   0.0231283  -0.0781352  -0.1332754   0.0319159   0.0103635
    8   0.0231283   0.6012580  -0.1037236   0.0737387  -0.2256740   0.0150763
    9  -0.0781352  -0.1037236   0.1579882   0.0005627   0.0286061  -0.0641266
   10  -0.1332754   0.0737387   0.0005627   0.7162592   0.0693884  -0.1234336
   11   0.0319159  -0.2256740   0.0286061   0.0693884   0.6757808  -0.0837086
   12   0.0103635   0.0150763  -0.0641266  -0.1234336  -0.0837086   0.1557656
   13   0.0307950  -0.0159697   0.0001971  -0.2147932  -0.1464047   0.0510684
   14   0.0051746  -0.0500185   0.0075662  -0.1752399  -0.3553064   0.0588583
   15  -0.0070340   0.0118035   0.0076732   0.0455000   0.0487764  -0.0711283
   16  -0.0163117   0.0246619  -0.0079174  -0.0525625  -0.0343548   0.0096536
   17   0.0120897  -0.0126108   0.0053296  -0.0127903   0.0295701   0.0076445
   18  -0.0140753  -0.0003113  -0.0076544   0.0212141  -0.0113568   0.0061800
   19   0.0013263  -0.0047357  -0.0007826  -0.0001194   0.0018562  -0.0001367
   20  -0.0039120  -0.0031848   0.0014563   0.0019024  -0.0018682  -0.0008819
   21  -0.0005365   0.0018880   0.0006874  -0.0001586  -0.0008536  -0.0003649
   22  -0.0087372   0.0297357  -0.0081695  -0.0047026  -0.0012917   0.0009968
   23   0.0011622  -0.0004933   0.0016910   0.0006942   0.0036156   0.0032188
   24   0.0059788  -0.0023112   0.0055948   0.0010705   0.0043015   0.0096503
   25  -0.1543804  -0.1248599   0.0450506   0.0109909   0.0118883  -0.0044049
   26  -0.1261928  -0.2195232   0.0595073  -0.0177434  -0.0172273   0.0077182
   27   0.0456291   0.0622057  -0.0568253   0.0042946   0.0014430   0.0010336
   28  -0.0075539  -0.0007918   0.0021713  -0.3206774   0.0309652   0.0619122
   29   0.0285312   0.0008347  -0.0071377   0.0327067  -0.0611985  -0.0045975
   30  -0.0032546   0.0024635   0.0014571   0.0647007  -0.0067757  -0.0470507
   31  -0.0007876  -0.0022919   0.0029334   0.0108368  -0.0162741   0.0000639
   32  -0.0044288  -0.0011156   0.0002813   0.0113208  -0.0179439  -0.0028664
   33   0.0062806  -0.0013255   0.0095717  -0.0002925   0.0116072   0.0058865
   34  -0.0031861  -0.0033861   0.0021965   0.0059255   0.0023676  -0.0001788
   35   0.0060766   0.0054563  -0.0006788  -0.0111283  -0.0005414   0.0027866
   36   0.0093256  -0.0055112   0.0014282  -0.0030444   0.0124357   0.0023256
   37  -0.0019029   0.0010601   0.0006537  -0.0016163  -0.0018841   0.0001486
   38  -0.0021320  -0.0012592  -0.0000336   0.0012786   0.0001541   0.0003644
   39   0.0006723  -0.0007246   0.0001021   0.0000496   0.0012043  -0.0001674
           13          14          15          16          17          18
    1  -0.0164252   0.0196525  -0.0102147  -0.0434115   0.0034752   0.0310407
    2   0.0378218   0.0030353  -0.0113050  -0.0082376  -0.0351333  -0.0297363
    3   0.0100638  -0.0093566  -0.0043452  -0.0185819   0.0392432  -0.0116581
    4  -0.0173043  -0.0167213   0.0065104   0.0284237  -0.0055301   0.0068432
    5   0.0013823  -0.0045426  -0.0000183  -0.0027444  -0.0251674   0.0287627
    6   0.0024249   0.0038367   0.0006506  -0.0068883  -0.0024959  -0.0042325
    7   0.0307950   0.0051746  -0.0070340  -0.0163117   0.0120897  -0.0140753
    8  -0.0159697  -0.0500185   0.0118035   0.0246619  -0.0126108  -0.0003113
    9   0.0001971   0.0075662   0.0076732  -0.0079174   0.0053296  -0.0076544
   10  -0.2147932  -0.1752399   0.0455000  -0.0525625  -0.0127903   0.0212141
   11  -0.1464047  -0.3553064   0.0487764  -0.0343548   0.0295701  -0.0113568
   12   0.0510684   0.0588583  -0.0711283   0.0096536   0.0076445   0.0061800
   13   0.5399058   0.0587975  -0.1103122  -0.1976390  -0.0147176   0.0396286
   14   0.0587975   0.7977958  -0.0308410  -0.0048993  -0.0718417   0.0240512
   15  -0.1103122  -0.0308410   0.1687050   0.0309623   0.0064638  -0.0623129
   16  -0.1976390  -0.0048993   0.0309623   0.3672179  -0.0585494  -0.1591885
   17  -0.0147176  -0.0718417   0.0064638  -0.0585494   0.2099934   0.1110941
   18   0.0396286   0.0240512  -0.0623129  -0.1591885   0.1110941   0.2736047
   19  -0.0014996  -0.0009669  -0.0007262  -0.0032009  -0.0005956  -0.0041507
   20  -0.0011008   0.0007285   0.0029045   0.0148490  -0.0009317   0.0089212
   21   0.0017641  -0.0025189   0.0008535   0.0089288   0.0072592   0.0026987
   22  -0.0016858   0.0000651   0.0000115  -0.0000127  -0.0037361   0.0025493
   23  -0.0028305   0.0000090   0.0001520   0.0005819  -0.0037149   0.0025751
   24  -0.0038509  -0.0022336   0.0003720   0.0070656  -0.0055984   0.0026871
   25  -0.0015992   0.0031188   0.0007605   0.0003381  -0.0002271  -0.0008584
   26   0.0040849  -0.0036208   0.0001679   0.0003333   0.0003007  -0.0000213
   27  -0.0019983   0.0011032   0.0029704   0.0012239  -0.0011761  -0.0015547
   28  -0.0145736   0.0054925   0.0035263   0.0009009  -0.0027876   0.0016298
   29  -0.0259132   0.0072250   0.0057468  -0.0033295  -0.0025219   0.0021672
   30   0.0052639  -0.0013717  -0.0005990   0.0048440   0.0015586   0.0086168
   31  -0.0826547   0.0872880   0.0085973  -0.0183362   0.0248710   0.0065204
   32   0.0872963  -0.3042168  -0.0262479   0.0032479   0.0028525  -0.0011596
   33   0.0077270  -0.0332233  -0.0362976   0.0100827  -0.0102287   0.0048022
   34  -0.0242829   0.0185714   0.0322728  -0.0613446   0.0632351   0.0611324
   35   0.0223336  -0.0207094  -0.0069117   0.0666900  -0.0933110  -0.1165946
   36   0.0001814  -0.0154332  -0.0064891   0.1181067  -0.1613364  -0.2057461
   37   0.0017567  -0.0003330   0.0001461  -0.0040617  -0.0047371   0.0077146
   38  -0.0047799   0.0014627  -0.0006909   0.0017511   0.0025161  -0.0183915
   39  -0.0021578  -0.0004373  -0.0000526   0.0017085   0.0022426  -0.0054307
           19          20          21          22          23          24
    1  -0.2561413  -0.0233321  -0.1179732   0.0097263   0.0112122  -0.0026563
    2  -0.0218285  -0.0510915  -0.0084201  -0.0143688  -0.0103363   0.0155074
    3  -0.1066042  -0.0087007  -0.1005533   0.0054550   0.0048933  -0.0004385
    4  -0.0158593  -0.0191882   0.0111461  -0.1021794   0.0977874  -0.0392925
    5  -0.0018216   0.0070112   0.0018168   0.0960576  -0.2680638   0.0714414
    6  -0.0065509  -0.0103820   0.0061850  -0.0315119   0.0721158  -0.0538222
    7   0.0013263  -0.0039120  -0.0005365  -0.0087372   0.0011622   0.0059788
    8  -0.0047357  -0.0031848   0.0018880   0.0297357  -0.0004933  -0.0023112
    9  -0.0007826   0.0014563   0.0006874  -0.0081695   0.0016910   0.0055948
   10  -0.0001194   0.0019024  -0.0001586  -0.0047026   0.0006942   0.0010705
   11   0.0018562  -0.0018682  -0.0008536  -0.0012917   0.0036156   0.0043015
   12  -0.0001367  -0.0008819  -0.0003649   0.0009968   0.0032188   0.0096503
   13  -0.0014996  -0.0011008   0.0017641  -0.0016858  -0.0028305  -0.0038509
   14  -0.0009669   0.0007285  -0.0025189   0.0000651   0.0000090  -0.0022336
   15  -0.0007262   0.0029045   0.0008535   0.0000115   0.0001520   0.0003720
   16  -0.0032009   0.0148490   0.0089288  -0.0000127   0.0005819   0.0070656
   17  -0.0005956  -0.0009317   0.0072592  -0.0037361  -0.0037149  -0.0055984
   18  -0.0041507   0.0089212   0.0026987   0.0025493   0.0025751   0.0026871
   19   0.2712426   0.0223102   0.1211357   0.0002805  -0.0004803   0.0006373
   20   0.0223102   0.0512052  -0.0016991   0.0008505   0.0005999  -0.0000623
   21   0.1211357  -0.0016991   0.1075815  -0.0005246  -0.0002442  -0.0000603
   22   0.0002805   0.0008505  -0.0005246   0.1064102  -0.1075132   0.0318832
   23  -0.0004803   0.0005999  -0.0002442  -0.1075132   0.2796557  -0.0806741
   24   0.0006373  -0.0000623  -0.0000603   0.0318832  -0.0806741   0.0462382
   25  -0.0006996  -0.0011136   0.0003881   0.0009775  -0.0000286  -0.0005767
   26   0.0003067   0.0004554  -0.0000639  -0.0001757   0.0004326  -0.0018891
   27   0.0006593   0.0011337  -0.0004571  -0.0002546  -0.0025104  -0.0061559
   28   0.0000588  -0.0001563  -0.0001512  -0.0003653  -0.0000587   0.0000859
   29   0.0000557   0.0000824  -0.0001289   0.0015524   0.0001049   0.0004640
   30   0.0001386  -0.0002805  -0.0000811   0.0001160   0.0001004   0.0002975
   31  -0.0000451   0.0003416   0.0003079   0.0002102  -0.0000755  -0.0005345
   32  -0.0000073   0.0000569   0.0000374   0.0000906  -0.0000077   0.0000605
   33  -0.0004242   0.0007535   0.0002741  -0.0001436  -0.0007978  -0.0021544
   34   0.0041305   0.0089105  -0.0217766   0.0001319  -0.0004566   0.0002901
   35   0.0060932  -0.0036964   0.0025118  -0.0012664  -0.0016813   0.0012150
   36  -0.0034084   0.0068764  -0.0167665  -0.0004049  -0.0005016  -0.0020592
   37   0.0005263  -0.0003611  -0.0025500  -0.0000537   0.0000057  -0.0001005
   38  -0.0001860   0.0006332   0.0004154  -0.0000000  -0.0001204  -0.0002212
   39   0.0002130  -0.0000393   0.0000029  -0.0000027  -0.0000183  -0.0001494
           25          26          27          28          29          30
    1  -0.0039931   0.0020555   0.0020038   0.0010453   0.0003598   0.0010717
    2   0.0029385   0.0017612   0.0023329   0.0000799  -0.0007536   0.0009470
    3  -0.0003622   0.0020213   0.0108704   0.0000376  -0.0001036  -0.0002966
    4  -0.0160966   0.0043023   0.0001515   0.0008272   0.0008179  -0.0003801
    5  -0.0260230   0.0068204   0.0021349   0.0019960  -0.0054386   0.0003334
    6   0.0098135  -0.0012506   0.0031119   0.0003428   0.0014119   0.0019795
    7  -0.1543804  -0.1261928   0.0456291  -0.0075539   0.0285312  -0.0032546
    8  -0.1248599  -0.2195232   0.0622057  -0.0007918   0.0008347   0.0024635
    9   0.0450506   0.0595073  -0.0568253   0.0021713  -0.0071377   0.0014571
   10   0.0109909  -0.0177434   0.0042946  -0.3206774   0.0327067   0.0647007
   11   0.0118883  -0.0172273   0.0014430   0.0309652  -0.0611985  -0.0067757
   12  -0.0044049   0.0077182   0.0010336   0.0619122  -0.0045975  -0.0470507
   13  -0.0015992   0.0040849  -0.0019983  -0.0145736  -0.0259132   0.0052639
   14   0.0031188  -0.0036208   0.0011032   0.0054925   0.0072250  -0.0013717
   15   0.0007605   0.0001679   0.0029704   0.0035263   0.0057468  -0.0005990
   16   0.0003381   0.0003333   0.0012239   0.0009009  -0.0033295   0.0048440
   17  -0.0002271   0.0003007  -0.0011761  -0.0027876  -0.0025219   0.0015586
   18  -0.0008584  -0.0000213  -0.0015547   0.0016298   0.0021672   0.0086168
   19  -0.0006996   0.0003067   0.0006593   0.0000588   0.0000557   0.0001386
   20  -0.0011136   0.0004554   0.0011337  -0.0001563   0.0000824  -0.0002805
   21   0.0003881  -0.0000639  -0.0004571  -0.0001512  -0.0001289  -0.0000811
   22   0.0009775  -0.0001757  -0.0002546  -0.0003653   0.0015524   0.0001160
   23  -0.0000286   0.0004326  -0.0025104  -0.0000587   0.0001049   0.0001004
   24  -0.0005767  -0.0018891  -0.0061559   0.0000859   0.0004640   0.0002975
   25   0.1634411   0.1340494  -0.0499193   0.0005471  -0.0006090  -0.0004607
   26   0.1340494   0.2309349  -0.0658024   0.0000526   0.0009661  -0.0003752
   27  -0.0499193  -0.0658024   0.0470806  -0.0006888  -0.0003483  -0.0009824
   28   0.0005471   0.0000526  -0.0006888   0.3394989  -0.0343922  -0.0680804
   29  -0.0006090   0.0009661  -0.0003483  -0.0343922   0.0609206   0.0030576
   30  -0.0004607  -0.0003752  -0.0009824  -0.0680804   0.0030576   0.0397675
   31   0.0005108  -0.0010039   0.0002065   0.0004484   0.0001413  -0.0014726
   32   0.0006887  -0.0008525   0.0004969  -0.0002257   0.0006284   0.0002482
   33   0.0001423  -0.0000044   0.0000950  -0.0011297  -0.0004540  -0.0050506
   34   0.0000265  -0.0000153  -0.0010748   0.0000684   0.0002715  -0.0020500
   35   0.0003595  -0.0004442  -0.0006896  -0.0001340  -0.0009809   0.0000719
   36   0.0003993   0.0000039   0.0008162   0.0003506  -0.0000752   0.0018338
   37  -0.0000632  -0.0000534  -0.0002327  -0.0002251  -0.0001925  -0.0004366
   38  -0.0001818  -0.0000034  -0.0003237  -0.0000399   0.0001313   0.0000223
   39   0.0000279  -0.0000116  -0.0000028  -0.0000065  -0.0000024   0.0001083
           31          32          33          34          35          36
    1  -0.0024420  -0.0011944  -0.0010315  -0.0297787   0.0127903  -0.0627764
    2   0.0024097   0.0016865   0.0102032   0.0052387  -0.0701288   0.1680534
    3   0.0024740  -0.0000916  -0.0002791  -0.0333259   0.1110445  -0.2482807
    4  -0.0014984   0.0000065  -0.0057214   0.0040080  -0.0067713  -0.0061562
    5  -0.0014536   0.0003503  -0.0032025   0.0062949  -0.0220982   0.0003017
    6   0.0003533  -0.0001817   0.0009299   0.0114262   0.0262656  -0.0084672
    7  -0.0007876  -0.0044288   0.0062806  -0.0031861   0.0060766   0.0093256
    8  -0.0022919  -0.0011156  -0.0013255  -0.0033861   0.0054563  -0.0055112
    9   0.0029334   0.0002813   0.0095717   0.0021965  -0.0006788   0.0014282
   10   0.0108368   0.0113208  -0.0002925   0.0059255  -0.0111283  -0.0030444
   11  -0.0162741  -0.0179439   0.0116072   0.0023676  -0.0005414   0.0124357
   12   0.0000639  -0.0028664   0.0058865  -0.0001788   0.0027866   0.0023256
   13  -0.0826547   0.0872963   0.0077270  -0.0242829   0.0223336   0.0001814
   14   0.0872880  -0.3042168  -0.0332233   0.0185714  -0.0207094  -0.0154332
   15   0.0085973  -0.0262479  -0.0362976   0.0322728  -0.0069117  -0.0064891
   16  -0.0183362   0.0032479   0.0100827  -0.0613446   0.0666900   0.1181067
   17   0.0248710   0.0028525  -0.0102287   0.0632351  -0.0933110  -0.1613364
   18   0.0065204  -0.0011596   0.0048022   0.0611324  -0.1165946  -0.2057461
   19  -0.0000451  -0.0000073  -0.0004242   0.0041305   0.0060932  -0.0034084
   20   0.0003416   0.0000569   0.0007535   0.0089105  -0.0036964   0.0068764
   21   0.0003079   0.0000374   0.0002741  -0.0217766   0.0025118  -0.0167665
   22   0.0002102   0.0000906  -0.0001436   0.0001319  -0.0012664  -0.0004049
   23  -0.0000755  -0.0000077  -0.0007978  -0.0004566  -0.0016813  -0.0005016
   24  -0.0005345   0.0000605  -0.0021544   0.0002901   0.0012150  -0.0020592
   25   0.0005108   0.0006887   0.0001423   0.0000265   0.0003595   0.0003993
   26  -0.0010039  -0.0008525  -0.0000044  -0.0000153  -0.0004442   0.0000039
   27   0.0002065   0.0004969   0.0000950  -0.0010748  -0.0006896   0.0008162
   28   0.0004484  -0.0002257  -0.0011297   0.0000684  -0.0001340   0.0003506
   29   0.0001413   0.0006284  -0.0004540   0.0002715  -0.0009809  -0.0000752
   30  -0.0014726   0.0002482  -0.0050506  -0.0020500   0.0000719   0.0018338
   31   0.0958278  -0.0966851  -0.0182676  -0.0020386   0.0027340  -0.0011815
   32  -0.0966851   0.3181615   0.0286534  -0.0000917   0.0004431   0.0008047
   33  -0.0182676   0.0286534   0.0255999   0.0029493  -0.0023299  -0.0031209
   34  -0.0020386  -0.0000917   0.0029493   0.1019410  -0.1221659  -0.1033826
   35   0.0027340   0.0004431  -0.0023299  -0.1221659   0.2393067  -0.0564528
   36  -0.0011815   0.0008047  -0.0031209  -0.1033826  -0.0564528   0.8523414
   37  -0.0000315  -0.0000178  -0.0001715   0.0043990   0.0243886   0.0519908
   38  -0.0000014  -0.0000427   0.0003488   0.0212261  -0.0316144   0.0508346
   39  -0.0000005  -0.0000352  -0.0002567   0.0515215   0.0397619  -0.3678156
           37          38          39
    1  -0.0041926  -0.0035408   0.0016439
    2  -0.0036943  -0.0014630  -0.0034847
    3  -0.0046604   0.0054061  -0.0009479
    4   0.0010532   0.0009640  -0.0005674
    5   0.0001768   0.0031238  -0.0006922
    6   0.0005996   0.0000326   0.0006237
    7  -0.0019029  -0.0021320   0.0006723
    8   0.0010601  -0.0012592  -0.0007246
    9   0.0006537  -0.0000336   0.0001021
   10  -0.0016163   0.0012786   0.0000496
   11  -0.0018841   0.0001541   0.0012043
   12   0.0001486   0.0003644  -0.0001674
   13   0.0017567  -0.0047799  -0.0021578
   14  -0.0003330   0.0014627  -0.0004373
   15   0.0001461  -0.0006909  -0.0000526
   16  -0.0040617   0.0017511   0.0017085
   17  -0.0047371   0.0025161   0.0022426
   18   0.0077146  -0.0183915  -0.0054307
   19   0.0005263  -0.0001860   0.0002130
   20  -0.0003611   0.0006332  -0.0000393
   21  -0.0025500   0.0004154   0.0000029
   22  -0.0000537  -0.0000000  -0.0000027
   23   0.0000057  -0.0001204  -0.0000183
   24  -0.0001005  -0.0002212  -0.0001494
   25  -0.0000632  -0.0001818   0.0000279
   26  -0.0000534  -0.0000034  -0.0000116
   27  -0.0002327  -0.0003237  -0.0000028
   28  -0.0002251  -0.0000399  -0.0000065
   29  -0.0001925   0.0001313  -0.0000024
   30  -0.0004366   0.0000223   0.0001083
   31  -0.0000315  -0.0000014  -0.0000005
   32  -0.0000178  -0.0000427  -0.0000352
   33  -0.0001715   0.0003488  -0.0002567
   34   0.0043990   0.0212261   0.0515215
   35   0.0243886  -0.0316144   0.0397619
   36   0.0519908   0.0508346  -0.3678156
   37   0.0044116  -0.0143580  -0.0531016
   38  -0.0143580   0.0264820  -0.0377633
   39  -0.0531016  -0.0377633   0.3739861
 Gradient time:  CPU 547.62 s  wall 635.20 s
 **********************************************************************
 **                                                                  **
 **                       VIBRATIONAL ANALYSIS                       **
 **                       --------------------                       **
 **                                                                  **
 **        VIBRATIONAL FREQUENCIES (CM**-1) AND NORMAL MODES         **
 **     FORCE CONSTANTS (mDYN/ANGSTROM) AND REDUCED MASSES (AMU)     **
 **                  INFRARED INTENSITIES (KM/MOL)                   **
 **                                                                  **
 **********************************************************************
 

 Mode:                 1                      2                      3
 Frequency:      -665.83                 114.13                 266.99
 Force Cnst:      0.3098                 0.0231                 0.1237
 Red. Mass:       1.1862                 3.0159                 2.9454
 IR Active:          YES                    YES                    YES
 IR Intens:       53.286                  4.601                  4.023
 Raman Active:       YES                    YES                    YES
               X      Y      Z        X      Y      Z        X      Y      Z
 C          0.003  0.012  0.001   -0.074  0.149  0.053   -0.026 -0.100 -0.163
 C          0.005  0.000  0.006   -0.051 -0.021 -0.136   -0.024 -0.045  0.028
 C          0.007  0.001  0.000   -0.014 -0.007  0.118   -0.004  0.003  0.198
 C          0.005  0.004  0.003   -0.020  0.031  0.173   -0.011 -0.030 -0.124
 C          0.004  0.003  0.009   -0.046 -0.041 -0.107    0.007 -0.038 -0.102
 N          0.006  0.001 -0.005    0.021 -0.153  0.027    0.072  0.015  0.165
 H          0.007  0.023 -0.008   -0.154  0.139  0.210    0.034 -0.220 -0.257
 H          0.006  0.001  0.006   -0.013 -0.134 -0.562   -0.002  0.018  0.194
 H          0.006  0.002  0.003   -0.011 -0.041  0.022    0.012  0.090  0.492
 H          0.006  0.003  0.009   -0.019  0.053  0.160   -0.056 -0.014 -0.345
 H          0.005  0.003  0.008   -0.060 -0.002 -0.537   -0.071 -0.042 -0.331
 C         -0.106 -0.062 -0.027    0.181  0.057 -0.069   -0.015  0.171 -0.010
 H          0.865  0.459  0.157    0.244  0.125 -0.049   -0.055  0.428  0.010
 TransDip   0.212  0.092  0.038   -0.032  0.038 -0.048   -0.019  0.033 -0.052

 Mode:                 4                      5                      6
 Frequency:       364.30                 472.16                 495.16
 Force Cnst:      0.2949                 0.5217                 1.1035
 Red. Mass:       3.7709                 3.9718                 7.6384
 IR Active:          YES                    YES                    YES
 IR Intens:       10.748                 11.993                  3.952
 Raman Active:       YES                    YES                    YES
               X      Y      Z        X      Y      Z        X      Y      Z
 C          0.055 -0.198 -0.080    0.014 -0.096  0.079   -0.320  0.168  0.046
 C         -0.038 -0.049 -0.049    0.039 -0.179 -0.137   -0.167 -0.043  0.104
 C         -0.050  0.002  0.049    0.079  0.005  0.041   -0.173 -0.309  0.022
 C         -0.029 -0.030  0.098    0.124  0.035  0.074    0.218 -0.133  0.021
 C         -0.058 -0.002 -0.021   -0.056  0.105 -0.188    0.201 -0.091  0.007
 N         -0.144  0.146 -0.182   -0.010  0.218  0.025    0.203  0.313 -0.112
 H         -0.050 -0.177  0.120    0.022 -0.052  0.052   -0.312  0.079  0.029
 H         -0.085  0.025  0.272   -0.008 -0.305 -0.467    0.150  0.098  0.070
 H         -0.011  0.053  0.292   -0.019  0.027 -0.118   -0.264 -0.250 -0.019
 H          0.039  0.008  0.395    0.094 -0.035 -0.028    0.258  0.124  0.067
 H         -0.059 -0.038  0.357   -0.242  0.071 -0.489   -0.038 -0.194  0.096
 C          0.261  0.111  0.086   -0.165 -0.080  0.176    0.016  0.061 -0.083
 H          0.488  0.070  0.109   -0.121 -0.227  0.166    0.051 -0.066 -0.092
 TransDip   0.030 -0.028  0.097    0.036 -0.071 -0.077    0.005 -0.059 -0.023

 Mode:                 7                      8                      9
 Frequency:       620.39                 636.66                 745.35
 Force Cnst:      0.7676                 1.0087                 0.5381
 Red. Mass:       3.3852                 4.2236                 1.6439
 IR Active:          YES                    YES                    YES
 IR Intens:        1.669                 20.727                 51.339
 Raman Active:       YES                    YES                    YES
               X      Y      Z        X      Y      Z        X      Y      Z
 C         -0.025 -0.079 -0.067    0.226 -0.025 -0.040   -0.023  0.035  0.041
 C          0.026 -0.029  0.243   -0.071  0.249 -0.006   -0.002  0.043 -0.134
 C          0.002 -0.044 -0.217   -0.130  0.002 -0.023   -0.003 -0.001 -0.075
 C          0.073  0.054  0.189   -0.166 -0.070  0.142    0.011 -0.005  0.016
 C         -0.043  0.039 -0.160    0.007 -0.209 -0.066    0.015 -0.041 -0.119
 N         -0.013 -0.067  0.055    0.141  0.138  0.031    0.028 -0.025  0.071
 H          0.023 -0.031 -0.164    0.355 -0.261 -0.254   -0.049 -0.002  0.090
 H         -0.004 -0.012  0.341   -0.156  0.112 -0.309    0.036  0.258  0.496
 H         -0.099 -0.058 -0.486    0.064 -0.232 -0.275    0.127  0.103  0.522
 H          0.109  0.022  0.375   -0.171  0.089  0.028    0.127  0.087  0.494
 H         -0.044  0.059 -0.336   -0.077 -0.215 -0.297    0.075 -0.053  0.191
 C         -0.008  0.111 -0.028   -0.031 -0.059  0.045   -0.051 -0.033  0.035
 H         -0.095  0.333 -0.019   -0.001 -0.100  0.044   -0.069 -0.033  0.036
 TransDip  -0.035  0.015 -0.017    0.046 -0.081 -0.113    0.071  0.037  0.215

 Mode:                10                     11                     12
 Frequency:       807.03                 866.94                 916.00
 Force Cnst:      0.5333                 1.2266                 1.3426
 Red. Mass:       1.3898                 2.7701                 2.7159
 IR Active:          YES                    YES                    YES
 IR Intens:        5.145                 16.376                  7.131
 Raman Active:       YES                    YES                    YES
               X      Y      Z        X      Y      Z        X      Y      Z
 C          0.015  0.002  0.022    0.148 -0.012  0.077   -0.070 -0.045 -0.035
 C         -0.001  0.005  0.060   -0.059  0.029 -0.049   -0.042  0.230 -0.045
 C         -0.002  0.018  0.076   -0.089 -0.007  0.029   -0.017 -0.048  0.046
 C         -0.001 -0.009 -0.093    0.136 -0.011  0.007    0.212 -0.049  0.029
 C          0.007 -0.024 -0.111    0.166 -0.080 -0.003   -0.039  0.094 -0.055
 N         -0.004 -0.021  0.007   -0.143 -0.077 -0.101   -0.080 -0.095  0.039
 H          0.042  0.020 -0.030   -0.007  0.238  0.336    0.055 -0.486 -0.208
 H         -0.035 -0.175 -0.468   -0.159  0.028  0.109    0.161  0.296 -0.162
 H         -0.057 -0.039 -0.221   -0.139  0.018 -0.016    0.002 -0.122 -0.160
 H          0.138  0.117  0.482    0.110  0.217 -0.272    0.114 -0.153 -0.378
 H          0.139 -0.050  0.587    0.072 -0.090 -0.252   -0.065  0.048  0.269
 C         -0.026  0.033  0.008   -0.097  0.090  0.057    0.012 -0.013  0.062
 H         -0.079  0.141  0.012   -0.338  0.538  0.072    0.203 -0.283  0.069
 TransDip   0.045 -0.006  0.056    0.028  0.118  0.046    0.020 -0.070 -0.045

 Mode:                13                     14                     15
 Frequency:       943.50                 952.05                 983.38
 Force Cnst:      1.7280                 0.9004                 0.7379
 Red. Mass:       3.2947                 1.6860                 1.2950
 IR Active:          YES                    YES                    YES
 IR Intens:        7.046                  4.649                  0.677
 Raman Active:       YES                    YES                    YES
               X      Y      Z        X      Y      Z        X      Y      Z
 C         -0.214 -0.052 -0.008    0.080  0.041  0.029   -0.004 -0.001  0.004
 C          0.033  0.008 -0.028    0.006 -0.077 -0.039   -0.006  0.013  0.084
 C          0.132  0.260  0.003   -0.043 -0.068  0.042   -0.001  0.013 -0.117
 C         -0.016 -0.033  0.098   -0.038  0.032  0.101    0.025 -0.005  0.054
 C          0.104 -0.210 -0.061   -0.062  0.056 -0.103   -0.000 -0.024 -0.026
 N         -0.019  0.039  0.000    0.064 -0.003 -0.004   -0.005  0.003 -0.008
 H         -0.274  0.055  0.075    0.065  0.109  0.053   -0.017  0.037  0.023
 H         -0.069  0.034  0.175    0.026  0.029  0.294   -0.096 -0.204 -0.485
 H          0.096  0.127 -0.505   -0.090 -0.098 -0.132    0.089  0.217  0.690
 H         -0.130 -0.129 -0.433   -0.201 -0.055 -0.575   -0.061 -0.080 -0.315
 H          0.114 -0.250  0.294    0.150  0.062  0.613    0.015 -0.044  0.203
 C          0.006 -0.011  0.026   -0.008  0.006 -0.043    0.000  0.003 -0.000
 H         -0.022  0.083  0.036   -0.077  0.113 -0.045   -0.019  0.035  0.000
 TransDip  -0.025 -0.001 -0.081   -0.041  0.002  0.056   -0.008 -0.021  0.014

 Mode:                16                     17                     18
 Frequency:      1019.12                1028.68                1065.00
 Force Cnst:      0.8480                 1.2319                 0.9961
 Red. Mass:       1.3858                 1.9759                 1.4906
 IR Active:          YES                    YES                    YES
 IR Intens:       11.164                  6.270                  6.254
 Raman Active:       YES                    YES                    YES
               X      Y      Z        X      Y      Z        X      Y      Z
 C         -0.040  0.004  0.109    0.090  0.064 -0.001    0.006 -0.107 -0.054
 C         -0.010  0.012 -0.021   -0.090 -0.043 -0.000   -0.026  0.092  0.003
 C          0.026  0.024 -0.005   -0.028  0.128  0.003    0.020 -0.009  0.011
 C          0.000 -0.031 -0.005    0.139 -0.105 -0.010    0.010 -0.037 -0.007
 C         -0.049  0.034  0.023   -0.091 -0.018  0.023   -0.055  0.062  0.014
 N          0.040  0.012 -0.066    0.035  0.002  0.038    0.086  0.010  0.007
 H          0.167 -0.472 -0.221    0.109  0.109 -0.037   -0.425  0.306  0.694
 H         -0.011  0.025  0.012   -0.474 -0.156  0.213   -0.043  0.059 -0.087
 H          0.041  0.029  0.035   -0.316  0.332 -0.080    0.144 -0.119 -0.042
 H         -0.008 -0.217  0.068    0.139 -0.393  0.118    0.002 -0.240  0.079
 H         -0.075  0.030 -0.038   -0.338 -0.124  0.074   -0.067  0.060  0.003
 C          0.048 -0.065 -0.013    0.005  0.007 -0.076   -0.009 -0.037 -0.027
 H         -0.357  0.689  0.005    0.093 -0.188 -0.091   -0.161  0.232 -0.025
 TransDip  -0.092  0.002  0.054   -0.067 -0.035  0.027   -0.068  0.017  0.038

 Mode:                19                     20                     21
 Frequency:      1155.55                1199.09                1225.14
 Force Cnst:      2.1561                 0.9165                 1.0813
 Red. Mass:       2.7406                 1.0818                 1.2227
 IR Active:          YES                    YES                    YES
 IR Intens:        8.386                  1.553                  6.627
 Raman Active:       YES                    YES                    YES
               X      Y      Z        X      Y      Z        X      Y      Z
 C         -0.017 -0.065  0.153    0.016 -0.006 -0.007   -0.014  0.036 -0.048
 C         -0.016  0.010 -0.005    0.027 -0.011  0.002   -0.035  0.010 -0.004
 C          0.053  0.012 -0.000   -0.042  0.020 -0.004   -0.009 -0.019  0.010
 C         -0.050 -0.033  0.002   -0.022 -0.012  0.006   -0.013 -0.032  0.004
 C         -0.001  0.016  0.002    0.003 -0.019 -0.001    0.056  0.036 -0.022
 N          0.114 -0.069 -0.129    0.021 -0.008 -0.018   -0.035  0.013  0.010
 H          0.016 -0.403  0.120   -0.039 -0.057  0.108    0.076  0.319 -0.259
 H         -0.261 -0.084  0.055    0.589  0.212 -0.123   -0.247 -0.077  0.026
 H          0.261 -0.131  0.039   -0.518  0.386 -0.006    0.074 -0.086  0.007
 H         -0.081 -0.354  0.061   -0.047 -0.335  0.071   -0.060 -0.559  0.086
 H          0.291  0.135 -0.115    0.165  0.046 -0.062    0.568  0.243 -0.110
 C         -0.141  0.248 -0.011   -0.020  0.018  0.023    0.025 -0.037  0.063
 H          0.245 -0.440 -0.034    0.005 -0.020  0.026   -0.023  0.052  0.077
 TransDip  -0.039  0.023  0.081   -0.004  0.040  0.003    0.073 -0.004 -0.039

 Mode:                22                     23                     24
 Frequency:      1317.22                1380.98                1427.84
 Force Cnst:      1.6137                 1.6702                 3.1138
 Red. Mass:       1.5785                 1.4864                 2.5923
 IR Active:          YES                    YES                    YES
 IR Intens:       10.385                 15.239                  3.880
 Raman Active:       YES                    YES                    YES
               X      Y      Z        X      Y      Z        X      Y      Z
 C         -0.051 -0.062  0.014   -0.034  0.022 -0.046    0.008  0.176 -0.184
 C          0.002  0.016 -0.025    0.060  0.050 -0.012   -0.003 -0.033  0.029
 C         -0.027  0.019 -0.001    0.056 -0.043  0.002    0.033 -0.043  0.004
 C          0.003 -0.007 -0.001    0.011 -0.069  0.005   -0.040  0.090 -0.004
 C         -0.039  0.016  0.019   -0.114 -0.021  0.025    0.059  0.003 -0.010
 N          0.104 -0.072 -0.081    0.050 -0.009 -0.038    0.053 -0.074 -0.087
 H          0.149  0.701 -0.487   -0.079 -0.044  0.034   -0.179 -0.448  0.257
 H          0.132  0.084 -0.021   -0.369 -0.127  0.058   -0.234 -0.132  0.082
 H          0.022 -0.005  0.030   -0.396  0.305 -0.022   -0.031 -0.016 -0.033
 H          0.008  0.070 -0.010    0.063  0.539 -0.081   -0.081 -0.312  0.053
 H         -0.366 -0.115  0.053    0.432  0.193 -0.081   -0.490 -0.223  0.124
 C         -0.005  0.035  0.114   -0.004 -0.006  0.070   -0.028 -0.013  0.204
 H         -0.007  0.049  0.136   -0.034  0.049  0.086   -0.062  0.024  0.251
 TransDip  -0.054  0.060  0.065   -0.103  0.066  0.023   -0.053  0.017  0.030

 Mode:                25                     26                     27
 Frequency:      1454.78                1601.70                1684.84
 Force Cnst:      2.5636                11.0610                 8.7733
 Red. Mass:       2.0559                 7.3178                 5.2456
 IR Active:          YES                    YES                    YES
 IR Intens:        2.995                  7.190                  6.225
 Raman Active:       YES                    YES                    YES
               X      Y      Z        X      Y      Z        X      Y      Z
 C          0.044  0.083 -0.073    0.055 -0.050  0.030   -0.058 -0.016 -0.000
 C         -0.122 -0.112  0.043   -0.328  0.032  0.002    0.330  0.014 -0.025
 C         -0.040  0.135 -0.025    0.323 -0.183  0.010   -0.324  0.044  0.026
 C          0.071 -0.077 -0.003    0.111  0.416 -0.068    0.167  0.239 -0.058
 C         -0.108 -0.024  0.022   -0.206 -0.288  0.060   -0.181 -0.197  0.055
 N          0.035 -0.014 -0.032   -0.003  0.043 -0.014    0.031  0.017 -0.011
 H         -0.017 -0.114  0.087    0.121  0.210 -0.141   -0.095 -0.086  0.061
 H          0.487  0.150 -0.030    0.118  0.274  0.005   -0.198 -0.254  0.055
 H          0.525 -0.284 -0.002   -0.088  0.153 -0.032    0.200 -0.394  0.063
 H          0.116  0.278 -0.047    0.067 -0.310 -0.014    0.137 -0.427  0.021
 H          0.373  0.156 -0.052    0.322 -0.138  0.046    0.279 -0.064 -0.062
 C         -0.008 -0.005  0.069    0.005  0.005 -0.004    0.003 -0.004  0.004
 H         -0.026  0.009  0.084   -0.020  0.015 -0.017   -0.007  0.030  0.006
 TransDip  -0.021  0.032  0.041   -0.032 -0.077  0.022   -0.077 -0.021 -0.008

 Mode:                28                     29                     30
 Frequency:      3088.47                3168.41                3177.26
 Force Cnst:      6.1090                 6.4174                 6.4598
 Red. Mass:       1.0870                 1.0850                 1.0861
 IR Active:          YES                    YES                    YES
 IR Intens:       39.704                  2.704                  1.803
 Raman Active:       YES                    YES                    YES
               X      Y      Z        X      Y      Z        X      Y      Z
 C         -0.075 -0.007 -0.038    0.005  0.001  0.002   -0.003 -0.000 -0.001
 C          0.003 -0.004  0.001    0.027 -0.056  0.017   -0.015  0.029 -0.009
 C          0.000 -0.000 -0.000    0.027  0.036 -0.012    0.004  0.003 -0.001
 C         -0.000  0.000  0.000   -0.021  0.002  0.004   -0.051  0.007  0.011
 C         -0.000  0.000  0.000    0.004 -0.013 -0.001    0.018 -0.053 -0.005
 N          0.001  0.000 -0.001    0.000 -0.000 -0.000    0.001 -0.001 -0.001
 H          0.876  0.068  0.464   -0.047 -0.006 -0.023    0.028  0.003  0.013
 H         -0.033  0.059 -0.018   -0.311  0.664 -0.206    0.159 -0.340  0.106
 H         -0.003 -0.002  0.000   -0.333 -0.430  0.145   -0.033 -0.038  0.013
 H          0.003 -0.001 -0.001    0.250 -0.029 -0.054    0.611 -0.074 -0.131
 H          0.004 -0.010 -0.002   -0.057  0.152  0.017   -0.233  0.618  0.067
 C         -0.001  0.000  0.001   -0.000  0.000  0.000   -0.000  0.000 -0.000
 H         -0.001  0.000  0.003    0.000 -0.001 -0.000   -0.001 -0.001  0.007
 TransDip  -0.176  0.032 -0.094    0.049 -0.011  0.016   -0.034  0.011 -0.024

 Mode:                31                     32                     33
 Frequency:      3189.01                3199.79                3319.14
 Force Cnst:      6.5639                 6.6269                 7.1543
 Red. Mass:       1.0955                 1.0985                 1.1022
 IR Active:          YES                    YES                    YES
 IR Intens:       25.491                 19.765                  1.084
 Raman Active:       YES                    YES                    YES
               X      Y      Z        X      Y      Z        X      Y      Z
 C          0.002  0.001  0.000    0.002  0.000  0.000    0.002 -0.004  0.005
 C          0.021 -0.035  0.011    0.009 -0.015  0.005   -0.000 -0.000  0.000
 C         -0.040 -0.045  0.015   -0.023 -0.030  0.010    0.000 -0.000 -0.000
 C          0.017  0.002 -0.004   -0.062  0.004  0.013    0.000  0.000 -0.000
 C          0.013 -0.043 -0.003   -0.012  0.046  0.003   -0.001  0.001  0.000
 N          0.000  0.000 -0.000   -0.000  0.000  0.000   -0.002  0.003  0.003
 H         -0.022 -0.004 -0.009   -0.017 -0.003 -0.008   -0.000 -0.001  0.003
 H         -0.192  0.404 -0.125   -0.080  0.168 -0.052   -0.001  0.002 -0.001
 H          0.415  0.529 -0.179    0.257  0.335 -0.114    0.000  0.000 -0.000
 H         -0.182  0.016  0.040    0.684 -0.080 -0.148   -0.001  0.000  0.000
 H         -0.177  0.473  0.051    0.178 -0.483 -0.051    0.003 -0.007 -0.001
 C         -0.000  0.000  0.000    0.000 -0.000  0.000    0.012  0.009 -0.091
 H         -0.000 -0.001  0.003    0.001  0.001 -0.004   -0.133 -0.101  0.982
 TransDip   0.040 -0.156  0.017   -0.135  0.006  0.046    0.010 -0.005  0.032

 STANDARD THERMODYNAMIC QUANTITIES AT   298.15 K  AND     1.00 ATM

   This Molecule has  1 Imaginary Frequencies
   Zero point vibrational energy:       62.738 kcal/mol

   Atom    1 Element C  Has Mass   12.00000
   Atom    2 Element C  Has Mass   12.00000
   Atom    3 Element C  Has Mass   12.00000
   Atom    4 Element C  Has Mass   12.00000
   Atom    5 Element C  Has Mass   12.00000
   Atom    6 Element N  Has Mass   14.00307
   Atom    7 Element H  Has Mass    1.00783
   Atom    8 Element H  Has Mass    1.00783
   Atom    9 Element H  Has Mass    1.00783
   Atom   10 Element H  Has Mass    1.00783
   Atom   11 Element H  Has Mass    1.00783
   Atom   12 Element C  Has Mass   12.00000
   Atom   13 Element H  Has Mass    1.00783
   Molecular Mass:    92.050050 amu
   Principal axes and moments of inertia in amu*Bohr^2:
                             1           2           3
    Eigenvalues --      391.47157   489.07178   781.89517
          X               0.82804    -0.46674     0.31066
          Y               0.39365     0.87851     0.27066
          Z              -0.39925    -0.10183     0.91117
   Rotational Symmetry Number is   1
   The Molecule is an Asymmetric Top
   Translational Enthalpy:        0.889 kcal/mol
   Rotational Enthalpy:           0.889 kcal/mol
   Vibrational Enthalpy:         64.544 kcal/mol
   gas constant (RT):             0.592 kcal/mol
   Translational Entropy:        39.471  cal/mol.K
   Rotational Entropy:           26.506  cal/mol.K
   Vibrational Entropy:           9.663  cal/mol.K

   Total Enthalpy:               66.914 kcal/mol
   Total Entropy:                75.640  cal/mol.K
Archival summary:
1\1\c8-72\FREQ\ProcedureUnspecified\6-31+G**\166(2)\hpark21\WedMar205:01:052022WedMar205:01:052022\0\\#,FREQ,ProcedureUnspecified,6-31+G**,\\0,2\N\C,1,1.38194\H,2,1.07568,1,137.625\C,1,1.42014,2,121.874,3,84.0414,0\H,4,1.08709,1,114.048,2,-129.834,0\C,4,1.34914,1,123.338,2,55.7283,0\H,6,1.08677,4,119.214,1,179.094,0\C,2,1.44014,1,69.6635,3,173.949,0\H,8,1.09327,2,120.62,1,-97.3948,0\C,6,1.45172,4,121.332,1,7.90217,0\H,10,1.087,6,118.196,4,174.29,0\C,10,1.35234,6,121.534,4,2.09982,0\H,12,1.08796,10,120.831,6,168.081,0\\\@

 Total job time:  667.78s(wall), 554.95s(cpu) 
 Wed Mar  2 05:01:05 2022

        *************************************************************
        *                                                           *
        *  Thank you very much for using Q-Chem.  Have a nice day.  *
        *                                                           *
        *************************************************************


