
Running Job 1 of 1 qcts2.in
qchem qcts2.in_50868.0 ./qcts2.d/ 1
/home/leeping/opt/qchem/5.0.2-openmp/exe/qcprog.exe_s qcts2.in_50868.0 ./qcts2.d/
Check license passed

                  Welcome to Q-Chem
     A Quantum Leap Into The Future Of Chemistry


 Q-Chem 5.0, Q-Chem, Inc., Pleasanton, CA (2017)

 Yihan Shao,  Zhengting Gan,  E. Epifanovsky,  A. T. B. Gilbert,  M. Wormit,  
 J. Kussmann,  A. W. Lange,  A. Behn,  Jia Deng,  Xintian Feng,  D. Ghosh,  
 M. Goldey,  P. R. Horn,  L. D. Jacobson,  I. Kaliman,  T. Kus,  A. Landau,  
 Jie Liu,  E. I. Proynov,  R. M. Richard,  R. P. Steele,  E. J. Sundstrom,  
 H. L. Woodcock III,  P. M. Zimmerman,  D. Zuev,  B. Albrecht,  E. Alguire,  
 S. A. Baeppler,  D. Barton,  Z. Benda,  Y. A. Bernard,  E. J. Berquist,  
 K. B. Bravaya,  H. Burton,  D. Casanova,  Chun-Min Chang,  Yunqing Chen,  
 A. Chien,  K. D. Closser,  M. P. Coons,  S. Dasgupta,  A. L. Dempwolff,  
 M. Diedenhofen,  Hainam Do,  R. G. Edgar,  Po-Tung Fang,  S. Fatehi,  
 Qingguo Feng,  J. Fosso-Tande,  Qinghui Ge,  A. Ghysels,  G. Gidofalvi,  
 J. Gomes,  J. Gonthier,  A. Gunina,  M. W. D. Hanson-Heine,  
 P. H. P. Harbach,  A. W. Hauser,  J. E. Herr,  E. G. Hohenstein,  
 Z. C. Holden,  Kerwin Hui,  T.-C. Jagau,  Hyunjun Ji,  B. Kaduk,  
 K. Khistyaev,  Jaehoon Kim,  P. Klunzinger,  K. Koh,  D. Kosenkov,  
 L. Koulias,  T. Kowalczyk,  C. M. Krauter,  A. Kunitsa,  Ka Un Lao,  
 A. Laurent,  K. V. Lawler,  Joonho Lee,  D. Lefrancois,  S. Lehtola,  
 D. S. Levine,  Yi-Pei Li,  You-Sheng Lin,  Fenglai Liu,  E. Livshits,  
 A. Luenser,  P. Manohar,  E. Mansoor,  S. F. Manzer,  Shan-Ping Mao,  
 Yuezhi Mao,  N. Mardirossian,  A. V. Marenich,  T. Markovich,  
 L. A. Martinez-Martinez,  S. A. Maurer,  N. J. Mayhall,  S. C. McKenzie,  
 J.-M. Mewes,  A. F. Morrison,  J. W. Mullinax,  K. Nanda,  
 T. S. Nguyen-Beck,  R. Olivares-Amaya,  J. A. Parkhill,  T. M. Perrine,  
 F. Plasser,  S. Prager,  A. Prociuk,  E. Ramos,  D. R. Rehn,  F. Rob,  
 M. Schneider,  N. Sergueev,  S. M. Sharada,  S. Sharma,  D. W. Small,  
 T. Stauch,  T. Stein,  Yu-Chuan Su,  A. J. W. Thom,  A. Tkatchenko,  
 T. Tsuchimochi,  L. Vogt,  O. Vydrov,  M. A. Watson,  J. Wenzel,  
 M. de Wergifosse,  T. A. Wesolowski,  A. White,  J. Witte,  A. Yamada,  
 Jun Yang,  K. Yao,  S. Yeganeh,  S. R. Yost,  Zhi-Qiang You,  A. Zech,  
 Igor Ying Zhang,  Xing Zhang,  Yan Zhao,  Ying Zhu,  B. R. Brooks,  
 G. K. L. Chan,  C. J. Cramer,  M. S. Gordon,  W. J. Hehre,  A. Klamt,  
 M. W. Schmidt,  C. D. Sherrill,  D. G. Truhlar,  A. Aspuru-Guzik,  R. Baer,  
 A. T. Bell,  N. A. Besley,  Jeng-Da Chai,  R. A. DiStasio Jr.,  A. Dreuw,  
 B. D. Dunietz,  T. R. Furlani,  Chao-Ping Hsu,  Yousung Jung,  Jing Kong,  
 D. S. Lambrecht,  WanZhen Liang,  C. Ochsenfeld,  V. A. Rassolov,  
 L. V. Slipchenko,  J. E. Subotnik,  T. Van Voorhis,  J. M. Herbert,  
 A. I. Krylov,  P. M. W. Gill,  M. Head-Gordon

 Contributors to earlier versions of Q-Chem not listed above: 
 R. D. Adamson,  B. Austin,  J. Baker,  G. J. O. Beran,  K. Brandhorst,  
 S. T. Brown,  E. F. C. Byrd,  A. K. Chakraborty,  C.-L. Cheng,  
 Siu Hung Chien,  D. M. Chipman,  D. L. Crittenden,  H. Dachsel,  
 R. J. Doerksen,  A. D. Dutoi,  L. Fusti-Molnar,  W. A. Goddard III,  
 A. Golubeva-Zadorozhnaya,  S. R. Gwaltney,  G. Hawkins,  A. Heyden,  
 S. Hirata,  G. Kedziora,  F. J. Keil,  C. Kelley,  Jihan Kim,  R. A. King,  
 R. Z. Khaliullin,  P. P. Korambath,  W. Kurlancheek,  A. M. Lee,  M. S. Lee,  
 S. V. Levchenko,  Ching Yeh Lin,  D. Liotard,  R. C. Lochan,  I. Lotan,  
 P. E. Maslen,  N. Nair,  D. P. O'Neill,  D. Neuhauser,  E. Neuscamman,  
 C. M. Oana,  R. Olson,  B. Peters,  R. Peverati,  P. A. Pieniazek,  
 Y. M. Rhee,  J. Ritchie,  M. A. Rohrdanz,  E. Rosta,  N. J. Russ,  
 H. F. Schaefer III,  N. E. Schultz,  N. Shenvi,  A. C. Simmonett,  A. Sodt,  
 D. Stuck,  K. S. Thanthiriwatte,  V. Vanovschi,  Tao Wang,  A. Warshel,  
 C. F. Williams,  Q. Wu,  X. Xu,  W. Zhang

 Please cite Q-Chem as follows:
 Y. Shao et al., Mol. Phys. 113, 184-215 (2015)
 DOI: 10.1080/00268976.2014.952696

 Q-Chem 5.0.2 for Intel X86 EM64T Linux

 Parts of Q-Chem use Armadillo 5.200.1 (Boston Tea Smuggler).
 http://arma.sourceforge.net/

 Q-Chem begins on Wed Mar  2 04:40:51 2022  

Host: 
0

     Scratch files written to ./qcts2.d//
 Dec517 15110_ 26548  26544 5633   
Processing $rem in /home/leeping/opt/qchem/5.0.2-openmp/config/preferences.
 MEM_STATIC 2000
 MEM_TOTAL  8000
 SYMMETRY   OFF
 SYM_IGNORE TRUE 

Checking the input file for inconsistencies... 	...done.

--------------------------------------------------------------
User input:
--------------------------------------------------------------
$molecule
0 2
C        1.3663655259   -0.1740321422   -0.0162280658
C        0.4553812523   -1.2618257250    0.3836124277
C       -0.8835202121   -1.0810110349    0.4425326325
C       -1.4786163171    0.2359120626    0.3044473825
C       -0.7207500670    1.3271428338    0.0698572371
N        0.6681080925    1.2651886755   -0.2200131266
H        2.3280261842   -0.1147238047    0.5004259707
H        0.9035721452   -2.2088796215    0.6766571924
H       -1.5287671824   -1.9092259814    0.7240994786
H       -2.5332300231    0.3620213794    0.5345527588
H       -1.1053909338    2.3377961267    0.1812260220
C        1.1621306822    0.5102897764   -1.2668281181
H        1.3096545552    0.6215670477   -2.3265190166
$end

$rem
method                b3lyp
basis                 6-31+g(d,p)
unrestricted          true
symmetry              off
sym_ignore            true
incdft                false
incfock               0
scf_convergence       8
thresh                14
jobtype               sp
scf_guess             core
scf_guess_mix         5
scf_algorithm         diis
max_scf_cycles        100
$end

--------------------------------------------------------------
 ----------------------------------------------------------------
             Standard Nuclear Orientation (Angstroms)
    I     Atom           X                Y                Z
 ----------------------------------------------------------------
    1      C       1.3663655259    -0.1740321422    -0.0162280658
    2      C       0.4553812523    -1.2618257250     0.3836124277
    3      C      -0.8835202121    -1.0810110349     0.4425326325
    4      C      -1.4786163171     0.2359120626     0.3044473825
    5      C      -0.7207500670     1.3271428338     0.0698572371
    6      N       0.6681080925     1.2651886755    -0.2200131266
    7      H       2.3280261842    -0.1147238047     0.5004259707
    8      H       0.9035721452    -2.2088796215     0.6766571924
    9      H      -1.5287671824    -1.9092259814     0.7240994786
   10      H      -2.5332300231     0.3620213794     0.5345527588
   11      H      -1.1053909338     2.3377961267     0.1812260220
   12      C       1.1621306822     0.5102897764    -1.2668281181
   13      H       1.3096545552     0.6215670477    -2.3265190166
 ----------------------------------------------------------------
 Nuclear Repulsion Energy =   269.9059335761 hartrees
 There are       25 alpha and       24 beta electrons
 Requested basis set is 6-31+G(d,p)
 There are 53 shells and 163 basis functions

 Total QAlloc Memory Limit   8000 MB
 Mega-Array Size      1956 MB
 MEM_STATIC part      2000 MB

                       Distance Matrix (Angstroms)
             C (  1)   C (  2)   C (  3)   C (  4)   C (  5)   N (  6)
   C (  2)  1.474130
   C (  3)  2.468817  1.352340
   C (  4)  2.892198  2.447413  1.451721
   C (  5)  2.572351  2.860854  2.442250  1.349140
   N (  6)  1.612591  2.606802  2.889839  2.437805  1.420137
   H (  7)  1.093270  2.199156  3.354265  3.827777  3.399913  2.275636
   H (  8)  2.198834  1.087962  2.126170  3.433711  3.938284  3.595638
   H (  9)  3.455543  2.114688  1.086997  2.186376  3.399266  3.974232
   H ( 10)  3.974614  3.404623  2.193708  1.086767  2.105347  3.410813
   H ( 11)  3.529568  3.928644  3.435950  2.138316  1.087093  2.111108
   C ( 12)  1.440142  2.522666  3.104648  3.085083  2.449330  1.381938
   H ( 13)  2.444103  3.409071  3.921280  3.852943  3.219161  2.294166
             H (  7)   H (  8)   H (  9)   H ( 10)   H ( 11)   C ( 12)
   H (  8)  2.538822
   H (  9)  4.259709  2.451187
   H ( 10)  4.884697  4.294338  2.490670
   H ( 11)  4.231441  4.995362  4.302459  2.463179
   C ( 12)  2.207519  3.352293  4.130228  4.113715  3.252429
   H ( 13)  3.093675  4.146733  4.875226  4.798006  3.881581  1.075682

 
 A cutoff of  1.0D-14 yielded   1377 shell pairs
 There are     13431 function pairs
 
 -------------------------------------------------------
 OpenMP Integral Computing Module                       
 Release: version 1.0, May 2013, Q-Chem Inc. Pittsburgh 
 -------------------------------------------------------
 Integral Job Info:
 Integral job number is                      11
 Integral operator is                         1
 short-range coefficients                     0
 long-range coefficients              100000000
 Omega coefficients                           0
 if combine SR and LR in K                    0
 Integral screening is                        0
 Integral computing path is                   2
 max size of driver memory is            800000
 size of driver memory is                593474
 size of scratch memory is              2361544
 max col of scratch BK array               1296
 max len of scratch array in speh3          155
 max len of scratch index in speh4           18
 max int batch size is                      520
 min int batch size is                       52
 fixed nKL is                                52
 max L of basis functions is                  2
 order of int derivative is                   0
 number of shells is                         53
 number of basis is                         163
 number of cartesian basis is               163
 number of contracted shell pairs          1377
 number of primitive shell pairs           4641
 maxK2 (contraction) of shell pair           36
 max number of K2 of shell pair               1
 max number of CS2 of shell pair            128
 max number of PS2 of shell pair            678
 mem total for path MDJ                  535308
 -------------------------------------------------------
 Smallest overlap matrix eigenvalue = 1.75E-05

 Scale SEOQF with 1.000000e-01/1.000000e-01/1.000000e-01

 Standard Electronic Orientation quadrupole field applied
 Nucleus-field energy     =     0.0000000041 hartrees
 Guess MOs from core Hamiltonian diagonalization
 Mixing HOMO and LUMO in initial guess
 Adding  50% of the LUMO to the HOMO
 An unrestricted hybrid HF-DFT SCF calculation will be
 performed using Pulay DIIS extrapolation
 Exchange:     0.2000 Hartree-Fock + 0.0800 Slater + 0.7200 B88
 Correlation:  0.1900 VWN1RPA + 0.8100 LYP
 Using SG-1 standard quadrature grid
 SCF converges when DIIS error is below 1.0E-08
 using 4 threads for integral computing
 -------------------------------------------------------
 OpenMP Integral computing Module                
 Release: version 1.0, May 2013, Q-Chem Inc. Pittsburgh 
 -------------------------------------------------------
 -------------------------------------------------------
 OpenMP BLAS3 based DFT computing Module                
 Release: version 1.0, May 2013, Q-Chem Inc. Pittsburgh 
 -------------------------------------------------------
 ---------------------------------------
  Cycle       Energy         DIIS Error
 ---------------------------------------
    1    -237.2722870102      9.66E-02
    2    -214.2184125406      7.30E-02
    3    -248.1249391061      8.04E-02
    4    -280.8479714591      3.60E-02
    5    -279.5388665105      3.89E-02
    6    -285.5012301085      1.63E-02
    7    -286.1291553354      1.33E-02
    8    -286.7722268679      4.86E-03
    9    -286.8351016231      2.57E-03
   10    -286.8563155493      5.62E-04
   11    -286.8572622556      2.18E-04
   12    -286.8574904482      6.95E-05
   13    -286.8575302413      3.40E-05
   14    -286.8575392120      1.34E-05
   15    -286.8575436201      3.71E-06
   16    -286.8575441748      1.42E-06
   17    -286.8575443917      3.14E-07
   18    -286.8575445272      1.19E-07
   19    -286.8575446046      7.45E-08
   20    -286.8575446350      4.43E-08
   21    -286.8575446456      2.02E-08
   22    -286.8575446477      4.67E-09 Convergence criterion met
 ---------------------------------------
 <S^2> = 0.7549
 SCF time:  CPU 110.68 s  wall 79.27 s
 SCF   energy in the final basis set = -286.85754465
 Total energy in the final basis set = -286.85754465
 
 --------------------------------------------------------------
 
                    Orbital Energies (a.u.)
 --------------------------------------------------------------
 
 Alpha MOs
 -- Occupied --
-14.372 -10.245 -10.230 -10.225 -10.206 -10.204 -10.199  -0.989
 -0.816  -0.786  -0.670  -0.651  -0.582  -0.527  -0.508  -0.491
 -0.455  -0.431  -0.398  -0.380  -0.368  -0.319  -0.292  -0.230
 -0.175
 -- Virtual --
 -0.045   0.006   0.020   0.021   0.029   0.034   0.047   0.049
  0.068   0.070   0.078   0.086   0.096   0.110   0.113   0.122
  0.134   0.137   0.140   0.146   0.157   0.175   0.184   0.191
  0.195   0.197   0.206   0.211   0.219   0.237   0.243   0.249
  0.267   0.273   0.281   0.295   0.302   0.319   0.337   0.352
  0.359   0.416   0.485   0.510   0.607   0.636   0.653   0.688
  0.695   0.718   0.723   0.738   0.752   0.755   0.772   0.785
  0.814   0.857   0.899   0.915   0.930   0.943   0.953   0.971
  1.002   1.030   1.039   1.074   1.097   1.113   1.129   1.147
  1.196   1.221   1.242   1.272   1.341   1.373   1.425   1.441
  1.492   1.535   1.585   1.690   1.716   1.751   1.784   1.822
  1.848   1.870   1.929   1.957   1.964   1.987   2.029   2.072
  2.095   2.150   2.189   2.218   2.323   2.337   2.373   2.380
  2.404   2.423   2.453   2.462   2.498   2.508   2.516   2.544
  2.579   2.604   2.620   2.678   2.685   2.702   2.766   2.862
  2.895   2.984   3.012   3.103   3.264   3.279   3.312   3.386
  3.496   3.555   3.780   4.196   4.324   4.352   4.446   4.536
  4.646   4.757
 
 Beta MOs
 -- Occupied --
-14.369 -10.246 -10.229 -10.213 -10.206 -10.204 -10.199  -0.979
 -0.814  -0.782  -0.661  -0.649  -0.565  -0.523  -0.503  -0.489
 -0.448  -0.425  -0.394  -0.376  -0.365  -0.305  -0.286  -0.221
 -- Virtual --
 -0.051  -0.039   0.007   0.020   0.022   0.030   0.035   0.047
  0.051   0.068   0.072   0.084   0.088   0.097   0.112   0.113
  0.124   0.134   0.138   0.141   0.146   0.157   0.177   0.184
  0.192   0.197   0.198   0.212   0.212   0.222   0.239   0.246
  0.253   0.269   0.274   0.283   0.298   0.304   0.322   0.342
  0.355   0.362   0.427   0.488   0.512   0.612   0.640   0.666
  0.690   0.702   0.721   0.736   0.742   0.757   0.765   0.775
  0.791   0.821   0.860   0.899   0.917   0.931   0.945   0.955
  0.975   1.005   1.032   1.046   1.077   1.099   1.119   1.138
  1.151   1.200   1.225   1.246   1.276   1.346   1.377   1.429
  1.445   1.501   1.541   1.588   1.704   1.724   1.767   1.790
  1.827   1.854   1.881   1.932   1.961   1.971   1.988   2.031
  2.075   2.099   2.163   2.208   2.223   2.331   2.342   2.375
  2.382   2.406   2.425   2.456   2.463   2.501   2.511   2.529
  2.547   2.582   2.607   2.627   2.681   2.690   2.703   2.776
  2.869   2.899   2.990   3.015   3.106   3.265   3.280   3.313
  3.388   3.498   3.566   3.781   4.201   4.325   4.353   4.449
  4.541   4.668   4.759
 --------------------------------------------------------------
 
          Ground-State Mulliken Net Atomic Charges

     Atom                 Charge (a.u.)    Spin (a.u.)
  --------------------------------------------------------
      1 C                    -0.075043      -0.142796
      2 C                    -0.029473       0.037331
      3 C                    -0.197509       0.010453
      4 C                     0.093916       0.049437
      5 C                    -0.254262      -0.047968
      6 N                    -0.145977       0.102641
      7 H                     0.146545       0.017684
      8 H                     0.131931       0.000494
      9 H                     0.127003      -0.000942
     10 H                     0.126651       0.005123
     11 H                     0.136893      -0.003012
     12 C                    -0.213054       1.012142
     13 H                     0.152378      -0.040587
  --------------------------------------------------------
  Sum of atomic charges =     0.000000
  Sum of spin   charges =     1.000000

 -----------------------------------------------------------------
                    Cartesian Multipole Moments
 -----------------------------------------------------------------
    Charge (ESU x 10^10)
                 0.0000
    Dipole Moment (Debye)
         X      -0.4344      Y      -0.9946      Z      -0.0318
       Tot       1.0858
    Quadrupole Moments (Debye-Ang)
        XX     -39.0104     XY      -2.6365     YY     -41.2092
        XZ      -1.2863     YZ      -1.7542     ZZ     -41.9679
    Octopole Moments (Debye-Ang^2)
       XXX     -12.2758    XXY      -7.6213    XYY      -9.2565
       YYY     -16.5428    XXZ       5.7300    XYZ      -0.8379
       YYZ       4.3998    XZZ       2.2050    YZZ      -1.9338
       ZZZ      -4.4984
    Hexadecapole Moments (Debye-Ang^3)
      XXXX    -343.8472   XXXY      -5.1988   XXYY    -112.3374
      XYYY     -16.5599   YYYY    -306.8199   XXXZ      46.1153
      XXYZ      10.3938   XYYZ      14.3784   YYYZ      29.9044
      XXZZ     -84.8639   XYZZ       2.8161   YYZZ     -80.1702
      XZZZ      37.5001   YZZZ      30.9014   ZZZZ    -136.1545
 -----------------------------------------------------------------
Archival summary:
1\1\c8-72\SP\ProcedureUnspecified\6-31+G**\166(2)\hpark21\WedMar204:42:222022WedMar204:42:222022\0\\#,ProcedureUnspecified,6-31+G**,\\0,2\N\C,1,1.38194\H,2,1.07568,1,137.625\C,1,1.42014,2,121.874,3,84.0414,0\H,4,1.08709,1,114.048,2,-129.834,0\C,4,1.34914,1,123.338,2,55.7283,0\H,6,1.08677,4,119.214,1,179.094,0\C,2,1.44014,1,69.6635,3,173.949,0\H,8,1.09327,2,120.62,1,-97.3948,0\C,6,1.45172,4,121.332,1,7.90217,0\H,10,1.087,6,118.196,4,174.29,0\C,10,1.35234,6,121.534,4,2.09982,0\H,12,1.08796,10,120.831,6,168.081,0\\\@

 Total job time:  91.13s(wall), 112.54s(cpu) 
 Wed Mar  2 04:42:22 2022

        *************************************************************
        *                                                           *
        *  Thank you very much for using Q-Chem.  Have a nice day.  *
        *                                                           *
        *************************************************************


