13
image # 1 Energy = -286.92432
C 1.42427   0.83534   -0.36167  
C 0.26432   -1.41818  -0.20678  
C -0.98253  -1.05606  0.20760   
C -1.45300  0.28024   0.47042   
C -0.75566  1.46854   0.36077   
N 0.51381   1.76947   -0.00095  
H 2.38795   1.28191   -0.61668  
H 0.45063   -2.47956  -0.35826  
H -1.70827  -1.85246  0.35969   
H -2.48692  0.37036   0.79485   
H -1.33053  2.36206   0.61419   
C 1.37714   -0.54198  -0.46982  
H 2.29879   -1.01967  -0.79336  
13
image # 2 Energy = -286.92182
C 1.42452   0.81528   -0.33631  
C 0.24856   -1.42909  -0.18035  
C -0.96919  -1.05921  0.21615   
C -1.45769  0.28782   0.46043   
C -0.77137  1.45532   0.35214   
N 0.52426   1.76267   0.00391   
H 2.41637   1.28595   -0.53571  
H 0.45483   -2.48082  -0.29400  
H -1.70962  -1.85301  0.37475   
H -2.50032  0.37206   0.77994   
H -1.33226  2.36351   0.59890   
C 1.38572   -0.51602  -0.53581  
H 2.27137   -1.00410  -0.90444  
13
image # 3 Energy = -286.91710
C 1.45507   0.82110   -0.28194  
C 0.27532   -1.41133  -0.15530  
C -0.97907  -1.05593  0.22999   
C -1.47046  0.27996   0.45103   
C -0.76462  1.46226   0.33745   
N 0.51316   1.74593   0.00546   
H 2.43598   1.26841   -0.44182  
H 0.47197   -2.48931  -0.22962  
H -1.70451  -1.85332  0.38957   
H -2.50640  0.37189   0.76240   
H -1.33297  2.36442   0.58029   
C 1.34105   -0.51659  -0.62373  
H 2.24226   -0.98784  -1.02636  
13
image # 4 Energy = -286.91110
C 1.44995   0.79401   -0.24998  
C 0.29887   -1.39976  -0.15628  
C -0.97224  -1.05112  0.24637   
C -1.47121  0.28111   0.43792   
C -0.77622  1.45503   0.32224   
N 0.53118   1.72812   0.01880   
H 2.46881   1.24160   -0.33022  
H 0.49876   -2.46777  -0.15887  
H -1.69416  -1.85696  0.40891   
H -2.51834  0.37266   0.74575   
H -1.33094  2.36599   0.55471   
C 1.30210   -0.50858  -0.68816  
H 2.18302   -0.95778  -1.15791  
13
image # 5 Energy = -286.90522
C 1.45964   0.79112   -0.21737  
C 0.29037   -1.38457  -0.14706  
C -0.95390  -1.05559  0.25582   
C -1.48000  0.28319   0.42882   
C -0.77942  1.45487   0.30582   
N 0.54375   1.70627   0.03950   
H 2.48222   1.19529   -0.22787  
H 0.53057   -2.45049  -0.10457  
H -1.67783  -1.85854  0.42812   
H -2.52192  0.37233   0.72889   
H -1.32892  2.36738   0.52965   
C 1.27901   -0.50086  -0.75512  
H 2.12082   -0.92599  -1.27289  
13
image # 6 Energy = -286.89722
C 1.46674   0.76598   -0.18444  
C 0.30191   -1.37233  -0.13726  
C -0.95768  -1.04918  0.26968   
C -1.48097  0.28645   0.41756   
C -0.78052  1.44753   0.28782   
N 0.55063   1.68554   0.06392   
H 2.49660   1.13742   -0.12507  
H 0.56558   -2.43362  -0.06033  
H -1.65701  -1.86170  0.44934   
H -2.52517  0.37113   0.71249   
H -1.32711  2.37256   0.50354   
C 1.24037   -0.45955  -0.81421  
H 2.06453   -0.89947  -1.39116  
13
image # 7 Energy = -286.88641
C 1.46293   0.73460   -0.14026  
C 0.31494   -1.35663  -0.12420  
C -0.94999  -1.03800  0.27908   
C -1.48412  0.27948   0.40742   
C -0.78257  1.45230   0.27452   
N 0.56174   1.66468   0.08350   
H 2.51523   1.07575   -0.02955  
H 0.59975   -2.41114  -0.02845  
H -1.64064  -1.86921  0.47058   
H -2.52917  0.37116   0.69807   
H -1.32137  2.37346   0.47700   
C 1.20953   -0.42578  -0.88613  
H 1.99623   -0.86576  -1.49189  
13
image # 8 Energy = -286.88444
C 1.47036   0.71246   -0.11400  
C 0.32944   -1.33783  -0.14370  
C -0.93901  -1.04124  0.29396   
C -1.48361  0.29547   0.38924   
C -0.78423  1.44334   0.25703   
N 0.57325   1.64095   0.14845   
H 2.51581   0.98119   0.09275   
H 0.64900   -2.36875  0.00016   
H -1.60095  -1.86926  0.51572   
H -2.53467  0.37078   0.67636   
H -1.31974  2.38394   0.42891   
C 1.16680   -0.40492  -0.93909  
H 1.90552   -0.82786  -1.61585  
13
image # 9 Energy = -286.88042
C 1.46003   0.67745   -0.08031  
C 0.34012   -1.30633  -0.15473  
C -0.92312  -1.01727  0.30703   
C -1.48783  0.27984   0.37636   
C -0.77176  1.45317   0.23931   
N 0.58309   1.60052   0.19437   
H 2.50839   0.86723   0.22109   
H 0.70624   -2.32665  0.00810   
H -1.55758  -1.87170  0.56245   
H -2.53872  0.37046   0.65801   
H -1.31314  2.39351   0.37915   
C 1.12508   -0.36425  -0.99196  
H 1.81238   -0.78704  -1.72869  
13
image # 10 Energy = -286.86495
C 1.46175   0.61597   -0.03338  
C 0.36170   -1.27871  -0.13782  
C -0.91321  -1.01068  0.31677   
C -1.49359  0.28142   0.37692   
C -0.76683  1.45254   0.22931   
N 0.57550   1.57914   0.18162   
H 2.49916   0.78140   0.30634   
H 0.74170   -2.29093  0.00598   
H -1.53373  -1.87091  0.56882   
H -2.53972  0.36840   0.65585   
H -1.30023  2.39644   0.36004   
C 1.09933   -0.31339  -1.04721  
H 1.74803   -0.75298  -1.79266  
13
image # 11 Energy = -286.85294
C 1.44661   0.56604   0.00136   
C 0.38213   -1.23053  -0.13050  
C -0.90649  -0.99450  0.32762   
C -1.49405  0.28123   0.38494   
C -0.77441  1.44409   0.22088   
N 0.58571   1.54531   0.14281   
H 2.47091   0.69878   0.39466   
H 0.78721   -2.23872  -0.01232  
H -1.50538  -1.87207  0.57106   
H -2.54672  0.36643   0.67079   
H -1.28529  2.40347   0.33785   
C 1.07404   -0.29261  -1.07221  
H 1.70288   -0.72846  -1.84856  
13
image # 12 Energy = -286.84213
C 1.43761   0.50154   0.02739   
C 0.40040   -1.18660  -0.12573  
C -0.90255  -0.97709  0.33814   
C -1.50500  0.27524   0.40384   
C -0.76504  1.44209   0.20960   
N 0.57130   1.52506   0.08399   
H 2.43385   0.62478   0.47835   
H 0.83370   -2.17589  -0.03447  
H -1.48088  -1.87410  0.56388   
H -2.55075  0.36474   0.69614   
H -1.26335  2.40802   0.31868   
C 1.05430   -0.28638  -1.08723  
H 1.67172   -0.70004  -1.88946  
13
image # 13 Energy = -286.83129
C 1.40945   0.43858   0.05462   
C 0.42768   -1.12734  -0.11141  
C -0.91460  -0.96685  0.34931   
C -1.50764  0.27164   0.42642   
C -0.75056  1.43466   0.19991   
N 0.55785   1.49677   0.02133   
H 2.39467   0.56361   0.54721   
H 0.87831   -2.12669  -0.04432  
H -1.46667  -1.87529  0.54383   
H -2.55534  0.36402   0.72862   
H -1.23696  2.41243   0.30580   
C 1.04803   -0.28137  -1.12833  
H 1.65118   -0.66794  -1.91600  
13
image # 14 Energy = -286.82092
C 1.39322   0.36442   0.08594   
C 0.46167   -1.07382  -0.08730  
C -0.92085  -0.95548  0.35016   
C -1.51892  0.26192   0.45605   
C -0.74688  1.43448   0.20203   
N 0.54882   1.46135   -0.05020  
H 2.35884   0.51825   0.58310   
H 0.90969   -2.06796  -0.03881  
H -1.46960  -1.88255  0.52175   
H -2.55524  0.36582   0.75113   
H -1.20982  2.40706   0.29230   
C 1.04217   -0.26843  -1.14251  
H 1.64371   -0.63254  -1.95283  
13
image # 15 Energy = -286.80691
C 1.38757   0.31864   0.11984   
C 0.47212   -1.05378  -0.06008  
C -0.93119  -0.96097  0.34971   
C -1.52105  0.26081   0.47785   
C -0.72674  1.41278   0.20582   
N 0.53430   1.43055   -0.13178  
H 2.39832   0.53278   0.56660   
H 0.91323   -2.04830  -0.02268  
H -1.49057  -1.88823  0.50468   
H -2.56300  0.36734   0.74658   
H -1.20449  2.40059   0.28966   
C 1.04005   -0.25471  -1.12736  
H 1.62865   -0.58637  -1.95035  
13
image # 16 Energy = -286.79022
C 1.41380   0.29753   0.15698   
C 0.48871   -1.02481  -0.03115  
C -0.93226  -0.96137  0.35221   
C -1.51797  0.26465   0.48185   
C -0.75515  1.40632   0.21764   
N 0.54810   1.36768   -0.25270  
H 2.39639   0.56119   0.56305   
H 0.90321   -2.05445  -0.04594  
H -1.49766  -1.89263  0.44180   
H -2.56328  0.36275   0.76797   
H -1.19704  2.39961   0.33906   
C 1.02115   -0.19009  -1.11413  
H 1.63019   -0.61117  -1.91180  
13
image # 17 Energy = -286.79101
C 1.40948   0.25257   0.17393   
C 0.51337   -1.00274  0.02562   
C -0.92791  -0.96268  0.35792   
C -1.52450  0.26926   0.50178   
C -0.76159  1.39922   0.21028   
N 0.54678   1.31675   -0.35548  
H 2.36736   0.56579   0.58972   
H 0.90509   -2.02915  -0.06837  
H -1.49243  -1.88538  0.36346   
H -2.56135  0.35873   0.80658   
H -1.17440  2.39717   0.37759   
C 1.00888   -0.12825  -1.12186  
H 1.63077   -0.63241  -1.89488  
13
image # 18 Energy = -286.78738
C 1.40633   0.19559   0.19055   
C 0.52702   -0.97442  0.08947   
C -0.91591  -0.94913  0.35891   
C -1.52247  0.27041   0.52178   
C -0.77126  1.38517   0.20512   
N 0.54029   1.27072   -0.43407  
H 2.32311   0.54594   0.62103   
H 0.91697   -1.99617  -0.08611  
H -1.48437  -1.88036  0.30247   
H -2.55882  0.35618   0.83959   
H -1.14809  2.39416   0.39926   
C 1.00892   -0.06550  -1.13427  
H 1.61974   -0.64018  -1.90048  
13
image # 19 Energy = -286.77012
C 1.40855   0.19574   0.17504   
C 0.50010   -1.09347  0.16349   
C -0.88498  -0.98570  0.31952   
C -1.50310  0.28183   0.47323   
C -0.77323  1.39739   0.21442   
N 0.56502   1.31891   -0.30190  
H 2.37969   0.54184   0.55431   
H 0.84059   -2.12946  -0.02755  
H -1.51289  -1.87362  0.31061   
H -2.54271  0.35891   0.77223   
H -1.17144  2.38826   0.44651   
C 1.12991   0.14149   -1.20719  
H 1.50743   -0.63446  -1.90957  
13
image # 20 Energy = -286.76133
C 1.41968   0.17081   0.17277   
C 0.49020   -1.15262  0.19654   
C -0.87269  -1.00117  0.30310   
C -1.48858  0.28206   0.44212   
C -0.76321  1.39661   0.21709   
N 0.58855   1.32717   -0.25234  
H 2.41385   0.49998   0.53918   
H 0.81444   -2.19873  0.02200   
H -1.52863  -1.87487  0.31532   
H -2.53491  0.36152   0.72308   
H -1.17188  2.38311   0.46427   
C 1.18451   0.26839   -1.22384  
H 1.39164   -0.55201  -1.93146  
13
image # 21 Energy = -286.77982
C 1.42470   0.12474   0.17502   
C 0.49311   -1.16642  0.22149   
C -0.85850  -1.01833  0.29644   
C -1.48072  0.28656   0.42643   
C -0.75345  1.39470   0.21654   
N 0.60471   1.31010   -0.24296  
H 2.41515   0.43652   0.55355   
H 0.81674   -2.21312  0.05368   
H -1.52630  -1.87290  0.31695   
H -2.53279  0.36233   0.69483   
H -1.16080  2.37677   0.46342   
C 1.20992   0.35670   -1.22184  
H 1.29038   -0.46051  -1.96281  
13
image # 22 Energy = -286.78967
C 1.43709   0.09911   0.16859   
C 0.49111   -1.20547  0.21564   
C -0.86217  -1.02529  0.28789   
C -1.47045  0.27301   0.39049   
C -0.73577  1.38991   0.22024   
N 0.63664   1.33199   -0.16985  
H 2.44172   0.36483   0.53959   
H 0.81769   -2.24918  0.12060   
H -1.53685  -1.88596  0.35658   
H -2.52266  0.36372   0.63594   
H -1.15872  2.37203   0.44226   
C 1.23096   0.43022   -1.20896  
H 1.17354   -0.33244  -2.00655  
13
image # 23 Energy = -286.80463
C 1.43631   0.06002   0.15385   
C 0.49135   -1.21075  0.22542   
C -0.85844  -1.04130  0.28465   
C -1.46295  0.27320   0.37030   
C -0.72615  1.38543   0.21853   
N 0.65554   1.32815   -0.14417  
H 2.44516   0.29537   0.54711   
H 0.83238   -2.25872  0.16527   
H -1.53324  -1.89135  0.37404   
H -2.51658  0.36302   0.60344   
H -1.14642  2.36650   0.42495   
C 1.24588   0.48246   -1.20382  
H 1.08023   -0.21366  -2.02823  
13
image # 24 Energy = -286.81874
C 1.43917   0.02083   0.14075   
C 0.49609   -1.22612  0.23226   
C -0.85219  -1.05066  0.28263   
C -1.45363  0.26610   0.34734   
C -0.70575  1.37916   0.21083   
N 0.67500   1.32468   -0.11886  
H 2.43805   0.21514   0.55062   
H 0.84992   -2.25703  0.22122   
H -1.53137  -1.90366  0.39488   
H -2.51608  0.36181   0.57022   
H -1.13315  2.36525   0.40398   
C 1.25944   0.54156   -1.18740  
H 0.98280   -0.08461  -2.05548  
13
image # 25 Energy = -286.82874
C 1.43215   -0.01149  0.13219   
C 0.50333   -1.23323  0.23315   
C -0.85695  -1.06178  0.28486   
C -1.44593  0.26327   0.32453   
C -0.69994  1.36924   0.20247   
N 0.70003   1.32566   -0.09155  
H 2.43431   0.13731   0.55398   
H 0.87406   -2.26013  0.28441   
H -1.52444  -1.91386  0.41444   
H -2.51100  0.35901   0.53802   
H -1.11560  2.36294   0.38171   
C 1.26969   0.58165   -1.19455  
H 0.89674   0.04716   -2.07113  
13
image # 26 Energy = -286.83898
C 1.42318   -0.04203  0.09529   
C 0.49945   -1.23418  0.24957   
C -0.84362  -1.06837  0.28807   
C -1.44474  0.25653   0.30700   
C -0.68866  1.36530   0.19007   
N 0.71123   1.30959   -0.08355  
H 2.41884   0.05521   0.56759   
H 0.90429   -2.25013  0.34573   
H -1.51017  -1.92149  0.42574   
H -2.50402  0.35586   0.50969   
H -1.09390  2.35956   0.36066   
C 1.28031   0.61865   -1.18225  
H 0.81640   0.17475   -2.07904  
13
image # 27 Energy = -286.84420
C 1.43294   -0.08084  0.08473   
C 0.50440   -1.24240  0.26424   
C -0.83571  -1.07280  0.29155   
C -1.43980  0.24421   0.28765   
C -0.67064  1.36534   0.17648   
N 0.71521   1.30018   -0.07142  
H 2.39035   -0.01716  0.56817   
H 0.92889   -2.22999  0.40948   
H -1.49798  -1.93032  0.43907   
H -2.50298  0.35260   0.48200   
H -1.07407  2.35595   0.33949   
C 1.27503   0.65018   -1.20233  
H 0.75734   0.29476   -2.07209  
13
image # 28 Energy = -286.84686
C 1.42007   -0.10994  0.04418   
C 0.51306   -1.24018  0.28444   
C -0.83173  -1.07788  0.29845   
C -1.43286  0.24482   0.26807   
C -0.66786  1.35058   0.16165   
N 0.72766   1.28236   -0.07286  
H 2.36912   -0.08905  0.57957   
H 0.95890   -2.21276  0.47901   
H -1.48005  -1.93689  0.44896   
H -2.49825  0.34760   0.45423   
H -1.05188  2.35456   0.31840   
C 1.27940   0.67839   -1.19280  
H 0.69441   0.40841   -2.07130  
