13   
From optimize.out: Frame 1 / 18, Energy=    -286.6401549727
C        0.0791010000   -0.0632390000   -0.0000000000
C       -0.2196370000   -0.0365120000   -0.0000000000
C       -0.1359150000    0.1627870000   -0.0000000000
C       -0.1979820000   -0.1615060000   -0.0000000000
C       -0.0786790000    0.1009650000   -0.0000000000
N       -0.3460270000    0.3088440000   -0.0000000000
H        0.1431590000    0.0067420000   -0.0000000000
H        0.1531420000    0.0160080000   -0.0000000000
H        0.2060940000   -0.0116440000   -0.0000000000
H        0.1501330000    0.0035240000    0.0000000000
H        0.1740800000   -0.0014420000   -0.0000000000
C       -0.1040640000    0.7111590000    0.0000000000
H        0.1765960000   -0.0356870000    0.0000000000
13   
From optimize.out: Frame 2 / 18, Energy=    -286.6812759656
C        0.0786270000   -0.0593370000   -0.0000000000
C       -0.2294230000   -0.0392230000   -0.0000000000
C       -0.1243660000    0.1517220000   -0.0000000000
C       -0.1945170000   -0.1417690000   -0.0000000000
C       -0.0815820000    0.0942240000   -0.0000000000
N       -0.3466190000    0.2905850000   -0.0000000000
H        0.1419800000    0.0069100000   -0.0000000000
H        0.1521970000    0.0180920000   -0.0000000000
H        0.2006100000   -0.0106410000   -0.0000000000
H        0.1492270000    0.0039890000    0.0000000000
H        0.1698790000   -0.0003940000   -0.0000000000
C       -0.0866090000    0.7210280000    0.0000000000
H        0.1705960000   -0.0351870000    0.0000000000
13   
From optimize.out: Frame 3 / 18, Energy=    -286.7170391294
C        0.0754140000   -0.0561860000   -0.0000000000
C       -0.2381860000   -0.0421120000   -0.0000000000
C       -0.1135760000    0.1386110000   -0.0000000000
C       -0.1896000000   -0.1234640000   -0.0000000000
C       -0.0809340000    0.0861090000   -0.0000000000
N       -0.3461630000    0.2778520000   -0.0000000000
H        0.1416090000    0.0069630000   -0.0000000000
H        0.1512120000    0.0202430000   -0.0000000000
H        0.1937960000   -0.0096420000   -0.0000000000
H        0.1482480000    0.0042430000    0.0000000000
H        0.1660190000    0.0005480000   -0.0000000000
C       -0.0728950000    0.7313100000    0.0000000000
H        0.1650560000   -0.0344740000    0.0000000000
13   
From optimize.out: Frame 4 / 18, Energy=    -286.7467368957
C        0.0715840000   -0.0524010000   -0.0000000000
C       -0.2456580000   -0.0452250000   -0.0000000000
C       -0.1053290000    0.1282150000   -0.0000000000
C       -0.1839910000   -0.1095550000   -0.0000000000
C       -0.0767410000    0.0777830000   -0.0000000000
N       -0.3450950000    0.2647640000   -0.0000000000
H        0.1420730000    0.0069330000   -0.0000000000
H        0.1502570000    0.0222000000   -0.0000000000
H        0.1864760000   -0.0088080000   -0.0000000000
H        0.1474600000    0.0044190000    0.0000000000
H        0.1625030000    0.0013580000   -0.0000000000
C       -0.0633000000    0.7438770000    0.0000000000
H        0.1597610000   -0.0335580000    0.0000000000
13   
From optimize.out: Frame 5 / 18, Energy=    -286.7703568701
C        0.0689110000   -0.0464160000   -0.0000000000
C       -0.2517570000   -0.0485690000   -0.0000000000
C       -0.0993790000    0.1208800000   -0.0000000000
C       -0.1787240000   -0.1000760000   -0.0000000000
C       -0.0701990000    0.0711760000   -0.0000000000
N       -0.3438860000    0.2464980000   -0.0000000000
H        0.1429360000    0.0067730000   -0.0000000000
H        0.1493580000    0.0238820000   -0.0000000000
H        0.1792910000   -0.0081130000   -0.0000000000
H        0.1469530000    0.0045970000    0.0000000000
H        0.1594100000    0.0020140000   -0.0000000000
C       -0.0576180000    0.7597830000    0.0000000000
H        0.1547030000   -0.0324310000    0.0000000000
13   
From optimize.out: Frame 6 / 18, Energy=    -286.7883947564
C        0.0684350000   -0.0376110000   -0.0000000000
C       -0.2565140000   -0.0520700000   -0.0000000000
C       -0.0950510000    0.1155810000   -0.0000000000
C       -0.1748080000   -0.0945340000   -0.0000000000
C       -0.0626980000    0.0677030000   -0.0000000000
N       -0.3430590000    0.2214380000   -0.0000000000
H        0.1437880000    0.0064230000   -0.0000000000
H        0.1485150000    0.0251900000   -0.0000000000
H        0.1729410000   -0.0074850000   -0.0000000000
H        0.1467340000    0.0048200000   -0.0000000000
H        0.1569740000    0.0025480000   -0.0000000000
C       -0.0552950000    0.7790750000    0.0000000000
H        0.1500390000   -0.0310790000    0.0000000000
13   
From optimize.out: Frame 7 / 18, Energy=    -286.8020471501
C        0.0698740000   -0.0260990000   -0.0000000000
C       -0.2602260000   -0.0554440000   -0.0000000000
C       -0.0919600000    0.1110630000   -0.0000000000
C       -0.1728330000   -0.0919260000   -0.0000000000
C       -0.0549300000    0.0676180000   -0.0000000000
N       -0.3425390000    0.1914350000   -0.0000000000
H        0.1442450000    0.0058540000   -0.0000000000
H        0.1477570000    0.0259990000   -0.0000000000
H        0.1677530000   -0.0068530000   -0.0000000000
H        0.1467020000    0.0050640000   -0.0000000000
H        0.1552320000    0.0029830000   -0.0000000000
C       -0.0551690000    0.7997900000    0.0000000000
H        0.1460940000   -0.0294840000    0.0000000000
13   
From optimize.out: Frame 8 / 18, Energy=    -286.8125781247
C        0.0721840000   -0.0127280000   -0.0000000000
C       -0.2631030000   -0.0584220000   -0.0000000000
C       -0.0901520000    0.1065650000   -0.0000000000
C       -0.1725960000   -0.0910980000   -0.0000000000
C       -0.0471240000    0.0701700000   -0.0000000000
N       -0.3419360000    0.1600290000   -0.0000000000
H        0.1442190000    0.0051300000   -0.0000000000
H        0.1470710000    0.0262850000   -0.0000000000
H        0.1635740000   -0.0061880000   -0.0000000000
H        0.1467600000    0.0052750000   -0.0000000000
H        0.1540150000    0.0033040000   -0.0000000000
C       -0.0559470000    0.8193710000    0.0000000000
H        0.1430350000   -0.0276940000    0.0000000000
13   
From optimize.out: Frame 9 / 18, Energy=    -286.8208266889
C        0.0746300000    0.0012880000   -0.0000000000
C       -0.2649960000   -0.0608830000   -0.0000000000
C       -0.0897800000    0.1018180000   -0.0000000000
C       -0.1732240000   -0.0912030000   -0.0000000000
C       -0.0397160000    0.0744200000   -0.0000000000
N       -0.3412040000    0.1302440000   -0.0000000000
H        0.1439040000    0.0043470000   -0.0000000000
H        0.1463940000    0.0261550000   -0.0000000000
H        0.1601090000   -0.0054720000   -0.0000000000
H        0.1468780000    0.0054150000   -0.0000000000
H        0.1531650000    0.0034880000   -0.0000000000
C       -0.0569360000    0.8361950000    0.0000000000
H        0.1407780000   -0.0258120000    0.0000000000
13   
From optimize.out: Frame 10 / 18, Energy=    -286.8272102409
C        0.0769500000    0.0147560000   -0.0000000000
C       -0.2656130000   -0.0627790000   -0.0000000000
C       -0.0909790000    0.0970140000   -0.0000000000
C       -0.1737860000   -0.0917660000   -0.0000000000
C       -0.0330720000    0.0794730000   -0.0000000000
N       -0.3405170000    0.1039350000   -0.0000000000
H        0.1434910000    0.0035850000   -0.0000000000
H        0.1456940000    0.0257290000   -0.0000000000
H        0.1571160000   -0.0046920000   -0.0000000000
H        0.1470330000    0.0054720000   -0.0000000000
H        0.1525720000    0.0035300000   -0.0000000000
C       -0.0580620000    0.8497160000    0.0000000000
H        0.1391760000   -0.0239710000    0.0000000000
13   
From optimize.out: Frame 11 / 18, Energy=    -286.8319455225
C        0.0792280000    0.0265320000   -0.0000000000
C       -0.2648560000   -0.0641420000   -0.0000000000
C       -0.0937500000    0.0926080000   -0.0000000000
C       -0.1735260000   -0.0925390000   -0.0000000000
C       -0.0274270000    0.0843980000   -0.0000000000
N       -0.3401280000    0.0820140000   -0.0000000000
H        0.1431310000    0.0029090000   -0.0000000000
H        0.1449640000    0.0250970000   -0.0000000000
H        0.1544920000   -0.0038510000   -0.0000000000
H        0.1471980000    0.0054540000   -0.0000000000
H        0.1521730000    0.0034590000   -0.0000000000
C       -0.0595630000    0.8603960000    0.0000000000
H        0.1380640000   -0.0223350000    0.0000000000
13   
From optimize.out: Frame 12 / 18, Energy=    -286.8352314603
C        0.0816760000    0.0357100000   -0.0000000000
C       -0.2630420000   -0.0650770000   -0.0000000000
C       -0.0978030000    0.0890230000   -0.0000000000
C       -0.1719920000   -0.0933680000   -0.0000000000
C       -0.0229230000    0.0883500000   -0.0000000000
N       -0.3402070000    0.0646620000   -0.0000000000
H        0.1429170000    0.0023620000   -0.0000000000
H        0.1442150000    0.0243190000   -0.0000000000
H        0.1522450000   -0.0029780000   -0.0000000000
H        0.1473310000    0.0053900000   -0.0000000000
H        0.1519160000    0.0033390000   -0.0000000000
C       -0.0616160000    0.8693380000    0.0000000000
H        0.1372840000   -0.0210710000    0.0000000000
13   
From optimize.out: Frame 13 / 18, Energy=    -286.8372721929
C        0.0843090000    0.0419460000   -0.0000000000
C       -0.2608290000   -0.0657040000   -0.0000000000
C       -0.1024500000    0.0861790000   -0.0000000000
C       -0.1692450000   -0.0942110000   -0.0000000000
C       -0.0196300000    0.0910640000   -0.0000000000
N       -0.3407800000    0.0516500000   -0.0000000000
H        0.1428560000    0.0019450000   -0.0000000000
H        0.1435180000    0.0234680000   -0.0000000000
H        0.1503590000   -0.0020970000   -0.0000000000
H        0.1473920000    0.0053170000   -0.0000000000
H        0.1517250000    0.0032190000   -0.0000000000
C       -0.0639980000    0.8775520000    0.0000000000
H        0.1367750000   -0.0203290000    0.0000000000
13   
From optimize.out: Frame 14 / 18, Energy=    -286.8382192942
C        0.0870370000    0.0458520000   -0.0000000000
C       -0.2589650000   -0.0661200000   -0.0000000000
C       -0.1066690000    0.0832780000   -0.0000000000
C       -0.1657030000   -0.0952060000   -0.0000000000
C       -0.0178290000    0.0932830000   -0.0000000000
N       -0.3417450000    0.0421630000   -0.0000000000
H        0.1428850000    0.0016040000   -0.0000000000
H        0.1429640000    0.0226570000   -0.0000000000
H        0.1488070000   -0.0011830000   -0.0000000000
H        0.1473640000    0.0052610000   -0.0000000000
H        0.1514780000    0.0030880000   -0.0000000000
C       -0.0661690000    0.8854910000    0.0000000000
H        0.1365440000   -0.0201680000    0.0000000000
13   
From optimize.out: Frame 15 / 18, Energy=    -286.8383377262
C        0.0885320000    0.0467350000   -0.0000000000
C       -0.2586620000   -0.0661810000   -0.0000000000
C       -0.1079800000    0.0814700000   -0.0000000000
C       -0.1639280000   -0.0957510000   -0.0000000000
C       -0.0180540000    0.0945280000   -0.0000000000
N       -0.3423720000    0.0392960000   -0.0000000000
H        0.1429210000    0.0014500000   -0.0000000000
H        0.1427930000    0.0223880000   -0.0000000000
H        0.1482980000   -0.0007900000   -0.0000000000
H        0.1472780000    0.0052510000   -0.0000000000
H        0.1513050000    0.0030130000   -0.0000000000
C       -0.0666500000    0.8888540000    0.0000000000
H        0.1365200000   -0.0202630000    0.0000000000
13   
From optimize.out: Frame 16 / 18, Energy=    -286.8383525558
C        0.0888010000    0.0468860000   -0.0000000000
C       -0.2587660000   -0.0660860000   -0.0000000000
C       -0.1080100000    0.0805500000   -0.0000000000
C       -0.1637260000   -0.0959440000   -0.0000000000
C       -0.0184890000    0.0953080000   -0.0000000000
N       -0.3424200000    0.0391610000   -0.0000000000
H        0.1429010000    0.0014060000   -0.0000000000
H        0.1428030000    0.0224430000   -0.0000000000
H        0.1482420000   -0.0007420000   -0.0000000000
H        0.1472100000    0.0052610000   -0.0000000000
H        0.1512680000    0.0029650000   -0.0000000000
C       -0.0663280000    0.8889400000    0.0000000000
H        0.1365140000   -0.0201480000    0.0000000000
13   
From optimize.out: Frame 17 / 18, Energy=    -286.8383610547
C        0.0891390000    0.0468680000   -0.0000000000
C       -0.2589330000   -0.0658870000   -0.0000000000
C       -0.1078690000    0.0793090000   -0.0000000000
C       -0.1636130000   -0.0959630000   -0.0000000000
C       -0.0190430000    0.0962060000   -0.0000000000
N       -0.3424760000    0.0391760000   -0.0000000000
H        0.1429950000    0.0013790000   -0.0000000000
H        0.1427850000    0.0225580000   -0.0000000000
H        0.1482210000   -0.0007500000   -0.0000000000
H        0.1471640000    0.0052690000   -0.0000000000
H        0.1513290000    0.0029220000   -0.0000000000
C       -0.0660440000    0.8886800000    0.0000000000
H        0.1363450000   -0.0197680000    0.0000000000
