13   
From optimize.out: Frame 1 / 18, Energy=    -286.6401549727
C        1.3117809802    0.1673483396   -0.9925875511
C        0.4811469191   -1.1719194764   -1.0522151987
C       -0.8613244858   -0.5978087701   -2.2337278871
C       -1.2213772270   -0.0705374846   -0.4110464049
C       -0.6837501058    0.8644124616   -1.7597789320
N        0.9203788460    1.3098886415   -1.4874700990
H        1.9844053711    0.0317337724   -0.1296471705
H        1.0928299156   -2.1018536033   -0.9811903920
H       -1.4217606792   -1.5648942444   -2.5191453618
H       -2.1123763881    0.1034545586    0.2013547797
H       -1.4393011886    1.5833682363   -2.0396387451
C       -0.0105286731   -0.5654325375    0.3221698835
H        0.5272188037   -0.5059994611    1.2518698862
13   
From optimize.out: Frame 2 / 18, Energy=    -286.6812759656
C        1.3108651266    0.1602249592   -1.0007579979
C        0.4880070530   -1.1603258636   -1.0529558557
C       -0.8370348589   -0.6022785746   -2.1804381869
C       -1.2212634566   -0.0614447762   -0.4201183584
C       -0.6776969315    0.8451445321   -1.7289302221
N        0.8877055414    1.2897389236   -1.4828321715
H        2.0254387210    0.0485022544   -0.1718414417
H        1.0909910515   -2.0871659359   -1.0070463936
H       -1.3960720934   -1.5400889175   -2.4588436918
H       -2.1305589771    0.1260116674    0.1562703752
H       -1.4243651832    1.5691641861   -2.0273917559
C       -0.0319492379   -0.5809815918    0.3001443580
H        0.4832753333   -0.5247404306    1.2436881494
13   
From optimize.out: Frame 3 / 18, Energy=    -286.7170391294
C        1.3122922389    0.1547002814   -1.0078800935
C        0.4918586895   -1.1496002707   -1.0545471343
C       -0.8118470828   -0.6088209642   -2.1249854558
C       -1.2196024000   -0.0550230288   -0.4342367946
C       -0.6691066979    0.8310895231   -1.6984823663
N        0.8488980600    1.2717535737   -1.4749674183
H        2.0642786736    0.0693083917   -0.2113397582
H        1.0861809298   -2.0761601598   -1.0326529229
H       -1.3783874762   -1.5225678213   -2.3980074192
H       -2.1456631816    0.1455490965    0.1056550043
H       -1.4053458238    1.5605123488   -2.0141694928
C       -0.0492193525   -0.5963860198    0.2787006569
H        0.4430055112   -0.5425945181    1.2358600019
13   
From optimize.out: Frame 4 / 18, Energy=    -286.7467368957
C        1.3166064324    0.1530532872   -1.0130967545
C        0.4960310502   -1.1400425387   -1.0550827723
C       -0.7888277613   -0.6182250815   -2.0685561016
C       -1.2185437304   -0.0494464541   -0.4480771833
C       -0.6599484072    0.8224336254   -1.6711310439
N        0.8106662241    1.2579077531   -1.4644033500
H        2.1050386208    0.0943120125   -0.2526156380
H        1.0819229849   -2.0674602585   -1.0581685360
H       -1.3698761454   -1.5100303730   -2.3399208099
H       -2.1605675201    0.1634532797    0.0546080585
H       -1.3844211561    1.5557210651   -2.0081583230
C       -0.0647483408   -0.6145791823    0.2615654697
H        0.4040098369   -0.5653367022    1.2319837914
13   
From optimize.out: Frame 5 / 18, Energy=    -286.7703568701
C        1.3243438848    0.1552010384   -1.0172603821
C        0.5014984936   -1.1308030667   -1.0536117139
C       -0.7692828050   -0.6299731743   -2.0120095501
C       -1.2184250957   -0.0455229532   -0.4587721110
C       -0.6515511109    0.8176511156   -1.6485307898
N        0.7789240932    1.2480572145   -1.4524291279
H        2.1481004290    0.1228952684   -0.2966264623
H        1.0794839512   -2.0594979013   -1.0822716507
H       -1.3712479013   -1.4978228954   -2.2881092275
H       -2.1752547007    0.1781315829    0.0068037928
H       -1.3635942828    1.5519949341   -2.0115678657
C       -0.0802863636   -0.6355471865    0.2499742986
H        0.3646334962   -0.5930035439    1.2333575968
13   
From optimize.out: Frame 6 / 18, Energy=    -286.7883947564
C        1.3351623877    0.1601702000   -1.0213221032
C        0.5091285270   -1.1215272851   -1.0488282017
C       -0.7541939676   -0.6426114717   -1.9573783618
C       -1.2191974812   -0.0436198755   -0.4638617871
C       -0.6453000146    0.8150631485   -1.6321077263
N        0.7573272975    1.2419594540   -1.4411270983
H        2.1927867704    0.1526361189   -0.3437769006
H        1.0801926773   -2.0513810963   -1.1022905333
H       -1.3816083938   -1.4816214329   -2.2488482480
H       -2.1892685383    0.1884967059   -0.0336369460
H       -1.3454199648    1.5466583273   -2.0244881654
C       -0.0966780033   -0.6583124301    0.2454661800
H        0.3244107919   -0.6241499303    1.2411466990
13   
From optimize.out: Frame 7 / 18, Energy=    -286.8020471501
C        1.3471110166    0.1663222831   -1.0266277789
C        0.5186231872   -1.1127750068   -1.0395172302
C       -0.7432709085   -0.6544106112   -1.9070901999
C       -1.2204484979   -0.0435949200   -0.4624660139
C       -0.6412300162    0.8129991201   -1.6214679960
N        0.7445184352    1.2382847921   -1.4326023703
H        2.2369069776    0.1812765484   -0.3947467588
H        1.0839087745   -2.0435283430   -1.1151140854
H       -1.3965348653   -1.4587375875   -2.2283768319
H       -2.2018644749    0.1946727501   -0.0642811959
H       -1.3309321332    1.5384480426   -2.0432335899
C       -0.1138184344   -0.6813025931    0.2488548520
H        0.2843730274   -0.6558940423    1.2556160063
13   
From optimize.out: Frame 8 / 18, Energy=    -286.8125781247
C        1.3587626366    0.1723968589   -1.0340898610
C        0.5288586806   -1.1048735341   -1.0255549507
C       -0.7356724012   -0.6643504356   -1.8620683414
C       -1.2220649893   -0.0449107001   -0.4555759751
C       -0.6384806852    0.8103182328   -1.6148645779
N        0.7369887895    1.2355229075   -1.4276226149
H        2.2787522212    0.2074356247   -0.4498829414
H        1.0890138093   -2.0365743276   -1.1195511564
H       -1.4101814885   -1.4291366438   -2.2279601012
H       -2.2128956801    0.1976705740   -0.0853854910
H       -1.3199746811    1.5274166633   -2.0631557839
C       -0.1313782710   -0.7032659203    0.2591516651
H        0.2456141471   -0.6858888670    1.2755069370
13   
From optimize.out: Frame 9 / 18, Energy=    -286.8208266889
C        1.3700170849    0.1779574057   -1.0437498569
C        0.5387462110   -1.0974013263   -1.0078681983
C       -0.7308711943   -0.6721881711   -1.8218267531
C       -1.2244748913   -0.0469459193   -0.4449318835
C       -0.6363346057    0.8066973290   -1.6105269194
N        0.7327821385    1.2332612376   -1.4256621240
H        2.3180770009    0.2300698098   -0.5090312016
H        1.0933916863   -2.0307022689   -1.1164706638
H       -1.4176572775   -1.3949099929   -2.2441416460
H       -2.2229795294    0.1983236168   -0.0984460611
H       -1.3123947334    1.5141315763   -2.0811854951
C       -0.1492952270   -0.7234085531    0.2741337723
H        0.2083354251   -0.7131243112    1.2986538376
13   
From optimize.out: Frame 10 / 18, Energy=    -286.8272102409
C        1.3808685910    0.1828877878   -1.0552088157
C        0.5475626763   -1.0899337004   -0.9877168974
C       -0.7284153974   -0.6779036364   -1.7858971761
C       -1.2282465665   -0.0491726474   -0.4321557435
C       -0.6343180693    0.8025651216   -1.6069428634
N        0.7308327842    1.2316646583   -1.4257601736
H        2.3549511676    0.2482910598   -0.5720115065
H        1.0950851635   -2.0262139900   -1.1072624160
H       -1.4151127374   -1.3591128751   -2.2723179235
H       -2.2329428922    0.1970437180   -0.1049657518
H       -1.3079478910    1.4997277646   -2.0953589523
C       -0.1674944301   -0.7411097215    0.2915845082
H        0.1725196894   -0.7369731067    1.3229605188
13   
From optimize.out: Frame 11 / 18, Energy=    -286.8319455225
C        1.3913144490    0.1871320341   -1.0678654873
C        0.5550288935   -1.0821530541   -0.9666069358
C       -0.7278786049   -0.6814171420   -1.7545472476
C       -1.2339496656   -0.0510990438   -0.4187658082
C       -0.6323051449    0.7988469768   -1.6026075479
N        0.7305080910    1.2309173524   -1.4267055036
H        2.3894401716    0.2611905925   -0.6384617539
H        1.0924214676   -2.0235867684   -1.0932917587
H       -1.3997683912   -1.3258572996   -2.3080232289
H       -2.2436361346    0.1939863367   -0.1063878451
H       -1.3063961054    1.4859556191   -2.1038538981
C       -0.1857375788   -0.7556197128    0.3094872431
H        0.1383006407   -0.7565354584    1.3465765792
13   
From optimize.out: Frame 12 / 18, Energy=    -286.8352314603
C        1.4012429344    0.1906035931   -1.0811068138
C        0.5610572723   -1.0739394287   -0.9461175883
C       -0.7286374628   -0.6826019375   -1.7286867038
C       -1.2420071036   -0.0525240355   -0.4062550698
C       -0.6303962816    0.7965848635   -1.5959299409
N        0.7314818964    1.2311050276   -1.4272057674
H        2.4213449295    0.2680742509   -0.7079077487
H        1.0842288657   -2.0232296302   -1.0757972803
H       -1.3702621689   -1.2994916324   -2.3471976075
H       -2.2557481062    0.1890400357   -0.1042470265
H       -1.3072925734    1.4749109047   -2.1048625824
C       -0.2036615826   -0.7661852598    0.3262036105
H        0.1059914690   -0.7705863187    1.3680573263
13   
From optimize.out: Frame 13 / 18, Energy=    -286.8372721929
C        1.4100318997    0.1928019377   -1.0941054280
C        0.5655532363   -1.0658196661   -0.9272644513
C       -0.7301689368   -0.6817105939   -1.7090427694
C       -1.2523714239   -0.0542130679   -0.3958085128
C       -0.6288124837    0.7960628393   -1.5860100931
N        0.7334383449    1.2319189970   -1.4268766330
H        2.4495501296    0.2683232745   -0.7788099075
H        1.0712929109   -2.0248930374   -1.0559077432
H       -1.3277000949   -1.2808986067   -2.3876995919
H       -2.2692966598    0.1818743649   -0.0998713169
H       -1.3102130295    1.4678783217   -2.0973715340
C       -0.2206299333   -0.7723713778    0.3410126880
H        0.0766681287   -0.7771929528    1.3867021002
13   
From optimize.out: Frame 14 / 18, Energy=    -286.8382192942
C        1.4168845140    0.1931187299   -1.1055550886
C        0.5685054111   -1.0586359806   -0.9103078547
C       -0.7326681686   -0.6798821730   -1.6955320160
C       -1.2646774866   -0.0582631014   -0.3882469528
C       -0.6275067664    0.7962686979   -1.5732259670
N        0.7363491510    1.2328574890   -1.4264517250
H        2.4726923792    0.2613572064   -0.8483568803
H        1.0568343466   -2.0273821822   -1.0346080730
H       -1.2763797310   -1.2660617254   -2.4294708628
H       -2.2836423285    0.1721282908   -0.0942048021
H       -1.3148575887    1.4644839321   -2.0814894639
C       -0.2361583789   -0.7745652509    0.3540266361
H        0.0519667347   -0.7736635001    1.4023698572
13   
From optimize.out: Frame 15 / 18, Energy=    -286.8383377262
C        1.4188914594    0.1925004842   -1.1083783830
C        0.5691653881   -1.0562408804   -0.9042032160
C       -0.7343131037   -0.6793765817   -1.6939769101
C       -1.2713053142   -0.0628946477   -0.3873560796
C       -0.6269607585    0.7962717041   -1.5661917746
N        0.7384342948    1.2335443651   -1.4255753028
H        2.4808941826    0.2539128016   -0.8760475040
H        1.0519112621   -2.0283052640   -1.0245858472
H       -1.2542936813   -1.2607619840   -2.4490454656
H       -2.2900746452    0.1663491991   -0.0911793085
H       -1.3175981121    1.4648534132   -2.0698228963
C       -0.2423824062   -0.7742384813    0.3584467551
H        0.0449735222   -0.7638536956    1.4068627398
13   
From optimize.out: Frame 16 / 18, Energy=    -286.8383525558
C        1.4184476946    0.1919282907   -1.1074206936
C        0.5685443598   -1.0564893122   -0.9037621261
C       -0.7348396014   -0.6796213513   -1.6958289924
C       -1.2728343678   -0.0656877870   -0.3883818642
C       -0.6268362190    0.7961238219   -1.5648157965
N        0.7389497101    1.2335117131   -1.4249485895
H        2.4812454221    0.2509291174   -0.8779590076
H        1.0523695595   -2.0282585563   -1.0225240846
H       -1.2524253513   -1.2593920433   -2.4538576343
H       -2.2907568478    0.1647490784   -0.0900042562
H       -1.3181672825    1.4656291798   -2.0664064102
C       -0.2434062442   -0.7746408605    0.3586985579
H        0.0470512560   -0.7570208580    1.4061577043
13   
From optimize.out: Frame 17 / 18, Energy=    -286.8383610547
C        1.4184832808    0.1914202501   -1.1057251001
C        0.5677397643   -1.0567792412   -0.9046368149
C       -0.7357247715   -0.6799604686   -1.6982748276
C       -1.2743749893   -0.0687683539   -0.3899753918
C       -0.6269226516    0.7960666009   -1.5639008073
N        0.7397803412    1.2332470951   -1.4232532867
H        2.4813786470    0.2484748366   -0.8760486291
H        1.0526704068   -2.0283709794   -1.0213406036
H       -1.2531620324   -1.2592716646   -2.4569574319
H       -2.2912290637    0.1632431465   -0.0889108422
H       -1.3185546113    1.4667220486   -2.0635661451
C       -0.2444247466   -0.7759492337    0.3578842440
H        0.0516825144   -0.7483136039    1.4036524434
