13   
From optimize.out: Frame 1 / 2, Energy=    -286.8383360532
C       -0.0190590000    0.0965430000    0.0000000000
C       -0.1637780000   -0.0957690000   -0.0000000000
C       -0.0661650000    0.8886040000   -0.0000000000
C       -0.2580340000   -0.0656690000    0.0000000000
C        0.0889230000    0.0469050000   -0.0000000000
N       -0.3423420000    0.0391650000   -0.0000000000
H        0.1513100000    0.0028820000    0.0000000000
H        0.1472100000    0.0052800000   -0.0000000000
H        0.1362290000   -0.0192480000   -0.0000000000
H        0.1427460000    0.0227800000    0.0000000000
H        0.1430100000    0.0013760000   -0.0000000000
C       -0.1082200000    0.0779220000    0.0000000000
H        0.1481700000   -0.0007700000    0.0000000000
