13   
From optimize.out: Frame 1 / 24, Energy=    -286.7129297455
C        0.0607070000    0.2864970000   -0.0000000000
C       -0.2212800000   -0.0605200000   -0.0000000000
C       -0.1179310000    0.3422810000   -0.0000000000
C       -0.1725900000   -0.1624380000   -0.0000000000
C       -0.0581210000    0.1202820000   -0.0000000000
N       -0.3300500000   -0.1135590000   -0.0000000000
H        0.1402350000   -0.0120330000   -0.0000000000
H        0.1481480000    0.0149830000   -0.0000000000
H        0.1709510000   -0.0157850000   -0.0000000000
H        0.1580530000    0.0129390000   -0.0000000000
H        0.1754990000   -0.0027200000   -0.0000000000
C       -0.1022500000    0.5597650000    0.0000000000
H        0.1486290000    0.0303080000    0.0000000000
13   
From optimize.out: Frame 2 / 24, Energy=    -286.7454502266
C        0.0635820000    0.2125820000   -0.0000000000
C       -0.2316480000   -0.0602250000   -0.0000000000
C       -0.1178740000    0.3684120000   -0.0000000000
C       -0.1667110000   -0.1553740000   -0.0000000000
C       -0.0512230000    0.0943450000   -0.0000000000
N       -0.3293260000   -0.0673800000   -0.0000000000
H        0.1434280000   -0.0079960000   -0.0000000000
H        0.1460930000    0.0163770000   -0.0000000000
H        0.1754580000   -0.0178330000   -0.0000000000
H        0.1572230000    0.0133660000   -0.0000000000
H        0.1715780000    0.0002400000   -0.0000000000
C       -0.1033000000    0.5711100000    0.0000000000
H        0.1427210000    0.0323750000    0.0000000000
13   
From optimize.out: Frame 3 / 24, Energy=    -286.7693593534
C        0.0685040000    0.1557640000   -0.0000000000
C       -0.2405850000   -0.0602510000   -0.0000000000
C       -0.1162820000    0.4027350000   -0.0000000000
C       -0.1608510000   -0.1582410000   -0.0000000000
C       -0.0453650000    0.0700740000   -0.0000000000
N       -0.3268070000   -0.0342230000   -0.0000000000
H        0.1435250000   -0.0045640000   -0.0000000000
H        0.1447370000    0.0168800000   -0.0000000000
H        0.1771520000   -0.0195430000   -0.0000000000
H        0.1556790000    0.0150210000   -0.0000000000
H        0.1663580000    0.0023930000   -0.0000000000
C       -0.1033850000    0.5819060000   -0.0000000000
H        0.1373200000    0.0320500000    0.0000000000
13   
From optimize.out: Frame 4 / 24, Energy=    -286.7865105026
C        0.0732900000    0.1135510000   -0.0000000000
C       -0.2470660000   -0.0609470000   -0.0000000000
C       -0.1165790000    0.4409240000   -0.0000000000
C       -0.1554100000   -0.1719480000   -0.0000000000
C       -0.0398040000    0.0507520000   -0.0000000000
N       -0.3265280000   -0.0120250000   -0.0000000000
H        0.1440490000   -0.0020070000   -0.0000000000
H        0.1436720000    0.0169860000   -0.0000000000
H        0.1763110000   -0.0212690000   -0.0000000000
H        0.1541010000    0.0165930000   -0.0000000000
H        0.1621240000    0.0041490000   -0.0000000000
C       -0.1023040000    0.5962420000   -0.0000000000
H        0.1341440000    0.0289990000    0.0000000000
13   
From optimize.out: Frame 5 / 24, Energy=    -286.7997153637
C        0.0780620000    0.0805290000   -0.0000000000
C       -0.2518160000   -0.0616280000   -0.0000000000
C       -0.1175390000    0.4853140000   -0.0000000000
C       -0.1484080000   -0.1901910000   -0.0000000000
C       -0.0360610000    0.0341140000   -0.0000000000
N       -0.3272190000    0.0042820000   -0.0000000000
H        0.1444670000   -0.0001510000   -0.0000000000
H        0.1426620000    0.0165670000   -0.0000000000
H        0.1743140000   -0.0230110000   -0.0000000000
H        0.1522830000    0.0179910000   -0.0000000000
H        0.1580520000    0.0054720000   -0.0000000000
C       -0.1012780000    0.6063930000   -0.0000000000
H        0.1324820000    0.0243170000    0.0000000000
13   
From optimize.out: Frame 6 / 24, Energy=    -286.8095575282
C        0.0825850000    0.0542380000   -0.0000000000
C       -0.2551120000   -0.0622810000   -0.0000000000
C       -0.1191770000    0.5400280000   -0.0000000000
C       -0.1403250000   -0.2106790000   -0.0000000000
C       -0.0343410000    0.0207060000   -0.0000000000
N       -0.3287140000    0.0168790000   -0.0000000000
H        0.1449180000    0.0010740000   -0.0000000000
H        0.1416770000    0.0157080000   -0.0000000000
H        0.1710370000   -0.0249450000   -0.0000000000
H        0.1505980000    0.0189630000   -0.0000000000
H        0.1543910000    0.0064280000   -0.0000000000
C       -0.1003270000    0.6059070000   -0.0000000000
H        0.1327920000    0.0179760000    0.0000000000
13   
From optimize.out: Frame 7 / 24, Energy=    -286.8165979331
C        0.0868030000    0.0329800000   -0.0000000000
C       -0.2572420000   -0.0626230000   -0.0000000000
C       -0.1205560000    0.6142850000   -0.0000000000
C       -0.1311670000   -0.2289350000   -0.0000000000
C       -0.0357190000    0.0093870000   -0.0000000000
N       -0.3299670000    0.0263950000   -0.0000000000
H        0.1453140000    0.0017090000   -0.0000000000
H        0.1406800000    0.0142780000   -0.0000000000
H        0.1664110000   -0.0273940000   -0.0000000000
H        0.1491750000    0.0193870000   -0.0000000000
H        0.1509350000    0.0069310000   -0.0000000000
C       -0.0998170000    0.5829580000   -0.0000000000
H        0.1351500000    0.0106430000    0.0000000000
13   
From optimize.out: Frame 8 / 24, Energy=    -286.8220266366
C        0.0906310000    0.0144420000   -0.0000000000
C       -0.2582970000   -0.0616150000   -0.0000000000
C       -0.1205370000    0.7136110000   -0.0000000000
C       -0.1204560000   -0.2309790000   -0.0000000000
C       -0.0412390000   -0.0022390000   -0.0000000000
N       -0.3301800000    0.0323620000   -0.0000000000
H        0.1460750000    0.0018400000   -0.0000000000
H        0.1396140000    0.0120360000   -0.0000000000
H        0.1602350000   -0.0303120000   -0.0000000000
H        0.1478700000    0.0188030000   -0.0000000000
H        0.1475950000    0.0069220000   -0.0000000000
C       -0.1004950000    0.5211660000   -0.0000000000
H        0.1391840000    0.0039610000    0.0000000000
13   
From optimize.out: Frame 9 / 24, Energy=    -286.8272710812
C        0.0940550000   -0.0014900000   -0.0000000000
C       -0.2579440000   -0.0584370000   -0.0000000000
C       -0.1183270000    0.8155880000   -0.0000000000
C       -0.1093290000   -0.1973280000   -0.0000000000
C       -0.0509100000   -0.0145000000   -0.0000000000
N       -0.3292040000    0.0343800000   -0.0000000000
H        0.1473080000    0.0015700000   -0.0000000000
H        0.1384100000    0.0092550000   -0.0000000000
H        0.1535490000   -0.0325960000   -0.0000000000
H        0.1466160000    0.0161260000   -0.0000000000
H        0.1442370000    0.0064340000   -0.0000000000
C       -0.1019990000    0.4214710000   -0.0000000000
H        0.1435400000   -0.0004730000    0.0000000000
13   
From optimize.out: Frame 10 / 24, Energy=    -286.8323781245
C        0.0964230000   -0.0115380000   -0.0000000000
C       -0.2557280000   -0.0541670000   -0.0000000000
C       -0.1139430000    0.8937880000   -0.0000000000
C       -0.0998330000   -0.1334880000   -0.0000000000
C       -0.0630860000   -0.0260650000   -0.0000000000
N       -0.3277770000    0.0333290000   -0.0000000000
H        0.1486000000    0.0010730000   -0.0000000000
H        0.1370540000    0.0066060000   -0.0000000000
H        0.1480970000   -0.0334870000   -0.0000000000
H        0.1457720000    0.0115470000   -0.0000000000
H        0.1411260000    0.0056330000   -0.0000000000
C       -0.1031220000    0.3090880000   -0.0000000000
H        0.1464170000   -0.0023200000    0.0000000000
13   
From optimize.out: Frame 11 / 24, Energy=    -286.8367620841
C        0.0973980000   -0.0146010000   -0.0000000000
C       -0.2521270000   -0.0510010000   -0.0000000000
C       -0.1087040000    0.9406030000   -0.0000000000
C       -0.0933300000   -0.0716110000   -0.0000000000
C       -0.0750660000   -0.0352240000   -0.0000000000
N       -0.3266310000    0.0311510000   -0.0000000000
H        0.1496760000    0.0006230000   -0.0000000000
H        0.1357930000    0.0046630000   -0.0000000000
H        0.1447240000   -0.0334220000   -0.0000000000
H        0.1457300000    0.0071520000   -0.0000000000
H        0.1389360000    0.0047940000   -0.0000000000
C       -0.1034120000    0.2194530000   -0.0000000000
H        0.1470130000   -0.0025790000    0.0000000000
13   
From optimize.out: Frame 12 / 24, Energy=    -286.8403301369
C        0.0973890000   -0.0136820000   -0.0000000000
C       -0.2488600000   -0.0496100000   -0.0000000000
C       -0.1042840000    0.9645450000   -0.0000000000
C       -0.0878920000   -0.0290770000   -0.0000000000
C       -0.0848920000   -0.0413210000   -0.0000000000
N       -0.3257280000    0.0294540000   -0.0000000000
H        0.1505630000    0.0003220000   -0.0000000000
H        0.1349080000    0.0034630000   -0.0000000000
H        0.1432070000   -0.0333240000   -0.0000000000
H        0.1458690000    0.0042240000    0.0000000000
H        0.1377260000    0.0041280000   -0.0000000000
C       -0.1038370000    0.1631600000   -0.0000000000
H        0.1458310000   -0.0022820000    0.0000000000
13   
From optimize.out: Frame 13 / 24, Energy=    -286.8435245212
C        0.0969630000   -0.0119860000   -0.0000000000
C       -0.2465270000   -0.0493730000   -0.0000000000
C       -0.1011500000    0.9770500000   -0.0000000000
C       -0.0840250000   -0.0025330000   -0.0000000000
C       -0.0922220000   -0.0453560000   -0.0000000000
N       -0.3249360000    0.0292770000   -0.0000000000
H        0.1509460000    0.0001450000   -0.0000000000
H        0.1346560000    0.0027910000   -0.0000000000
H        0.1426420000   -0.0337320000   -0.0000000000
H        0.1458090000    0.0025100000    0.0000000000
H        0.1375240000    0.0036110000   -0.0000000000
C       -0.1041440000    0.1296310000   -0.0000000000
H        0.1444650000   -0.0020360000    0.0000000000
13   
From optimize.out: Frame 14 / 24, Energy=    -286.8462568240
C        0.0959490000   -0.0096600000   -0.0000000000
C       -0.2448870000   -0.0493030000   -0.0000000000
C       -0.0991380000    0.9839020000   -0.0000000000
C       -0.0806750000    0.0157000000   -0.0000000000
C       -0.0978850000   -0.0474270000   -0.0000000000
N       -0.3239590000    0.0281540000   -0.0000000000
H        0.1507730000   -0.0000070000   -0.0000000000
H        0.1342980000    0.0024370000   -0.0000000000
H        0.1422340000   -0.0342920000   -0.0000000000
H        0.1456000000    0.0013410000    0.0000000000
H        0.1377080000    0.0032240000   -0.0000000000
C       -0.1035740000    0.1076520000   -0.0000000000
H        0.1435550000   -0.0017210000    0.0000000000
13   
From optimize.out: Frame 15 / 24, Energy=    -286.8482918925
C        0.0955610000   -0.0104880000   -0.0000000000
C       -0.2476970000   -0.0493480000   -0.0000000000
C       -0.0979170000    0.9873320000   -0.0000000000
C       -0.0825210000    0.0276820000   -0.0000000000
C       -0.0979260000   -0.0500140000   -0.0000000000
N       -0.3239300000    0.0317470000   -0.0000000000
H        0.1511780000   -0.0000200000   -0.0000000000
H        0.1348160000    0.0023280000   -0.0000000000
H        0.1424780000   -0.0345200000   -0.0000000000
H        0.1446140000    0.0010360000    0.0000000000
H        0.1389770000    0.0029370000   -0.0000000000
C       -0.1010430000    0.0926860000   -0.0000000000
H        0.1434100000   -0.0013580000    0.0000000000
13   
From optimize.out: Frame 16 / 24, Energy=    -286.8496310785
C        0.0928680000   -0.0089700000   -0.0000000000
C       -0.2428260000   -0.0488970000   -0.0000000000
C       -0.0975480000    0.9893420000   -0.0000000000
C       -0.0875010000    0.0360330000   -0.0000000000
C       -0.1018590000   -0.0499120000   -0.0000000000
N       -0.3230380000    0.0301640000   -0.0000000000
H        0.1491010000   -0.0000870000   -0.0000000000
H        0.1339990000    0.0022970000   -0.0000000000
H        0.1409180000   -0.0347060000   -0.0000000000
H        0.1455490000    0.0002240000    0.0000000000
H        0.1407150000    0.0025610000   -0.0000000000
C       -0.0959080000    0.0833350000   -0.0000000000
H        0.1455310000   -0.0013830000    0.0000000000
13   
From optimize.out: Frame 17 / 24, Energy=    -286.8503636111
C        0.0924210000   -0.0059420000   -0.0000000000
C       -0.2464820000   -0.0476180000   -0.0000000000
C       -0.0969640000    0.9878020000   -0.0000000000
C       -0.0803200000    0.0435440000   -0.0000000000
C       -0.1013710000   -0.0482270000   -0.0000000000
N       -0.3231070000    0.0247280000   -0.0000000000
H        0.1501740000   -0.0002810000   -0.0000000000
H        0.1330180000    0.0024010000   -0.0000000000
H        0.1414250000   -0.0329080000   -0.0000000000
H        0.1445500000   -0.0000850000    0.0000000000
H        0.1390370000    0.0027170000   -0.0000000000
C       -0.0960890000    0.0739100000   -0.0000000000
H        0.1437070000   -0.0000420000    0.0000000000
13   
From optimize.out: Frame 18 / 24, Energy=    -286.8511321872
C        0.0927030000   -0.0093040000   -0.0000000000
C       -0.2469420000   -0.0473160000   -0.0000000000
C       -0.0978580000    0.9858520000   -0.0000000000
C       -0.0855840000    0.0359010000   -0.0000000000
C       -0.0975160000   -0.0481870000   -0.0000000000
N       -0.3238530000    0.0277970000   -0.0000000000
H        0.1499290000   -0.0001270000   -0.0000000000
H        0.1335180000    0.0025590000   -0.0000000000
H        0.1408500000   -0.0314900000   -0.0000000000
H        0.1448020000    0.0006960000    0.0000000000
H        0.1398620000    0.0027660000   -0.0000000000
C       -0.0946700000    0.0809560000   -0.0000000000
H        0.1447600000   -0.0001030000    0.0000000000
13   
From optimize.out: Frame 19 / 24, Energy=    -286.8514684812
C        0.0919600000   -0.0097020000   -0.0000000000
C       -0.2464540000   -0.0460660000   -0.0000000000
C       -0.0968660000    0.9824010000   -0.0000000000
C       -0.0876620000    0.0352220000   -0.0000000000
C       -0.0963920000   -0.0470340000   -0.0000000000
N       -0.3242310000    0.0261260000   -0.0000000000
H        0.1496620000   -0.0001160000   -0.0000000000
H        0.1337360000    0.0027410000   -0.0000000000
H        0.1400900000   -0.0292640000   -0.0000000000
H        0.1452850000    0.0009610000    0.0000000000
H        0.1398590000    0.0028490000   -0.0000000000
C       -0.0944010000    0.0817160000   -0.0000000000
H        0.1454140000    0.0001670000    0.0000000000
13   
From optimize.out: Frame 20 / 24, Energy=    -286.8515817990
C        0.0915910000   -0.0098310000   -0.0000000000
C       -0.2457170000   -0.0446490000   -0.0000000000
C       -0.0969420000    0.9783660000   -0.0000000000
C       -0.0881940000    0.0365170000   -0.0000000000
C       -0.0950660000   -0.0456950000   -0.0000000000
N       -0.3247350000    0.0246030000   -0.0000000000
H        0.1495480000   -0.0001240000   -0.0000000000
H        0.1338470000    0.0028220000   -0.0000000000
H        0.1390540000   -0.0270800000   -0.0000000000
H        0.1459020000    0.0010090000    0.0000000000
H        0.1398450000    0.0029240000   -0.0000000000
C       -0.0946880000    0.0807020000   -0.0000000000
H        0.1455550000    0.0004360000    0.0000000000
13   
From optimize.out: Frame 21 / 24, Energy=    -286.8516121062
C        0.0916750000   -0.0089010000   -0.0000000000
C       -0.2457310000   -0.0442030000   -0.0000000000
C       -0.0961810000    0.9770120000   -0.0000000000
C       -0.0883750000    0.0393050000   -0.0000000000
C       -0.0950770000   -0.0453830000   -0.0000000000
N       -0.3247570000    0.0225970000   -0.0000000000
H        0.1496500000   -0.0001690000   -0.0000000000
H        0.1338350000    0.0028690000   -0.0000000000
H        0.1390170000   -0.0267180000   -0.0000000000
H        0.1460290000    0.0009530000    0.0000000000
H        0.1397770000    0.0029990000   -0.0000000000
C       -0.0955270000    0.0791960000   -0.0000000000
H        0.1456650000    0.0004430000    0.0000000000
13   
From optimize.out: Frame 22 / 24, Energy=    -286.8516248353
C        0.0918890000   -0.0087950000   -0.0000000000
C       -0.2457580000   -0.0441230000   -0.0000000000
C       -0.0962780000    0.9766070000   -0.0000000000
C       -0.0880420000    0.0401610000   -0.0000000000
C       -0.0950290000   -0.0453350000   -0.0000000000
N       -0.3248820000    0.0223010000   -0.0000000000
H        0.1496760000   -0.0001750000   -0.0000000000
H        0.1337980000    0.0028510000   -0.0000000000
H        0.1390120000   -0.0267360000   -0.0000000000
H        0.1460170000    0.0008960000    0.0000000000
H        0.1397750000    0.0030150000   -0.0000000000
C       -0.0957270000    0.0789590000   -0.0000000000
H        0.1455500000    0.0003740000    0.0000000000
13   
From optimize.out: Frame 23 / 24, Energy=    -286.8516282111
C        0.0921230000   -0.0087600000   -0.0000000000
C       -0.2458050000   -0.0440000000   -0.0000000000
C       -0.0965080000    0.9759600000   -0.0000000000
C       -0.0881360000    0.0406440000   -0.0000000000
C       -0.0945630000   -0.0452260000   -0.0000000000
N       -0.3250190000    0.0220670000   -0.0000000000
H        0.1497160000   -0.0001780000   -0.0000000000
H        0.1338760000    0.0028580000   -0.0000000000
H        0.1388530000   -0.0266800000   -0.0000000000
H        0.1460720000    0.0008800000    0.0000000000
H        0.1398440000    0.0030370000   -0.0000000000
C       -0.0960540000    0.0790650000   -0.0000000000
H        0.1456000000    0.0003320000    0.0000000000
