13   
From optimize.out: Frame 1 / 37, Energy=    -286.5877433464
C        0.0480270000   -0.2414660000   -0.0000000000
C       -0.1531020000    0.4607580000   -0.0000000000
C       -0.2000650000    0.7855150000   -0.0000000000
C       -0.1547250000   -0.0879510000   -0.0000000000
C       -0.0758220000   -0.7509360000   -0.0000000000
N       -0.3313620000    0.5733790000   -0.0000000000
H        0.1455440000    0.0209230000   -0.0000000000
H        0.1621460000    0.0071120000   -0.0000000000
H        0.1797770000   -0.0288320000   -0.0000000000
H        0.1770600000    0.0205720000    0.0000000000
H        0.1751360000    0.0346300000   -0.0000000000
C       -0.1404990000    0.2225940000   -0.0000000000
H        0.1678840000   -0.0162970000   -0.0000000000
13   
From optimize.out: Frame 2 / 37, Energy=    -286.6430874522
C        0.0506360000   -0.2136360000   -0.0000000000
C       -0.1447650000    0.4320590000   -0.0000000000
C       -0.2033610000    0.7764730000   -0.0000000000
C       -0.1408250000   -0.0212730000   -0.0000000000
C       -0.0706110000   -0.6380740000   -0.0000000000
N       -0.3428790000    0.5238420000   -0.0000000000
H        0.1432290000    0.0174520000   -0.0000000000
H        0.1582260000    0.0035040000   -0.0000000000
H        0.1777330000   -0.0257520000   -0.0000000000
H        0.1719180000    0.0166610000    0.0000000000
H        0.1758900000    0.0320000000   -0.0000000000
C       -0.1388040000    0.1085950000   -0.0000000000
H        0.1636120000   -0.0118510000   -0.0000000000
13   
From optimize.out: Frame 3 / 37, Energy=    -286.6952452699
C        0.0490740000   -0.1784430000   -0.0000000000
C       -0.1401980000    0.3679860000   -0.0000000000
C       -0.2066280000    0.7600880000   -0.0000000000
C       -0.1307080000    0.0042470000   -0.0000000000
C       -0.0595190000   -0.4937740000   -0.0000000000
N       -0.3520300000    0.4575950000   -0.0000000000
H        0.1402080000    0.0134250000   -0.0000000000
H        0.1544270000    0.0014600000   -0.0000000000
H        0.1765310000   -0.0249830000   -0.0000000000
H        0.1678850000    0.0182450000   -0.0000000000
H        0.1750620000    0.0268840000   -0.0000000000
C       -0.1331580000    0.0553130000   -0.0000000000
H        0.1590540000   -0.0080420000   -0.0000000000
13   
From optimize.out: Frame 4 / 37, Energy=    -286.7425620681
C        0.0432660000   -0.1341030000   -0.0000000000
C       -0.1385120000    0.2762440000   -0.0000000000
C       -0.2097990000    0.7769840000   -0.0000000000
C       -0.1259430000    0.0168730000   -0.0000000000
C       -0.0429270000   -0.3493020000   -0.0000000000
N       -0.3555760000    0.3670930000   -0.0000000000
H        0.1375410000    0.0092170000   -0.0000000000
H        0.1512940000    0.0021870000   -0.0000000000
H        0.1746820000   -0.0270660000   -0.0000000000
H        0.1652160000    0.0217520000   -0.0000000000
H        0.1714650000    0.0211510000   -0.0000000000
C       -0.1257740000    0.0232780000   -0.0000000000
H        0.1550690000   -0.0043090000   -0.0000000000
13   
From optimize.out: Frame 5 / 37, Energy=    -286.7816333387
C        0.0336120000   -0.0772740000   -0.0000000000
C       -0.1397580000    0.1528570000   -0.0000000000
C       -0.2115730000    0.8463750000   -0.0000000000
C       -0.1285550000    0.0257950000   -0.0000000000
C       -0.0214620000   -0.2073740000   -0.0000000000
N       -0.3504310000    0.2432740000   -0.0000000000
H        0.1359730000    0.0052580000   -0.0000000000
H        0.1488230000    0.0075860000   -0.0000000000
H        0.1709560000   -0.0333260000   -0.0000000000
H        0.1639700000    0.0249270000   -0.0000000000
H        0.1644310000    0.0148100000   -0.0000000000
C       -0.1176220000   -0.0032840000   -0.0000000000
H        0.1516360000    0.0003770000   -0.0000000000
13   
From optimize.out: Frame 6 / 37, Energy=    -286.8072292042
C        0.0246160000   -0.0228730000   -0.0000000000
C       -0.1422180000    0.0380570000   -0.0000000000
C       -0.2088470000    0.9299500000   -0.0000000000
C       -0.1372270000    0.0366100000   -0.0000000000
C       -0.0031330000   -0.0964610000   -0.0000000000
N       -0.3397390000    0.1262380000   -0.0000000000
H        0.1363790000    0.0027310000   -0.0000000000
H        0.1470750000    0.0158810000   -0.0000000000
H        0.1657950000   -0.0414660000   -0.0000000000
H        0.1626230000    0.0246840000   -0.0000000000
H        0.1561330000    0.0087950000   -0.0000000000
C       -0.1101130000   -0.0299950000   -0.0000000000
H        0.1486570000    0.0078490000   -0.0000000000
13   
From optimize.out: Frame 7 / 37, Energy=    -286.8220107331
C        0.0232620000    0.0053780000   -0.0000000000
C       -0.1443260000   -0.0184500000   -0.0000000000
C       -0.2033610000    0.9742460000   -0.0000000000
C       -0.1428790000    0.0509990000   -0.0000000000
C        0.0040130000   -0.0489100000   -0.0000000000
N       -0.3386420000    0.0702510000   -0.0000000000
H        0.1378920000    0.0018200000   -0.0000000000
H        0.1458170000    0.0213640000   -0.0000000000
H        0.1624790000   -0.0461880000   -0.0000000000
H        0.1607440000    0.0217360000   -0.0000000000
H        0.1528180000    0.0054050000   -0.0000000000
C       -0.1046890000   -0.0546130000   -0.0000000000
H        0.1468710000    0.0169630000   -0.0000000000
13   
From optimize.out: Frame 8 / 37, Energy=    -286.8329242316
C        0.0225590000    0.0253540000   -0.0000000000
C       -0.1455450000   -0.0536410000   -0.0000000000
C       -0.1989200000    1.0033320000   -0.0000000000
C       -0.1440630000    0.0596550000   -0.0000000000
C        0.0095500000   -0.0184090000   -0.0000000000
N       -0.3374930000    0.0348100000   -0.0000000000
H        0.1389980000    0.0012540000   -0.0000000000
H        0.1452510000    0.0253190000   -0.0000000000
H        0.1608610000   -0.0488100000   -0.0000000000
H        0.1588960000    0.0175040000   -0.0000000000
H        0.1494920000    0.0028470000   -0.0000000000
C       -0.1055950000   -0.0725830000   -0.0000000000
H        0.1460080000    0.0233690000   -0.0000000000
13   
From optimize.out: Frame 9 / 37, Energy=    -286.8424465427
C        0.0242170000    0.0391600000   -0.0000000000
C       -0.1461110000   -0.0734470000   -0.0000000000
C       -0.1952650000    1.0131400000   -0.0000000000
C       -0.1438820000    0.0665310000   -0.0000000000
C        0.0118870000   -0.0025690000   -0.0000000000
N       -0.3426040000    0.0163460000   -0.0000000000
H        0.1403150000    0.0008830000   -0.0000000000
H        0.1447080000    0.0276540000   -0.0000000000
H        0.1599580000   -0.0495130000   -0.0000000000
H        0.1567510000    0.0145260000   -0.0000000000
H        0.1492010000    0.0013090000   -0.0000000000
C       -0.1048800000   -0.0840330000   -0.0000000000
H        0.1457050000    0.0300140000   -0.0000000000
13   
From optimize.out: Frame 10 / 37, Energy=    -286.8508919661
C        0.0235220000    0.0545270000   -0.0000000000
C       -0.1457460000   -0.0891210000   -0.0000000000
C       -0.1919940000    1.0173280000   -0.0000000000
C       -0.1424040000    0.0704400000   -0.0000000000
C        0.0161470000    0.0094510000   -0.0000000000
N       -0.3430240000    0.0033840000   -0.0000000000
H        0.1410870000    0.0004340000   -0.0000000000
H        0.1443320000    0.0291240000   -0.0000000000
H        0.1596970000   -0.0490720000   -0.0000000000
H        0.1545310000    0.0112010000   -0.0000000000
H        0.1469190000    0.0001290000   -0.0000000000
C       -0.1085780000   -0.0908640000   -0.0000000000
H        0.1455110000    0.0330380000   -0.0000000000
13   
From optimize.out: Frame 11 / 37, Energy=    -286.8585847363
C        0.0244870000    0.0696280000   -0.0000000000
C       -0.1443850000   -0.1008320000   -0.0000000000
C       -0.1901650000    1.0108660000   -0.0000000000
C       -0.1399890000    0.0755490000   -0.0000000000
C        0.0181310000    0.0166550000   -0.0000000000
N       -0.3477650000   -0.0023180000   -0.0000000000
H        0.1416450000   -0.0001660000   -0.0000000000
H        0.1438090000    0.0299920000   -0.0000000000
H        0.1592180000   -0.0483900000   -0.0000000000
H        0.1522480000    0.0091140000   -0.0000000000
H        0.1466000000   -0.0005830000   -0.0000000000
C       -0.1095750000   -0.0958090000   -0.0000000000
H        0.1457420000    0.0362950000   -0.0000000000
13   
From optimize.out: Frame 12 / 37, Energy=    -286.8654868593
C        0.0237780000    0.0886470000   -0.0000000000
C       -0.1423350000   -0.1122650000   -0.0000000000
C       -0.1886840000    0.9971610000   -0.0000000000
C       -0.1375630000    0.0849070000   -0.0000000000
C        0.0206040000    0.0221490000   -0.0000000000
N       -0.3501090000   -0.0048970000   -0.0000000000
H        0.1418510000   -0.0011100000   -0.0000000000
H        0.1431990000    0.0302970000   -0.0000000000
H        0.1586940000   -0.0473560000   -0.0000000000
H        0.1499430000    0.0069070000   -0.0000000000
H        0.1454700000   -0.0010640000   -0.0000000000
C       -0.1109040000   -0.1012470000   -0.0000000000
H        0.1460570000    0.0378700000   -0.0000000000
13   
From optimize.out: Frame 13 / 37, Energy=    -286.8717859321
C        0.0229410000    0.1122170000   -0.0000000000
C       -0.1387540000   -0.1246350000   -0.0000000000
C       -0.1881900000    0.9759240000   -0.0000000000
C       -0.1349820000    0.0973070000   -0.0000000000
C        0.0229980000    0.0277430000   -0.0000000000
N       -0.3539360000   -0.0049970000   -0.0000000000
H        0.1417310000   -0.0024130000   -0.0000000000
H        0.1426120000    0.0303020000   -0.0000000000
H        0.1578760000   -0.0463350000   -0.0000000000
H        0.1479230000    0.0047660000   -0.0000000000
H        0.1451040000   -0.0015220000   -0.0000000000
C       -0.1115740000   -0.1068530000   -0.0000000000
H        0.1462490000    0.0384970000   -0.0000000000
13   
From optimize.out: Frame 14 / 37, Energy=    -286.8775162477
C        0.0203780000    0.1389180000   -0.0000000000
C       -0.1345770000   -0.1355910000   -0.0000000000
C       -0.1880290000    0.9460050000   -0.0000000000
C       -0.1336360000    0.1172680000   -0.0000000000
C        0.0251130000    0.0311580000   -0.0000000000
N       -0.3554590000   -0.0023410000   -0.0000000000
H        0.1416060000   -0.0040760000   -0.0000000000
H        0.1418830000    0.0297900000   -0.0000000000
H        0.1567830000   -0.0451950000   -0.0000000000
H        0.1458150000    0.0024750000   -0.0000000000
H        0.1441940000   -0.0017580000   -0.0000000000
C       -0.1105280000   -0.1152670000   -0.0000000000
H        0.1464570000    0.0386130000   -0.0000000000
13   
From optimize.out: Frame 15 / 37, Energy=    -286.8829611968
C        0.0173810000    0.1710790000   -0.0000000000
C       -0.1287490000   -0.1474670000   -0.0000000000
C       -0.1882050000    0.9084760000   -0.0000000000
C       -0.1328080000    0.1391480000   -0.0000000000
C        0.0276580000    0.0355610000   -0.0000000000
N       -0.3585010000    0.0021980000   -0.0000000000
H        0.1411350000   -0.0060610000   -0.0000000000
H        0.1413640000    0.0288230000   -0.0000000000
H        0.1554130000   -0.0438330000   -0.0000000000
H        0.1441600000   -0.0000090000   -0.0000000000
H        0.1441580000   -0.0021220000   -0.0000000000
C       -0.1093860000   -0.1230580000   -0.0000000000
H        0.1463820000    0.0372640000   -0.0000000000
13   
From optimize.out: Frame 16 / 37, Energy=    -286.8881831907
C        0.0131210000    0.2030790000   -0.0000000000
C       -0.1226860000   -0.1554590000   -0.0000000000
C       -0.1878950000    0.8640760000   -0.0000000000
C       -0.1333440000    0.1683530000   -0.0000000000
C        0.0299100000    0.0364770000   -0.0000000000
N       -0.3599930000    0.0096550000   -0.0000000000
H        0.1408340000   -0.0081880000   -0.0000000000
H        0.1407400000    0.0273800000   -0.0000000000
H        0.1537050000   -0.0422660000   -0.0000000000
H        0.1424960000   -0.0027190000   -0.0000000000
H        0.1436400000   -0.0022150000   -0.0000000000
C       -0.1068420000   -0.1336670000   -0.0000000000
H        0.1463140000    0.0354930000   -0.0000000000
13   
From optimize.out: Frame 17 / 37, Energy=    -286.8932750543
C        0.0080980000    0.2362530000   -0.0000000000
C       -0.1159890000   -0.1610130000   -0.0000000000
C       -0.1869520000    0.8131960000   -0.0000000000
C       -0.1351160000    0.2012950000   -0.0000000000
C        0.0324490000    0.0354550000   -0.0000000000
N       -0.3617940000    0.0198510000   -0.0000000000
H        0.1403590000   -0.0103960000   -0.0000000000
H        0.1403350000    0.0254240000   -0.0000000000
H        0.1516190000   -0.0403570000   -0.0000000000
H        0.1409630000   -0.0056390000   -0.0000000000
H        0.1435200000   -0.0022350000   -0.0000000000
C       -0.1036680000   -0.1446670000   -0.0000000000
H        0.1461770000    0.0328330000   -0.0000000000
13   
From optimize.out: Frame 18 / 37, Energy=    -286.8982517582
C        0.0027890000    0.2658270000   -0.0000000000
C       -0.1095510000   -0.1619640000   -0.0000000000
C       -0.1849670000    0.7593620000   -0.0000000000
C       -0.1379280000    0.2378830000   -0.0000000000
C        0.0351400000    0.0305750000   -0.0000000000
N       -0.3637140000    0.0331420000   -0.0000000000
H        0.1400550000   -0.0124480000   -0.0000000000
H        0.1399790000    0.0230670000   -0.0000000000
H        0.1492280000   -0.0381660000   -0.0000000000
H        0.1396430000   -0.0086740000   -0.0000000000
H        0.1433320000   -0.0020470000   -0.0000000000
C       -0.1000210000   -0.1562160000   -0.0000000000
H        0.1460170000    0.0296590000   -0.0000000000
13   
From optimize.out: Frame 19 / 37, Energy=    -286.9030567768
C       -0.0024400000    0.2890960000   -0.0000000000
C       -0.1037060000   -0.1574240000   -0.0000000000
C       -0.1818170000    0.7041900000   -0.0000000000
C       -0.1418370000    0.2780430000   -0.0000000000
C        0.0382210000    0.0200350000   -0.0000000000
N       -0.3660410000    0.0508610000   -0.0000000000
H        0.1398130000   -0.0141290000   -0.0000000000
H        0.1397730000    0.0202740000   -0.0000000000
H        0.1465730000   -0.0357860000   -0.0000000000
H        0.1382680000   -0.0118210000   -0.0000000000
H        0.1432870000   -0.0015530000   -0.0000000000
C       -0.0959520000   -0.1680520000   -0.0000000000
H        0.1458570000    0.0262690000   -0.0000000000
13   
From optimize.out: Frame 20 / 37, Energy=    -286.9075905897
C       -0.0065850000    0.3008890000   -0.0000000000
C       -0.0993320000   -0.1461970000   -0.0000000000
C       -0.1773830000    0.6514040000   -0.0000000000
C       -0.1463110000    0.3206500000   -0.0000000000
C        0.0417090000    0.0027020000   -0.0000000000
N       -0.3693450000    0.0741570000   -0.0000000000
H        0.1399100000   -0.0151650000   -0.0000000000
H        0.1395410000    0.0171380000   -0.0000000000
H        0.1439070000   -0.0333550000   -0.0000000000
H        0.1371390000   -0.0149540000   -0.0000000000
H        0.1432280000   -0.0007100000   -0.0000000000
C       -0.0920960000   -0.1793880000   -0.0000000000
H        0.1456180000    0.0228280000   -0.0000000000
13   
From optimize.out: Frame 21 / 37, Energy=    -286.9117338504
C       -0.0091770000    0.2967970000   -0.0000000000
C       -0.0965660000   -0.1257690000   -0.0000000000
C       -0.1715840000    0.5993600000   -0.0000000000
C       -0.1512170000    0.3667270000   -0.0000000000
C        0.0456520000   -0.0236230000   -0.0000000000
N       -0.3738620000    0.1058740000   -0.0000000000
H        0.1402190000   -0.0152840000   -0.0000000000
H        0.1394090000    0.0136390000   -0.0000000000
H        0.1412690000   -0.0308890000   -0.0000000000
H        0.1357480000   -0.0180510000   -0.0000000000
H        0.1433170000    0.0006420000   -0.0000000000
C       -0.0885190000   -0.1890100000   -0.0000000000
H        0.1453110000    0.0195850000   -0.0000000000
13   
From optimize.out: Frame 22 / 37, Energy=    -286.9153800049
C       -0.0091670000    0.2721190000   -0.0000000000
C       -0.0962900000   -0.0938240000   -0.0000000000
C       -0.1646290000    0.5486030000   -0.0000000000
C       -0.1554150000    0.4119490000   -0.0000000000
C        0.0495930000   -0.0567400000   -0.0000000000
N       -0.3800140000    0.1462030000   -0.0000000000
H        0.1410390000   -0.0142780000   -0.0000000000
H        0.1390090000    0.0097780000   -0.0000000000
H        0.1393470000   -0.0283850000   -0.0000000000
H        0.1347840000   -0.0208190000   -0.0000000000
H        0.1432020000    0.0023540000   -0.0000000000
C       -0.0863070000   -0.1933610000   -0.0000000000
H        0.1448470000    0.0164010000   -0.0000000000
13   
From optimize.out: Frame 23 / 37, Energy=    -286.9184196809
C       -0.0067930000    0.2265490000   -0.0000000000
C       -0.0973980000   -0.0472320000   -0.0000000000
C       -0.1564230000    0.4895910000   -0.0000000000
C       -0.1583950000    0.4536690000   -0.0000000000
C        0.0530120000   -0.0939670000   -0.0000000000
N       -0.3880150000    0.1959920000   -0.0000000000
H        0.1418960000   -0.0121680000   -0.0000000000
H        0.1389030000    0.0054950000   -0.0000000000
H        0.1376300000   -0.0254980000   -0.0000000000
H        0.1332510000   -0.0230930000   -0.0000000000
H        0.1433330000    0.0042720000   -0.0000000000
C       -0.0853980000   -0.1868290000   -0.0000000000
H        0.1443950000    0.0132200000   -0.0000000000
13   
From optimize.out: Frame 24 / 37, Energy=    -286.9206801634
C       -0.0021380000    0.1658920000   -0.0000000000
C       -0.1013810000    0.0104640000   -0.0000000000
C       -0.1478730000    0.4308350000   -0.0000000000
C       -0.1582190000    0.4802550000   -0.0000000000
C        0.0547700000   -0.1250440000   -0.0000000000
N       -0.3959440000    0.2450030000   -0.0000000000
H        0.1431520000   -0.0093230000   -0.0000000000
H        0.1377870000    0.0009530000   -0.0000000000
H        0.1378260000   -0.0225940000   -0.0000000000
H        0.1333990000   -0.0243410000   -0.0000000000
H        0.1424280000    0.0058530000   -0.0000000000
C       -0.0875130000   -0.1678630000   -0.0000000000
H        0.1437050000    0.0099110000   -0.0000000000
13   
From optimize.out: Frame 25 / 37, Energy=    -286.9220406277
C        0.0042560000    0.0942320000   -0.0000000000
C       -0.1045080000    0.0816320000   -0.0000000000
C       -0.1386440000    0.3535780000   -0.0000000000
C       -0.1561320000    0.4910360000   -0.0000000000
C        0.0552130000   -0.1497710000   -0.0000000000
N       -0.4066080000    0.2995360000   -0.0000000000
H        0.1437650000   -0.0061290000   -0.0000000000
H        0.1381960000   -0.0038320000   -0.0000000000
H        0.1369560000   -0.0189130000   -0.0000000000
H        0.1318940000   -0.0248430000   -0.0000000000
H        0.1427550000    0.0067530000   -0.0000000000
C       -0.0910150000   -0.1296070000   -0.0000000000
H        0.1438710000    0.0063270000   -0.0000000000
13   
From optimize.out: Frame 26 / 37, Energy=    -286.9227005539
C        0.0100440000    0.0313530000   -0.0000000000
C       -0.1103900000    0.1490500000   -0.0000000000
C       -0.1312010000    0.2935750000   -0.0000000000
C       -0.1507920000    0.4810270000   -0.0000000000
C        0.0535560000   -0.1585950000   -0.0000000000
N       -0.4123800000    0.3340390000   -0.0000000000
H        0.1441630000   -0.0033050000   -0.0000000000
H        0.1366030000   -0.0082010000   -0.0000000000
H        0.1391200000   -0.0160610000   -0.0000000000
H        0.1334760000   -0.0242600000   -0.0000000000
H        0.1409600000    0.0068690000   -0.0000000000
C       -0.0963870000   -0.0885150000   -0.0000000000
H        0.1432300000    0.0030240000   -0.0000000000
13   
From optimize.out: Frame 27 / 37, Energy=    -286.9230283372
C        0.0153550000   -0.0047490000   -0.0000000000
C       -0.1135380000    0.1915440000   -0.0000000000
C       -0.1279020000    0.2540860000   -0.0000000000
C       -0.1482790000    0.4627130000   -0.0000000000
C        0.0522480000   -0.1588650000   -0.0000000000
N       -0.4177690000    0.3547410000   -0.0000000000
H        0.1443620000   -0.0018190000   -0.0000000000
H        0.1367210000   -0.0106620000   -0.0000000000
H        0.1394430000   -0.0141730000   -0.0000000000
H        0.1335680000   -0.0235670000   -0.0000000000
H        0.1412560000    0.0063480000   -0.0000000000
C       -0.0992150000   -0.0567420000   -0.0000000000
H        0.1437480000    0.0011470000   -0.0000000000
13   
From optimize.out: Frame 28 / 37, Energy=    -286.9235710770
C        0.0219220000   -0.0480430000   -0.0000000000
C       -0.1190270000    0.2467860000   -0.0000000000
C       -0.1222540000    0.2007130000   -0.0000000000
C       -0.1440570000    0.4336760000   -0.0000000000
C        0.0484160000   -0.1514390000   -0.0000000000
N       -0.4213740000    0.3721140000   -0.0000000000
H        0.1435980000    0.0002220000   -0.0000000000
H        0.1365340000   -0.0135750000   -0.0000000000
H        0.1397220000   -0.0116460000   -0.0000000000
H        0.1333470000   -0.0223940000   -0.0000000000
H        0.1416530000    0.0054920000   -0.0000000000
C       -0.1020240000   -0.0104050000   -0.0000000000
H        0.1435420000   -0.0015000000   -0.0000000000
13   
From optimize.out: Frame 29 / 37, Energy=    -286.9239547601
C        0.0284910000   -0.0802850000   -0.0000000000
C       -0.1250540000    0.2959940000   -0.0000000000
C       -0.1174390000    0.1546990000   -0.0000000000
C       -0.1385990000    0.3955530000   -0.0000000000
C        0.0424900000   -0.1373280000   -0.0000000000
N       -0.4218010000    0.3802010000   -0.0000000000
H        0.1428200000    0.0018120000   -0.0000000000
H        0.1350000000   -0.0159680000   -0.0000000000
H        0.1412410000   -0.0094880000   -0.0000000000
H        0.1338850000   -0.0206390000   -0.0000000000
H        0.1418770000    0.0046190000   -0.0000000000
C       -0.1055930000    0.0346140000   -0.0000000000
H        0.1426840000   -0.0037840000   -0.0000000000
13   
From optimize.out: Frame 30 / 37, Energy=    -286.9240991265
C        0.0318260000   -0.0949410000   -0.0000000000
C       -0.1282360000    0.3184730000   -0.0000000000
C       -0.1146140000    0.1279710000   -0.0000000000
C       -0.1362020000    0.3764380000   -0.0000000000
C        0.0394150000   -0.1281860000   -0.0000000000
N       -0.4222500000    0.3833900000   -0.0000000000
H        0.1427960000    0.0025490000   -0.0000000000
H        0.1346310000   -0.0170020000   -0.0000000000
H        0.1410570000   -0.0082260000   -0.0000000000
H        0.1342830000   -0.0197160000   -0.0000000000
H        0.1421260000    0.0041700000   -0.0000000000
C       -0.1074190000    0.0601250000   -0.0000000000
H        0.1425870000   -0.0050450000   -0.0000000000
13   
From optimize.out: Frame 31 / 37, Energy=    -286.9242523273
C        0.0352070000   -0.1095780000   -0.0000000000
C       -0.1312850000    0.3430890000   -0.0000000000
C       -0.1121270000    0.1008740000   -0.0000000000
C       -0.1315260000    0.3492300000   -0.0000000000
C        0.0354720000   -0.1148050000   -0.0000000000
N       -0.4233480000    0.3869860000   -0.0000000000
H        0.1428710000    0.0032420000   -0.0000000000
H        0.1340740000   -0.0181360000   -0.0000000000
H        0.1421960000   -0.0070160000   -0.0000000000
H        0.1342410000   -0.0184340000   -0.0000000000
H        0.1430310000    0.0035380000   -0.0000000000
C       -0.1104380000    0.0873220000   -0.0000000000
H        0.1416310000   -0.0063110000   -0.0000000000
13   
From optimize.out: Frame 32 / 37, Energy=    -286.9242960251
C        0.0367970000   -0.1192460000   -0.0000000000
C       -0.1325970000    0.3579210000   -0.0000000000
C       -0.1097420000    0.0794530000   -0.0000000000
C       -0.1296080000    0.3350940000   -0.0000000000
C        0.0328070000   -0.1060460000   -0.0000000000
N       -0.4232160000    0.3888820000   -0.0000000000
H        0.1423460000    0.0037340000   -0.0000000000
H        0.1343190000   -0.0188280000   -0.0000000000
H        0.1418060000   -0.0059740000   -0.0000000000
H        0.1345160000   -0.0177670000   -0.0000000000
H        0.1428700000    0.0030980000   -0.0000000000
C       -0.1121400000    0.1069440000   -0.0000000000
H        0.1418420000   -0.0072630000   -0.0000000000
13   
From optimize.out: Frame 33 / 37, Energy=    -286.9243242796
C        0.0359200000   -0.1139980000   -0.0000000000
C       -0.1318450000    0.3491560000   -0.0000000000
C       -0.1109200000    0.0900130000   -0.0000000000
C       -0.1310590000    0.3432680000   -0.0000000000
C        0.0348330000   -0.1104150000   -0.0000000000
N       -0.4232750000    0.3869350000   -0.0000000000
H        0.1426000000    0.0034770000   -0.0000000000
H        0.1343360000   -0.0184340000   -0.0000000000
H        0.1419390000   -0.0064590000   -0.0000000000
H        0.1344530000   -0.0181580000   -0.0000000000
H        0.1426790000    0.0033010000   -0.0000000000
C       -0.1116700000    0.0981630000   -0.0000000000
H        0.1420090000   -0.0068470000   -0.0000000000
13   
From optimize.out: Frame 34 / 37, Energy=    -286.9243322818
C        0.0361280000   -0.1153770000   -0.0000000000
C       -0.1321680000    0.3516510000   -0.0000000000
C       -0.1106730000    0.0878110000   -0.0000000000
C       -0.1306680000    0.3415560000   -0.0000000000
C        0.0345910000   -0.1094720000   -0.0000000000
N       -0.4232380000    0.3871020000   -0.0000000000
H        0.1425770000    0.0035400000   -0.0000000000
H        0.1343140000   -0.0185480000   -0.0000000000
H        0.1420190000   -0.0063570000   -0.0000000000
H        0.1343440000   -0.0180820000   -0.0000000000
H        0.1426950000    0.0032520000   -0.0000000000
C       -0.1118010000    0.0998460000   -0.0000000000
H        0.1418800000   -0.0069230000   -0.0000000000
13   
From optimize.out: Frame 35 / 37, Energy=    -286.9243356283
C        0.0361910000   -0.1151330000   -0.0000000000
C       -0.1321780000    0.3513950000   -0.0000000000
C       -0.1107380000    0.0884360000   -0.0000000000
C       -0.1308950000    0.3423570000   -0.0000000000
C        0.0347370000   -0.1098360000   -0.0000000000
N       -0.4231950000    0.3867250000   -0.0000000000
H        0.1425620000    0.0035240000   -0.0000000000
H        0.1343000000   -0.0185380000   -0.0000000000
H        0.1419510000   -0.0063870000   -0.0000000000
H        0.1342960000   -0.0181200000   -0.0000000000
H        0.1427420000    0.0032680000   -0.0000000000
C       -0.1116890000    0.0992020000   -0.0000000000
H        0.1419150000   -0.0068940000   -0.0000000000
13   
From optimize.out: Frame 36 / 37, Energy=    -286.9243383249
C        0.0361840000   -0.1153520000   -0.0000000000
C       -0.1321500000    0.3517310000   -0.0000000000
C       -0.1107390000    0.0879690000   -0.0000000000
C       -0.1308000000    0.3423260000   -0.0000000000
C        0.0347680000   -0.1098200000   -0.0000000000
N       -0.4232050000    0.3867890000   -0.0000000000
H        0.1425490000    0.0035350000   -0.0000000000
H        0.1343170000   -0.0185550000   -0.0000000000
H        0.1419650000   -0.0063610000   -0.0000000000
H        0.1343750000   -0.0181190000   -0.0000000000
H        0.1426490000    0.0032640000   -0.0000000000
C       -0.1118150000    0.0995040000   -0.0000000000
H        0.1419010000   -0.0069110000   -0.0000000000
