13   
From optimize.out: Frame 1 / 2, Energy=    -286.9514917220
C        1.8971984251    0.2740493145   -0.5361073664
C        1.2459137076   -0.9632674531   -0.6346891543
C       -0.0765072699   -1.0594478029   -0.2370396338
C       -0.7452312499    0.0937983533    0.2616426217
C        0.0336572926    1.2908312153    0.3095847326
N        1.3003488156    1.3867016300   -0.0709268702
H        2.9362621726    0.3797410279   -0.8412012353
H        1.7780705961   -1.8285668725   -1.0197773807
H       -0.6116480665   -2.0038752071   -0.2999359895
H       -2.6774642220   -0.8299070082    0.6468948197
H       -0.4300831383    2.2048005250    0.6816333215
C       -2.0859487614    0.0782627683    0.6823172581
H       -2.5645683021    0.9768795099    1.0576048761
13   
From optimize.out: Frame 1 / 2, Energy=    -286.8443435620
C        1.9520930701    0.1417560943   -0.2160873481
C        0.9823690900   -0.7882895006   -0.2046201354
C       -0.3098947815   -0.0909953903   -0.5382013100
C       -1.4479077129   -0.2383205515    0.4563373940
C        0.1970923532    1.3341743801   -0.6791093460
N        1.4670966099    1.4537174408   -0.5083058303
H        3.0128296271    0.0119277222   -0.0348449570
H        1.0787567367   -1.8484835737   -0.0097138518
H       -0.6741993271   -0.4167486934   -1.5294949013
H       -2.3782942661    0.2727043552    0.1752409552
H       -0.4357968973    2.1881709586   -0.9119203221
C       -1.3876637618   -0.8985148172    1.5895185539
H       -2.0564807402   -1.1210984246    2.4112010989
