13   
Frame   0 IRC: Energy =  -286.8761179876 ; +0.0000 kcal/mol
C       -0.1757020000   -0.0068910000   -0.0000000000
C        0.0332430000   -0.0092460000   -0.0000000000
C       -0.2838540000    0.0712190000   -0.0000000000
C        0.0421880000    0.9375620000    0.0000000000
C        0.0323210000   -0.0394120000   -0.0000000000
N       -0.1893220000    0.0049460000   -0.0000000000
H        0.1360850000    0.0004480000   -0.0000000000
H        0.1431780000   -0.0004140000   -0.0000000000
H        0.1872830000    0.0586630000   -0.0000000000
H        0.1446390000    0.0842940000    0.0000000000
H        0.1436360000   -0.0000880000   -0.0000000000
C       -0.3695810000   -0.1398950000    0.0000000000
H        0.1558870000    0.0388140000    0.0000000000
13   
Frame   1 IRC: Energy =  -286.8761172375 ; +0.0005 kcal/mol
C       -0.1759990000   -0.0067980000   -0.0000000000
C        0.0337860000   -0.0093800000   -0.0000000000
C       -0.2851420000    0.0714630000   -0.0000000000
C        0.0432360000    0.9375870000    0.0000000000
C        0.0328380000   -0.0395730000   -0.0000000000
N       -0.1893470000    0.0049480000   -0.0000000000
H        0.1360770000    0.0004430000   -0.0000000000
H        0.1431770000   -0.0004130000   -0.0000000000
H        0.1872500000    0.0586450000   -0.0000000000
H        0.1446310000    0.0842660000    0.0000000000
H        0.1436450000   -0.0000890000   -0.0000000000
C       -0.3700490000   -0.1398470000    0.0000000000
H        0.1558970000    0.0387480000    0.0000000000
13   
Frame   2 IRC: Energy =  -286.8761103867 ; +0.0048 kcal/mol
C       -0.1768050000   -0.0067570000   -0.0000000000
C        0.0350870000   -0.0099220000   -0.0000000000
C       -0.2875700000    0.0721450000   -0.0000000000
C        0.0447430000    0.9373090000    0.0000000000
C        0.0325260000   -0.0390180000   -0.0000000000
N       -0.1890200000    0.0048600000   -0.0000000000
H        0.1360640000    0.0004550000   -0.0000000000
H        0.1431570000   -0.0004180000   -0.0000000000
H        0.1873910000    0.0585380000   -0.0000000000
H        0.1446120000    0.0842410000    0.0000000000
H        0.1436590000   -0.0000860000   -0.0000000000
C       -0.3697490000   -0.1400340000    0.0000000000
H        0.1559050000    0.0386870000    0.0000000000
13   
Frame   3 IRC: Energy =  -286.8760921896 ; +0.0162 kcal/mol
C       -0.1791060000   -0.0067500000   -0.0000000000
C        0.0412710000   -0.0109570000   -0.0000000000
C       -0.2894740000    0.0712640000   -0.0000000000
C        0.0421870000    0.9402440000    0.0000000000
C        0.0291350000   -0.0374850000   -0.0000000000
N       -0.1882580000    0.0048540000   -0.0000000000
H        0.1361420000    0.0004500000   -0.0000000000
H        0.1430410000   -0.0004140000   -0.0000000000
H        0.1876800000    0.0587040000   -0.0000000000
H        0.1446330000    0.0842440000    0.0000000000
H        0.1437720000   -0.0000910000   -0.0000000000
C       -0.3669580000   -0.1427950000    0.0000000000
H        0.1559350000    0.0387300000    0.0000000000
13   
Frame   4 IRC: Energy =  -286.8760304840 ; +0.0549 kcal/mol
C       -0.1821660000   -0.0065930000   -0.0000000000
C        0.0487510000   -0.0119770000   -0.0000000000
C       -0.2949380000    0.0710270000   -0.0000000000
C        0.0433380000    0.9413780000    0.0000000000
C        0.0265080000   -0.0357520000   -0.0000000000
N       -0.1874950000    0.0047220000   -0.0000000000
H        0.1361380000    0.0004690000   -0.0000000000
H        0.1430180000   -0.0004180000   -0.0000000000
H        0.1880440000    0.0588020000   -0.0000000000
H        0.1445960000    0.0842750000    0.0000000000
H        0.1438780000   -0.0000930000   -0.0000000000
C       -0.3655890000   -0.1448100000    0.0000000000
H        0.1559160000    0.0389700000    0.0000000000
13   
Frame   5 IRC: Energy =  -286.8759640563 ; +0.0966 kcal/mol
C       -0.1835150000   -0.0078830000   -0.0000000000
C        0.0535800000   -0.0128200000   -0.0000000000
C       -0.2976580000    0.0733060000   -0.0000000000
C        0.0470640000    0.9414840000    0.0000000000
C        0.0241370000   -0.0334740000   -0.0000000000
N       -0.1869790000    0.0052410000   -0.0000000000
H        0.1360520000    0.0005890000   -0.0000000000
H        0.1429730000   -0.0004930000   -0.0000000000
H        0.1875470000    0.0582110000   -0.0000000000
H        0.1447350000    0.0844270000    0.0000000000
H        0.1439260000   -0.0000720000   -0.0000000000
C       -0.3679000000   -0.1479610000    0.0000000000
H        0.1560370000    0.0394460000    0.0000000000
13   
Frame   6 IRC: Energy =  -286.8756478662 ; +0.2950 kcal/mol
C       -0.1816430000   -0.0183660000   -0.0000000000
C        0.0458810000   -0.0039360000   -0.0000000000
C       -0.2697070000    0.0637290000   -0.0000000000
C        0.0466370000    0.9463620000    0.0000000000
C        0.0024110000   -0.0196970000   -0.0000000000
N       -0.1847520000    0.0075710000   -0.0000000000
H        0.1360880000    0.0010290000   -0.0000000000
H        0.1431550000   -0.0007560000   -0.0000000000
H        0.1888480000    0.0531310000   -0.0000000000
H        0.1447690000    0.0852190000    0.0000000000
H        0.1436740000    0.0001460000   -0.0000000000
C       -0.3712590000   -0.1552780000    0.0000000000
H        0.1558980000    0.0408450000    0.0000000000
13   
Frame   7 IRC: Energy =  -286.8753260000 ; +0.4970 kcal/mol
C       -0.1774590000   -0.0235180000   -0.0000000000
C        0.0371770000    0.0026300000   -0.0000000000
C       -0.2518660000    0.0557790000   -0.0000000000
C        0.0534620000    0.9492780000    0.0000000000
C       -0.0096260000   -0.0130260000   -0.0000000000
N       -0.1844290000    0.0094520000   -0.0000000000
H        0.1360500000    0.0012220000   -0.0000000000
H        0.1431440000   -0.0008910000   -0.0000000000
H        0.1891350000    0.0491480000   -0.0000000000
H        0.1448800000    0.0856120000    0.0000000000
H        0.1434590000    0.0003030000   -0.0000000000
C       -0.3797670000   -0.1575000000    0.0000000000
H        0.1558390000    0.0415120000    0.0000000000
13   
Frame   8 IRC: Energy =  -286.8753010000 ; +0.5127 kcal/mol
C       -0.1772110000   -0.0238010000   -0.0000000000
C        0.0364260000    0.0031340000   -0.0000000000
C       -0.2500640000    0.0548000000   -0.0000000000
C        0.0533780000    0.9498760000    0.0000000000
C       -0.0105550000   -0.0126330000   -0.0000000000
N       -0.1843820000    0.0095970000   -0.0000000000
H        0.1360380000    0.0012350000   -0.0000000000
H        0.1431660000   -0.0009000000   -0.0000000000
H        0.1892300000    0.0489420000   -0.0000000000
H        0.1449740000    0.0854070000    0.0000000000
H        0.1434400000    0.0003140000   -0.0000000000
C       -0.3802430000   -0.1576670000    0.0000000000
H        0.1558030000    0.0416970000    0.0000000000
13   
Frame   9 IRC: Energy =  -286.8752940000 ; +0.5171 kcal/mol
C       -0.1771650000   -0.0238880000   -0.0000000000
C        0.0362530000    0.0032750000   -0.0000000000
C       -0.2497280000    0.0548270000   -0.0000000000
C        0.0533760000    0.9496180000    0.0000000000
C       -0.0105700000   -0.0125000000   -0.0000000000
N       -0.1844110000    0.0096210000   -0.0000000000
H        0.1360450000    0.0012380000   -0.0000000000
H        0.1431740000   -0.0009020000   -0.0000000000
H        0.1892160000    0.0488560000   -0.0000000000
H        0.1449050000    0.0855750000    0.0000000000
H        0.1434180000    0.0003170000   -0.0000000000
C       -0.3803320000   -0.1576360000    0.0000000000
H        0.1558200000    0.0416010000    0.0000000000
13   
Frame  10 IRC: Energy =  -286.8752780000 ; +0.5271 kcal/mol
C       -0.1769830000   -0.0240490000   -0.0000000000
C        0.0358570000    0.0035440000   -0.0000000000
C       -0.2487660000    0.0543110000   -0.0000000000
C        0.0532570000    0.9499920000    0.0000000000
C       -0.0111530000   -0.0122740000   -0.0000000000
N       -0.1844100000    0.0097250000   -0.0000000000
H        0.1360480000    0.0012460000   -0.0000000000
H        0.1431730000   -0.0009080000   -0.0000000000
H        0.1892880000    0.0486880000   -0.0000000000
H        0.1449800000    0.0854310000    0.0000000000
H        0.1434150000    0.0003240000   -0.0000000000
C       -0.3805100000   -0.1578150000    0.0000000000
H        0.1558050000    0.0417850000    0.0000000000
13   
Frame  11 IRC: Energy =  -286.8752730000 ; +0.5302 kcal/mol
C       -0.1770400000   -0.0240490000   -0.0000000000
C        0.0358290000    0.0034880000   -0.0000000000
C       -0.2486340000    0.0543080000   -0.0000000000
C        0.0530410000    0.9498590000    0.0000000000
C       -0.0113350000   -0.0122630000   -0.0000000000
N       -0.1843870000    0.0097380000   -0.0000000000
H        0.1360360000    0.0012430000   -0.0000000000
H        0.1431600000   -0.0009080000   -0.0000000000
H        0.1892860000    0.0485690000   -0.0000000000
H        0.1450340000    0.0854880000    0.0000000000
H        0.1433880000    0.0003250000   -0.0000000000
C       -0.3801510000   -0.1579000000    0.0000000000
H        0.1557720000    0.0421030000    0.0000000000
13   
Frame  12 IRC: Energy =  -286.8750590000 ; +0.6645 kcal/mol
C       -0.1753110000   -0.0259700000   -0.0000000000
C        0.0302670000    0.0073860000   -0.0000000000
C       -0.2374140000    0.0489630000   -0.0000000000
C        0.0515640000    0.9511300000    0.0000000000
C       -0.0149810000   -0.0094950000   -0.0000000000
N       -0.1846360000    0.0107810000   -0.0000000000
H        0.1360400000    0.0013220000   -0.0000000000
H        0.1433570000   -0.0009720000   -0.0000000000
H        0.1896330000    0.0466660000   -0.0000000000
H        0.1449630000    0.0856490000    0.0000000000
H        0.1431030000    0.0004110000   -0.0000000000
C       -0.3823570000   -0.1580350000    0.0000000000
H        0.1557730000    0.0421620000    0.0000000000
13   
Frame  13 IRC: Energy =  -286.8750500000 ; +0.6702 kcal/mol
C       -0.1752600000   -0.0260190000   -0.0000000000
C        0.0301000000    0.0074690000   -0.0000000000
C       -0.2368320000    0.0485680000   -0.0000000000
C        0.0514700000    0.9515250000    0.0000000000
C       -0.0154080000   -0.0094370000   -0.0000000000
N       -0.1846190000    0.0108370000   -0.0000000000
H        0.1360220000    0.0013230000   -0.0000000000
H        0.1433560000   -0.0009740000   -0.0000000000
H        0.1896700000    0.0465740000   -0.0000000000
H        0.1450590000    0.0854460000    0.0000000000
H        0.1431140000    0.0004150000   -0.0000000000
C       -0.3824090000   -0.1580960000    0.0000000000
H        0.1557360000    0.0423690000    0.0000000000
13   
Frame  14 IRC: Energy =  -286.8749660000 ; +0.7229 kcal/mol
C       -0.1747240000   -0.0265970000   -0.0000000000
C        0.0282790000    0.0087670000   -0.0000000000
C       -0.2333620000    0.0469180000   -0.0000000000
C        0.0508560000    0.9515680000    0.0000000000
C       -0.0162730000   -0.0085130000   -0.0000000000
N       -0.1847390000    0.0111680000   -0.0000000000
H        0.1360400000    0.0013460000   -0.0000000000
H        0.1434170000   -0.0009940000   -0.0000000000
H        0.1897420000    0.0459150000   -0.0000000000
H        0.1449440000    0.0857270000    0.0000000000
H        0.1429910000    0.0004430000   -0.0000000000
C       -0.3829400000   -0.1580310000    0.0000000000
H        0.1557680000    0.0422820000    0.0000000000
13   
Frame  15 IRC: Energy =  -286.8749540000 ; +0.7304 kcal/mol
C       -0.1746500000   -0.0266660000   -0.0000000000
C        0.0280700000    0.0089040000   -0.0000000000
C       -0.2326460000    0.0463770000   -0.0000000000
C        0.0507830000    0.9521300000    0.0000000000
C       -0.0167010000   -0.0084270000   -0.0000000000
N       -0.1847350000    0.0112410000   -0.0000000000
H        0.1360260000    0.0013480000   -0.0000000000
H        0.1434230000   -0.0009980000   -0.0000000000
H        0.1897840000    0.0458110000   -0.0000000000
H        0.1450520000    0.0854420000    0.0000000000
H        0.1429960000    0.0004480000   -0.0000000000
C       -0.3831290000   -0.1580790000    0.0000000000
H        0.1557290000    0.0424680000    0.0000000000
13   
Frame  16 IRC: Energy =  -286.8748960000 ; +0.7668 kcal/mol
C       -0.1743160000   -0.0270250000   -0.0000000000
C        0.0268290000    0.0097650000   -0.0000000000
C       -0.2304500000    0.0453710000   -0.0000000000
C        0.0502740000    0.9519300000    0.0000000000
C       -0.0171490000   -0.0078190000   -0.0000000000
N       -0.1848110000    0.0114450000   -0.0000000000
H        0.1360390000    0.0013620000   -0.0000000000
H        0.1434630000   -0.0010100000   -0.0000000000
H        0.1898070000    0.0453740000   -0.0000000000
H        0.1449300000    0.0857740000    0.0000000000
H        0.1429080000    0.0004670000   -0.0000000000
C       -0.3832900000   -0.1579830000    0.0000000000
H        0.1557660000    0.0423470000    0.0000000000
13   
Frame  17 IRC: Energy =  -286.8748810000 ; +0.7762 kcal/mol
C       -0.1743150000   -0.0270980000   -0.0000000000
C        0.0266020000    0.0099180000   -0.0000000000
C       -0.2297290000    0.0447320000   -0.0000000000
C        0.0500930000    0.9526200000    0.0000000000
C       -0.0173670000   -0.0077140000   -0.0000000000
N       -0.1847860000    0.0115030000   -0.0000000000
H        0.1360300000    0.0013630000   -0.0000000000
H        0.1434830000   -0.0010120000   -0.0000000000
H        0.1898170000    0.0452720000   -0.0000000000
H        0.1450430000    0.0854630000    0.0000000000
H        0.1428680000    0.0004720000   -0.0000000000
C       -0.3834640000   -0.1580280000    0.0000000000
H        0.1557250000    0.0425110000    0.0000000000
13   
Frame  18 IRC: Energy =  -286.8748390000 ; +0.8026 kcal/mol
C       -0.1739850000   -0.0273370000   -0.0000000000
C        0.0257530000    0.0105120000   -0.0000000000
C       -0.2282550000    0.0441700000   -0.0000000000
C        0.0498760000    0.9522170000    0.0000000000
C       -0.0178550000   -0.0073040000   -0.0000000000
N       -0.1848870000    0.0116680000   -0.0000000000
H        0.1360360000    0.0013730000   -0.0000000000
H        0.1434920000   -0.0010220000   -0.0000000000
H        0.1898620000    0.0449500000   -0.0000000000
H        0.1449250000    0.0857740000    0.0000000000
H        0.1428570000    0.0004850000   -0.0000000000
C       -0.3835810000   -0.1579120000    0.0000000000
H        0.1557620000    0.0424260000    0.0000000000
13   
Frame  19 IRC: Energy =  -286.8748240000 ; +0.8120 kcal/mol
C       -0.1740320000   -0.0273920000   -0.0000000000
C        0.0255590000    0.0106460000   -0.0000000000
C       -0.2277610000    0.0436460000   -0.0000000000
C        0.0498130000    0.9527320000    0.0000000000
C       -0.0178000000   -0.0072060000   -0.0000000000
N       -0.1848600000    0.0117080000   -0.0000000000
H        0.1360480000    0.0013750000   -0.0000000000
H        0.1435140000   -0.0010240000   -0.0000000000
H        0.1898560000    0.0448740000   -0.0000000000
H        0.1449960000    0.0855300000    0.0000000000
H        0.1427830000    0.0004900000   -0.0000000000
C       -0.3838490000   -0.1578950000    0.0000000000
H        0.1557330000    0.0425170000    0.0000000000
13   
Frame  20 IRC: Energy =  -286.8747760000 ; +0.8421 kcal/mol
C       -0.1736720000   -0.0276710000   -0.0000000000
C        0.0245190000    0.0113450000   -0.0000000000
C       -0.2257860000    0.0427230000   -0.0000000000
C        0.0492060000    0.9527020000    0.0000000000
C       -0.0185620000   -0.0067420000   -0.0000000000
N       -0.1849370000    0.0118930000   -0.0000000000
H        0.1360230000    0.0013820000   -0.0000000000
H        0.1435360000   -0.0010330000   -0.0000000000
H        0.1898880000    0.0444960000   -0.0000000000
H        0.1449360000    0.0857610000    0.0000000000
H        0.1427880000    0.0005050000   -0.0000000000
C       -0.3836950000   -0.1578430000    0.0000000000
H        0.1557560000    0.0424810000    0.0000000000
13   
Frame  21 IRC: Energy =  -286.8747610000 ; +0.8515 kcal/mol
C       -0.1736800000   -0.0277610000   -0.0000000000
C        0.0242420000    0.0115500000   -0.0000000000
C       -0.2251880000    0.0421060000   -0.0000000000
C        0.0487950000    0.9533700000    0.0000000000
C       -0.0184840000   -0.0066010000   -0.0000000000
N       -0.1848800000    0.0119100000   -0.0000000000
H        0.1360120000    0.0013820000   -0.0000000000
H        0.1435610000   -0.0010340000   -0.0000000000
H        0.1898520000    0.0444240000   -0.0000000000
H        0.1450040000    0.0855600000    0.0000000000
H        0.1427220000    0.0005090000   -0.0000000000
C       -0.3836930000   -0.1579060000    0.0000000000
H        0.1557380000    0.0424920000    0.0000000000
13   
Frame  22 IRC: Energy =  -286.8746900000 ; +0.8961 kcal/mol
C       -0.1732850000   -0.0280350000   -0.0000000000
C        0.0231230000    0.0123030000   -0.0000000000
C       -0.2231390000    0.0411270000   -0.0000000000
C        0.0488290000    0.9529530000    0.0000000000
C       -0.0191850000   -0.0060920000   -0.0000000000
N       -0.1850610000    0.0121900000   -0.0000000000
H        0.1360410000    0.0013960000   -0.0000000000
H        0.1435740000   -0.0010490000   -0.0000000000
H        0.1899300000    0.0439330000   -0.0000000000
H        0.1448980000    0.0857600000    0.0000000000
H        0.1426880000    0.0005300000   -0.0000000000
C       -0.3841700000   -0.1575640000    0.0000000000
H        0.1557580000    0.0425490000    0.0000000000
13   
Frame  23 IRC: Energy =  -286.8746760000 ; +0.9049 kcal/mol
C       -0.1733880000   -0.0280530000   -0.0000000000
C        0.0229490000    0.0124150000   -0.0000000000
C       -0.2228260000    0.0406640000   -0.0000000000
C        0.0490020000    0.9534080000    0.0000000000
C       -0.0189000000   -0.0060190000   -0.0000000000
N       -0.1850260000    0.0122120000   -0.0000000000
H        0.1360790000    0.0014000000   -0.0000000000
H        0.1436040000   -0.0010520000   -0.0000000000
H        0.1899190000    0.0439210000   -0.0000000000
H        0.1449320000    0.0855130000    0.0000000000
H        0.1425940000    0.0005330000   -0.0000000000
C       -0.3846840000   -0.1574490000    0.0000000000
H        0.1557450000    0.0425060000    0.0000000000
13   
Frame  24 IRC: Energy =  -286.8745680000 ; +0.9726 kcal/mol
C       -0.1727350000   -0.0285660000   -0.0000000000
C        0.0209550000    0.0137460000   -0.0000000000
C       -0.2191560000    0.0385150000   -0.0000000000
C        0.0475350000    0.9537870000    0.0000000000
C       -0.0200950000   -0.0051560000   -0.0000000000
N       -0.1851620000    0.0125610000   -0.0000000000
H        0.1360120000    0.0014050000   -0.0000000000
H        0.1436440000   -0.0010670000   -0.0000000000
H        0.1899010000    0.0431540000   -0.0000000000
H        0.1448840000    0.0857620000    0.0000000000
H        0.1425650000    0.0005630000   -0.0000000000
C       -0.3841140000   -0.1572470000    0.0000000000
H        0.1557660000    0.0425430000    0.0000000000
13   
Frame  25 IRC: Energy =  -286.8745410000 ; +0.9896 kcal/mol
C       -0.1725260000   -0.0287560000   -0.0000000000
C        0.0208590000    0.0143380000   -0.0000000000
C       -0.2189040000    0.0375600000   -0.0000000000
C        0.0460030000    0.9547280000    0.0000000000
C       -0.0199080000   -0.0048590000   -0.0000000000
N       -0.1853550000    0.0125970000   -0.0000000000
H        0.1359690000    0.0014040000   -0.0000000000
H        0.1436990000   -0.0010660000   -0.0000000000
H        0.1899460000    0.0429440000   -0.0000000000
H        0.1449240000    0.0857830000    0.0000000000
H        0.1425340000    0.0005670000   -0.0000000000
C       -0.3830500000   -0.1576560000    0.0000000000
H        0.1558090000    0.0424170000    0.0000000000
13   
Frame  26 IRC: Energy =  -286.8744040000 ; +1.0755 kcal/mol
C       -0.1721450000   -0.0290800000   -0.0000000000
C        0.0184390000    0.0152860000   -0.0000000000
C       -0.2148890000    0.0355940000   -0.0000000000
C        0.0469260000    0.9543120000    0.0000000000
C       -0.0207840000   -0.0041520000   -0.0000000000
N       -0.1853170000    0.0130230000   -0.0000000000
H        0.1360360000    0.0014170000   -0.0000000000
H        0.1437070000   -0.0010900000   -0.0000000000
H        0.1898320000    0.0422750000   -0.0000000000
H        0.1447970000    0.0856840000    0.0000000000
H        0.1423890000    0.0006040000   -0.0000000000
C       -0.3847720000   -0.1563740000    0.0000000000
H        0.1557810000    0.0425010000    0.0000000000
13   
Frame  27 IRC: Energy =  -286.8743840000 ; +1.0881 kcal/mol
C       -0.1721810000   -0.0290790000   -0.0000000000
C        0.0180390000    0.0153670000   -0.0000000000
C       -0.2142350000    0.0350340000   -0.0000000000
C        0.0475790000    0.9550000000    0.0000000000
C       -0.0205950000   -0.0040980000   -0.0000000000
N       -0.1851850000    0.0130380000   -0.0000000000
H        0.1360760000    0.0014230000   -0.0000000000
H        0.1437260000   -0.0010940000   -0.0000000000
H        0.1897910000    0.0423890000   -0.0000000000
H        0.1448250000    0.0852310000    0.0000000000
H        0.1423320000    0.0006090000   -0.0000000000
C       -0.3859390000   -0.1560870000    0.0000000000
H        0.1557680000    0.0422670000    0.0000000000
13   
Frame  28 IRC: Energy =  -286.8741910000 ; +1.2092 kcal/mol
C       -0.1712730000   -0.0297470000   -0.0000000000
C        0.0153790000    0.0173930000   -0.0000000000
C       -0.2099980000    0.0315630000   -0.0000000000
C        0.0448770000    0.9554700000    0.0000000000
C       -0.0214360000   -0.0028800000   -0.0000000000
N       -0.1856140000    0.0135370000   -0.0000000000
H        0.1359990000    0.0014160000   -0.0000000000
H        0.1438020000   -0.0011110000   -0.0000000000
H        0.1896790000    0.0411590000   -0.0000000000
H        0.1447070000    0.0857130000    0.0000000000
H        0.1422160000    0.0006500000   -0.0000000000
C       -0.3841750000   -0.1554800000    0.0000000000
H        0.1558390000    0.0423160000    0.0000000000
13   
Frame  29 IRC: Energy =  -286.8741680000 ; +1.2236 kcal/mol
C       -0.1711560000   -0.0298260000   -0.0000000000
C        0.0150960000    0.0177650000   -0.0000000000
C       -0.2095030000    0.0306580000   -0.0000000000
C        0.0445100000    0.9565340000    0.0000000000
C       -0.0212380000   -0.0027100000   -0.0000000000
N       -0.1856540000    0.0135640000   -0.0000000000
H        0.1360030000    0.0014190000   -0.0000000000
H        0.1438460000   -0.0011130000   -0.0000000000
H        0.1896900000    0.0411500000   -0.0000000000
H        0.1447500000    0.0853780000    0.0000000000
H        0.1421870000    0.0006540000   -0.0000000000
C       -0.3843920000   -0.1555050000    0.0000000000
H        0.1558610000    0.0420320000    0.0000000000
13   
Frame  30 IRC: Energy =  -286.8740320000 ; +1.3090 kcal/mol
C       -0.1707610000   -0.0300950000   -0.0000000000
C        0.0132200000    0.0185950000   -0.0000000000
C       -0.2067380000    0.0290210000   -0.0000000000
C        0.0443790000    0.9558990000    0.0000000000
C       -0.0217300000   -0.0021250000   -0.0000000000
N       -0.1857450000    0.0138780000   -0.0000000000
H        0.1360080000    0.0014160000   -0.0000000000
H        0.1438430000   -0.0011270000   -0.0000000000
H        0.1895170000    0.0405000000   -0.0000000000
H        0.1446070000    0.0856310000    0.0000000000
H        0.1420850000    0.0006820000   -0.0000000000
C       -0.3845450000   -0.1544630000    0.0000000000
H        0.1558600000    0.0421880000    0.0000000000
13   
Frame  31 IRC: Energy =  -286.8739940000 ; +1.3328 kcal/mol
C       -0.1706610000   -0.0300980000   -0.0000000000
C        0.0125070000    0.0186990000   -0.0000000000
C       -0.2055910000    0.0282600000   -0.0000000000
C        0.0454580000    0.9567380000    0.0000000000
C       -0.0216710000   -0.0020570000   -0.0000000000
N       -0.1855790000    0.0139180000   -0.0000000000
H        0.1360370000    0.0014220000   -0.0000000000
H        0.1438410000   -0.0011320000   -0.0000000000
H        0.1894310000    0.0406310000   -0.0000000000
H        0.1446280000    0.0849970000    0.0000000000
H        0.1420550000    0.0006900000   -0.0000000000
C       -0.3862930000   -0.1539260000    0.0000000000
H        0.1558380000    0.0418590000    0.0000000000
13   
Frame  32 IRC: Energy =  -286.8737890000 ; +1.4615 kcal/mol
C       -0.1698470000   -0.0306490000   -0.0000000000
C        0.0101370000    0.0205990000   -0.0000000000
C       -0.2023110000    0.0248990000   -0.0000000000
C        0.0421800000    0.9571180000    0.0000000000
C       -0.0220130000   -0.0009560000   -0.0000000000
N       -0.1860760000    0.0143170000   -0.0000000000
H        0.1359830000    0.0014050000   -0.0000000000
H        0.1439320000   -0.0011420000   -0.0000000000
H        0.1892720000    0.0395090000   -0.0000000000
H        0.1444900000    0.0856160000    0.0000000000
H        0.1419240000    0.0007230000   -0.0000000000
C       -0.3836150000   -0.1533050000    0.0000000000
H        0.1559440000    0.0418670000    0.0000000000
13   
Frame  33 IRC: Energy =  -286.8737440000 ; +1.4897 kcal/mol
C       -0.1696810000   -0.0307690000   -0.0000000000
C        0.0098400000    0.0212760000   -0.0000000000
C       -0.2018350000    0.0235530000   -0.0000000000
C        0.0408830000    0.9585180000    0.0000000000
C       -0.0217940000   -0.0006540000   -0.0000000000
N       -0.1862400000    0.0143650000   -0.0000000000
H        0.1360050000    0.0014040000   -0.0000000000
H        0.1440240000   -0.0011440000   -0.0000000000
H        0.1893500000    0.0393930000   -0.0000000000
H        0.1445240000    0.0853930000    0.0000000000
H        0.1419010000    0.0007270000   -0.0000000000
C       -0.3829870000   -0.1535490000    0.0000000000
H        0.1560090000    0.0414860000    0.0000000000
13   
Frame  34 IRC: Energy =  -286.8730770000 ; +1.9083 kcal/mol
C       -0.1672200000   -0.0317890000   -0.0000000000
C        0.0015130000    0.0252380000   -0.0000000000
C       -0.1913510000    0.0142880000   -0.0000000000
C        0.0385740000    0.9597340000    0.0000000000
C       -0.0216510000    0.0015240000   -0.0000000000
N       -0.1868510000    0.0152520000   -0.0000000000
H        0.1359630000    0.0013550000   -0.0000000000
H        0.1441120000   -0.0011740000    0.0000000000
H        0.1882900000    0.0376080000   -0.0000000000
H        0.1440530000    0.0850360000    0.0000000000
H        0.1415740000    0.0008170000   -0.0000000000
C       -0.3831150000   -0.1485680000    0.0000000000
H        0.1561090000    0.0406800000    0.0000000000
13   
Frame  35 IRC: Energy =  -286.8730280000 ; +1.9390 kcal/mol
C       -0.1669810000   -0.0317980000   -0.0000000000
C        0.0008510000    0.0255820000   -0.0000000000
C       -0.1903930000    0.0131100000   -0.0000000000
C        0.0389090000    0.9612070000    0.0000000000
C       -0.0214370000    0.0016720000   -0.0000000000
N       -0.1868300000    0.0152670000   -0.0000000000
H        0.1359880000    0.0013590000   -0.0000000000
H        0.1441590000   -0.0011780000    0.0000000000
H        0.1882660000    0.0377630000   -0.0000000000
H        0.1440810000    0.0843660000    0.0000000000
H        0.1415770000    0.0008230000   -0.0000000000
C       -0.3843230000   -0.1482970000    0.0000000000
H        0.1561330000    0.0401240000    0.0000000000
13   
Frame  36 IRC: Energy =  -286.8721670000 ; +2.4793 kcal/mol
C       -0.1638670000   -0.0329220000   -0.0000000000
C       -0.0081330000    0.0306010000   -0.0000000000
C       -0.1794590000    0.0019180000   -0.0000000000
C        0.0324500000    0.9627890000    0.0000000000
C       -0.0209580000    0.0041370000   -0.0000000000
N       -0.1879690000    0.0159680000   -0.0000000000
H        0.1359130000    0.0012710000   -0.0000000000
H        0.1443680000   -0.0011860000    0.0000000000
H        0.1872110000    0.0358950000   -0.0000000000
H        0.1435250000    0.0846260000    0.0000000000
H        0.1412790000    0.0008940000   -0.0000000000
C       -0.3806660000   -0.1433040000    0.0000000000
H        0.1563050000    0.0393130000    0.0000000000
13   
Frame  37 IRC: Energy =  -286.8720830000 ; +2.5320 kcal/mol
C       -0.1634960000   -0.0329340000   -0.0000000000
C       -0.0090630000    0.0311850000   -0.0000000000
C       -0.1781530000    0.0001400000   -0.0000000000
C        0.0322710000    0.9648420000    0.0000000000
C       -0.0206610000    0.0043920000   -0.0000000000
N       -0.1880230000    0.0159710000   -0.0000000000
H        0.1359450000    0.0012700000   -0.0000000000
H        0.1444500000   -0.0011880000    0.0000000000
H        0.1871970000    0.0360370000   -0.0000000000
H        0.1435640000    0.0838300000    0.0000000000
H        0.1412840000    0.0009010000   -0.0000000000
C       -0.3816610000   -0.1430600000    0.0000000000
H        0.1563460000    0.0386140000    0.0000000000
13   
Frame  38 IRC: Energy =  -286.8709890000 ; +3.2185 kcal/mol
C       -0.1598110000   -0.0339850000   -0.0000000000
C       -0.0192070000    0.0368280000   -0.0000000000
C       -0.1653360000   -0.0128430000   -0.0000000000
C        0.0247010000    0.9663320000    0.0000000000
C       -0.0201860000    0.0069480000   -0.0000000000
N       -0.1892970000    0.0164350000   -0.0000000000
H        0.1358370000    0.0011540000   -0.0000000000
H        0.1447070000   -0.0011790000    0.0000000000
H        0.1860570000    0.0344840000   -0.0000000000
H        0.1428790000    0.0840610000    0.0000000000
H        0.1410330000    0.0009560000   -0.0000000000
C       -0.3778680000   -0.1369050000    0.0000000000
H        0.1564900000    0.0377140000    0.0000000000
13   