13   
Frame   0 IRC: Energy =  -286.8761179876 ; +0.0000 kcal/mol
C        2.1533176575    0.1311404754   -0.5078366295
C        1.1925506902   -0.7707807381   -0.2348762653
C       -0.1313267574   -0.0406358125   -0.2805650748
C       -1.0010926800   -0.1628219816    0.9066809235
C        0.3623276949    1.3687209901   -0.5771414198
N        1.6390010530    1.4462500607   -0.7210612340
H        3.2220471705   -0.0268372223   -0.5821554876
H        1.3054908269   -1.8266935534   -0.0285788128
H       -0.7061929189   -0.3799946169   -1.1687705911
H       -2.9117112541   -0.9182168525    0.4407252299
H       -0.2912920279    2.2306536390   -0.6784167266
C       -2.2239039125   -0.5434790474    1.2076132923
H       -2.6092155420   -0.5073053405    2.2243827960
13   
Frame   1 IRC: Energy =  -286.8761172375 ; +0.0005 kcal/mol
C        2.1531385815    0.1308895550   -0.5080005958
C        1.1922167151   -0.7707813610   -0.2347408976
C       -0.1311529519   -0.0401703312   -0.2794459350
C       -1.0012727518   -0.1613783295    0.9076747287
C        0.3625636434    1.3691424386   -0.5772337718
N        1.6392865677    1.4462640599   -0.7209320205
H        3.2217489647   -0.0276283101   -0.5829063706
H        1.3050766672   -1.8267720677   -0.0287383651
H       -0.7064825916   -0.3791036919   -1.1675259097
H       -2.9101213209   -0.9193989062    0.4399130375
H       -0.2910977208    2.2309259039   -0.6797826629
C       -2.2237890772   -0.5437883007    1.2076710072
H       -2.6101147255   -0.5082006591    2.2240477555
13   
Frame   2 IRC: Energy =  -286.8761103867 ; +0.0048 kcal/mol
C        2.1537124500    0.1318050972   -0.5076479348
C        1.1938554176   -0.7711337684   -0.2342648435
C       -0.1302233032   -0.0422829958   -0.2779403333
C       -1.0009127337   -0.1630209157    0.9089762805
C        0.3620244480    1.3679293483   -0.5754510778
N        1.6378795638    1.4453784970   -0.7263670124
H        3.2223689000   -0.0256543204   -0.5840709228
H        1.3082113010   -1.8269585029   -0.0281576919
H       -0.7059804045   -0.3803514406   -1.1661302284
H       -2.9124011712   -0.9112389240    0.4372342138
H       -0.2926699924    2.2290118801   -0.6771934650
C       -2.2247285035   -0.5428919579    1.2073117352
H       -2.6111359718   -0.5105919970    2.2237012805
13   
Frame   3 IRC: Energy =  -286.8760921896 ; +0.0162 kcal/mol
C        2.1558766152    0.1344271236   -0.5163237621
C        1.2032793551   -0.7735805766   -0.2346679395
C       -0.1260661466   -0.0535243935   -0.2742217506
C       -0.9972148271   -0.1780415473    0.9114305556
C        0.3566769129    1.3605938345   -0.5674012950
N        1.6319727321    1.4474905423   -0.7177343598
H        3.2249799236   -0.0162748173   -0.5998395131
H        1.3247462111   -1.8294041489   -0.0326540766
H       -0.6996372979   -0.3938380549   -1.1633154996
H       -2.9183351660   -0.8977819282    0.4325713032
H       -0.3033416320    2.2186598078   -0.6587735251
C       -2.2305227049   -0.5312709829    1.2035240657
H       -2.6224139756   -0.4874548584    2.2174057970
13   
Frame   4 IRC: Energy =  -286.8760304840 ; +0.0549 kcal/mol
C        2.1576374599    0.1377616921   -0.5179420292
C        1.2106072936   -0.7760379818   -0.2372530375
C       -0.1228930621   -0.0624106598   -0.2726919123
C       -0.9932834479   -0.1948369305    0.9120627241
C        0.3520009633    1.3556306640   -0.5576944874
N        1.6258822438    1.4483736123   -0.7159512503
H        3.2271218821   -0.0073720043   -0.6059551083
H        1.3375532143   -1.8323601194   -0.0411528359
H       -0.6931056450   -0.4061268490   -1.1624891794
H       -2.9259261450   -0.8830614321    0.4309370612
H       -0.3130453498    2.2101145506   -0.6466906276
C       -2.2345107556   -0.5213926429    1.2008728551
H       -2.6280386516   -0.4682818993    2.2139478275
13   
Frame   5 IRC: Energy =  -286.8759640563 ; +0.0966 kcal/mol
C        2.1600281575    0.1454303938   -0.5071572540
C        1.2195859891   -0.7812708458   -0.2483149767
C       -0.1202712798   -0.0781051168   -0.2793834706
C       -0.9857473703   -0.2232794680    0.9081276090
C        0.3416644449    1.3445329455   -0.5630283060
N        1.6164428834    1.4516085985   -0.7041034248
H        3.2314897918    0.0113103886   -0.5876102857
H        1.3551467671   -1.8382833348   -0.0616885149
H       -0.6866914802   -0.4274702190   -1.1681683796
H       -2.9504895127   -0.8218030278    0.4335323813
H       -0.3309181917    2.1937743174   -0.6476780920
C       -2.2352528035   -0.5096133352    1.2030953045
H       -2.6149873955   -0.4668312964    2.2223774094
13   
Frame   6 IRC: Energy =  -286.8756478662 ; +0.2950 kcal/mol
C        2.1631369088    0.1615029807   -0.4978076169
C        1.2425630541   -0.7872027258   -0.2475753895
C       -0.1146441922   -0.1180422450   -0.2991676410
C       -0.9757030240   -0.2970858107    0.8887972825
C        0.3181508025    1.3172235245   -0.5673799017
N        1.5911165937    1.4550185928   -0.6965185751
H        3.2388699125    0.0543466561   -0.5599467036
H        1.4020499953   -1.8390648660   -0.0516800150
H       -0.6662075699   -0.4743876336   -1.1933458226
H       -3.0191825188   -0.5822853305    0.4419392251
H       -0.3739589077    2.1494152182   -0.6625048879
C       -2.2384919744   -0.4831904602    1.2052112190
H       -2.5676990799   -0.5562479005    2.2399788267
13   
Frame   7 IRC: Energy =  -286.8753260000 ; +0.4970 kcal/mol
C        2.1626898818    0.1696956491   -0.4833004956
C        1.2498693708   -0.7923540751   -0.2568192805
C       -0.1139576119   -0.1370646997   -0.3130579250
C       -0.9703012237   -0.3314347188    0.8765768756
C        0.3051860905    1.3032678970   -0.5762618576
N        1.5778658712    1.4564400452   -0.6880891799
H        3.2408830749    0.0772067566   -0.5235206261
H        1.4194134779   -1.8423237645   -0.0597400234
H       -0.6604488397   -0.4937151782   -1.2104145462
H       -3.0391107013   -0.4543381923    0.4651759998
H       -0.3958515106    2.1260017049   -0.6850012861
C       -2.2343726873   -0.4722067925    1.2100579193
H       -2.5418651927   -0.6091746317    2.2443944256
13   
Frame   8 IRC: Energy =  -286.8753010000 ; +0.5127 kcal/mol
C        2.1627039840    0.1699643650   -0.4826001806
C        1.2498088667   -0.7921836832   -0.2566598965
C       -0.1142460125   -0.1372240358   -0.3138543160
C       -0.9702542134   -0.3332682000    0.8753364297
C        0.3049523167    1.3029075535   -0.5770387400
N        1.5777768454    1.4565521315   -0.6883455222
H        3.2408562317    0.0777087527   -0.5216918482
H        1.4193963696   -1.8420770165   -0.0586572273
H       -0.6598279760   -0.4939216983   -1.2117706184
H       -3.0405173219   -0.4479167201    0.4675690370
H       -0.3961489392    2.1258186110   -0.6871424072
C       -2.2344241723   -0.4721411554    1.2098211835
H       -2.5400759788   -0.6142189043    2.2450341063
13   
Frame   9 IRC: Energy =  -286.8752940000 ; +0.5171 kcal/mol
C        2.1626383739    0.1700608974   -0.4824060189
C        1.2498514403   -0.7921945841   -0.2566160480
C       -0.1142331096   -0.1373365227   -0.3141240086
C       -0.9704995205   -0.3337897733    0.8750774797
C        0.3049099544    1.3030971626   -0.5772898825
N        1.5776665223    1.4565520870   -0.6884171305
H        3.2408876145    0.0778315550   -0.5211890715
H        1.4193714037   -1.8419887164   -0.0583606935
H       -0.6596784976   -0.4939820550   -1.2121707368
H       -3.0409765641   -0.4461404830    0.4681227787
H       -0.3961404315    2.1256478091   -0.6877178170
C       -2.2343903769   -0.4722099374    1.2104543241
H       -2.5394068089   -0.6155474392    2.2446368249
13   
Frame  10 IRC: Energy =  -286.8752780000 ; +0.5271 kcal/mol
C        2.1627016604    0.1701552652   -0.4819802483
C        1.2497841759   -0.7920427922   -0.2565656240
C       -0.1143739118   -0.1373396190   -0.3146303513
C       -0.9705346804   -0.3349317578    0.8742419199
C        0.3047064537    1.3027575390   -0.5779031610
N        1.5775708635    1.4565066616   -0.6885295590
H        3.2409340408    0.0781179314   -0.5200376346
H        1.4193416794   -1.8417327683   -0.0576230991
H       -0.6592189126   -0.4940181921   -1.2128866311
H       -3.0418615186   -0.4421622588    0.4693767167
H       -0.3963250959    2.1256352218   -0.6891099650
C       -2.2344906007   -0.4720993847    1.2101499290
H       -2.5382341537   -0.6188458463    2.2454977076
13   
Frame  11 IRC: Energy =  -286.8752730000 ; +0.5302 kcal/mol
C        2.1627117427    0.1701359767   -0.4819141266
C        1.2497744534   -0.7919474996   -0.2565734775
C       -0.1144108286   -0.1372956353   -0.3147467390
C       -0.9708647748   -0.3351428948    0.8742786113
C        0.3048082864    1.3025317972   -0.5779780368
N        1.5775232611    1.4565164624   -0.6885463970
H        3.2409284122    0.0781567730   -0.5198698807
H        1.4193400491   -1.8417301917   -0.0575055135
H       -0.6591437717   -0.4940192650   -1.2129830123
H       -3.0419158971   -0.4415849177    0.4696522718
H       -0.3964204127    2.1257294566   -0.6893280229
C       -2.2341679081   -0.4719805558    1.2095292851
H       -2.5381626118   -0.6193695060    2.2459850381
13   
Frame  12 IRC: Energy =  -286.8750590000 ; +0.6645 kcal/mol
C        2.1621818626    0.1710902598   -0.4773424148
C        1.2476680286   -0.7899865185   -0.2544872343
C       -0.1161223546   -0.1349802937   -0.3198164989
C       -0.9710508663   -0.3453493065    0.8680720499
C        0.3048597704    1.3044306958   -0.5859256819
N        1.5783199570    1.4563578630   -0.6934201840
H        3.2406518272    0.0785688915   -0.5065119953
H        1.4144021271   -1.8382075107   -0.0460148647
H       -0.6578434722   -0.4912756855   -1.2198980713
H       -3.0496597813   -0.3995809628    0.4861953856
H       -0.3941668435    2.1271006902   -0.7095383595
C       -2.2330554134   -0.4753889439    1.2136630389
H       -2.5261848417   -0.6627791786    2.2450248304
13   
Frame  13 IRC: Energy =  -286.8750500000 ; +0.6702 kcal/mol
C        2.1622685235    0.1711077608   -0.4772063734
C        1.2475567006   -0.7898907189   -0.2544266665
C       -0.1162515102   -0.1348749272   -0.3199592935
C       -0.9710731836   -0.3456714108    0.8679523185
C        0.3047654285    1.3043001867   -0.5861234498
N        1.5785317187    1.4564213780   -0.6935969782
H        3.2405758452    0.0785815860   -0.5061045251
H        1.4142513155   -1.8381451351   -0.0456555112
H       -0.6578047357   -0.4911858922   -1.2201159164
H       -3.0496777828   -0.3983220357    0.4869304546
H       -0.3941446532    2.1272288116   -0.7101716179
C       -2.2330678996   -0.4753591127    1.2130436921
H       -2.5259297669   -0.6641904906    2.2454338667
13   
Frame  14 IRC: Energy =  -286.8749660000 ; +0.7229 kcal/mol
C        2.1619565922    0.1713067757   -0.4757565932
C        1.2466880494   -0.7891651773   -0.2537026935
C       -0.1168114997   -0.1337825462   -0.3214737763
C       -0.9711527004   -0.3487212651    0.8661201630
C        0.3050409174    1.3052152565   -0.5889345742
N        1.5787686849    1.4562188372   -0.6954107606
H        3.2404899988    0.0784360406   -0.5016707205
H        1.4121945350   -1.8368071540   -0.0416626609
H       -0.6577926062   -0.4898897515   -1.2219462851
H       -3.0517494900   -0.3849756123    0.4923216017
H       -0.3930438373    2.1279233786   -0.7172154994
C       -2.2324010634   -0.4768115611    1.2149592836
H       -2.5221875808   -0.6789472210    2.2443725154
13   
Frame  15 IRC: Energy =  -286.8749540000 ; +0.7304 kcal/mol
C        2.1620596360    0.1713014530   -0.4755699411
C        1.2465060503   -0.7889982153   -0.2536191449
C       -0.1169809048   -0.1336022404   -0.3216448789
C       -0.9710882437   -0.3491217548    0.8659116791
C        0.3049786872    1.3051230618   -0.5892590190
N        1.5789813957    1.4562571951   -0.6956730800
H        3.2403896036    0.0784175857   -0.5010881983
H        1.4119252249   -1.8366890333   -0.0411281641
H       -0.6577897112   -0.4897029252   -1.2221765976
H       -3.0517264771   -0.3832608992    0.4933213985
H       -0.3929470555    2.1281134264   -0.7181590718
C       -2.2324846141   -0.4768416490    1.2143486179
H       -2.5218235914   -0.6809960050    2.2447364005
13   
Frame  16 IRC: Energy =  -286.8748960000 ; +0.7668 kcal/mol
C        2.1617646313    0.1714234093   -0.4746554584
C        1.2458932789   -0.7885552666   -0.2531242924
C       -0.1173427711   -0.1327731678   -0.3225673883
C       -0.9711145404   -0.3509493982    0.8649425467
C        0.3052540984    1.3058826555   -0.5911260673
N        1.5791893293    1.4561140829   -0.6969686378
H        3.2403355147    0.0782055535   -0.4982039710
H        1.4104092150   -1.8357758048   -0.0384720775
H       -0.6580212476   -0.4887371060   -1.2232069304
H       -3.0529248837   -0.3748547806    0.4966423747
H       -0.3920974877    2.1286415770   -0.7228769923
C       -2.2318564056   -0.4779541413    1.2159056150
H       -2.5194887316   -0.6906676129    2.2437112789
13   
Frame  17 IRC: Energy =  -286.8748810000 ; +0.7762 kcal/mol
C        2.1618023461    0.1713812347   -0.4744405887
C        1.2457145856   -0.7882661781   -0.2530459224
C       -0.1175321851   -0.1325582487   -0.3227458513
C       -0.9709904562   -0.3513599438    0.8647756805
C        0.3055317075    1.3057932063   -0.5914988628
N        1.5791972258    1.4561451402   -0.6972782399
H        3.2402290038    0.0781562866   -0.4975514768
H        1.4100696414   -1.8356899888   -0.0378494453
H       -0.6580837132   -0.4885111229   -1.2234490912
H       -3.0528699098   -0.3730034125    0.4977100972
H       -0.3920106316    2.1289193258   -0.7239733332
C       -2.2319659800   -0.4780302231    1.2153310992
H       -2.5190916344   -0.6929760756    2.2440159348
13   
Frame  18 IRC: Energy =  -286.8748390000 ; +0.8026 kcal/mol
C        2.1616528751    0.1714667660   -0.4738384265
C        1.2451918289   -0.7880662446   -0.2526873694
C       -0.1177735322   -0.1318962336   -0.3233397074
C       -0.9710465726   -0.3525490292    0.8641183836
C        0.3053392561    1.3064180111   -0.5928494356
N        1.5796123776    1.4559985186   -0.6982162140
H        3.2401833963    0.0779543434   -0.4955343612
H        1.4089230113   -1.8349412951   -0.0359955927
H       -0.6583439042   -0.4877322598   -1.2239846353
H       -3.0535466891   -0.3672860431    0.4999619254
H       -0.3912698954    2.1292595380   -0.7273128792
C       -2.2313799782   -0.4788630522    1.2165280865
H       -2.5175421734   -0.6997630194    2.2431502259
13   
Frame  19 IRC: Energy =  -286.8748240000 ; +0.8120 kcal/mol
C        2.1615938402    0.1713896919   -0.4736332860
C        1.2450033700   -0.7877444094   -0.2526394315
C       -0.1179843552   -0.1316058167   -0.3234688769
C       -0.9709339514   -0.3529290404    0.8638645621
C        0.3057949266    1.3063096612   -0.5932729064
N        1.5793916282    1.4559731096   -0.6984844246
H        3.2401752769    0.0778803578   -0.4948910031
H        1.4085716229   -1.8348334176   -0.0353834781
H       -0.6584144814   -0.4874621170   -1.2241175367
H       -3.0534487089   -0.3655106530    0.5009645827
H       -0.3911510773    2.1295455209   -0.7284005725
C       -2.2314530272   -0.4789966488    1.2162243940
H       -2.5171450633   -0.7020162385    2.2432379769
13   
Frame  20 IRC: Energy =  -286.8747760000 ; +0.8421 kcal/mol
C        2.1614841081    0.1715166951   -0.4729704564
C        1.2444370581   -0.7875209415   -0.2522073395
C       -0.1182495269   -0.1309310192   -0.3241342953
C       -0.9708120828   -0.3541391376    0.8635666410
C        0.3056383576    1.3071000071   -0.5946531184
N        1.5801106892    1.4559355488   -0.6996780515
H        3.2399492276    0.0776123417   -0.4926819331
H        1.4072091493   -1.8341114283   -0.0333145886
H       -0.6589379084   -0.4866260499   -1.2247770680
H       -3.0540571705   -0.3594372254    0.5033450687
H       -0.3903652890    2.1300066213   -0.7321538359
C       -2.2308385807   -0.4798937051    1.2171880432
H       -2.5155680315   -0.7095117071    2.2424709340
13   
Frame  21 IRC: Energy =  -286.8747610000 ; +0.8515 kcal/mol
C        2.1613586032    0.1714705911   -0.4727598359
C        1.2443802964   -0.7872188462   -0.2521058407
C       -0.1182995902   -0.1308035792   -0.3243314093
C       -0.9704874570   -0.3544401367    0.8635260871
C        0.3062696207    1.3071225333   -0.5949741649
N        1.5799424378    1.4558814057   -0.7000079738
H        3.2398020924    0.0775444595   -0.4920690883
H        1.4068161276   -1.8339792885   -0.0327246170
H       -0.6591276589   -0.4864180242   -1.2250194527
H       -3.0541479045   -0.3577869344    0.5040810968
H       -0.3903564699    2.1303609690   -0.7332453926
C       -2.2309444726   -0.4800733836    1.2170439439
H       -2.5152056249   -0.7116597659    2.2425866475
13   
Frame  22 IRC: Energy =  -286.8746900000 ; +0.8961 kcal/mol
C        2.1612386496    0.1714386441   -0.4719389279
C        1.2432639096   -0.7867696113   -0.2516982067
C       -0.1189490022   -0.1293976937   -0.3249471388
C       -0.9705335408   -0.3559791950    0.8627346600
C        0.3059363574    1.3078747825   -0.5971437239
N        1.5805928005    1.4556842850   -0.7014900738
H        3.2397692708    0.0770498698   -0.4889982273
H        1.4048570626   -1.8329190957   -0.0299102549
H       -0.6599105400   -0.4849397049   -1.2252076379
H       -3.0540552836   -0.3497474759    0.5076144728
H       -0.3889923542    2.1310242417   -0.7384350548
C       -2.2299503567   -0.4813015297    1.2181322503
H       -2.5132669731   -0.7220175169    2.2412878629
13   
Frame  23 IRC: Energy =  -286.8746760000 ; +0.9049 kcal/mol
C        2.1611063553    0.1713518125   -0.4717774287
C        1.2430306180   -0.7864765822   -0.2517040260
C       -0.1192541074   -0.1290144831   -0.3249478310
C       -0.9703484773   -0.3562636757    0.8624286999
C        0.3064584979    1.3077646013   -0.5975827453
N        1.5802224388    1.4556933828   -0.7017116066
H        3.2398959867    0.0769373124   -0.4884300238
H        1.4045198442   -1.8328607309   -0.0293715242
H       -0.6600267014   -0.4846415023   -1.2251831495
H       -3.0537833303   -0.3482996737    0.5084705718
H       -0.3887988845    2.1312557841   -0.7393960713
C       -2.2301013300   -0.4814918255    1.2181291160
H       -2.5129209100   -0.7239544197    2.2410760186
13   
Frame  24 IRC: Energy =  -286.8745680000 ; +0.9726 kcal/mol
C        2.1608056497    0.1713754506   -0.4705453638
C        1.2417164576   -0.7857932220   -0.2509758398
C       -0.1197990520   -0.1274137066   -0.3260301151
C       -0.9695112739   -0.3581349893    0.8626684592
C        0.3066444446    1.3092819897   -0.6003398026
N        1.5815692063    1.4554420307   -0.7042855682
H        3.2391932091    0.0761513227   -0.4839799573
H        1.4013380039   -1.8314009390   -0.0253214768
H       -0.6620602488   -0.4826402525   -1.2256598731
H       -3.0536258351   -0.3372623810    0.5126863065
H       -0.3871850006    2.1325783240   -0.7471603571
C       -2.2285587145   -0.4833283206    1.2194195415
H       -2.5105268465   -0.7388553066    2.2395240466
13   
Frame  25 IRC: Energy =  -286.8745410000 ; +0.9896 kcal/mol
C        2.1606303336    0.1713063875   -0.4703014745
C        1.2417751724   -0.7854227001   -0.2505889834
C       -0.1193107590   -0.1264603834   -0.3269835453
C       -0.9680036325   -0.3584233548    0.8626239919
C        0.3068853114    1.3093980184   -0.6005579948
N        1.5811992545    1.4548352833   -0.7047605545
H        3.2387818170    0.0760567393   -0.4831447101
H        1.4008253657   -1.8310945090   -0.0245213759
H       -0.6624468971   -0.4823820453   -1.2256523404
H       -3.0545821388   -0.3352081607    0.5126315762
H       -0.3869914439    2.1328150281   -0.7487031976
C       -2.2283041885   -0.4836395943    1.2195670035
H       -2.5104581946   -0.7417807090    2.2403916047
13   
Frame  26 IRC: Energy =  -286.8744040000 ; +1.0755 kcal/mol
C        2.1601945320    0.1710909063   -0.4690003691
C        1.2393642864   -0.7846065646   -0.2504395766
C       -0.1212243308   -0.1246406197   -0.3267684585
C       -0.9682231199   -0.3603600461    0.8628355708
C        0.3074073953    1.3108835393   -0.6045433999
N        1.5826258373    1.4551031796   -0.7076655258
H        3.2386725631    0.0748284952   -0.4777062567
H        1.3966845830   -1.8295047267   -0.0198797167
H       -0.6654859816   -0.4793923445   -1.2250694204
H       -3.0512252192   -0.3228355382    0.5186115779
H       -0.3846601486    2.1345272761   -0.7579155093
C       -2.2264740914   -0.4859354085    1.2210854409
H       -2.5076563057   -0.7591581482    2.2364556432
13   
Frame  27 IRC: Energy =  -286.8743840000 ; +1.0881 kcal/mol
C        2.1600638108    0.1710294165   -0.4688519579
C        1.2390638318   -0.7844228002   -0.2505449001
C       -0.1217179134   -0.1246602924   -0.3263752051
C       -0.9679953284   -0.3605073796    0.8626209716
C        0.3079467831    1.3109427968   -0.6050512872
N        1.5825860292    1.4552922530   -0.7079426784
H        3.2387799912    0.0746796391   -0.4771280152
H        1.3962171542   -1.8294039300   -0.0193993336
H       -0.6658270306   -0.4790368186   -1.2250381496
H       -3.0504181749   -0.3215665450    0.5195895434
H       -0.3844926342    2.1348488262   -0.7588812218
C       -2.2269730586   -0.4862366222    1.2213503202
H       -2.5072334604   -0.7609585437    2.2356519137
13   
Frame  28 IRC: Energy =  -286.8741910000 ; +1.2092 kcal/mol
C        2.1592965309    0.1706987883   -0.4672602399
C        1.2366322010   -0.7832480820   -0.2498502559
C       -0.1224939601   -0.1209992588   -0.3279556605
C       -0.9650519861   -0.3624627150    0.8644564751
C        0.3082633456    1.3129814710   -0.6091862741
N        1.5838850456    1.4543679220   -0.7119327472
H        3.2375077864    0.0731470199   -0.4701560560
H        1.3907771463   -1.8273011583   -0.0136616841
H       -0.6709894445   -0.4755409466   -1.2235186501
H       -3.0475179384   -0.3068171623    0.5238007954
H       -0.3817903043    2.1368146788   -0.7707140846
C       -2.2232438855   -0.4890314339    1.2230051341
H       -2.5052745370   -0.7826091232    2.2329732478
13   
Frame  29 IRC: Energy =  -286.8741680000 ; +1.2236 kcal/mol
C        2.1591447618    0.1706220661   -0.4670876135
C        1.2364542976   -0.7830054231   -0.2497449021
C       -0.1225490134   -0.1204837069   -0.3281812089
C       -0.9638890609   -0.3625918506    0.8643862693
C        0.3085426258    1.3130849454   -0.6095434635
N        1.5837304657    1.4541761093   -0.7123270609
H        3.2373485162    0.0730021649   -0.4694390833
H        1.3902422172   -1.8271140608   -0.0130631627
H       -0.6715194477   -0.4752029985   -1.2233326116
H       -3.0473218851   -0.3053241330    0.5241231525
H       -0.3815712572    2.1370578739   -0.7719486210
C       -2.2234802453   -0.4893588293    1.2232717234
H       -2.5051319747   -0.7848621572    2.2328865823
13   
Frame  30 IRC: Energy =  -286.8740320000 ; +1.3090 kcal/mol
C        2.1586111750    0.1703479664   -0.4661702084
C        1.2344707261   -0.7824224950   -0.2497626356
C       -0.1237612053   -0.1187117188   -0.3281618253
C       -0.9632002471   -0.3636861272    0.8657739623
C        0.3088584191    1.3143529968   -0.6125262163
N        1.5847882156    1.4540557537   -0.7147636230
H        3.2368201331    0.0719202560   -0.4649787582
H        1.3865981200   -1.8258495846   -0.0096249356
H       -0.6751897621   -0.4727281956   -1.2219223577
H       -3.0435354884   -0.2964771114    0.5274584148
H       -0.3797769935    2.1383930878   -0.7792462561
C       -2.2208721878   -0.4911923644    1.2243156384
H       -2.5038109047   -0.7980024636    2.2296088008
13   
Frame  31 IRC: Energy =  -286.8739940000 ; +1.3328 kcal/mol
C        2.1584666866    0.1702973492   -0.4659719726
C        1.2340295781   -0.7822583598   -0.2499917300
C       -0.1245064041   -0.1188642703   -0.3274619612
C       -0.9629597425   -0.3638197242    0.8658045198
C        0.3094053437    1.3146017157   -0.6133248749
N        1.5851124790    1.4542635967   -0.7152367831
H        3.2367769797    0.0716564718   -0.4640203861
H        1.3857147142   -1.8256045550   -0.0089479120
H       -0.6760577558   -0.4721155807   -1.2217218552
H       -3.0417943694   -0.2946942873    0.5288666152
H       -0.3795208240    2.1389089897   -0.7807673409
C       -2.2214245755   -0.4917028160    1.2247552854
H       -2.5032421100   -0.8006685295    2.2280183956
13   
Frame  32 IRC: Energy =  -286.8737890000 ; +1.4615 kcal/mol
C        2.1575467329    0.1698219674   -0.4647309062
C        1.2316025469   -0.7812650927   -0.2496191176
C       -0.1250845156   -0.1150847528   -0.3290436507
C       -0.9590419565   -0.3651039345    0.8685321139
C        0.3095315927    1.3162695452   -0.6167898823
N        1.5857809200    1.4532413331   -0.7188536717
H        3.2354952054    0.0702108215   -0.4576953563
H        1.3806460936   -1.8238694558   -0.0041402961
H       -0.6819737208   -0.4689990659   -1.2191596960
H       -3.0377468513   -0.2827028816    0.5306738768
H       -0.3771387246    2.1404132005   -0.7909910665
C       -2.2170970878   -0.4939931657    1.2261424529
H       -2.5025202347   -0.8189385186    2.2256751998
13   
Frame  33 IRC: Energy =  -286.8737440000 ; +1.4897 kcal/mol
C        2.1572990121    0.1696296503   -0.4645080993
C        1.2311479212   -0.7809870706   -0.2493502016
C       -0.1249309169   -0.1139445237   -0.3298137751
C       -0.9567708802   -0.3652303818    0.8685718170
C        0.3094535486    1.3164125167   -0.6171713932
N        1.5854460340    1.4529477157   -0.7194994020
H        3.2353208253    0.0700126667   -0.4566378885
H        1.3799261926   -1.8236259104   -0.0032816797
H       -0.6828644900   -0.4685352077   -1.2185390313
H       -3.0377823157   -0.2806520509    0.5303619164
H       -0.3766676983    2.1405098844   -0.7927383744
C       -2.2169177691   -0.4944072690    1.2265443520
H       -2.5026594637   -0.8221300197    2.2260617595
13   
Frame  34 IRC: Energy =  -286.8730770000 ; +1.9083 kcal/mol
C        2.1539685330    0.1680955254   -0.4618651237
C        1.2233779723   -0.7792871223   -0.2510920227
C       -0.1295495668   -0.1073451669   -0.3295715043
C       -0.9466407565   -0.3670857411    0.8779623323
C        0.3105181121    1.3204734949   -0.6272266335
N        1.5876732370    1.4515644984   -0.7282037867
H        3.2313814017    0.0658666835   -0.4397994275
H        1.3641364931   -1.8194427899    0.0089066206
H       -0.7023789498   -0.4601602890   -1.2093632736
H       -3.0141436224   -0.2524139671    0.5347802183
H       -0.3721748017    2.1449640238   -0.8166225576
C       -2.2054336477   -0.5006479483    1.2301106409
H       -2.5007344042   -0.8645812014    2.2119845175
13   
Frame  35 IRC: Energy =  -286.8730280000 ; +1.9390 kcal/mol
C        2.1537664135    0.1680088814   -0.4617209660
C        1.2229578653   -0.7791269793   -0.2512364978
C       -0.1299609338   -0.1070820976   -0.3292626694
C       -0.9450892720   -0.3670510885    0.8780079398
C        0.3107444079    1.3206501286   -0.6277816418
N        1.5877283429    1.4515185808   -0.7286462904
H        3.2311716692    0.0656468772   -0.4388877363
H        1.3632689912   -1.8192425247    0.0095515320
H       -0.7034708050   -0.4597033894   -1.2089030267
H       -3.0126418459   -0.2509385651    0.5351460337
H       -0.3719844993    2.1452733279   -0.8178963620
C       -2.2059566426   -0.5011461175    1.2306903801
H       -2.5005336913   -0.8668070338    2.2109393050
13   
Frame  36 IRC: Energy =  -286.8721670000 ; +2.4793 kcal/mol
C        2.1493915870    0.1661533162   -0.4592814404
C        1.2145065552   -0.7777615389   -0.2529257987
C       -0.1339912356   -0.0997534374   -0.3309476789
C       -0.9310945020   -0.3685064495    0.8889378002
C        0.3101941749    1.3241598338   -0.6365771302
N        1.5882262049    1.4496555437   -0.7363687955
H        3.2259587593    0.0614749265   -0.4232076630
H        1.3455863033   -1.8151361917    0.0224439985
H       -0.7235329797   -0.4529350083   -1.1987220359
H       -2.9852801912   -0.2244398159    0.5344802434
H       -0.3688387703    2.1487998331   -0.8387296442
C       -2.1910809449   -0.5064837878    1.2335552668
H       -2.5000449607   -0.9052272238    2.1973428779
13   
Frame  37 IRC: Energy =  -286.8720830000 ; +2.5320 kcal/mol
C        2.1490563870    0.1659828959   -0.4590927820
C        1.2138428789   -0.7775587922   -0.2530652407
C       -0.1344174806   -0.0992200402   -0.3308508993
C       -0.9285710829   -0.3684432585    0.8891608311
C        0.3102732310    1.3243687741   -0.6372097360
N        1.5881251888    1.4495322213   -0.7369261161
H        3.2255601869    0.0611766553   -0.4220356548
H        1.3442639328   -1.8148693747    0.0234133796
H       -0.7250501007   -0.4524362565   -1.1979653258
H       -2.9831007100   -0.2224973010    0.5344669017
H       -0.3686371011    2.1490972012   -0.8402748455
C       -2.1913987678   -0.5070680790    1.2342084912
H       -2.4999465624   -0.9080646458    2.1961709966
13   
Frame  38 IRC: Energy =  -286.8709890000 ; +3.2185 kcal/mol
C        2.1436070004    0.1641446728   -0.4565271961
C        1.2045253214   -0.7763978300   -0.2547771016
C       -0.1391757354   -0.0926143103   -0.3326487454
C       -0.9133901939   -0.3700123091    0.9006057294
C        0.3086890411    1.3277421218   -0.6453329893
N        1.5876874228    1.4480066459   -0.7428331273
H        3.2190787809    0.0563023884   -0.4083863576
H        1.3238880314   -1.8105444638    0.0371476851
H       -0.7437866300   -0.4475603655   -1.1886337735
H       -2.9499002926   -0.1974143157    0.5318323620
H       -0.3669514056    2.1528504407   -0.8582231668
C       -2.1744414803   -0.5123743483    1.2368739043
H       -2.4998298604   -0.9421283270    2.1809027768
13   