
Running Job 1 of 1 irc_reactant.in
qchem irc_reactant.in_90106.0 ./irc_reactant.d/ 1
/home/leeping/opt/qchem/5.0.2-openmp/exe/qcprog.exe_s irc_reactant.in_90106.0 ./irc_reactant.d/
Check license passed

                  Welcome to Q-Chem
     A Quantum Leap Into The Future Of Chemistry


 Q-Chem 5.0, Q-Chem, Inc., Pleasanton, CA (2017)

 Yihan Shao,  Zhengting Gan,  E. Epifanovsky,  A. T. B. Gilbert,  M. Wormit,  
 J. Kussmann,  A. W. Lange,  A. Behn,  Jia Deng,  Xintian Feng,  D. Ghosh,  
 M. Goldey,  P. R. Horn,  L. D. Jacobson,  I. Kaliman,  T. Kus,  A. Landau,  
 Jie Liu,  E. I. Proynov,  R. M. Richard,  R. P. Steele,  E. J. Sundstrom,  
 H. L. Woodcock III,  P. M. Zimmerman,  D. Zuev,  B. Albrecht,  E. Alguire,  
 S. A. Baeppler,  D. Barton,  Z. Benda,  Y. A. Bernard,  E. J. Berquist,  
 K. B. Bravaya,  H. Burton,  D. Casanova,  Chun-Min Chang,  Yunqing Chen,  
 A. Chien,  K. D. Closser,  M. P. Coons,  S. Dasgupta,  A. L. Dempwolff,  
 M. Diedenhofen,  Hainam Do,  R. G. Edgar,  Po-Tung Fang,  S. Fatehi,  
 Qingguo Feng,  J. Fosso-Tande,  Qinghui Ge,  A. Ghysels,  G. Gidofalvi,  
 J. Gomes,  J. Gonthier,  A. Gunina,  M. W. D. Hanson-Heine,  
 P. H. P. Harbach,  A. W. Hauser,  J. E. Herr,  E. G. Hohenstein,  
 Z. C. Holden,  Kerwin Hui,  T.-C. Jagau,  Hyunjun Ji,  B. Kaduk,  
 K. Khistyaev,  Jaehoon Kim,  P. Klunzinger,  K. Koh,  D. Kosenkov,  
 L. Koulias,  T. Kowalczyk,  C. M. Krauter,  A. Kunitsa,  Ka Un Lao,  
 A. Laurent,  K. V. Lawler,  Joonho Lee,  D. Lefrancois,  S. Lehtola,  
 D. S. Levine,  Yi-Pei Li,  You-Sheng Lin,  Fenglai Liu,  E. Livshits,  
 A. Luenser,  P. Manohar,  E. Mansoor,  S. F. Manzer,  Shan-Ping Mao,  
 Yuezhi Mao,  N. Mardirossian,  A. V. Marenich,  T. Markovich,  
 L. A. Martinez-Martinez,  S. A. Maurer,  N. J. Mayhall,  S. C. McKenzie,  
 J.-M. Mewes,  A. F. Morrison,  J. W. Mullinax,  K. Nanda,  
 T. S. Nguyen-Beck,  R. Olivares-Amaya,  J. A. Parkhill,  T. M. Perrine,  
 F. Plasser,  S. Prager,  A. Prociuk,  E. Ramos,  D. R. Rehn,  F. Rob,  
 M. Schneider,  N. Sergueev,  S. M. Sharada,  S. Sharma,  D. W. Small,  
 T. Stauch,  T. Stein,  Yu-Chuan Su,  A. J. W. Thom,  A. Tkatchenko,  
 T. Tsuchimochi,  L. Vogt,  O. Vydrov,  M. A. Watson,  J. Wenzel,  
 M. de Wergifosse,  T. A. Wesolowski,  A. White,  J. Witte,  A. Yamada,  
 Jun Yang,  K. Yao,  S. Yeganeh,  S. R. Yost,  Zhi-Qiang You,  A. Zech,  
 Igor Ying Zhang,  Xing Zhang,  Yan Zhao,  Ying Zhu,  B. R. Brooks,  
 G. K. L. Chan,  C. J. Cramer,  M. S. Gordon,  W. J. Hehre,  A. Klamt,  
 M. W. Schmidt,  C. D. Sherrill,  D. G. Truhlar,  A. Aspuru-Guzik,  R. Baer,  
 A. T. Bell,  N. A. Besley,  Jeng-Da Chai,  R. A. DiStasio Jr.,  A. Dreuw,  
 B. D. Dunietz,  T. R. Furlani,  Chao-Ping Hsu,  Yousung Jung,  Jing Kong,  
 D. S. Lambrecht,  WanZhen Liang,  C. Ochsenfeld,  V. A. Rassolov,  
 L. V. Slipchenko,  J. E. Subotnik,  T. Van Voorhis,  J. M. Herbert,  
 A. I. Krylov,  P. M. W. Gill,  M. Head-Gordon

 Contributors to earlier versions of Q-Chem not listed above: 
 R. D. Adamson,  B. Austin,  J. Baker,  G. J. O. Beran,  K. Brandhorst,  
 S. T. Brown,  E. F. C. Byrd,  A. K. Chakraborty,  C.-L. Cheng,  
 Siu Hung Chien,  D. M. Chipman,  D. L. Crittenden,  H. Dachsel,  
 R. J. Doerksen,  A. D. Dutoi,  L. Fusti-Molnar,  W. A. Goddard III,  
 A. Golubeva-Zadorozhnaya,  S. R. Gwaltney,  G. Hawkins,  A. Heyden,  
 S. Hirata,  G. Kedziora,  F. J. Keil,  C. Kelley,  Jihan Kim,  R. A. King,  
 R. Z. Khaliullin,  P. P. Korambath,  W. Kurlancheek,  A. M. Lee,  M. S. Lee,  
 S. V. Levchenko,  Ching Yeh Lin,  D. Liotard,  R. C. Lochan,  I. Lotan,  
 P. E. Maslen,  N. Nair,  D. P. O'Neill,  D. Neuhauser,  E. Neuscamman,  
 C. M. Oana,  R. Olson,  B. Peters,  R. Peverati,  P. A. Pieniazek,  
 Y. M. Rhee,  J. Ritchie,  M. A. Rohrdanz,  E. Rosta,  N. J. Russ,  
 H. F. Schaefer III,  N. E. Schultz,  N. Shenvi,  A. C. Simmonett,  A. Sodt,  
 D. Stuck,  K. S. Thanthiriwatte,  V. Vanovschi,  Tao Wang,  A. Warshel,  
 C. F. Williams,  Q. Wu,  X. Xu,  W. Zhang

 Please cite Q-Chem as follows:
 Y. Shao et al., Mol. Phys. 113, 184-215 (2015)
 DOI: 10.1080/00268976.2014.952696

 Q-Chem 5.0.2 for Intel X86 EM64T Linux

 Parts of Q-Chem use Armadillo 5.200.1 (Boston Tea Smuggler).
 http://arma.sourceforge.net/

 Q-Chem begins on Thu Mar  3 11:48:30 2022  

Host: 
0

     Scratch files written to ./irc_reactant.d//
 Dec517 15110_ 26548  26544 5633   
Processing $rem in /home/leeping/opt/qchem/5.0.2-openmp/config/preferences.
 MEM_STATIC 2000
 MEM_TOTAL  8000
 SYMMETRY   OFF
 SYM_IGNORE TRUE 

Checking the input file for inconsistencies... 	...done.

--------------------------------------------------------------
User input:
--------------------------------------------------------------
$molecule
0 2
C        2.1533176575    0.1311404754   -0.5078366295
C        1.1925506902   -0.7707807381   -0.2348762653
C       -0.1313267574   -0.0406358125   -0.2805650748
C       -1.0010926800   -0.1628219816    0.9066809235
C        0.3623276949    1.3687209901   -0.5771414198
N        1.6390010530    1.4462500607   -0.7210612340
H        3.2220471705   -0.0268372223   -0.5821554876
H        1.3054908269   -1.8266935534   -0.0285788128
H       -0.7061929189   -0.3799946169   -1.1687705911
H       -2.9117112541   -0.9182168525    0.4407252299
H       -0.2912920279    2.2306536390   -0.6784167266
C       -2.2239039125   -0.5434790474    1.2076132923
H       -2.6092155420   -0.5073053405    2.2243827960
$end

$rem
method                b3lyp
basis                 6-31+g(d,p)
unrestricted          true
symmetry              off
sym_ignore            true
incdft                false
incfock               0
scf_convergence       8
thresh                14
jobtype               sp
scf_guess             read
scf_algorithm         diis
max_scf_cycles        100
scf_final_print       1
$end

--------------------------------------------------------------
 ----------------------------------------------------------------
             Standard Nuclear Orientation (Angstroms)
    I     Atom           X                Y                Z
 ----------------------------------------------------------------
    1      C       2.1533176575     0.1311404754    -0.5078366295
    2      C       1.1925506902    -0.7707807381    -0.2348762653
    3      C      -0.1313267574    -0.0406358125    -0.2805650748
    4      C      -1.0010926800    -0.1628219816     0.9066809235
    5      C       0.3623276949     1.3687209901    -0.5771414198
    6      N       1.6390010530     1.4462500607    -0.7210612340
    7      H       3.2220471705    -0.0268372223    -0.5821554876
    8      H       1.3054908269    -1.8266935534    -0.0285788128
    9      H      -0.7061929189    -0.3799946169    -1.1687705911
   10      H      -2.9117112541    -0.9182168525     0.4407252299
   11      H      -0.2912920279     2.2306536390    -0.6784167266
   12      C      -2.2239039125    -0.5434790474     1.2076132923
   13      H      -2.6092155420    -0.5073053405     2.2243827960
 ----------------------------------------------------------------
 Nuclear Repulsion Energy =   254.9835576339 hartrees
 There are       25 alpha and       24 beta electrons
 Requested basis set is 6-31+G(d,p)
 There are 53 shells and 163 basis functions

 Total QAlloc Memory Limit   8000 MB
 Mega-Array Size      1956 MB
 MEM_STATIC part      2000 MB

                       Distance Matrix (Angstroms)
             C (  1)   C (  2)   C (  3)   C (  4)   C (  5)   N (  6)
   C (  2)  1.345750
   C (  3)  2.302338  1.512564
   C (  4)  3.469521  2.546534  1.476813
   C (  5)  2.178085  2.320320  1.522478  2.531061
   N (  6)  1.428110  2.313205  2.353493  3.494103  1.287097
   H (  7)  1.082896  2.189272  3.366937  4.479959  3.182075  2.166868
   H (  8)  2.186690  1.081788  2.306067  2.993912  3.376559  3.361982
   H (  9)  2.979076  2.151767  1.111101  2.107517  2.133018  3.005919
   H ( 10)  5.258844  4.162108  3.003489  2.106703  4.121343  5.258273
   H ( 11)  3.226944  3.377444  2.311413  2.957208  1.086464  2.084020
   C ( 12)  4.749521  3.715455  2.616564  1.315571  3.678376  4.754034
   H ( 13)  5.527600  4.535504  3.554220  2.107384  4.494228  5.526243
             H (  7)   H (  8)   H (  9)   H ( 10)   H ( 11)   C ( 12)
   H (  8)  2.686842
   H (  9)  3.987469  2.727608
   H ( 10)  6.282025  4.339397  2.782889
   H ( 11)  4.177210  4.408409  2.688508  4.246700
   C ( 12)  5.755743  3.953661  2.824425  1.096186  3.871422
   H ( 13)  6.489309  4.705481  3.892453  1.855205  4.614698  1.087931

 
 A cutoff of  1.0D-14 yielded   1347 shell pairs
 There are     13161 function pairs
 
 -------------------------------------------------------
 OpenMP Integral Computing Module                       
 Release: version 1.0, May 2013, Q-Chem Inc. Pittsburgh 
 -------------------------------------------------------
 Integral Job Info:
 Integral job number is                      11
 Integral operator is                         1
 short-range coefficients                     0
 long-range coefficients              100000000
 Omega coefficients                           0
 if combine SR and LR in K                    0
 Integral screening is                        0
 Integral computing path is                   2
 max size of driver memory is            800000
 size of driver memory is                593474
 size of scratch memory is              2361544
 max col of scratch BK array               1296
 max len of scratch array in speh3          155
 max len of scratch index in speh4           18
 max int batch size is                      520
 min int batch size is                       52
 fixed nKL is                                52
 max L of basis functions is                  2
 order of int derivative is                   0
 number of shells is                         53
 number of basis is                         163
 number of cartesian basis is               163
 number of contracted shell pairs          1347
 number of primitive shell pairs           4463
 maxK2 (contraction) of shell pair           36
 max number of K2 of shell pair               1
 max number of CS2 of shell pair            128
 max number of PS2 of shell pair            654
 mem total for path MDJ                  530316
 -------------------------------------------------------
 Smallest overlap matrix eigenvalue = 1.42E-05

 Scale SEOQF with 1.000000e-01/1.000000e-01/1.000000e-01

 Standard Electronic Orientation quadrupole field applied
 Nucleus-field energy     =     0.0000000041 hartrees
 Guess MOs from SCF MO coefficient file
 Reading MOs from coefficient file
 Reading MOs from coefficient file
 An unrestricted hybrid HF-DFT SCF calculation will be
 performed using Pulay DIIS extrapolation
 Exchange:     0.2000 Hartree-Fock + 0.0800 Slater + 0.7200 B88
 Correlation:  0.1900 VWN1RPA + 0.8100 LYP
 Using SG-1 standard quadrature grid
 SCF converges when DIIS error is below 1.0E-08
Using Q-Chem read-in guess as SCF_GUESS READ specified.

 using 4 threads for integral computing
 -------------------------------------------------------
 OpenMP Integral computing Module                
 Release: version 1.0, May 2013, Q-Chem Inc. Pittsburgh 
 -------------------------------------------------------
 -------------------------------------------------------
 OpenMP BLAS3 based DFT computing Module                
 Release: version 1.0, May 2013, Q-Chem Inc. Pittsburgh 
 -------------------------------------------------------
 ---------------------------------------
  Cycle       Energy         DIIS Error
 ---------------------------------------
    1    -286.8761179875      1.56E-09
    2    -286.8761179876      2.28E-09 Convergence criterion met
 ---------------------------------------
 One-Electron    Energy =  -890.1698468266
 Total Coulomb   Energy =   389.8676983638
 Alpha Exchange  Energy =    -4.0141797978
 Beta  Exchange  Energy =    -3.9219982265
 DFT   Exchange  Energy =   -31.5269408312
 DFT Correlation Energy =    -2.0944083073
 Nuclear Repu.   Energy =   254.9835576380
 Nuclear Attr.   Energy = -1174.2591045299
 Kinetic         Energy =   284.0892577033
 <S^2> = 0.7595
 SCF time:  CPU 9.62 s  wall 2.61 s
 Final Alpha MO Eigenvalues
            1           2           3           4           5           6
    1 -14.3496528 -10.2448804 -10.2377190 -10.2350351 -10.2269789 -10.2096195
            7           8           9          10          11          12
    1 -10.2055109  -0.9669923  -0.8235396  -0.7641908  -0.7306485  -0.6117026
           13          14          15          16          17          18
    1  -0.5662876  -0.5561827  -0.5178823  -0.4775291  -0.4589844  -0.4269505
           19          20          21          22          23          24
    1  -0.4096025  -0.3955969  -0.3669996  -0.3022329  -0.2753974  -0.2550746
           25          26          27          28          29          30
    1  -0.2375409  -0.0558991  -0.0152178   0.0045380   0.0195597   0.0257986
 Final Beta MO Eigenvalues
            1           2           3           4           5           6
    1 -14.3496498 -10.2446785 -10.2374319 -10.2270347 -10.2202837 -10.2093768
            7           8           9          10          11          12
    1 -10.2067822  -0.9666106  -0.8108944  -0.7592360  -0.7279152  -0.6069886
           13          14          15          16          17          18
    1  -0.5656430  -0.5462828  -0.5079296  -0.4693316  -0.4467795  -0.4244666
           19          20          21          22          23          24
    1  -0.4080526  -0.3922205  -0.3634793  -0.2967365  -0.2732313  -0.2543591
           25          26          27          28          29
    1  -0.0892934  -0.0535969  -0.0058804   0.0078368   0.0198157
 SCF   energy in the final basis set = -286.87611799
 Total energy in the final basis set = -286.87611799
 
 --------------------------------------------------------------
 
                    Orbital Energies (a.u.)
 --------------------------------------------------------------
 
 Alpha MOs
 -- Occupied --
-14.350 -10.245 -10.238 -10.235 -10.227 -10.210 -10.206  -0.967
 -0.824  -0.764  -0.731  -0.612  -0.566  -0.556  -0.518  -0.478
 -0.459  -0.427  -0.410  -0.396  -0.367  -0.302  -0.275  -0.255
 -0.238
 -- Virtual --
 -0.056  -0.015   0.005   0.020   0.026   0.033   0.038   0.044
  0.050   0.062   0.065   0.079   0.089   0.094   0.101   0.103
  0.122   0.134   0.139   0.143   0.150   0.165   0.180   0.189
  0.191   0.196   0.197   0.209   0.222   0.225   0.241   0.244
  0.250   0.254   0.273   0.288   0.300   0.303   0.338   0.372
  0.395   0.425   0.443   0.458   0.609   0.640   0.655   0.671
  0.683   0.696   0.710   0.731   0.732   0.741   0.772   0.797
  0.812   0.839   0.863   0.882   0.908   0.928   0.964   0.973
  0.997   1.004   1.015   1.039   1.069   1.073   1.098   1.149
  1.178   1.226   1.246   1.269   1.341   1.371   1.419   1.424
  1.466   1.476   1.532   1.592   1.634   1.679   1.739   1.787
  1.826   1.833   1.878   1.940   1.955   2.002   2.027   2.032
  2.057   2.074   2.119   2.203   2.246   2.261   2.269   2.341
  2.370   2.406   2.445   2.489   2.495   2.523   2.545   2.556
  2.588   2.604   2.623   2.662   2.692   2.713   2.748   2.759
  2.869   2.903   3.020   3.048   3.131   3.270   3.311   3.356
  3.474   3.567   3.674   4.136   4.278   4.330   4.397   4.513
  4.576   4.755
 
 Beta MOs
 -- Occupied --
-14.350 -10.245 -10.237 -10.227 -10.220 -10.209 -10.207  -0.967
 -0.811  -0.759  -0.728  -0.607  -0.566  -0.546  -0.508  -0.469
 -0.447  -0.424  -0.408  -0.392  -0.363  -0.297  -0.273  -0.254
 -- Virtual --
 -0.089  -0.054  -0.006   0.008   0.020   0.026   0.034   0.039
  0.044   0.051   0.062   0.065   0.079   0.091   0.095   0.101
  0.105   0.123   0.135   0.139   0.144   0.152   0.167   0.182
  0.190   0.194   0.197   0.200   0.212   0.224   0.227   0.241
  0.246   0.255   0.258   0.276   0.289   0.301   0.304   0.347
  0.377   0.397   0.436   0.446   0.459   0.615   0.647   0.660
  0.676   0.685   0.700   0.719   0.731   0.735   0.763   0.776
  0.803   0.819   0.848   0.866   0.883   0.911   0.931   0.972
  0.977   1.004   1.007   1.018   1.044   1.074   1.075   1.102
  1.150   1.181   1.231   1.256   1.272   1.342   1.374   1.424
  1.426   1.466   1.480   1.542   1.596   1.644   1.695   1.768
  1.803   1.832   1.850   1.881   1.943   1.956   2.006   2.041
  2.043   2.066   2.084   2.126   2.211   2.256   2.261   2.272
  2.348   2.373   2.407   2.447   2.492   2.498   2.526   2.550
  2.558   2.590   2.606   2.626   2.675   2.694   2.715   2.756
  2.767   2.878   2.910   3.026   3.058   3.132   3.271   3.319
  3.362   3.476   3.579   3.674   4.136   4.299   4.330   4.397
  4.521   4.580   4.758
 --------------------------------------------------------------
 
          Ground-State Mulliken Net Atomic Charges

     Atom                 Charge (a.u.)    Spin (a.u.)
  --------------------------------------------------------
      1 C                    -0.175702      -0.006861
      2 C                     0.033243      -0.009281
      3 C                    -0.283854       0.071221
      4 C                     0.042188       0.937562
      5 C                     0.032321      -0.039384
      6 N                    -0.189322       0.004924
      7 H                     0.136085       0.000446
      8 H                     0.143178      -0.000412
      9 H                     0.187283       0.058662
     10 H                     0.144639       0.084294
     11 H                     0.143637      -0.000090
     12 C                    -0.369581      -0.139894
     13 H                     0.155887       0.038814
  --------------------------------------------------------
  Sum of atomic charges =     0.000000
  Sum of spin   charges =     1.000000

 -----------------------------------------------------------------
                    Cartesian Multipole Moments
 -----------------------------------------------------------------
    Charge (ESU x 10^10)
                 0.0000
    Dipole Moment (Debye)
         X      -1.6784      Y      -1.7633      Z      -0.3124
       Tot       2.4543
    Quadrupole Moments (Debye-Ang)
        XX     -40.2220     XY      -4.2761     YY     -44.5046
        XZ       1.1748     YZ       1.1934     ZZ     -43.3899
    Octopole Moments (Debye-Ang^2)
       XXX     -27.2690    XXY     -20.8576    XYY     -17.7601
       YYY     -26.4007    XXZ       4.6512    XYZ       4.4702
       YYZ       1.9761    XZZ     -17.0103    YZZ      -8.4545
       ZZZ       6.0720
    Hexadecapole Moments (Debye-Ang^3)
      XXXX    -594.3890   XXXY     -69.6766   XXYY    -173.4241
      XYYY     -95.3017   YYYY    -258.0020   XXXZ     108.2825
      XXYZ      20.4986   XYYZ      54.2170   YYYZ      52.7254
      XXZZ    -137.1444   XYZZ     -22.1171   YYZZ     -83.9694
      XZZZ     114.6651   YZZZ      48.6165   ZZZZ    -194.6577
 -----------------------------------------------------------------
 Mayer SCF Bond Order, atomic valence on the diagonal:

            1           2           3           4           5           6
    1   3.9439675   1.7912891   0.1042351  -0.0293827  -0.0053116   1.0480463
    2   1.7912891   3.7363018   0.9440942   0.0703421   0.0986819  -0.1185459
    3   0.1042351   0.9440942   4.2170873   1.0772634   0.8774748   0.1595965
    4  -0.0293827   0.0703421   1.0772634   2.9546382  -0.0221326  -0.0395309
    5  -0.0053116   0.0986819   0.8774748  -0.0221326   3.5987408   1.6400904
    6   1.0480463  -0.1185459   0.1595965  -0.0395309   1.6400904   2.7063928
    7   0.9747701  -0.0251989   0.0211910   0.0023718   0.0069031  -0.0334630
    8   0.0240166   0.8815277  -0.0085636   0.0320062   0.0084356   0.0127597
    9   0.0087320   0.0214476   0.8698675  -0.0243077   0.0026890   0.0201469
   10   0.0006110   0.0006207   0.0348633  -0.0230294  -0.0028817   0.0007398
   11   0.0070236   0.0269572  -0.0637103   0.0247500   0.9649317  -0.0252220
   12   0.0204076   0.0449074   0.1813660   1.8961291   0.0309016   0.0412631
   13  -0.0004698   0.0001787   0.0194095  -0.0098411  -0.0010413   0.0005119
            7           8           9          10          11          12
    1   0.9747701   0.0240166   0.0087320   0.0006110   0.0070236   0.0204076
    2  -0.0251989   0.8815277   0.0214476   0.0006207   0.0269572   0.0449074
    3   0.0211910  -0.0085636   0.8698675   0.0348633  -0.0637103   0.1813660
    4   0.0023718   0.0320062  -0.0243077  -0.0230294   0.0247500   1.8961291
    5   0.0069031   0.0084356   0.0026890  -0.0028817   0.9649317   0.0309016
    6  -0.0334630   0.0127597   0.0201469   0.0007398  -0.0252220   0.0412631
    7   0.9496655   0.0005167   0.0005532   0.0000069   0.0021672  -0.0002240
    8   0.0005167   0.9563780  -0.0000297  -0.0000205   0.0009597   0.0047468
    9   0.0005532  -0.0000297   0.9314655   0.0033151   0.0001614   0.0275880
   10   0.0000069  -0.0000205   0.0033151   0.9480326  -0.0000216   0.9413698
   11   0.0021672   0.0009597   0.0001614  -0.0000216   0.9449668   0.0069513
   12  -0.0002240   0.0047468   0.0275880   0.9413698   0.0069513   4.1404144
   13   0.0000714   0.0000227   0.0013022  -0.0075408   0.0000187   0.9450076
           13
    1  -0.0004698
    2   0.0001787
    3   0.0194095
    4  -0.0098411
    5  -0.0010413
    6   0.0005119
    7   0.0000714
    8   0.0000227
    9   0.0013022
   10  -0.0075408
   11   0.0000187
   12   0.9450076
   13   0.9476297


Archival summary:
1\1\c8-89\SP\ProcedureUnspecified\6-31+G**\166(2)\hpark21\ThuMar311:48:332022ThuMar311:48:332022\0\\#,ProcedureUnspecified,6-31+G**,\\0,2\C\H,1,1.1111\C,1,1.47681,2,108.22\C,3,1.31557,1,139.048,2,-0.163024,0\H,4,1.08793,3,122.233,1,-179.105,0\H,4,1.09619,3,121.473,1,1.01442,0\C,1,1.51256,2,109.242,3,128.176,0\H,7,1.08179,1,124.633,2,-68.9564,0\C,7,1.34575,1,107.171,2,110.414,0\H,9,1.0829,7,128.37,1,-178.753,0\N,9,1.42811,7,112.976,1,1.06395,0\C,11,1.2871,9,106.562,7,0.237981,0\H,12,1.08646,11,122.583,9,179.593,0\\\@

 Total job time:  3.56s(wall), 11.36s(cpu) 
 Thu Mar  3 11:48:33 2022

        *************************************************************
        *                                                           *
        *  Thank you very much for using Q-Chem.  Have a nice day.  *
        *                                                           *
        *************************************************************


