
Running Job 1 of 1 irc_reactant.in
qchem irc_reactant.in_90048.0 ./irc_reactant.d/ 1
/home/leeping/opt/qchem/5.0.2-openmp/exe/qcprog.exe_s irc_reactant.in_90048.0 ./irc_reactant.d/
Check license passed

                  Welcome to Q-Chem
     A Quantum Leap Into The Future Of Chemistry


 Q-Chem 5.0, Q-Chem, Inc., Pleasanton, CA (2017)

 Yihan Shao,  Zhengting Gan,  E. Epifanovsky,  A. T. B. Gilbert,  M. Wormit,  
 J. Kussmann,  A. W. Lange,  A. Behn,  Jia Deng,  Xintian Feng,  D. Ghosh,  
 M. Goldey,  P. R. Horn,  L. D. Jacobson,  I. Kaliman,  T. Kus,  A. Landau,  
 Jie Liu,  E. I. Proynov,  R. M. Richard,  R. P. Steele,  E. J. Sundstrom,  
 H. L. Woodcock III,  P. M. Zimmerman,  D. Zuev,  B. Albrecht,  E. Alguire,  
 S. A. Baeppler,  D. Barton,  Z. Benda,  Y. A. Bernard,  E. J. Berquist,  
 K. B. Bravaya,  H. Burton,  D. Casanova,  Chun-Min Chang,  Yunqing Chen,  
 A. Chien,  K. D. Closser,  M. P. Coons,  S. Dasgupta,  A. L. Dempwolff,  
 M. Diedenhofen,  Hainam Do,  R. G. Edgar,  Po-Tung Fang,  S. Fatehi,  
 Qingguo Feng,  J. Fosso-Tande,  Qinghui Ge,  A. Ghysels,  G. Gidofalvi,  
 J. Gomes,  J. Gonthier,  A. Gunina,  M. W. D. Hanson-Heine,  
 P. H. P. Harbach,  A. W. Hauser,  J. E. Herr,  E. G. Hohenstein,  
 Z. C. Holden,  Kerwin Hui,  T.-C. Jagau,  Hyunjun Ji,  B. Kaduk,  
 K. Khistyaev,  Jaehoon Kim,  P. Klunzinger,  K. Koh,  D. Kosenkov,  
 L. Koulias,  T. Kowalczyk,  C. M. Krauter,  A. Kunitsa,  Ka Un Lao,  
 A. Laurent,  K. V. Lawler,  Joonho Lee,  D. Lefrancois,  S. Lehtola,  
 D. S. Levine,  Yi-Pei Li,  You-Sheng Lin,  Fenglai Liu,  E. Livshits,  
 A. Luenser,  P. Manohar,  E. Mansoor,  S. F. Manzer,  Shan-Ping Mao,  
 Yuezhi Mao,  N. Mardirossian,  A. V. Marenich,  T. Markovich,  
 L. A. Martinez-Martinez,  S. A. Maurer,  N. J. Mayhall,  S. C. McKenzie,  
 J.-M. Mewes,  A. F. Morrison,  J. W. Mullinax,  K. Nanda,  
 T. S. Nguyen-Beck,  R. Olivares-Amaya,  J. A. Parkhill,  T. M. Perrine,  
 F. Plasser,  S. Prager,  A. Prociuk,  E. Ramos,  D. R. Rehn,  F. Rob,  
 M. Schneider,  N. Sergueev,  S. M. Sharada,  S. Sharma,  D. W. Small,  
 T. Stauch,  T. Stein,  Yu-Chuan Su,  A. J. W. Thom,  A. Tkatchenko,  
 T. Tsuchimochi,  L. Vogt,  O. Vydrov,  M. A. Watson,  J. Wenzel,  
 M. de Wergifosse,  T. A. Wesolowski,  A. White,  J. Witte,  A. Yamada,  
 Jun Yang,  K. Yao,  S. Yeganeh,  S. R. Yost,  Zhi-Qiang You,  A. Zech,  
 Igor Ying Zhang,  Xing Zhang,  Yan Zhao,  Ying Zhu,  B. R. Brooks,  
 G. K. L. Chan,  C. J. Cramer,  M. S. Gordon,  W. J. Hehre,  A. Klamt,  
 M. W. Schmidt,  C. D. Sherrill,  D. G. Truhlar,  A. Aspuru-Guzik,  R. Baer,  
 A. T. Bell,  N. A. Besley,  Jeng-Da Chai,  R. A. DiStasio Jr.,  A. Dreuw,  
 B. D. Dunietz,  T. R. Furlani,  Chao-Ping Hsu,  Yousung Jung,  Jing Kong,  
 D. S. Lambrecht,  WanZhen Liang,  C. Ochsenfeld,  V. A. Rassolov,  
 L. V. Slipchenko,  J. E. Subotnik,  T. Van Voorhis,  J. M. Herbert,  
 A. I. Krylov,  P. M. W. Gill,  M. Head-Gordon

 Contributors to earlier versions of Q-Chem not listed above: 
 R. D. Adamson,  B. Austin,  J. Baker,  G. J. O. Beran,  K. Brandhorst,  
 S. T. Brown,  E. F. C. Byrd,  A. K. Chakraborty,  C.-L. Cheng,  
 Siu Hung Chien,  D. M. Chipman,  D. L. Crittenden,  H. Dachsel,  
 R. J. Doerksen,  A. D. Dutoi,  L. Fusti-Molnar,  W. A. Goddard III,  
 A. Golubeva-Zadorozhnaya,  S. R. Gwaltney,  G. Hawkins,  A. Heyden,  
 S. Hirata,  G. Kedziora,  F. J. Keil,  C. Kelley,  Jihan Kim,  R. A. King,  
 R. Z. Khaliullin,  P. P. Korambath,  W. Kurlancheek,  A. M. Lee,  M. S. Lee,  
 S. V. Levchenko,  Ching Yeh Lin,  D. Liotard,  R. C. Lochan,  I. Lotan,  
 P. E. Maslen,  N. Nair,  D. P. O'Neill,  D. Neuhauser,  E. Neuscamman,  
 C. M. Oana,  R. Olson,  B. Peters,  R. Peverati,  P. A. Pieniazek,  
 Y. M. Rhee,  J. Ritchie,  M. A. Rohrdanz,  E. Rosta,  N. J. Russ,  
 H. F. Schaefer III,  N. E. Schultz,  N. Shenvi,  A. C. Simmonett,  A. Sodt,  
 D. Stuck,  K. S. Thanthiriwatte,  V. Vanovschi,  Tao Wang,  A. Warshel,  
 C. F. Williams,  Q. Wu,  X. Xu,  W. Zhang

 Please cite Q-Chem as follows:
 Y. Shao et al., Mol. Phys. 113, 184-215 (2015)
 DOI: 10.1080/00268976.2014.952696

 Q-Chem 5.0.2 for Intel X86 EM64T Linux

 Parts of Q-Chem use Armadillo 5.200.1 (Boston Tea Smuggler).
 http://arma.sourceforge.net/

 Q-Chem begins on Thu Mar  3 11:45:05 2022  

Host: 
0

     Scratch files written to ./irc_reactant.d//
 Dec517 15110_ 26548  26544 5633   
Processing $rem in /home/leeping/opt/qchem/5.0.2-openmp/config/preferences.
 MEM_STATIC 2000
 MEM_TOTAL  8000
 SYMMETRY   OFF
 SYM_IGNORE TRUE 

Checking the input file for inconsistencies... 	...done.

--------------------------------------------------------------
User input:
--------------------------------------------------------------
$molecule
0 2
C        2.1533176575    0.1311404754   -0.5078366295
C        1.1925506902   -0.7707807381   -0.2348762653
C       -0.1313267574   -0.0406358125   -0.2805650748
C       -1.0010926800   -0.1628219816    0.9066809235
C        0.3623276949    1.3687209901   -0.5771414198
N        1.6390010530    1.4462500607   -0.7210612340
H        3.2220471705   -0.0268372223   -0.5821554876
H        1.3054908269   -1.8266935534   -0.0285788128
H       -0.7061929189   -0.3799946169   -1.1687705911
H       -2.9117112541   -0.9182168525    0.4407252299
H       -0.2912920279    2.2306536390   -0.6784167266
C       -2.2239039125   -0.5434790474    1.2076132923
H       -2.6092155420   -0.5073053405    2.2243827960
$end

$rem
method                b3lyp
basis                 6-31+g(d,p)
unrestricted          true
symmetry              off
sym_ignore            true
incdft                false
incfock               0
scf_convergence       6
thresh                14
jobtype               sp
scf_guess             read
scf_algorithm         diis
max_scf_cycles        100
stability_analysis    true
max_cis_cycles        100
cis_n_roots           4
$end

--------------------------------------------------------------
 ----------------------------------------------------------------
             Standard Nuclear Orientation (Angstroms)
    I     Atom           X                Y                Z
 ----------------------------------------------------------------
    1      C       2.1533176575     0.1311404754    -0.5078366295
    2      C       1.1925506902    -0.7707807381    -0.2348762653
    3      C      -0.1313267574    -0.0406358125    -0.2805650748
    4      C      -1.0010926800    -0.1628219816     0.9066809235
    5      C       0.3623276949     1.3687209901    -0.5771414198
    6      N       1.6390010530     1.4462500607    -0.7210612340
    7      H       3.2220471705    -0.0268372223    -0.5821554876
    8      H       1.3054908269    -1.8266935534    -0.0285788128
    9      H      -0.7061929189    -0.3799946169    -1.1687705911
   10      H      -2.9117112541    -0.9182168525     0.4407252299
   11      H      -0.2912920279     2.2306536390    -0.6784167266
   12      C      -2.2239039125    -0.5434790474     1.2076132923
   13      H      -2.6092155420    -0.5073053405     2.2243827960
 ----------------------------------------------------------------
 Nuclear Repulsion Energy =   254.9835576339 hartrees
 There are       25 alpha and       24 beta electrons
 Requested basis set is 6-31+G(d,p)
 There are 53 shells and 163 basis functions

 Total QAlloc Memory Limit   8000 MB
 Mega-Array Size      1956 MB
 MEM_STATIC part      2000 MB

                       Distance Matrix (Angstroms)
             C (  1)   C (  2)   C (  3)   C (  4)   C (  5)   N (  6)
   C (  2)  1.345750
   C (  3)  2.302338  1.512564
   C (  4)  3.469521  2.546534  1.476813
   C (  5)  2.178085  2.320320  1.522478  2.531061
   N (  6)  1.428110  2.313205  2.353493  3.494103  1.287097
   H (  7)  1.082896  2.189272  3.366937  4.479959  3.182075  2.166868
   H (  8)  2.186690  1.081788  2.306067  2.993912  3.376559  3.361982
   H (  9)  2.979076  2.151767  1.111101  2.107517  2.133018  3.005919
   H ( 10)  5.258844  4.162108  3.003489  2.106703  4.121343  5.258273
   H ( 11)  3.226944  3.377444  2.311413  2.957208  1.086464  2.084020
   C ( 12)  4.749521  3.715455  2.616564  1.315571  3.678376  4.754034
   H ( 13)  5.527600  4.535504  3.554220  2.107384  4.494228  5.526243
             H (  7)   H (  8)   H (  9)   H ( 10)   H ( 11)   C ( 12)
   H (  8)  2.686842
   H (  9)  3.987469  2.727608
   H ( 10)  6.282025  4.339397  2.782889
   H ( 11)  4.177210  4.408409  2.688508  4.246700
   C ( 12)  5.755743  3.953661  2.824425  1.096186  3.871422
   H ( 13)  6.489309  4.705481  3.892453  1.855205  4.614698  1.087931

 
 A cutoff of  1.0D-14 yielded   1347 shell pairs
 There are     13161 function pairs
 Smallest overlap matrix eigenvalue = 1.42E-05

 Scale SEOQF with 1.000000e-01/1.000000e-01/1.000000e-01

 Standard Electronic Orientation quadrupole field applied
 Nucleus-field energy     =     0.0000000041 hartrees
 Guess MOs from SCF MO coefficient file
 Reading MOs from coefficient file
 Reading MOs from coefficient file
 An unrestricted hybrid HF-DFT SCF calculation will be
 performed using Pulay DIIS extrapolation
 Exchange:     0.2000 Hartree-Fock + 0.0800 Slater + 0.7200 B88
 Correlation:  0.1900 VWN1RPA + 0.8100 LYP
 Using SG-1 standard quadrature grid
 SCF converges when DIIS error is below 1.0E-06
Using Q-Chem read-in guess as SCF_GUESS READ specified.

 -------------------------------------------------------
 OpenMP BLAS3 based DFT computing Module                
 -------------------------------------------------------
 ---------------------------------------
  Cycle       Energy         DIIS Error
 ---------------------------------------
    1    -286.8761179873      1.98E-09
    2    -286.8761179874      1.45E-09 Convergence criterion met
 ---------------------------------------
 <S^2> = 0.7595
 SCF time:  CPU 5.89 s  wall 7.23 s
 SCF   energy in the final basis set = -286.87611799
 Total energy in the final basis set = -286.87611799
 
 Direct TDDFT/TDA calculation will be performed
 Exchange:     0.2000 Hartree-Fock + 0.0800 Slater + 0.7200 B88
 Correlation:  0.1900 VWN1RPA + 0.8100 LYP
 Using SG-1 standard quadrature grid
 CIS energy converged when residual is below 10e- 6
 ---------------------------------------------------
 Iter    Rts Conv    Rts Left    Ttl Dev     Max Dev
 ---------------------------------------------------
   1         0           4      0.002987    0.001817
   2         0           4      0.001703    0.000745
   3         0           4      0.000594    0.000212
   4         0           4      0.000299    0.000114
   5         0           4      0.000157    0.000084
   6         0           4      0.000054    0.000031
   7         0           4      0.000024    0.000015
   8         2           2      0.000009    0.000006
   9         3           1      0.000002    0.000001
  10         4           0      0.000001    0.000000    Roots Converged
 ---------------------------------------------------
 
 ---------------------------------------------------
         TDDFT/TDA Excitation Energies              
 ---------------------------------------------------

 Excited state   1: excitation energy (eV) =    3.1237
 Total energy for state  1:                  -286.76132584 au
    <S**2>     :  0.7751
    Trans. Mom.: -0.0206 X   0.1202 Y  -0.0387 Z
    Strength   :     0.0012526945
    S(  1) --> V(  2) amplitude = -0.1513 alpha
    D( 22) --> S(  1) amplitude =  0.3899 beta
    D( 23) --> S(  1) amplitude = -0.5247 beta
    D( 24) --> S(  1) amplitude =  0.7286 beta

 Excited state   2: excitation energy (eV) =    3.1849
 Total energy for state  2:                  -286.75907485 au
    <S**2>     :  2.7468
    Trans. Mom.: -0.0076 X  -0.0154 Y   0.0067 Z
    Strength   :     0.0000264817
    D( 23) --> V(  1) amplitude =  0.1521 alpha
    D( 24) --> V(  1) amplitude =  0.6617 alpha
    S(  1) --> V(  1) amplitude =  0.1649 alpha
    D( 23) --> V(  1) amplitude = -0.1883 beta
    D( 24) --> V(  1) amplitude = -0.6479 beta

 Excited state   3: excitation energy (eV) =    3.7038
 Total energy for state  3:                  -286.74000735 au
    <S**2>     :  0.7962
    Trans. Mom.:  0.0437 X  -0.0690 Y   0.0154 Z
    Strength   :     0.0006271810
    S(  1) --> V(  2) amplitude =  0.1675 alpha
    D( 22) --> S(  1) amplitude = -0.2878 beta
    D( 23) --> S(  1) amplitude =  0.6570 beta
    D( 24) --> S(  1) amplitude =  0.6701 beta

 Excited state   4: excitation energy (eV) =    3.8546
 Total energy for state  4:                  -286.73446306 au
    <S**2>     :  1.0233
    Trans. Mom.: -0.1379 X  -0.0574 Y   0.0439 Z
    Strength   :     0.0022902241
    D( 23) --> V(  1) amplitude = -0.2179 alpha
    S(  1) --> V(  1) amplitude =  0.9398 alpha
 
 ---------------------------------------------------

 Stability analysis will be performed
 ---------------------------------------------------
 Iter    Rts Conv    Rts Left    Ttl Dev     Max Dev
 ---------------------------------------------------
   1         0           8      0.003193    0.000662
   2         0           8      0.001104    0.000317
   3         0           8      0.000704    0.000349
   4         1           7      0.000422    0.000230
   5         2           6      0.001286    0.001083
   6         3           5      0.000605    0.000554
   7         4           4      0.000170    0.000143
   8         5           3      0.000067    0.000039
   9         6           2      0.000025    0.000012
  10         6           2      0.000008    0.000003
  11         8           0      0.000004    0.000001    Roots Converged
 UKS-> UKS   stable,    smallest eigenvalue:      0.0691902
 UKS->CUKS   stable,    smallest eigenvalue:      0.1184824
 ---------------------------------------------------
  SETman timing summary (seconds)
  CPU time               184.89s
  System time              0.00s
  Wall time              187.41s
 
 --------------------------------------------------------------
 
                    Orbital Energies (a.u.)
 --------------------------------------------------------------
 
 Alpha MOs
 -- Occupied --
-14.350 -10.245 -10.238 -10.235 -10.227 -10.210 -10.206  -0.967
 -0.824  -0.764  -0.731  -0.612  -0.566  -0.556  -0.518  -0.478
 -0.459  -0.427  -0.410  -0.396  -0.367  -0.302  -0.275  -0.255
 -0.238
 -- Virtual --
 -0.056  -0.015   0.005   0.020   0.026   0.033   0.038   0.044
  0.050   0.062   0.065   0.079   0.089   0.094   0.101   0.103
  0.122   0.134   0.139   0.143   0.150   0.165   0.180   0.189
  0.191   0.196   0.197   0.209   0.222   0.225   0.241   0.244
  0.250   0.254   0.273   0.288   0.300   0.303   0.338   0.372
  0.395   0.425   0.443   0.458   0.609   0.640   0.655   0.671
  0.683   0.696   0.710   0.731   0.732   0.741   0.772   0.797
  0.812   0.839   0.863   0.882   0.908   0.928   0.964   0.973
  0.997   1.004   1.015   1.039   1.069   1.073   1.098   1.149
  1.178   1.226   1.246   1.269   1.341   1.371   1.419   1.424
  1.466   1.476   1.532   1.592   1.634   1.679   1.739   1.787
  1.826   1.833   1.878   1.940   1.955   2.002   2.027   2.032
  2.057   2.074   2.119   2.203   2.246   2.261   2.269   2.341
  2.370   2.406   2.445   2.489   2.495   2.523   2.545   2.556
  2.588   2.604   2.623   2.662   2.692   2.713   2.748   2.759
  2.869   2.903   3.020   3.048   3.131   3.270   3.311   3.356
  3.474   3.567   3.674   4.136   4.278   4.330   4.397   4.513
  4.576   4.755
 
 Beta MOs
 -- Occupied --
-14.350 -10.245 -10.237 -10.227 -10.220 -10.209 -10.207  -0.967
 -0.811  -0.759  -0.728  -0.607  -0.566  -0.546  -0.508  -0.469
 -0.447  -0.424  -0.408  -0.392  -0.363  -0.297  -0.273  -0.254
 -- Virtual --
 -0.089  -0.054  -0.006   0.008   0.020   0.026   0.034   0.039
  0.044   0.051   0.062   0.065   0.079   0.091   0.095   0.101
  0.105   0.123   0.135   0.139   0.144   0.152   0.167   0.182
  0.190   0.194   0.197   0.200   0.212   0.224   0.227   0.241
  0.246   0.255   0.258   0.276   0.289   0.301   0.304   0.347
  0.377   0.397   0.436   0.446   0.459   0.615   0.647   0.660
  0.676   0.685   0.700   0.719   0.731   0.735   0.763   0.776
  0.803   0.819   0.848   0.866   0.883   0.911   0.931   0.972
  0.977   1.004   1.007   1.018   1.044   1.074   1.075   1.102
  1.150   1.181   1.231   1.256   1.272   1.342   1.374   1.424
  1.426   1.466   1.480   1.542   1.596   1.644   1.695   1.768
  1.803   1.832   1.850   1.881   1.943   1.956   2.006   2.041
  2.043   2.066   2.084   2.126   2.211   2.256   2.261   2.272
  2.348   2.373   2.407   2.447   2.492   2.498   2.526   2.550
  2.558   2.590   2.606   2.626   2.675   2.694   2.715   2.756
  2.767   2.878   2.910   3.026   3.058   3.132   3.271   3.319
  3.362   3.476   3.579   3.674   4.136   4.299   4.330   4.397
  4.521   4.580   4.758
 --------------------------------------------------------------
 
          Ground-State Mulliken Net Atomic Charges

     Atom                 Charge (a.u.)    Spin (a.u.)
  --------------------------------------------------------
      1 C                    -0.175702      -0.006843
      2 C                     0.033243      -0.009303
      3 C                    -0.283854       0.071222
      4 C                     0.042188       0.937562
      5 C                     0.032321      -0.039367
      6 N                    -0.189322       0.004912
      7 H                     0.136085       0.000445
      8 H                     0.143178      -0.000410
      9 H                     0.187283       0.058662
     10 H                     0.144639       0.084294
     11 H                     0.143637      -0.000092
     12 C                    -0.369581      -0.139895
     13 H                     0.155887       0.038814
  --------------------------------------------------------
  Sum of atomic charges =    -0.000000
  Sum of spin   charges =     1.000000

 -----------------------------------------------------------------
                    Cartesian Multipole Moments
 -----------------------------------------------------------------
    Charge (ESU x 10^10)
                 0.0000
    Dipole Moment (Debye)
         X      -1.6784      Y      -1.7633      Z      -0.3124
       Tot       2.4543
    Quadrupole Moments (Debye-Ang)
        XX     -40.2220     XY      -4.2761     YY     -44.5046
        XZ       1.1748     YZ       1.1934     ZZ     -43.3899
    Octopole Moments (Debye-Ang^2)
       XXX     -27.2690    XXY     -20.8576    XYY     -17.7601
       YYY     -26.4007    XXZ       4.6512    XYZ       4.4702
       YYZ       1.9761    XZZ     -17.0103    YZZ      -8.4545
       ZZZ       6.0720
    Hexadecapole Moments (Debye-Ang^3)
      XXXX    -594.3890   XXXY     -69.6766   XXYY    -173.4241
      XYYY     -95.3017   YYYY    -258.0020   XXXZ     108.2825
      XXYZ      20.4986   XYYZ      54.2170   YYYZ      52.7254
      XXZZ    -137.1444   XYZZ     -22.1171   YYZZ     -83.9694
      XZZZ     114.6651   YZZZ      48.6165   ZZZZ    -194.6577
 -----------------------------------------------------------------
Archival summary:
1\1\c8-89\SP\ProcedureUnspecified\6-31+G**\166(2)\hpark21\ThuMar311:48:212022ThuMar311:48:212022\0\\#,ProcedureUnspecified,6-31+G**,\\0,2\C\H,1,1.1111\C,1,1.47681,2,108.22\C,3,1.31557,1,139.048,2,-0.163024,0\H,4,1.08793,3,122.233,1,-179.105,0\H,4,1.09619,3,121.473,1,1.01442,0\C,1,1.51256,2,109.242,3,128.176,0\H,7,1.08179,1,124.633,2,-68.9564,0\C,7,1.34575,1,107.171,2,110.414,0\H,9,1.0829,7,128.37,1,-178.753,0\N,9,1.42811,7,112.976,1,1.06395,0\C,11,1.2871,9,106.562,7,0.237981,0\H,12,1.08646,11,122.583,9,179.593,0\\\@

 Total job time:  195.47s(wall), 190.98s(cpu) 
 Thu Mar  3 11:48:21 2022

        *************************************************************
        *                                                           *
        *  Thank you very much for using Q-Chem.  Have a nice day.  *
        *                                                           *
        *************************************************************


