
Running Job 1 of 1 irc_product.in
qchem irc_product.in_90353.0 ./irc_product.d/ 1
/home/leeping/opt/qchem/5.0.2-openmp/exe/qcprog.exe_s irc_product.in_90353.0 ./irc_product.d/
Check license passed

                  Welcome to Q-Chem
     A Quantum Leap Into The Future Of Chemistry


 Q-Chem 5.0, Q-Chem, Inc., Pleasanton, CA (2017)

 Yihan Shao,  Zhengting Gan,  E. Epifanovsky,  A. T. B. Gilbert,  M. Wormit,  
 J. Kussmann,  A. W. Lange,  A. Behn,  Jia Deng,  Xintian Feng,  D. Ghosh,  
 M. Goldey,  P. R. Horn,  L. D. Jacobson,  I. Kaliman,  T. Kus,  A. Landau,  
 Jie Liu,  E. I. Proynov,  R. M. Richard,  R. P. Steele,  E. J. Sundstrom,  
 H. L. Woodcock III,  P. M. Zimmerman,  D. Zuev,  B. Albrecht,  E. Alguire,  
 S. A. Baeppler,  D. Barton,  Z. Benda,  Y. A. Bernard,  E. J. Berquist,  
 K. B. Bravaya,  H. Burton,  D. Casanova,  Chun-Min Chang,  Yunqing Chen,  
 A. Chien,  K. D. Closser,  M. P. Coons,  S. Dasgupta,  A. L. Dempwolff,  
 M. Diedenhofen,  Hainam Do,  R. G. Edgar,  Po-Tung Fang,  S. Fatehi,  
 Qingguo Feng,  J. Fosso-Tande,  Qinghui Ge,  A. Ghysels,  G. Gidofalvi,  
 J. Gomes,  J. Gonthier,  A. Gunina,  M. W. D. Hanson-Heine,  
 P. H. P. Harbach,  A. W. Hauser,  J. E. Herr,  E. G. Hohenstein,  
 Z. C. Holden,  Kerwin Hui,  T.-C. Jagau,  Hyunjun Ji,  B. Kaduk,  
 K. Khistyaev,  Jaehoon Kim,  P. Klunzinger,  K. Koh,  D. Kosenkov,  
 L. Koulias,  T. Kowalczyk,  C. M. Krauter,  A. Kunitsa,  Ka Un Lao,  
 A. Laurent,  K. V. Lawler,  Joonho Lee,  D. Lefrancois,  S. Lehtola,  
 D. S. Levine,  Yi-Pei Li,  You-Sheng Lin,  Fenglai Liu,  E. Livshits,  
 A. Luenser,  P. Manohar,  E. Mansoor,  S. F. Manzer,  Shan-Ping Mao,  
 Yuezhi Mao,  N. Mardirossian,  A. V. Marenich,  T. Markovich,  
 L. A. Martinez-Martinez,  S. A. Maurer,  N. J. Mayhall,  S. C. McKenzie,  
 J.-M. Mewes,  A. F. Morrison,  J. W. Mullinax,  K. Nanda,  
 T. S. Nguyen-Beck,  R. Olivares-Amaya,  J. A. Parkhill,  T. M. Perrine,  
 F. Plasser,  S. Prager,  A. Prociuk,  E. Ramos,  D. R. Rehn,  F. Rob,  
 M. Schneider,  N. Sergueev,  S. M. Sharada,  S. Sharma,  D. W. Small,  
 T. Stauch,  T. Stein,  Yu-Chuan Su,  A. J. W. Thom,  A. Tkatchenko,  
 T. Tsuchimochi,  L. Vogt,  O. Vydrov,  M. A. Watson,  J. Wenzel,  
 M. de Wergifosse,  T. A. Wesolowski,  A. White,  J. Witte,  A. Yamada,  
 Jun Yang,  K. Yao,  S. Yeganeh,  S. R. Yost,  Zhi-Qiang You,  A. Zech,  
 Igor Ying Zhang,  Xing Zhang,  Yan Zhao,  Ying Zhu,  B. R. Brooks,  
 G. K. L. Chan,  C. J. Cramer,  M. S. Gordon,  W. J. Hehre,  A. Klamt,  
 M. W. Schmidt,  C. D. Sherrill,  D. G. Truhlar,  A. Aspuru-Guzik,  R. Baer,  
 A. T. Bell,  N. A. Besley,  Jeng-Da Chai,  R. A. DiStasio Jr.,  A. Dreuw,  
 B. D. Dunietz,  T. R. Furlani,  Chao-Ping Hsu,  Yousung Jung,  Jing Kong,  
 D. S. Lambrecht,  WanZhen Liang,  C. Ochsenfeld,  V. A. Rassolov,  
 L. V. Slipchenko,  J. E. Subotnik,  T. Van Voorhis,  J. M. Herbert,  
 A. I. Krylov,  P. M. W. Gill,  M. Head-Gordon

 Contributors to earlier versions of Q-Chem not listed above: 
 R. D. Adamson,  B. Austin,  J. Baker,  G. J. O. Beran,  K. Brandhorst,  
 S. T. Brown,  E. F. C. Byrd,  A. K. Chakraborty,  C.-L. Cheng,  
 Siu Hung Chien,  D. M. Chipman,  D. L. Crittenden,  H. Dachsel,  
 R. J. Doerksen,  A. D. Dutoi,  L. Fusti-Molnar,  W. A. Goddard III,  
 A. Golubeva-Zadorozhnaya,  S. R. Gwaltney,  G. Hawkins,  A. Heyden,  
 S. Hirata,  G. Kedziora,  F. J. Keil,  C. Kelley,  Jihan Kim,  R. A. King,  
 R. Z. Khaliullin,  P. P. Korambath,  W. Kurlancheek,  A. M. Lee,  M. S. Lee,  
 S. V. Levchenko,  Ching Yeh Lin,  D. Liotard,  R. C. Lochan,  I. Lotan,  
 P. E. Maslen,  N. Nair,  D. P. O'Neill,  D. Neuhauser,  E. Neuscamman,  
 C. M. Oana,  R. Olson,  B. Peters,  R. Peverati,  P. A. Pieniazek,  
 Y. M. Rhee,  J. Ritchie,  M. A. Rohrdanz,  E. Rosta,  N. J. Russ,  
 H. F. Schaefer III,  N. E. Schultz,  N. Shenvi,  A. C. Simmonett,  A. Sodt,  
 D. Stuck,  K. S. Thanthiriwatte,  V. Vanovschi,  Tao Wang,  A. Warshel,  
 C. F. Williams,  Q. Wu,  X. Xu,  W. Zhang

 Please cite Q-Chem as follows:
 Y. Shao et al., Mol. Phys. 113, 184-215 (2015)
 DOI: 10.1080/00268976.2014.952696

 Q-Chem 5.0.2 for Intel X86 EM64T Linux

 Parts of Q-Chem use Armadillo 5.200.1 (Boston Tea Smuggler).
 http://arma.sourceforge.net/

 Q-Chem begins on Thu Mar  3 11:52:36 2022  

Host: 
0

     Scratch files written to ./irc_product.d//
 Dec517 15110_ 26548  26544 5633   
Processing $rem in /home/leeping/opt/qchem/5.0.2-openmp/config/preferences.
 MEM_STATIC 2000
 MEM_TOTAL  8000
 SYMMETRY   OFF
 SYM_IGNORE TRUE 

Checking the input file for inconsistencies... 	...done.

--------------------------------------------------------------
User input:
--------------------------------------------------------------
$molecule
0 2
C        1.9603928520    0.1280087969   -0.2422829642
C        0.9837353630   -0.7955943879   -0.1702433519
C       -0.3082582248   -0.1064221140   -0.5192521131
C       -1.4483460323   -0.2087906491    0.4775875074
C        0.1987930104    1.3087239417   -0.7331000817
N        1.4740018516    1.4255649309   -0.5897763341
H        3.0221585247    0.0010948703   -0.0709660881
H        1.0790380372   -1.8445157441    0.0767773106
H       -0.6748689841   -0.4730966672   -1.4954601086
H       -2.3700415208    0.3121593461    0.1875650985
H       -0.4318909384    2.1546826749   -0.9955524170
C       -1.4094958829   -0.8536273433    1.6223454048
H       -2.0752180555   -1.0481876552    2.4523581373
$end

$rem
method                b3lyp
basis                 6-31+g(d,p)
unrestricted          true
symmetry              off
sym_ignore            true
incdft                false
incfock               0
scf_convergence       8
thresh                14
jobtype               sp
scf_guess             read
scf_algorithm         diis
max_scf_cycles        100
scf_final_print       1
$end

--------------------------------------------------------------
 ----------------------------------------------------------------
             Standard Nuclear Orientation (Angstroms)
    I     Atom           X                Y                Z
 ----------------------------------------------------------------
    1      C       1.9603928520     0.1280087969    -0.2422829642
    2      C       0.9837353630    -0.7955943879    -0.1702433519
    3      C      -0.3082582248    -0.1064221140    -0.5192521131
    4      C      -1.4483460323    -0.2087906491     0.4775875074
    5      C       0.1987930104     1.3087239417    -0.7331000817
    6      N       1.4740018516     1.4255649309    -0.5897763341
    7      H       3.0221585247     0.0010948703    -0.0709660881
    8      H       1.0790380372    -1.8445157441     0.0767773106
    9      H      -0.6748689841    -0.4730966672    -1.4954601086
   10      H      -2.3700415208     0.3121593461     0.1875650985
   11      H      -0.4318909384     2.1546826749    -0.9955524170
   12      C      -1.4094958829    -0.8536273433     1.6223454048
   13      H      -2.0752180555    -1.0481876552     2.4523581373
 ----------------------------------------------------------------
 Nuclear Repulsion Energy =   258.8853277836 hartrees
 There are       25 alpha and       24 beta electrons
 Requested basis set is 6-31+G(d,p)
 There are 53 shells and 163 basis functions

 Total QAlloc Memory Limit   8000 MB
 Mega-Array Size      1956 MB
 MEM_STATIC part      2000 MB

                       Distance Matrix (Angstroms)
             C (  1)   C (  2)   C (  3)   C (  4)   C (  5)   N (  6)
   C (  2)  1.346140
   C (  3)  2.297487  1.505328
   C (  4)  3.500164  2.584385  1.517883
   C (  5)  2.176746  2.315404  1.518378  2.545915
   N (  6)  1.428629  2.312989  2.351257  3.514328  1.288546
   H (  7)  1.082960  2.190831  3.362171  4.508922  3.181149  2.166811
   H (  8)  2.183904  1.081822  2.302349  3.037090  3.372485  3.360613
   H (  9)  2.979326  2.147364  1.105367  2.135659  2.125879  3.007129
   H ( 10)  4.355610  3.550065  2.219403  1.097736  2.905112  4.076837
   H ( 11)  3.224569  3.374799  2.314032  2.964680  1.087331  2.080551
   C ( 12)  3.974493  2.990702  2.521404  1.314456  3.579173  4.289844
   H ( 13)  4.993064  4.037207  3.583230  2.235459  4.568731  5.288761
             H (  7)   H (  8)   H (  9)   H ( 10)   H ( 11)   C ( 12)
   H (  8)  2.683994
   H (  9)  3.990245  2.725603
   H ( 10)  5.407349  4.069358  2.514520
   H ( 11)  4.174118  4.407537  2.685921  2.924224
   C ( 12)  4.820520  3.092481  3.225708  2.083339  4.105975
   H ( 13)  5.783719  4.028257  4.228117  2.658336  4.984675  1.081647

 
 A cutoff of  1.0D-14 yielded   1366 shell pairs
 There are     13314 function pairs
 
 -------------------------------------------------------
 OpenMP Integral Computing Module                       
 Release: version 1.0, May 2013, Q-Chem Inc. Pittsburgh 
 -------------------------------------------------------
 Integral Job Info:
 Integral job number is                      11
 Integral operator is                         1
 short-range coefficients                     0
 long-range coefficients              100000000
 Omega coefficients                           0
 if combine SR and LR in K                    0
 Integral screening is                        0
 Integral computing path is                   2
 max size of driver memory is            800000
 size of driver memory is                593474
 size of scratch memory is              2361544
 max col of scratch BK array               1296
 max len of scratch array in speh3          155
 max len of scratch index in speh4           18
 max int batch size is                      520
 min int batch size is                       52
 fixed nKL is                                52
 max L of basis functions is                  2
 order of int derivative is                   0
 number of shells is                         53
 number of basis is                         163
 number of cartesian basis is               163
 number of contracted shell pairs          1366
 number of primitive shell pairs           4552
 maxK2 (contraction) of shell pair           36
 max number of K2 of shell pair               1
 max number of CS2 of shell pair            128
 max number of PS2 of shell pair            666
 mem total for path MDJ                  531564
 -------------------------------------------------------
 Smallest overlap matrix eigenvalue = 1.56E-05

 Scale SEOQF with 1.000000e-01/1.000000e-01/1.000000e-01

 Standard Electronic Orientation quadrupole field applied
 Nucleus-field energy     =     0.0000000026 hartrees
 Guess MOs from SCF MO coefficient file
 Reading MOs from coefficient file
 Reading MOs from coefficient file
 An unrestricted hybrid HF-DFT SCF calculation will be
 performed using Pulay DIIS extrapolation
 Exchange:     0.2000 Hartree-Fock + 0.0800 Slater + 0.7200 B88
 Correlation:  0.1900 VWN1RPA + 0.8100 LYP
 Using SG-1 standard quadrature grid
 SCF converges when DIIS error is below 1.0E-08
Using Q-Chem read-in guess as SCF_GUESS READ specified.

 using 4 threads for integral computing
 -------------------------------------------------------
 OpenMP Integral computing Module                
 Release: version 1.0, May 2013, Q-Chem Inc. Pittsburgh 
 -------------------------------------------------------
 -------------------------------------------------------
 OpenMP BLAS3 based DFT computing Module                
 Release: version 1.0, May 2013, Q-Chem Inc. Pittsburgh 
 -------------------------------------------------------
 ---------------------------------------
  Cycle       Energy         DIIS Error
 ---------------------------------------
    1    -286.8689844901      1.83E-09
    2    -286.8689844902      3.11E-09 Convergence criterion met
 ---------------------------------------
 One-Electron    Energy =  -898.1296624287
 Total Coulomb   Energy =   393.9313967234
 Alpha Exchange  Energy =    -4.0135668368
 Beta  Exchange  Energy =    -3.9228237226
 DFT   Exchange  Energy =   -31.5254822945
 DFT Correlation Energy =    -2.0941737172
 Nuclear Repu.   Energy =   258.8853277862
 Nuclear Attr.   Energy = -1182.2088729013
 Kinetic         Energy =   284.0792104726
 <S^2> = 0.7603
 SCF time:  CPU 9.62 s  wall 2.43 s
 Final Alpha MO Eigenvalues
            1           2           3           4           5           6
    1 -14.3442574 -10.2390873 -10.2276666 -10.2271690 -10.2238687 -10.2207123
            7           8           9          10          11          12
    1 -10.2018933  -0.9611887  -0.8210060  -0.7571667  -0.7246851  -0.6091266
           13          14          15          16          17          18
    1  -0.5652927  -0.5539369  -0.5119282  -0.4889811  -0.4543295  -0.4250265
           19          20          21          22          23          24
    1  -0.4039424  -0.3796434  -0.3550456  -0.3030620  -0.2703195  -0.2562063
           25          26          27          28          29          30
    1  -0.2453729  -0.0510411  -0.0118579   0.0062234   0.0190093   0.0224779
 Final Beta MO Eigenvalues
            1           2           3           4           5           6
    1 -14.3441198 -10.2392428 -10.2267069 -10.2255303 -10.2207005 -10.2120816
            7           8           9          10          11          12
    1 -10.2018070  -0.9609317  -0.8146607  -0.7524149  -0.7152950  -0.6008745
           13          14          15          16          17          18
    1  -0.5639142  -0.5445609  -0.5093859  -0.4783126  -0.4482332  -0.4233000
           19          20          21          22          23          24
    1  -0.4031675  -0.3752454  -0.3535904  -0.2980752  -0.2656225  -0.2502188
           25          26          27          28          29
    1  -0.0944821  -0.0506529  -0.0032197   0.0084916   0.0199637
 SCF   energy in the final basis set = -286.86898449
 Total energy in the final basis set = -286.86898449
 
 --------------------------------------------------------------
 
                    Orbital Energies (a.u.)
 --------------------------------------------------------------
 
 Alpha MOs
 -- Occupied --
-14.344 -10.239 -10.228 -10.227 -10.224 -10.221 -10.202  -0.961
 -0.821  -0.757  -0.725  -0.609  -0.565  -0.554  -0.512  -0.489
 -0.454  -0.425  -0.404  -0.380  -0.355  -0.303  -0.270  -0.256
 -0.245
 -- Virtual --
 -0.051  -0.012   0.006   0.019   0.022   0.034   0.037   0.044
  0.049   0.067   0.072   0.075   0.094   0.097   0.110   0.112
  0.123   0.128   0.135   0.147   0.152   0.155   0.171   0.190
  0.194   0.196   0.199   0.209   0.218   0.221   0.237   0.244
  0.249   0.263   0.273   0.288   0.304   0.311   0.331   0.387
  0.401   0.423   0.451   0.473   0.604   0.639   0.653   0.659
  0.695   0.698   0.708   0.728   0.729   0.749   0.765   0.780
  0.814   0.840   0.881   0.896   0.914   0.924   0.970   0.980
  0.995   1.008   1.027   1.050   1.063   1.077   1.100   1.140
  1.158   1.201   1.220   1.333   1.350   1.392   1.413   1.432
  1.469   1.500   1.506   1.599   1.642   1.690   1.744   1.778
  1.818   1.845   1.909   1.934   1.963   1.971   2.018   2.023
  2.065   2.109   2.134   2.232   2.257   2.293   2.322   2.377
  2.398   2.403   2.432   2.471   2.479   2.524   2.543   2.574
  2.601   2.612   2.641   2.658   2.680   2.694   2.747   2.769
  2.810   2.904   2.977   3.053   3.151   3.276   3.298   3.378
  3.469   3.591   3.684   4.131   4.296   4.332   4.423   4.531
  4.578   4.759
 
 Beta MOs
 -- Occupied --
-14.344 -10.239 -10.227 -10.226 -10.221 -10.212 -10.202  -0.961
 -0.815  -0.752  -0.715  -0.601  -0.564  -0.545  -0.509  -0.478
 -0.448  -0.423  -0.403  -0.375  -0.354  -0.298  -0.266  -0.250
 -- Virtual --
 -0.094  -0.051  -0.003   0.008   0.020   0.024   0.035   0.038
  0.045   0.050   0.068   0.074   0.079   0.094   0.100   0.113
  0.114   0.124   0.130   0.135   0.148   0.154   0.156   0.171
  0.191   0.196   0.198   0.204   0.210   0.220   0.222   0.239
  0.246   0.252   0.264   0.274   0.288   0.304   0.311   0.339
  0.389   0.401   0.432   0.451   0.482   0.608   0.651   0.658
  0.664   0.700   0.705   0.710   0.730   0.741   0.754   0.772
  0.788   0.817   0.842   0.882   0.899   0.915   0.933   0.972
  0.984   1.001   1.009   1.031   1.053   1.073   1.083   1.105
  1.144   1.159   1.207   1.221   1.334   1.352   1.395   1.415
  1.434   1.470   1.509   1.512   1.630   1.658   1.716   1.753
  1.781   1.831   1.849   1.922   1.941   1.966   1.974   2.022
  2.034   2.066   2.113   2.137   2.240   2.258   2.294   2.328
  2.377   2.404   2.409   2.440   2.474   2.481   2.525   2.543
  2.577   2.602   2.617   2.644   2.667   2.690   2.699   2.748
  2.771   2.819   2.907   2.986   3.055   3.153   3.278   3.309
  3.379   3.470   3.607   3.685   4.132   4.307   4.332   4.437
  4.541   4.578   4.760
 --------------------------------------------------------------
 
          Ground-State Mulliken Net Atomic Charges

     Atom                 Charge (a.u.)    Spin (a.u.)
  --------------------------------------------------------
      1 C                    -0.152788      -0.026810
      2 C                    -0.054587      -0.000821
      3 C                    -0.081293       0.064779
      4 C                     0.009826      -0.327276
      5 C                    -0.119456       0.014221
      6 N                    -0.193969       0.006107
      7 H                     0.132567       0.000038
      8 H                     0.141066       0.000162
      9 H                     0.182891      -0.005275
     10 H                     0.141724       0.078084
     11 H                     0.135376      -0.000043
     12 C                    -0.296521       1.189322
     13 H                     0.155163       0.007514
  --------------------------------------------------------
  Sum of atomic charges =    -0.000000
  Sum of spin   charges =     1.000000

 -----------------------------------------------------------------
                    Cartesian Multipole Moments
 -----------------------------------------------------------------
    Charge (ESU x 10^10)
                -0.0000
    Dipole Moment (Debye)
         X      -2.2543      Y      -1.4129      Z      -0.1334
       Tot       2.6638
    Quadrupole Moments (Debye-Ang)
        XX     -39.8182     XY      -5.2795     YY     -45.0063
        XZ       0.7209     YZ      -0.2089     ZZ     -41.5938
    Octopole Moments (Debye-Ang^2)
       XXX     -21.4047    XXY     -11.6102    XYY     -15.6046
       YYY     -19.0638    XXZ       8.4371    XYZ       5.4040
       YYZ       1.3260    XZZ     -16.9977    YZZ      -7.6267
       ZZZ       5.3474
    Hexadecapole Moments (Debye-Ang^3)
      XXXX    -459.5991   XXXY     -71.0349   XXYY    -147.6978
      XYYY     -84.6379   YYYY    -273.0539   XXXZ      78.4129
      XXYZ      18.7658   XYYZ      35.9626   YYYZ      62.0413
      XXZZ    -113.0411   XYZZ     -11.3839   YYZZ     -83.0923
      XZZZ      69.4273   YZZZ      54.7056   ZZZZ    -212.3984
 -----------------------------------------------------------------
 Mayer SCF Bond Order, atomic valence on the diagonal:

            1           2           3           4           5           6
    1   3.9222800   1.8617420   0.0795381   0.0186331   0.0266513   1.0092295
    2   1.8617420   4.0403800   1.0487377   0.0205926   0.1131202  -0.0979119
    3   0.0795381   1.0487377   3.7070469   0.8109792   0.8935429   0.1116086
    4   0.0186331   0.0205926   0.8109792   3.5975769   0.0527523   0.0114449
    5   0.0266513   0.1131202   0.8935429   0.0527523   3.8911450   1.6541208
    6   1.0092295  -0.0979119   0.1116086   0.0114449   1.6541208   2.6701248
    7   0.9637529  -0.0209004   0.0267008  -0.0012861   0.0092517  -0.0325440
    8   0.0373303   0.8437338   0.0586695  -0.0214659   0.0084995   0.0121329
    9   0.0027439   0.0651353   0.8393286  -0.0153004   0.0048333   0.0210556
   10  -0.0048846   0.0133051  -0.0135123   0.7565231   0.0408818  -0.0011972
   11   0.0099346   0.0262249  -0.0698699   0.0263067   0.9743832  -0.0257010
   12  -0.0820053   0.1693516  -0.1018937   1.9112912   0.1124558   0.0065765
   13  -0.0003858  -0.0027509   0.0232174   0.0271063   0.0006523   0.0013103
            7           8           9          10          11          12
    1   0.9637529   0.0373303   0.0027439  -0.0048846   0.0099346  -0.0820053
    2  -0.0209004   0.8437338   0.0651353   0.0133051   0.0262249   0.1693516
    3   0.0267008   0.0586695   0.8393286  -0.0135123  -0.0698699  -0.1018937
    4  -0.0012861  -0.0214659  -0.0153004   0.7565231   0.0263067   1.9112912
    5   0.0092517   0.0084995   0.0048333   0.0408818   0.9743832   0.1124558
    6  -0.0325440   0.0121329   0.0210556  -0.0011972  -0.0257010   0.0065765
    7   0.9502603   0.0005274   0.0005902   0.0003692   0.0022023   0.0015937
    8   0.0005274   0.9565225  -0.0000902   0.0000186   0.0009820   0.0161844
    9   0.0005902  -0.0000902   0.9304368  -0.0000471   0.0001691   0.0115235
   10   0.0003692   0.0000186  -0.0000471   0.9422684   0.0006194   0.1484900
   11   0.0022023   0.0009820   0.0001691   0.0006194   0.9460381   0.0007749
   12   0.0015937   0.0161844   0.0115235   0.1484900   0.0007749   3.0920580
   13   0.0000027   0.0000002   0.0004951   0.0017024   0.0000118   0.8977155
           13
    1  -0.0003858
    2  -0.0027509
    3   0.0232174
    4   0.0271063
    5   0.0006523
    6   0.0013103
    7   0.0000027
    8   0.0000002
    9   0.0004951
   10   0.0017024
   11   0.0000118
   12   0.8977155
   13   0.9490774


Archival summary:
1\1\c8-89\SP\ProcedureUnspecified\6-31+G**\166(2)\hpark21\ThuMar311:52:412022ThuMar311:52:412022\0\\#,ProcedureUnspecified,6-31+G**,\\0,2\C\H,1,1.10537\C,1,1.50533,2,109.728\H,3,1.08182,1,124.921,2,-68.4109,0\C,3,1.34614,1,107.228,2,110.918,0\H,5,1.08296,3,128.495,1,-179.131,0\N,5,1.42863,3,112.903,1,1.06051,0\C,7,1.28855,5,106.358,3,0.00809454,0\H,8,1.08733,7,122.027,5,179.662,0\C,1,1.51788,2,107.969,3,-129.179,0\H,10,1.09774,1,115.159,2,-55.6714,0\C,10,1.31446,1,125.65,2,124.373,0\H,12,1.08165,10,137.59,1,179.897,0\\\@

 Total job time:  4.46s(wall), 11.30s(cpu) 
 Thu Mar  3 11:52:41 2022

        *************************************************************
        *                                                           *
        *  Thank you very much for using Q-Chem.  Have a nice day.  *
        *                                                           *
        *************************************************************


