13   
Frame   0 IRC: Energy =  -286.8761179876 ; +0.0000 kcal/mol
C        2.1533176575    0.1311404754   -0.5078366295
C        1.1925506902   -0.7707807381   -0.2348762653
C       -0.1313267574   -0.0406358125   -0.2805650748
C       -1.0010926800   -0.1628219816    0.9066809235
C        0.3623276949    1.3687209901   -0.5771414198
N        1.6390010530    1.4462500607   -0.7210612340
H        3.2220471705   -0.0268372223   -0.5821554876
H        1.3054908269   -1.8266935534   -0.0285788128
H       -0.7061929189   -0.3799946169   -1.1687705911
H       -2.9117112541   -0.9182168525    0.4407252299
H       -0.2912920279    2.2306536390   -0.6784167266
C       -2.2239039125   -0.5434790474    1.2076132923
H       -2.6092155420   -0.5073053405    2.2243827960
13   
Frame   1 IRC: Energy =  -286.8759846969 ; +0.0836 kcal/mol
C        2.1592853129    0.1430475523   -0.5105083309
C        1.2167961025   -0.7796448749   -0.2448777785
C       -0.1210859277   -0.0732284891   -0.2773042500
C       -0.9880890024   -0.2144417194    0.9093503395
C        0.3448762382    1.3479812612   -0.5613709663
N        1.6193759092    1.4506034141   -0.7077848159
H        3.2301325821    0.0055053407   -0.5933104427
H        1.3496800468   -1.8364428560   -0.0553076085
H       -0.6886845083   -0.4208383445   -1.1664037219
H       -2.9428571111   -0.8408374187    0.4327259558
H       -0.3253646899    2.1988516026   -0.6473712641
C       -2.2350222322   -0.5132734363    1.2024047385
H       -2.6190427200   -0.4672820320    2.2197581450
13   
Frame   2 IRC: Energy =  -286.8758004501 ; +0.1993 kcal/mol
C        2.1616367178    0.1537468280   -0.5023194738
C        1.2314750055   -0.7843401768   -0.2479322923
C       -0.1173596574   -0.0987697740   -0.2896203884
C       -0.9805501270   -0.2614690636    0.8981255235
C        0.3294977874    1.3304022394   -0.5652799510
N        1.6033383083    1.4533730309   -0.7001787981
H        3.2353084856    0.0335786326   -0.5732963260
H        1.3794158915   -1.8386877223   -0.0565098195
H       -0.6760924962   -0.4517466839   -1.1811959370
H       -2.9860333159   -0.6978694517    0.4378823322
H       -0.3531887375    2.1708216009   -0.6553499169
C       -2.2369288468   -0.4959413543    1.2041901416
H       -2.5905190154   -0.5130981052    2.2314849059
13   
Frame   3 IRC: Energy =  -286.8755696244 ; +0.3441 kcal/mol
C        2.1630282419    0.1634945202   -0.4942811097
C        1.2443391321   -0.7884549570   -0.2498224686
C       -0.1144772928   -0.1226663756   -0.3025442025
C       -0.9743899111   -0.3054356184    0.8858266481
C        0.3149992365    1.3138310788   -0.5695389987
N        1.5878955020    1.4553641308   -0.6944694902
H        3.2393592881    0.0599036724   -0.5510919610
H        1.4062708497   -1.8398570651   -0.0536393064
H       -0.6648076917   -0.4790859279   -1.1974950246
H       -3.0240268210   -0.5511829156    0.4475878063
H       -0.3792807369    2.1437236739   -0.6679734925
C       -2.2374906251   -0.4805204623    1.2063893937
H       -2.5614191717   -0.5691137541    2.2410522059
13   
Frame   4 IRC: Energy =  -286.8751461267 ; +0.6099 kcal/mol
C        2.1623975947    0.1707017388   -0.4792037136
C        1.2485256255   -0.7907849004   -0.2553366146
C       -0.1154255344   -0.1359229477   -0.3177524279
C       -0.9709751021   -0.3411939305    0.8705989513
C        0.3048388095    1.3036575899   -0.5826899263
N        1.5779955951    1.4564224342   -0.6914359002
H        3.2407644344    0.0784011041   -0.5119504430
H        1.4164125224   -1.8396417135   -0.0506930972
H       -0.6583728682   -0.4923926897   -1.2170827165
H       -3.0465069836   -0.4166821960    0.4794601235
H       -0.3950843479    2.1265424146   -0.7013100468
C       -2.2335083477   -0.4740012737    1.2119800477
H       -2.5310613978   -0.6451056301    2.2454157635
13   
Frame   5 IRC: Energy =  -286.8743604008 ; +1.1029 kcal/mol
C        2.1599699912    0.1709889887   -0.4686573296
C        1.2387665027   -0.7842791608   -0.2504599621
C       -0.1218128049   -0.1242126373   -0.3265684562
C       -0.9676354295   -0.3607464695    0.8628454089
C        0.3079854910    1.3111920770   -0.6055568952
N        1.5827448672    1.4551792299   -0.7084305665
H        3.2386244316    0.0744922372   -0.4762755147
H        1.3955519739   -1.8291468123   -0.0186977590
H       -0.6664582679   -0.4786093587   -1.2248523519
H       -3.0500635467   -0.3197630553    0.5201044768
H       -0.3841622051    2.1350892020   -0.7603280922
C       -2.2265170717   -0.4865783595    1.2215526636
H       -2.5069939318   -0.7636058814    2.2353243782
13   
Frame   6 IRC: Energy =  -286.8728671707 ; +2.0399 kcal/mol
C        2.1529492239    0.1676622737   -0.4612652782
C        1.2213792145   -0.7788719237   -0.2515520484
C       -0.1307137685   -0.1057131507   -0.3295774184
C       -0.9424751384   -0.3673229406    0.8800495679
C        0.3106416279    1.3213057191   -0.6294245829
N        1.5878213403    1.4511705774   -0.7300888050
H        3.2301979309    0.0648675834   -0.4359587988
H        1.3599659781   -1.8184754879    0.0119597624
H       -0.7072182910   -0.4584390991   -1.2070012827
H       -3.0075308636   -0.2459887681    0.5350216683
H       -0.3713968972    2.1459320565   -0.8217878860
C       -2.2031779573   -0.5021431602    1.2312255226
H       -2.5004423995   -0.8739836798    2.2083995793
13   
Frame   7 IRC: Energy =  -286.8701570935 ; +3.7405 kcal/mol
C        2.1397010025    0.1630916561   -0.4547480050
C        1.1983191886   -0.7754370046   -0.2554131051
C       -0.1424913406   -0.0887574468   -0.3338273089
C       -0.9018277126   -0.3711144544    0.9068796900
C        0.3071643279    1.3298034928   -0.6497435590
N        1.5866490242    1.4472984882   -0.7453889616
H        3.2143774679    0.0526030848   -0.4014317943
H        1.3103149178   -1.8077078000    0.0458429323
H       -0.7535005552   -0.4458552888   -1.1841517639
H       -2.9272551624   -0.1827613050    0.5293436565
H       -0.3664641720    2.1555556832   -0.8679285901
C       -2.1649043457   -0.5159312674    1.2392797094
H       -2.5000826404   -0.9607878381    2.1712870997
13   
Frame   8 IRC: Energy =  -286.8657678180 ; +6.4948 kcal/mol
C        2.1194912956    0.1597558505   -0.4435811547
C        1.1698433025   -0.7702585248   -0.2504870894
C       -0.1587349822   -0.0730851110   -0.3409675686
C       -0.8571822712   -0.3761265945    0.9327644994
C        0.2970275213    1.3392288083   -0.6668907187
N        1.5793407507    1.4452145990   -0.7510945784
H        3.1901950147    0.0314151590   -0.3827108935
H        1.2527679227   -1.7960284667    0.0800743973
H       -0.7794594191   -0.4455596189   -1.1768316952
H       -2.8223236595   -0.1246438944    0.5182248523
H       -0.3660884551    2.1709205378   -0.9002437908
C       -2.1198749938   -0.5369659964    1.2454671930
H       -2.5050020267   -1.0238667479    2.1362765474
13   
Frame   9 IRC: Energy =  -286.8580848235 ; +11.3160 kcal/mol
C        2.0956110589    0.1548522535   -0.4271125946
C        1.1377230176   -0.7634731338   -0.2255221540
C       -0.1810369618   -0.0555072799   -0.3500427549
C       -0.8291532573   -0.3556578204    0.9509217033
C        0.2872204074    1.3469658538   -0.6842239753
N        1.5719685204    1.4413501419   -0.7511328986
H        3.1629862666    0.0087330019   -0.3815107688
H        1.2136871163   -1.7915878365    0.1006873099
H       -0.7826955729   -0.4522955324   -1.1907275788
H       -2.7075079742   -0.0617014608    0.5213493746
H       -0.3662617222    2.1874833464   -0.9141900771
C       -2.0868675438   -0.6102721137    1.2286975640
H       -2.5156733549   -1.0488894198    2.1228068502
13   
Frame  10 IRC: Energy =  -286.8429228641 ; +20.8303 kcal/mol
C        2.0799452798    0.1473993492   -0.4179297672
C        1.1136015878   -0.7595121347   -0.1997408030
C       -0.2028516237   -0.0422248189   -0.3574530908
C       -0.8495562294   -0.3028498346    0.9553237336
C        0.2838118109    1.3495094344   -0.6934527860
N        1.5693437376    1.4362871826   -0.7479480179
H        3.1478946477   -0.0051997329   -0.3859467984
H        1.1983919891   -1.7940516030    0.1048609875
H       -0.7792033199   -0.4580111468   -1.2091931025
H       -2.5955578088   -0.0065350449    0.5512267343
H       -0.3635349052    2.1953277930   -0.9136244993
C       -2.0780869425   -0.7167649095    1.1902834652
H       -2.5241982234   -1.0433745339    2.1235939446
13   
Frame  11 IRC: Energy =  -286.8204993408 ; +34.9013 kcal/mol
C        2.0716207434    0.1410776458   -0.4139903025
C        1.0989093055   -0.7587403568   -0.1825304881
C       -0.2192725973   -0.0366590472   -0.3626179269
C       -0.9019907330   -0.2373669597    0.9468805911
C        0.2837119834    1.3490837127   -0.6967495891
N        1.5693919028    1.4323548520   -0.7443060460
H        3.1412501894   -0.0150993481   -0.3900073618
H        1.1911390355   -1.7984335265    0.1024261957
H       -0.7749462619   -0.4608033504   -1.2238763281
H       -2.4884850587    0.0388595887    0.5929211283
H       -0.3590247856    2.1992952721   -0.9085168005
C       -2.0807772684   -0.8234772644    1.1562364408
H       -2.5315264551   -1.0300912181    2.1241304872
13   
Frame  12 IRC: Energy =  -286.8001668270 ; +47.6601 kcal/mol
C        2.0682670630    0.1359102492   -0.4127034870
C        1.0919586907   -0.7599976820   -0.1740923690
C       -0.2265941658   -0.0372541082   -0.3654605880
C       -0.9819763120   -0.1725254775    0.9226053522
C        0.2850630745    1.3474100808   -0.6982297817
N        1.5707915185    1.4299444965   -0.7417985650
H        3.1391735828   -0.0224066539   -0.3923540799
H        1.1869006525   -1.8024604620    0.0984924700
H       -0.7692438133   -0.4602959335   -1.2322666164
H       -2.3934100404    0.0846128866    0.6357823996
H       -0.3546863252    2.2015195565   -0.9033078641
C       -2.0714700749   -0.9281155492    1.1407601823
H       -2.5447738504   -1.0163414035    2.1225729470
13   
Frame  13 IRC: Energy =  -286.7922905041 ; +52.6026 kcal/mol (Transition State)
C        2.0680274580    0.1317830212   -0.4125370434
C        1.0902161764   -0.7615210248   -0.1713278321
C       -0.2254396866   -0.0406644505   -0.3640720682
C       -1.0788994201   -0.1254931937    0.8794695451
C        0.2862417868    1.3453285798   -0.6996067173
N        1.5713531337    1.4287063811   -0.7416644993
H        3.1392575635   -0.0257177409   -0.3924052176
H        1.1855896185   -1.8048469813    0.0973753033
H       -0.7618810175   -0.4579313346   -1.2356082361
H       -2.3235577109    0.1441054263    0.6674737534
H       -0.3528318828    2.2012367776   -0.9013710679
C       -2.0321348363   -1.0295005186    1.1585276030
H       -2.5659411827   -1.0054849416    2.1157464770
13   
Frame  14 IRC: Energy =  -286.8014712720 ; +46.8416 kcal/mol
C        2.0683543165    0.1306351605   -0.4123031788
C        1.0905594529   -0.7616770417   -0.1679477566
C       -0.2226574135   -0.0437805445   -0.3579304512
C       -1.1717919744   -0.1145781796    0.8229662170
C        0.2851706152    1.3431463794   -0.7012918484
N        1.5699154976    1.4277347928   -0.7448016052
H        3.1398294432   -0.0240680677   -0.3907390943
H        1.1876729550   -1.8045497488    0.1016376055
H       -0.7541574117   -0.4575095273   -1.2350290435
H       -2.2823799225    0.2262860172    0.6777715739
H       -0.3547094716    2.1980622047   -0.9055516901
C       -1.9672745745   -1.1172922380    1.2099173111
H       -2.5885315123   -1.0024092070    2.1033019606
13   
Frame  15 IRC: Energy =  -286.8254867335 ; +31.7716 kcal/mol
C        2.0679363726    0.1320412339   -0.4118894183
C        1.0911258472   -0.7604574029   -0.1609961196
C       -0.2231231462   -0.0457233541   -0.3505824264
C       -1.2528773796   -0.1397681301    0.7609815585
C        0.2813926379    1.3408959925   -0.7028298623
N        1.5663027401    1.4264753795   -0.7506713728
H        3.1401910980   -0.0189898997   -0.3884647745
H        1.1922394374   -1.8021049985    0.1109892686
H       -0.7450348868   -0.4595133115   -1.2344754607
H       -2.2545867974    0.3231743190    0.6670722594
H       -0.3595291807    2.1926976586   -0.9154018767
C       -1.8945440263   -1.1750336497    1.2837447095
H       -2.6094927163   -1.0136938372    2.0925235152
13   
Frame  16 IRC: Energy =  -286.8472611258 ; +18.1080 kcal/mol
C        2.0652262110    0.1340582223   -0.4105792210
C        1.0898043491   -0.7582690719   -0.1493411983
C       -0.2287990479   -0.0514720894   -0.3444646668
C       -1.3205379802   -0.1805064726    0.7004825652
C        0.2736387373    1.3374453743   -0.7023392338
N        1.5588709024    1.4235832818   -0.7583010607
H        3.1390010791   -0.0124984336   -0.3865237460
H        1.1980898242   -1.7986355417    0.1243933611
H       -0.7296664530   -0.4625219730   -1.2407173221
H       -2.2273566378    0.4278242805    0.6416103710
H       -0.3666401278    2.1858574199   -0.9290276096
C       -1.8254367199   -1.2002693259    1.3667004411
H       -2.6261941366   -1.0445956707    2.0881073198
13   
Frame  17 IRC: Energy =  -286.8593399026 ; +10.5284 kcal/mol
C        2.0567640819    0.1342011485   -0.4069292173
C        1.0843459712   -0.7586269306   -0.1329941365
C       -0.2392044877   -0.0650948314   -0.3433331994
C       -1.3743982444   -0.2058394552    0.6519923656
C        0.2591170826    1.3295586430   -0.6983093801
N        1.5441038826    1.4170218316   -0.7645658358
H        3.1322021271   -0.0073561639   -0.3860671163
H        1.2034629916   -1.7968635024    0.1424087291
H       -0.7004254344   -0.4650205740   -1.2653095281
H       -2.1863677533    0.5283087617    0.6015967646
H       -0.3773478073    2.1765027178   -0.9429318747
C       -1.7690150170   -1.1792577565    1.4449222923
H       -2.6332373928   -1.1075338886    2.0995201365
13   
Frame  18 IRC: Energy =  -286.8648001822 ; +7.1020 kcal/mol
C        2.0408503303    0.1313397875   -0.3980595097
C        1.0738975059   -0.7650752494   -0.1165064777
C       -0.2488688220   -0.0799828810   -0.3521759642
C       -1.4009862380   -0.1859121044    0.6293999955
C        0.2410712771    1.3161042956   -0.6998028218
N        1.5250349505    1.4100571894   -0.7616682079
H        3.1159212400   -0.0058723372   -0.3844960297
H        1.2032448857   -1.8005498535    0.1666102141
H       -0.6584152167   -0.4704965925   -1.3046827186
H       -2.1484568486    0.6120234306    0.5479138425
H       -0.4001005417    2.1587987643   -0.9487728159
C       -1.7357214963   -1.1230265706    1.4893653291
H       -2.6074710263   -1.1974078788    2.1328751643
13   
Frame  19 IRC: Energy =  -286.8667495592 ; +5.8788 kcal/mol
C        2.0244157728    0.1286938007   -0.3781133623
C        1.0561319437   -0.7674574125   -0.1012123154
C       -0.2603710723   -0.0842432137   -0.3714778845
C       -1.4218388090   -0.1503141168    0.6034059541
C        0.2283445816    1.3067919723   -0.7119579376
N        1.5124273072    1.4082569153   -0.7482631451
H        3.0983609717   -0.0106525224   -0.3608804751
H        1.1814450226   -1.8013584253    0.1911750949
H       -0.6403558843   -0.4895889140   -1.3303438819
H       -2.1414388352    0.6723473883    0.4960596001
H       -0.4256951034    2.1425614884   -0.9499461761
C       -1.7001775017   -1.0839518629    1.4844018929
H       -2.5112483936   -1.2710850973    2.1771526362
13   
Frame  20 IRC: Energy =  -286.8675639033 ; +5.3678 kcal/mol
C        2.0079935200    0.1266282743   -0.3457331981
C        1.0288023496   -0.7679534964   -0.1080778301
C       -0.2767498253   -0.0783480306   -0.4067701618
C       -1.4273521230   -0.1441965972    0.5809451502
C        0.2253875805    1.3118621787   -0.7322116421
N        1.5105564240    1.4095770330   -0.7269640534
H        3.0802596141   -0.0141112303   -0.2868443830
H        1.1375637519   -1.8004858487    0.1947759558
H       -0.6568192324   -0.4852170811   -1.3643284702
H       -2.1684022303    0.6585410303    0.4717531899
H       -0.4179849896    2.1515948354   -0.9843761195
C       -1.6403620306   -1.0709195345    1.4871442737
H       -2.4028928089   -1.2969715327    2.2206872886
13   
Frame  21 IRC: Energy =  -286.8680641823 ; +5.0538 kcal/mol
C        1.9939750180    0.1272966315   -0.3148524704
C        1.0105290705   -0.7723485303   -0.1229267374
C       -0.2885787420   -0.0789199938   -0.4373877584
C       -1.4315535318   -0.1517268158    0.5584515246
C        0.2217083592    1.3137155884   -0.7443907067
N        1.5055591968    1.4131711631   -0.6989646242
H        3.0633125671   -0.0115744296   -0.2157142571
H        1.1090319168   -1.8075924903    0.1747457301
H       -0.6692466453   -0.4787125367   -1.3976345720
H       -2.2086498834    0.6120545839    0.4262942400
H       -0.4136416486    2.1553909172   -1.0106919950
C       -1.5807398404   -1.0436936731    1.5103233961
H       -2.3117058370   -1.2770604146    2.2727482304
13   
Frame  22 IRC: Energy =  -286.8684248473 ; +4.8275 kcal/mol
C        1.9807717431    0.1287741326   -0.2860884808
C        0.9972695673   -0.7789716200   -0.1401658932
C       -0.2977174018   -0.0842725927   -0.4651207619
C       -1.4376499034   -0.1659974300    0.5320339958
C        0.2149324236    1.3123714110   -0.7511909658
N        1.4966544133    1.4173182280   -0.6667444625
H        3.0468373036   -0.0063342747   -0.1526998260
H        1.0910038742   -1.8183749709    0.1443320793
H       -0.6716323892   -0.4788972796   -1.4304807999
H       -2.2506338843    0.5522706036    0.3691770362
H       -0.4164273632    2.1559315816   -1.0211076992
C       -1.5256877759   -1.0042715385    1.5384187334
H       -2.2277206074   -1.2295462504    2.3296370445
13   
Frame  23 IRC: Energy =  -286.8687454804 ; +4.6263 kcal/mol
C        1.9694513189    0.1283759138   -0.2652688175
C        0.9860085135   -0.7833320221   -0.1497675531
C       -0.3052235480   -0.0898308095   -0.4903224077
C       -1.4427340672   -0.1807949971    0.5075068815
C        0.2083865530    1.3128142544   -0.7477593709
N        1.4881957631    1.4200939559   -0.6385972210
H        3.0325018652   -0.0051086814   -0.1082132582
H        1.0759581430   -1.8260413425    0.1237052409
H       -0.6719775644   -0.4774456215   -1.4613961499
H       -2.3000646776    0.4725561469    0.3009621885
H       -0.4193325476    2.1581848252   -1.0202477931
C       -1.4716232043   -0.9557321007    1.5677854317
H       -2.1495465474   -1.1737395214    2.3816128286
13   
Frame  24 IRC: Energy =  -286.8689425701 ; +4.5026 kcal/mol
C        1.9609097404    0.1280108640   -0.2468448428
C        0.9803345610   -0.7900695694   -0.1622370590
C       -0.3097522574   -0.0977050553   -0.5114793441
C       -1.4457863243   -0.1955293446    0.4881451234
C        0.2022518283    1.3110542839   -0.7441869885
N        1.4786395253    1.4238698284   -0.6048757890
H        3.0219410557   -0.0025484317   -0.0742369358
H        1.0705427197   -1.8369849168    0.0947760034
H       -0.6740587053   -0.4750787281   -1.4862878235
H       -2.3458178997    0.3784352372    0.2332393028
H       -0.4244361164    2.1581068766   -1.0131486098
C       -1.4261701831   -0.8971998291    1.5989388009
H       -2.0885979442   -1.1043612151    2.4281981621
13   
Frame  25 IRC: Energy =  -286.8690085276 ; +4.4613 kcal/mol
C        1.9603928520    0.1280087969   -0.2422829642
C        0.9837353630   -0.7955943879   -0.1702433519
C       -0.3082582248   -0.1064221140   -0.5192521131
C       -1.4483460323   -0.2087906491    0.4775875074
C        0.1987930104    1.3087239417   -0.7331000817
N        1.4740018516    1.4255649309   -0.5897763341
H        3.0221585247    0.0010948703   -0.0709660881
H        1.0790380372   -1.8445157441    0.0767773106
H       -0.6748689841   -0.4730966672   -1.4954601086
H       -2.3700415208    0.3121593461    0.1875650985
H       -0.4318909384    2.1546826749   -0.9955524170
C       -1.4094958829   -0.8536273433    1.6223454048
H       -2.0752180555   -1.0481876552    2.4523581373
