
Running Job 1 of 1 qcirc.in
qchem qcirc.in_89741.0 ./qcirc.d/ 1
/home/leeping/opt/qchem/5.0.2-openmp/exe/qcprog.exe_s qcirc.in_89741.0 ./qcirc.d/
Check license passed

                  Welcome to Q-Chem
     A Quantum Leap Into The Future Of Chemistry


 Q-Chem 5.0, Q-Chem, Inc., Pleasanton, CA (2017)

 Yihan Shao,  Zhengting Gan,  E. Epifanovsky,  A. T. B. Gilbert,  M. Wormit,  
 J. Kussmann,  A. W. Lange,  A. Behn,  Jia Deng,  Xintian Feng,  D. Ghosh,  
 M. Goldey,  P. R. Horn,  L. D. Jacobson,  I. Kaliman,  T. Kus,  A. Landau,  
 Jie Liu,  E. I. Proynov,  R. M. Richard,  R. P. Steele,  E. J. Sundstrom,  
 H. L. Woodcock III,  P. M. Zimmerman,  D. Zuev,  B. Albrecht,  E. Alguire,  
 S. A. Baeppler,  D. Barton,  Z. Benda,  Y. A. Bernard,  E. J. Berquist,  
 K. B. Bravaya,  H. Burton,  D. Casanova,  Chun-Min Chang,  Yunqing Chen,  
 A. Chien,  K. D. Closser,  M. P. Coons,  S. Dasgupta,  A. L. Dempwolff,  
 M. Diedenhofen,  Hainam Do,  R. G. Edgar,  Po-Tung Fang,  S. Fatehi,  
 Qingguo Feng,  J. Fosso-Tande,  Qinghui Ge,  A. Ghysels,  G. Gidofalvi,  
 J. Gomes,  J. Gonthier,  A. Gunina,  M. W. D. Hanson-Heine,  
 P. H. P. Harbach,  A. W. Hauser,  J. E. Herr,  E. G. Hohenstein,  
 Z. C. Holden,  Kerwin Hui,  T.-C. Jagau,  Hyunjun Ji,  B. Kaduk,  
 K. Khistyaev,  Jaehoon Kim,  P. Klunzinger,  K. Koh,  D. Kosenkov,  
 L. Koulias,  T. Kowalczyk,  C. M. Krauter,  A. Kunitsa,  Ka Un Lao,  
 A. Laurent,  K. V. Lawler,  Joonho Lee,  D. Lefrancois,  S. Lehtola,  
 D. S. Levine,  Yi-Pei Li,  You-Sheng Lin,  Fenglai Liu,  E. Livshits,  
 A. Luenser,  P. Manohar,  E. Mansoor,  S. F. Manzer,  Shan-Ping Mao,  
 Yuezhi Mao,  N. Mardirossian,  A. V. Marenich,  T. Markovich,  
 L. A. Martinez-Martinez,  S. A. Maurer,  N. J. Mayhall,  S. C. McKenzie,  
 J.-M. Mewes,  A. F. Morrison,  J. W. Mullinax,  K. Nanda,  
 T. S. Nguyen-Beck,  R. Olivares-Amaya,  J. A. Parkhill,  T. M. Perrine,  
 F. Plasser,  S. Prager,  A. Prociuk,  E. Ramos,  D. R. Rehn,  F. Rob,  
 M. Schneider,  N. Sergueev,  S. M. Sharada,  S. Sharma,  D. W. Small,  
 T. Stauch,  T. Stein,  Yu-Chuan Su,  A. J. W. Thom,  A. Tkatchenko,  
 T. Tsuchimochi,  L. Vogt,  O. Vydrov,  M. A. Watson,  J. Wenzel,  
 M. de Wergifosse,  T. A. Wesolowski,  A. White,  J. Witte,  A. Yamada,  
 Jun Yang,  K. Yao,  S. Yeganeh,  S. R. Yost,  Zhi-Qiang You,  A. Zech,  
 Igor Ying Zhang,  Xing Zhang,  Yan Zhao,  Ying Zhu,  B. R. Brooks,  
 G. K. L. Chan,  C. J. Cramer,  M. S. Gordon,  W. J. Hehre,  A. Klamt,  
 M. W. Schmidt,  C. D. Sherrill,  D. G. Truhlar,  A. Aspuru-Guzik,  R. Baer,  
 A. T. Bell,  N. A. Besley,  Jeng-Da Chai,  R. A. DiStasio Jr.,  A. Dreuw,  
 B. D. Dunietz,  T. R. Furlani,  Chao-Ping Hsu,  Yousung Jung,  Jing Kong,  
 D. S. Lambrecht,  WanZhen Liang,  C. Ochsenfeld,  V. A. Rassolov,  
 L. V. Slipchenko,  J. E. Subotnik,  T. Van Voorhis,  J. M. Herbert,  
 A. I. Krylov,  P. M. W. Gill,  M. Head-Gordon

 Contributors to earlier versions of Q-Chem not listed above: 
 R. D. Adamson,  B. Austin,  J. Baker,  G. J. O. Beran,  K. Brandhorst,  
 S. T. Brown,  E. F. C. Byrd,  A. K. Chakraborty,  C.-L. Cheng,  
 Siu Hung Chien,  D. M. Chipman,  D. L. Crittenden,  H. Dachsel,  
 R. J. Doerksen,  A. D. Dutoi,  L. Fusti-Molnar,  W. A. Goddard III,  
 A. Golubeva-Zadorozhnaya,  S. R. Gwaltney,  G. Hawkins,  A. Heyden,  
 S. Hirata,  G. Kedziora,  F. J. Keil,  C. Kelley,  Jihan Kim,  R. A. King,  
 R. Z. Khaliullin,  P. P. Korambath,  W. Kurlancheek,  A. M. Lee,  M. S. Lee,  
 S. V. Levchenko,  Ching Yeh Lin,  D. Liotard,  R. C. Lochan,  I. Lotan,  
 P. E. Maslen,  N. Nair,  D. P. O'Neill,  D. Neuhauser,  E. Neuscamman,  
 C. M. Oana,  R. Olson,  B. Peters,  R. Peverati,  P. A. Pieniazek,  
 Y. M. Rhee,  J. Ritchie,  M. A. Rohrdanz,  E. Rosta,  N. J. Russ,  
 H. F. Schaefer III,  N. E. Schultz,  N. Shenvi,  A. C. Simmonett,  A. Sodt,  
 D. Stuck,  K. S. Thanthiriwatte,  V. Vanovschi,  Tao Wang,  A. Warshel,  
 C. F. Williams,  Q. Wu,  X. Xu,  W. Zhang

 Please cite Q-Chem as follows:
 Y. Shao et al., Mol. Phys. 113, 184-215 (2015)
 DOI: 10.1080/00268976.2014.952696

 Q-Chem 5.0.2 for Intel X86 EM64T Linux

 Parts of Q-Chem use Armadillo 5.200.1 (Boston Tea Smuggler).
 http://arma.sourceforge.net/

 Q-Chem begins on Thu Mar  3 11:38:08 2022  

Host: 
0

     Scratch files written to ./qcirc.d//
 Dec517 15110_ 26548  26544 5633   
Processing $rem in /home/leeping/opt/qchem/5.0.2-openmp/config/preferences.
 MEM_STATIC 2000
 MEM_TOTAL  8000
 SYMMETRY   OFF
 SYM_IGNORE TRUE 

Checking the input file for inconsistencies... 	...done.

--------------------------------------------------------------
User input:
--------------------------------------------------------------
$molecule
0 2
C        2.1532114983    0.1641216733   -0.4955844477
C        1.2412053834   -0.7982631086   -0.2672533817
C       -0.1231987229   -0.1443270860   -0.3252197728
C       -0.9796490493   -0.3369158035    0.8646278935
C        0.2947081074    1.2958148998   -0.5914164750
N        1.5672757208    1.4498951842   -0.7032727061
H        3.2314971948    0.0725197678   -0.5353520671
H        1.4116496987   -1.8476538945   -0.0678806141
H       -0.6691549925   -0.5033960397   -1.2219373256
H       -3.0482491062   -0.4625691461    0.4530047150
H       -0.4070454763    2.1176803734   -0.7020869374
C       -2.2436721527   -0.4781124842    1.1981127357
H       -2.5512865215   -0.6131371958    2.2326684690
$end

$rem
method                b3lyp
basis                 6-31+g(d,p)
unrestricted          true
symmetry              off
sym_ignore            true
incdft                false
incfock               0
scf_convergence       8
thresh                14
jobtype               opt
scf_guess             read
scf_algorithm         diis
max_scf_cycles        100
geom_opt_max_cycles   300
$end

--------------------------------------------------------------
 ----------------------------------------------------------------
             Standard Nuclear Orientation (Angstroms)
    I     Atom           X                Y                Z
 ----------------------------------------------------------------
    1      C       2.1532114983     0.1641216733    -0.4955844477
    2      C       1.2412053834    -0.7982631086    -0.2672533817
    3      C      -0.1231987229    -0.1443270860    -0.3252197728
    4      C      -0.9796490493    -0.3369158035     0.8646278935
    5      C       0.2947081074     1.2958148998    -0.5914164750
    6      N       1.5672757208     1.4498951842    -0.7032727061
    7      H       3.2314971948     0.0725197678    -0.5353520671
    8      H       1.4116496987    -1.8476538945    -0.0678806141
    9      H      -0.6691549925    -0.5033960397    -1.2219373256
   10      H      -3.0482491062    -0.4625691461     0.4530047150
   11      H      -0.4070454763     2.1176803734    -0.7020869374
   12      C      -2.2436721527    -0.4781124842     1.1981127357
   13      H      -2.5512865215    -0.6131371958     2.2326684690
 ----------------------------------------------------------------
 Nuclear Repulsion Energy =   255.0914321235 hartrees
 There are       25 alpha and       24 beta electrons
 Requested basis set is 6-31+G(d,p)
 There are 53 shells and 163 basis functions

 Total QAlloc Memory Limit   8000 MB
 Mega-Array Size      1956 MB
 MEM_STATIC part      2000 MB
 A cutoff of  1.0D-14 yielded   1345 shell pairs
 There are     13170 function pairs
 
 -------------------------------------------------------
 OpenMP Integral Computing Module                       
 Release: version 1.0, May 2013, Q-Chem Inc. Pittsburgh 
 -------------------------------------------------------
 Integral Job Info:
 Integral job number is                      11
 Integral operator is                         1
 short-range coefficients                     0
 long-range coefficients              100000000
 Omega coefficients                           0
 if combine SR and LR in K                    0
 Integral screening is                        0
 Integral computing path is                   2
 max size of driver memory is            800000
 size of driver memory is                593474
 size of scratch memory is              2361544
 max col of scratch BK array               1296
 max len of scratch array in speh3          155
 max len of scratch index in speh4           18
 max int batch size is                      520
 min int batch size is                       52
 fixed nKL is                                52
 max L of basis functions is                  2
 order of int derivative is                   0
 number of shells is                         53
 number of basis is                         163
 number of cartesian basis is               163
 number of contracted shell pairs          1345
 number of primitive shell pairs           4465
 maxK2 (contraction) of shell pair           36
 max number of K2 of shell pair               1
 max number of CS2 of shell pair            128
 max number of PS2 of shell pair            654
 mem total for path MDJ                  530316
 -------------------------------------------------------
 Smallest overlap matrix eigenvalue = 1.41E-05

 Scale SEOQF with 1.000000e-01/1.000000e-01/1.000000e-01

 Standard Electronic Orientation quadrupole field applied
 Nucleus-field energy     =     0.0000000040 hartrees
 Guess MOs from SCF MO coefficient file
 Reading MOs from coefficient file
 Reading MOs from coefficient file
 An unrestricted hybrid HF-DFT SCF calculation will be
 performed using Pulay DIIS extrapolation
 Exchange:     0.2000 Hartree-Fock + 0.0800 Slater + 0.7200 B88
 Correlation:  0.1900 VWN1RPA + 0.8100 LYP
 Using SG-1 standard quadrature grid
 SCF converges when DIIS error is below 1.0E-08
Using Q-Chem read-in guess as SCF_GUESS READ specified.

 using 4 threads for integral computing
 -------------------------------------------------------
 OpenMP Integral computing Module                
 Release: version 1.0, May 2013, Q-Chem Inc. Pittsburgh 
 -------------------------------------------------------
 -------------------------------------------------------
 OpenMP BLAS3 based DFT computing Module                
 Release: version 1.0, May 2013, Q-Chem Inc. Pittsburgh 
 -------------------------------------------------------
 ---------------------------------------
  Cycle       Energy         DIIS Error
 ---------------------------------------
    1    -285.5420444917      1.95E-02
    2    -282.6983294573      2.68E-02
    3    -284.1839834854      2.10E-02
    4    -286.7377311201      5.22E-03
    5    -286.8198563496      3.72E-03
    6    -286.8675159323      1.30E-03
    7    -286.8741313440      4.26E-04
    8    -286.8750198365      1.93E-04
    9    -286.8752201675      6.28E-05
   10    -286.8752790464      3.84E-05
   11    -286.8753021172      1.14E-05
   12    -286.8753159937      4.16E-06
   13    -286.8753213785      2.37E-06
   14    -286.8753237141      7.97E-07
   15    -286.8753250245      3.88E-07
   16    -286.8753255999      2.07E-07
   17    -286.8753257598      9.35E-08
   18    -286.8753257752      2.45E-08
   19    -286.8753257787      9.39E-09 Convergence criterion met
 ---------------------------------------
 <S^2> = 0.7598
 SCF time:  CPU 90.92 s  wall 29.04 s
 SCF   energy in the final basis set = -286.87532578
 Total energy in the final basis set = -286.87532578
 
 --------------------------------------------------------------
 
                    Orbital Energies (a.u.)
 --------------------------------------------------------------
 
 Alpha MOs
 -- Occupied --
-14.350 -10.245 -10.238 -10.234 -10.227 -10.210 -10.205  -0.967
 -0.823  -0.765  -0.730  -0.612  -0.567  -0.556  -0.517  -0.477
 -0.459  -0.429  -0.411  -0.391  -0.367  -0.305  -0.273  -0.255
 -0.235
 -- Virtual --
 -0.056  -0.015   0.005   0.019   0.025   0.034   0.038   0.045
  0.048   0.061   0.068   0.078   0.090   0.096   0.100   0.104
  0.123   0.134   0.138   0.142   0.154   0.163   0.180   0.186
  0.191   0.196   0.199   0.212   0.223   0.228   0.241   0.243
  0.252   0.258   0.274   0.286   0.301   0.304   0.332   0.375
  0.395   0.422   0.444   0.464   0.619   0.639   0.654   0.672
  0.683   0.693   0.713   0.729   0.733   0.746   0.771   0.798
  0.807   0.839   0.873   0.878   0.908   0.929   0.955   0.977
  0.993   1.010   1.017   1.038   1.054   1.075   1.093   1.146
  1.174   1.231   1.247   1.310   1.344   1.376   1.413   1.427
  1.463   1.478   1.527   1.591   1.634   1.690   1.737   1.780
  1.825   1.836   1.880   1.945   1.958   2.005   2.012   2.034
  2.046   2.070   2.121   2.200   2.243   2.263   2.273   2.341
  2.372   2.408   2.442   2.495   2.503   2.524   2.539   2.547
  2.585   2.602   2.622   2.668   2.691   2.714   2.752   2.762
  2.873   2.901   3.028   3.046   3.133   3.271   3.312   3.359
  3.473   3.566   3.675   4.134   4.279   4.330   4.402   4.515
  4.580   4.756
 
 Beta MOs
 -- Occupied --
-14.350 -10.245 -10.238 -10.227 -10.220 -10.209 -10.206  -0.967
 -0.810  -0.759  -0.728  -0.607  -0.566  -0.546  -0.509  -0.469
 -0.446  -0.426  -0.410  -0.388  -0.364  -0.300  -0.271  -0.254
 -- Virtual --
 -0.087  -0.054  -0.006   0.009   0.019   0.025   0.034   0.039
  0.046   0.050   0.062   0.068   0.079   0.091   0.097   0.100
  0.105   0.123   0.135   0.140   0.143   0.155   0.165   0.182
  0.188   0.193   0.198   0.200   0.214   0.227   0.229   0.242
  0.245   0.256   0.261   0.278   0.287   0.301   0.305   0.340
  0.379   0.397   0.431   0.448   0.466   0.627   0.644   0.658
  0.676   0.687   0.700   0.723   0.732   0.735   0.765   0.774
  0.803   0.815   0.845   0.877   0.882   0.910   0.932   0.964
  0.981   1.000   1.012   1.020   1.041   1.057   1.083   1.095
  1.149   1.176   1.234   1.253   1.316   1.346   1.378   1.421
  1.429   1.464   1.480   1.536   1.598   1.641   1.706   1.770
  1.795   1.834   1.852   1.883   1.948   1.959   2.010   2.027
  2.045   2.054   2.076   2.125   2.210   2.251   2.264   2.277
  2.347   2.374   2.408   2.444   2.496   2.507   2.527   2.543
  2.550   2.589   2.603   2.624   2.679   2.693   2.717   2.758
  2.772   2.881   2.908   3.031   3.057   3.135   3.271   3.320
  3.364   3.473   3.578   3.675   4.135   4.299   4.330   4.402
  4.523   4.584   4.760
 --------------------------------------------------------------
 
          Ground-State Mulliken Net Atomic Charges

     Atom                 Charge (a.u.)    Spin (a.u.)
  --------------------------------------------------------
      1 C                    -0.177459      -0.023643
      2 C                     0.037178       0.002781
      3 C                    -0.251868       0.055778
      4 C                     0.053463       0.949246
      5 C                    -0.009625      -0.013149
      6 N                    -0.184429       0.009543
      7 H                     0.136050       0.001230
      8 H                     0.143144      -0.000901
      9 H                     0.189135       0.049149
     10 H                     0.144880       0.085610
     11 H                     0.143459       0.000312
     12 C                    -0.379767      -0.157466
     13 H                     0.155839       0.041509
  --------------------------------------------------------
  Sum of atomic charges =    -0.000000
  Sum of spin   charges =     1.000000

 -----------------------------------------------------------------
                    Cartesian Multipole Moments
 -----------------------------------------------------------------
    Charge (ESU x 10^10)
                 0.0000
    Dipole Moment (Debye)
         X      -1.6213      Y      -1.6384      Z      -0.3635
       Tot       2.3335
    Quadrupole Moments (Debye-Ang)
        XX     -39.3802     XY      -4.7746     YY     -45.1827
        XZ       1.2902     YZ       1.0297     ZZ     -43.2031
    Octopole Moments (Debye-Ang^2)
       XXX     -25.8885    XXY     -15.7151    XYY     -15.7915
       YYY     -23.2593    XXZ       4.7055    XYZ       4.5063
       YYZ       2.6878    XZZ     -16.3583    YZZ      -7.8591
       ZZZ       8.0405
    Hexadecapole Moments (Debye-Ang^3)
      XXXX    -582.7437   XXXY     -66.7145   XXYY    -173.1809
      XYYY     -92.3536   YYYY    -256.5791   XXXZ     107.1632
      XXYZ      17.9768   XYYZ      52.6552   YYYZ      52.4889
      XXZZ    -138.2090   XYZZ     -17.9476   YYZZ     -81.4224
      XZZZ     112.3981   YZZZ      45.4454   ZZZZ    -191.5742
 -----------------------------------------------------------------
 Calculating analytic gradient of the SCF energy
 Gradient of SCF Energy
            1           2           3           4           5           6
    1  -0.0000855   0.0000640   0.0001628  -0.0004020  -0.0000425  -0.0001855
    2   0.0000408  -0.0000305  -0.0000774  -0.0002932   0.0002496  -0.0000838
    3   0.0001094   0.0000333  -0.0002598  -0.0000252  -0.0001887  -0.0000128
            7           8           9          10          11          12
    1   0.0000561   0.0000045   0.0000964  -0.0004117   0.0000360   0.0003443
    2   0.0000778   0.0000993  -0.0000494   0.0008780  -0.0001845  -0.0000359
    3   0.0002604   0.0001636  -0.0001564   0.0000703  -0.0002932   0.0006878
           13
    1   0.0003630
    2  -0.0005906
    3  -0.0003886
 Max gradient component =       8.780E-04
 RMS gradient           =       2.754E-04
 Gradient time:  CPU 15.51 s  wall 3.94 s
 Geometry Optimization Parameters
   NAtoms,    NIC,     NZ,  NCons,   NDum,   NFix, NCnnct, MaxDiis
       13      84       0       0       0       0       0       0


** GEOMETRY OPTIMIZATION IN DELOCALIZED INTERNAL COORDINATES **
   Searching for a Minimum

   Optimization Cycle:   1

                       Coordinates (Angstroms)
     ATOM                X               Y               Z
      1  C         2.1532114983    0.1641216733   -0.4955844477
      2  C         1.2412053834   -0.7982631086   -0.2672533817
      3  C        -0.1231987229   -0.1443270860   -0.3252197728
      4  C        -0.9796490493   -0.3369158035    0.8646278935
      5  C         0.2947081074    1.2958148998   -0.5914164750
      6  N         1.5672757208    1.4498951842   -0.7032727061
      7  H         3.2314971948    0.0725197678   -0.5353520671
      8  H         1.4116496987   -1.8476538945   -0.0678806141
      9  H        -0.6691549925   -0.5033960397   -1.2219373256
     10  H        -3.0482491062   -0.4625691461    0.4530047150
     11  H        -0.4070454763    2.1176803734   -0.7020869374
     12  C        -2.2436721527   -0.4781124842    1.1981127357
     13  H        -2.5512865215   -0.6131371958    2.2326684690
   Point Group: c1    Number of degrees of freedom:    33


   Energy is   -286.875325779


 Attempting to Generate Delocalized Internal Coordinates

 33 Hessian modes will be used to form the next step
  Hessian Eigenvalues:
     0.009527    0.011585    0.012006    0.015907    0.020170    0.025219
     0.033667    0.033668    0.063651    0.064948    0.075257    0.138033
     0.159962    0.159992    0.160000    0.160000    0.160000    0.215167
     0.228746    0.250000    0.290423    0.302195    0.326477    0.340486
     0.347274    0.350759    0.352372    0.356462    0.357926    0.395797
     0.526689    0.632251    0.676818

 Minimum Search - Taking Simple RFO Step
 Searching for Lamda that Minimizes Along All modes
 Value Taken    Lamda =  -0.00039025
 Step Taken.  Stepsize is  0.151482

                             Maximum     Tolerance    Cnvgd?
         Gradient           0.002548      0.000300      NO
         Displacement       0.115966      0.001200      NO
         Energy change     *********      0.000001      NO


 New Cartesian Coordinates Obtained by Inverse Iteration

 Displacement from previous Coordinates is:  0.318722
 ----------------------------------------------------------------
             Standard Nuclear Orientation (Angstroms)
    I     Atom           X                Y                Z
 ----------------------------------------------------------------
    1      C       2.1536737376     0.1554800375    -0.5101910990
    2      C       1.2335267186    -0.7933789765    -0.2589721861
    3      C      -0.1239947530    -0.1249270610    -0.3114746595
    4      C      -0.9850953425    -0.3030235441     0.8766023528
    5      C       0.3081427707     1.3102378122    -0.5812821848
    6      N       1.5810563854     1.4484938310    -0.7104424963
    7      H       3.2294645104     0.0487671610    -0.5720927493
    8      H       1.3934955147    -1.8449399857    -0.0618568078
    9      H      -0.6752917570    -0.4825586496    -1.2053035449
   10      H      -3.0283902938    -0.5897111651     0.4298526632
   11      H      -0.3843545186     2.1419890879    -0.6774328404
   12      C      -2.2478291144    -0.4893700464     1.1930941462
   13      H      -2.5771122760    -0.5614013611     2.2279094916
 ----------------------------------------------------------------
 Nuclear Repulsion Energy =   255.0294829787 hartrees
 There are       25 alpha and       24 beta electrons
 Applying Cartesian multipole field
    Component          Value
    ---------          -----
     (2,0,0)        1.00000E-11
     (0,2,0)        2.00000E-11
     (0,0,2)       -3.00000E-11
 Nucleus-field energy     =     0.0000000041 hartrees
 Requested basis set is 6-31+G(d,p)
 There are 53 shells and 163 basis functions
 A cutoff of  1.0D-14 yielded   1347 shell pairs
 There are     13176 function pairs
 Smallest overlap matrix eigenvalue = 1.39E-05
 Guess MOs from SCF MO coefficient file
 Reading MOs from coefficient file
 Reading MOs from coefficient file
 An unrestricted hybrid HF-DFT SCF calculation will be
 performed using Pulay DIIS extrapolation
 Exchange:     0.2000 Hartree-Fock + 0.0800 Slater + 0.7200 B88
 Correlation:  0.1900 VWN1RPA + 0.8100 LYP
 Using SG-1 standard quadrature grid
 SCF converges when DIIS error is below 1.0E-08
 Geometry optimization detected.  Setting ReadMinima to 0
 Setting SaveMinima to 0
Using Q-Chem read-in guess as SCF_GUESS READ specified.

 using 4 threads for integral computing
 -------------------------------------------------------
 OpenMP Integral computing Module                
 Release: version 1.0, May 2013, Q-Chem Inc. Pittsburgh 
 -------------------------------------------------------
 -------------------------------------------------------
 OpenMP BLAS3 based DFT computing Module                
 Release: version 1.0, May 2013, Q-Chem Inc. Pittsburgh 
 -------------------------------------------------------
 ---------------------------------------
  Cycle       Energy         DIIS Error
 ---------------------------------------
    1    -286.8732340510      9.55E-04
    2    -286.8754368015      8.56E-05
    3    -286.8755925973      7.24E-05
    4    -286.8756240787      3.81E-05
    5    -286.8756413127      1.54E-05
    6    -286.8756463184      8.08E-06
    7    -286.8756476255      3.59E-06
    8    -286.8756478139      2.44E-06
    9    -286.8756478603      6.86E-07
   10    -286.8756478644      2.01E-07
   11    -286.8756478655      1.05E-07
   12    -286.8756478659      2.73E-08
   13    -286.8756478662      8.06E-09 Convergence criterion met
 ---------------------------------------
 <S^2> = 0.7596
 SCF time:  CPU 61.64 s  wall 17.21 s
 SCF   energy in the final basis set = -286.87564787
 Total energy in the final basis set = -286.87564787
 
 --------------------------------------------------------------
 
                    Orbital Energies (a.u.)
 --------------------------------------------------------------
 
 Alpha MOs
 -- Occupied --
-14.350 -10.245 -10.238 -10.235 -10.227 -10.210 -10.205  -0.967
 -0.823  -0.765  -0.730  -0.612  -0.566  -0.556  -0.517  -0.478
 -0.459  -0.428  -0.411  -0.392  -0.367  -0.305  -0.274  -0.254
 -0.236
 -- Virtual --
 -0.056  -0.014   0.005   0.019   0.025   0.034   0.038   0.045
  0.048   0.062   0.067   0.078   0.090   0.097   0.098   0.103
  0.123   0.134   0.139   0.142   0.153   0.164   0.180   0.186
  0.190   0.196   0.198   0.213   0.221   0.226   0.241   0.243
  0.252   0.256   0.274   0.287   0.301   0.304   0.334   0.375
  0.395   0.422   0.443   0.463   0.616   0.639   0.654   0.671
  0.683   0.694   0.712   0.730   0.733   0.744   0.770   0.797
  0.808   0.841   0.869   0.879   0.909   0.930   0.958   0.976
  0.995   1.009   1.016   1.039   1.057   1.076   1.092   1.147
  1.174   1.228   1.249   1.300   1.343   1.375   1.413   1.426
  1.465   1.476   1.529   1.592   1.633   1.687   1.738   1.781
  1.826   1.834   1.880   1.943   1.958   2.004   2.014   2.035
  2.049   2.071   2.120   2.200   2.243   2.261   2.274   2.341
  2.371   2.407   2.443   2.495   2.501   2.522   2.540   2.549
  2.586   2.603   2.623   2.668   2.691   2.714   2.751   2.760
  2.873   2.901   3.026   3.047   3.133   3.271   3.311   3.358
  3.473   3.566   3.674   4.135   4.279   4.330   4.400   4.514
  4.579   4.756
 
 Beta MOs
 -- Occupied --
-14.350 -10.245 -10.238 -10.227 -10.220 -10.209 -10.206  -0.967
 -0.810  -0.759  -0.728  -0.607  -0.566  -0.546  -0.509  -0.469
 -0.446  -0.426  -0.409  -0.389  -0.364  -0.299  -0.272  -0.254
 -- Virtual --
 -0.088  -0.054  -0.005   0.008   0.019   0.026   0.034   0.039
  0.045   0.050   0.063   0.067   0.079   0.091   0.098   0.098
  0.105   0.123   0.135   0.140   0.143   0.154   0.165   0.184
  0.188   0.193   0.198   0.199   0.215   0.224   0.228   0.242
  0.246   0.256   0.260   0.277   0.287   0.302   0.305   0.342
  0.379   0.397   0.431   0.447   0.464   0.624   0.645   0.658
  0.675   0.687   0.699   0.722   0.732   0.735   0.764   0.774
  0.803   0.816   0.847   0.874   0.881   0.911   0.933   0.966
  0.980   1.001   1.011   1.020   1.042   1.061   1.082   1.095
  1.150   1.177   1.231   1.256   1.306   1.344   1.377   1.421
  1.427   1.465   1.479   1.538   1.599   1.641   1.703   1.770
  1.795   1.834   1.850   1.882   1.947   1.959   2.008   2.029
  2.046   2.057   2.079   2.125   2.210   2.251   2.262   2.278
  2.347   2.374   2.408   2.445   2.496   2.505   2.525   2.544
  2.551   2.590   2.604   2.625   2.679   2.693   2.717   2.757
  2.770   2.882   2.908   3.030   3.058   3.134   3.271   3.319
  3.364   3.474   3.578   3.675   4.135   4.300   4.330   4.400
  4.522   4.583   4.760
 --------------------------------------------------------------
 
          Ground-State Mulliken Net Atomic Charges

     Atom                 Charge (a.u.)    Spin (a.u.)
  --------------------------------------------------------
      1 C                    -0.181643      -0.018366
      2 C                     0.045881      -0.003936
      3 C                    -0.269707       0.063729
      4 C                     0.046637       0.946362
      5 C                     0.002411      -0.019697
      6 N                    -0.184752       0.007571
      7 H                     0.136088       0.001029
      8 H                     0.143155      -0.000756
      9 H                     0.188848       0.053131
     10 H                     0.144769       0.085219
     11 H                     0.143674       0.000146
     12 C                    -0.371259      -0.155278
     13 H                     0.155898       0.040845
  --------------------------------------------------------
  Sum of atomic charges =    -0.000000
  Sum of spin   charges =     1.000000

 -----------------------------------------------------------------
                    Cartesian Multipole Moments
 -----------------------------------------------------------------
    Charge (ESU x 10^10)
                 0.0000
    Dipole Moment (Debye)
         X      -1.6335      Y      -1.6694      Z      -0.3577
       Tot       2.3629
    Quadrupole Moments (Debye-Ang)
        XX     -39.5222     XY      -4.6345     YY     -45.0631
        XZ       1.2155     YZ       1.1764     ZZ     -43.2488
    Octopole Moments (Debye-Ang^2)
       XXX     -26.1362    XXY     -16.9431    XYY     -16.0721
       YYY     -23.7052    XXZ       4.5143    XYZ       4.3378
       YYZ       2.5831    XZZ     -16.4087    YZZ      -7.8070
       ZZZ       7.8759
    Hexadecapole Moments (Debye-Ang^3)
      XXXX    -586.4312   XXXY     -66.4614   XXYY    -173.5178
      XYYY     -93.0723   YYYY    -256.3950   XXXZ     107.1674
      XXYZ      18.7245   XYYZ      53.3856   YYYZ      52.6018
      XXZZ    -137.8392   XYZZ     -19.1588   YYZZ     -82.1594
      XZZZ     113.1893   YZZZ      46.3068   ZZZZ    -191.7811
 -----------------------------------------------------------------
 Calculating analytic gradient of the SCF energy
 Gradient of SCF Energy
            1           2           3           4           5           6
    1  -0.0000552   0.0002882  -0.0003101  -0.0002819   0.0000861   0.0000292
    2  -0.0000463   0.0002511   0.0005616  -0.0016769   0.0000490   0.0000805
    3  -0.0003264   0.0010299  -0.0016614  -0.0001858   0.0001551   0.0000934
            7           8           9          10          11          12
    1  -0.0000056  -0.0000031   0.0001822  -0.0001690  -0.0000369   0.0001553
    2  -0.0000007   0.0000459  -0.0001845   0.0003132  -0.0000015   0.0009491
    3  -0.0000000   0.0001339   0.0003885   0.0001231  -0.0000626   0.0002346
           13
    1   0.0001209
    2  -0.0003408
    3   0.0000779
 Max gradient component =       1.677E-03
 RMS gradient           =       4.795E-04
 Gradient time:  CPU 15.42 s  wall 3.97 s
 Geometry Optimization Parameters
   NAtoms,    NIC,     NZ,  NCons,   NDum,   NFix, NCnnct, MaxDiis
       13      84       0       0       0       0       0       0

 Cartesian Hessian Update
 Hessian Updated using BFGS Update


** GEOMETRY OPTIMIZATION IN DELOCALIZED INTERNAL COORDINATES **
   Searching for a Minimum

   Optimization Cycle:   2

                       Coordinates (Angstroms)
     ATOM                X               Y               Z
      1  C         2.1536737376    0.1554800375   -0.5101910990
      2  C         1.2335267186   -0.7933789765   -0.2589721861
      3  C        -0.1239947530   -0.1249270610   -0.3114746595
      4  C        -0.9850953425   -0.3030235441    0.8766023528
      5  C         0.3081427707    1.3102378122   -0.5812821848
      6  N         1.5810563854    1.4484938310   -0.7104424963
      7  H         3.2294645104    0.0487671610   -0.5720927493
      8  H         1.3934955147   -1.8449399857   -0.0618568078
      9  H        -0.6752917570   -0.4825586496   -1.2053035449
     10  H        -3.0283902938   -0.5897111651    0.4298526632
     11  H        -0.3843545186    2.1419890879   -0.6774328404
     12  C        -2.2478291144   -0.4893700464    1.1930941462
     13  H        -2.5771122760   -0.5614013611    2.2279094916
   Point Group: c1    Number of degrees of freedom:    33


   Energy is   -286.875647866

 Hessian Updated using BFGS Update

 32 Hessian modes will be used to form the next step
  Hessian Eigenvalues:
     0.003567    0.010514    0.011814    0.016608    0.020906    0.025255
     0.032587    0.034969    0.064134    0.066560    0.076922    0.134653
     0.159413    0.159964    0.159992    0.160057    0.215405    0.228858
     0.241527    0.290516    0.302319    0.327797    0.340795    0.346979
     0.351791    0.352831    0.356479    0.357934    0.395794    0.526690
     0.632187    0.677027

 Minimum Search - Taking Simple RFO Step
 Searching for Lamda that Minimizes Along All modes
 Value Taken    Lamda =  -0.00073688
 Calculated Step too Large.  Step scaled by  0.745427
 Step Taken.  Stepsize is  0.300000

                             Maximum     Tolerance    Cnvgd?
         Gradient           0.001814      0.000300      NO
         Displacement       0.218461      0.001200      NO
         Energy change     -0.000322      0.000001      NO


 New Cartesian Coordinates Obtained by Inverse Iteration

 Displacement from previous Coordinates is:  0.587230
 ----------------------------------------------------------------
             Standard Nuclear Orientation (Angstroms)
    I     Atom           X                Y                Z
 ----------------------------------------------------------------
    1      C       2.1505955050     0.1390073598    -0.5195411376
    2      C       1.2102243380    -0.7877128441    -0.2605088693
    3      C      -0.1296930365    -0.0846714850    -0.2917989888
    4      C      -0.9952012899    -0.2296323432     0.8957147301
    5      C       0.3321294018     1.3379377820    -0.5757725294
    6      N       1.6069038269     1.4450902220    -0.7168256101
    7      H       3.2220718602     0.0049611774    -0.5999211177
    8      H       1.3458701954    -1.8446680748    -0.0736201206
    9      H      -0.6960492407    -0.4343021921    -1.1805202337
   10      H      -2.9598733469    -0.8284426088     0.4211910298
   11      H      -0.3405240524     2.1870999049    -0.6606543102
   12      C      -2.2446928949    -0.5160033459     1.1907049511
   13      H      -2.6244696839    -0.4730064120     2.2099622919
 ----------------------------------------------------------------
 Nuclear Repulsion Energy =   254.9992289680 hartrees
 There are       25 alpha and       24 beta electrons
 Applying Cartesian multipole field
    Component          Value
    ---------          -----
     (2,0,0)        1.00000E-11
     (0,2,0)        2.00000E-11
     (0,0,2)       -3.00000E-11
 Nucleus-field energy     =     0.0000000041 hartrees
 Requested basis set is 6-31+G(d,p)
 There are 53 shells and 163 basis functions
 A cutoff of  1.0D-14 yielded   1345 shell pairs
 There are     13166 function pairs
 Smallest overlap matrix eigenvalue = 1.40E-05
 Guess MOs from SCF MO coefficient file
 Reading MOs from coefficient file
 Reading MOs from coefficient file
 An unrestricted hybrid HF-DFT SCF calculation will be
 performed using Pulay DIIS extrapolation
 Exchange:     0.2000 Hartree-Fock + 0.0800 Slater + 0.7200 B88
 Correlation:  0.1900 VWN1RPA + 0.8100 LYP
 Using SG-1 standard quadrature grid
 SCF converges when DIIS error is below 1.0E-08
 Geometry optimization detected.  Setting ReadMinima to 0
 Setting SaveMinima to 0
Using Q-Chem read-in guess as SCF_GUESS READ specified.

 using 4 threads for integral computing
 -------------------------------------------------------
 OpenMP Integral computing Module                
 Release: version 1.0, May 2013, Q-Chem Inc. Pittsburgh 
 -------------------------------------------------------
 -------------------------------------------------------
 OpenMP BLAS3 based DFT computing Module                
 Release: version 1.0, May 2013, Q-Chem Inc. Pittsburgh 
 -------------------------------------------------------
 ---------------------------------------
  Cycle       Energy         DIIS Error
 ---------------------------------------
    1    -286.8652018304      1.82E-03
    2    -286.8751397083      2.21E-04
    3    -286.8755245687      2.92E-04
    4    -286.8758710704      6.60E-05
    5    -286.8759305631      3.96E-05
    6    -286.8759567494      1.66E-05
    7    -286.8759622745      1.13E-05
    8    -286.8759638036      4.03E-06
    9    -286.8759640153      1.75E-06
   10    -286.8759640457      5.16E-07
   11    -286.8759640511      2.54E-07
   12    -286.8759640541      6.11E-08
   13    -286.8759640555      2.48E-08
   14    -286.8759640563      9.98E-09 Convergence criterion met
 ---------------------------------------
 <S^2> = 0.7595
 SCF time:  CPU 66.36 s  wall 18.63 s
 SCF   energy in the final basis set = -286.87596406
 Total energy in the final basis set = -286.87596406
 
 --------------------------------------------------------------
 
                    Orbital Energies (a.u.)
 --------------------------------------------------------------
 
 Alpha MOs
 -- Occupied --
-14.350 -10.245 -10.238 -10.235 -10.227 -10.210 -10.206  -0.967
 -0.823  -0.765  -0.730  -0.612  -0.566  -0.556  -0.518  -0.478
 -0.459  -0.427  -0.410  -0.394  -0.367  -0.303  -0.275  -0.255
 -0.237
 -- Virtual --
 -0.056  -0.015   0.005   0.019   0.026   0.033   0.038   0.044
  0.049   0.062   0.065   0.078   0.090   0.095   0.100   0.103
  0.123   0.134   0.139   0.143   0.151   0.165   0.181   0.188
  0.190   0.195   0.198   0.211   0.220   0.225   0.241   0.244
  0.251   0.255   0.273   0.287   0.301   0.304   0.337   0.373
  0.395   0.424   0.443   0.460   0.611   0.639   0.655   0.670
  0.682   0.695   0.711   0.730   0.732   0.742   0.771   0.797
  0.810   0.840   0.862   0.882   0.909   0.929   0.962   0.974
  0.996   1.005   1.015   1.040   1.066   1.074   1.094   1.149
  1.173   1.227   1.250   1.281   1.343   1.374   1.417   1.423
  1.465   1.474   1.532   1.594   1.633   1.679   1.741   1.783
  1.829   1.831   1.878   1.941   1.955   2.002   2.020   2.036
  2.056   2.073   2.121   2.201   2.242   2.260   2.273   2.341
  2.370   2.406   2.444   2.493   2.497   2.522   2.542   2.552
  2.588   2.604   2.624   2.665   2.691   2.714   2.751   2.758
  2.871   2.902   3.023   3.047   3.132   3.271   3.310   3.358
  3.474   3.567   3.674   4.136   4.278   4.330   4.397   4.513
  4.578   4.755
 
 Beta MOs
 -- Occupied --
-14.350 -10.245 -10.237 -10.227 -10.220 -10.209 -10.207  -0.967
 -0.811  -0.760  -0.728  -0.607  -0.566  -0.546  -0.508  -0.469
 -0.447  -0.425  -0.409  -0.391  -0.363  -0.297  -0.273  -0.254
 -- Virtual --
 -0.089  -0.054  -0.006   0.008   0.019   0.026   0.033   0.039
  0.045   0.051   0.063   0.065   0.079   0.091   0.096   0.100
  0.105   0.123   0.134   0.140   0.144   0.153   0.167   0.183
  0.189   0.193   0.198   0.199   0.215   0.221   0.228   0.241
  0.246   0.255   0.259   0.276   0.288   0.301   0.305   0.346
  0.378   0.397   0.434   0.446   0.461   0.618   0.646   0.659
  0.675   0.685   0.700   0.720   0.731   0.734   0.764   0.775
  0.803   0.818   0.848   0.867   0.883   0.912   0.932   0.969
  0.978   1.003   1.008   1.019   1.044   1.069   1.079   1.098
  1.150   1.176   1.230   1.259   1.285   1.345   1.377   1.423
  1.426   1.465   1.478   1.541   1.599   1.642   1.696   1.771
  1.796   1.836   1.849   1.880   1.945   1.956   2.006   2.034
  2.046   2.065   2.082   2.126   2.209   2.250   2.261   2.277
  2.347   2.373   2.407   2.446   2.495   2.501   2.526   2.546
  2.555   2.591   2.606   2.627   2.678   2.693   2.717   2.757
  2.767   2.880   2.909   3.027   3.057   3.133   3.271   3.317
  3.364   3.475   3.579   3.674   4.136   4.299   4.330   4.397
  4.521   4.582   4.758
 --------------------------------------------------------------
 
          Ground-State Mulliken Net Atomic Charges

     Atom                 Charge (a.u.)    Spin (a.u.)
  --------------------------------------------------------
      1 C                    -0.183515      -0.007883
      2 C                     0.053580      -0.012820
      3 C                    -0.297658       0.073306
      4 C                     0.047064       0.941484
      5 C                     0.024137      -0.033474
      6 N                    -0.186979       0.005241
      7 H                     0.136052       0.000589
      8 H                     0.142973      -0.000493
      9 H                     0.187547       0.058211
     10 H                     0.144735       0.084427
     11 H                     0.143926      -0.000072
     12 C                    -0.367900      -0.147961
     13 H                     0.156037       0.039446
  --------------------------------------------------------
  Sum of atomic charges =    -0.000000
  Sum of spin   charges =     1.000000

 -----------------------------------------------------------------
                    Cartesian Multipole Moments
 -----------------------------------------------------------------
    Charge (ESU x 10^10)
                -0.0000
    Dipole Moment (Debye)
         X      -1.6660      Y      -1.7243      Z      -0.3421
       Tot       2.4219
    Quadrupole Moments (Debye-Ang)
        XX     -39.8498     XY      -4.3999     YY     -44.7114
        XZ       1.0888     YZ       1.3846     ZZ     -43.3784
    Octopole Moments (Debye-Ang^2)
       XXX     -26.3097    XXY     -19.0470    XYY     -16.8494
       YYY     -24.8378    XXZ       4.7746    XYZ       4.1073
       YYZ       2.3128    XZZ     -16.5161    YZZ      -7.6480
       ZZZ       7.3960
    Hexadecapole Moments (Debye-Ang^3)
      XXXX    -591.2105   XXXY     -66.8549   XXYY    -173.0311
      XYYY     -93.7866   YYYY    -256.5946   XXXZ     106.9322
      XXYZ      20.1294   XYYZ      54.1111   YYYZ      52.2408
      XXZZ    -136.9121   XYZZ     -21.4071   YYZZ     -83.3833
      XZZZ     114.5757   YZZZ      47.6162   ZZZZ    -193.3997
 -----------------------------------------------------------------
 Calculating analytic gradient of the SCF energy
 Gradient of SCF Energy
            1           2           3           4           5           6
    1   0.0000168   0.0003573  -0.0006438   0.0002834  -0.0001803  -0.0000405
    2  -0.0000411  -0.0002525   0.0021257  -0.0027725  -0.0001261   0.0000709
    3   0.0007658  -0.0007524   0.0004559   0.0000062  -0.0009030   0.0000136
            7           8           9          10          11          12
    1  -0.0000560  -0.0000158   0.0005582   0.0001524  -0.0000665  -0.0000329
    2  -0.0000693  -0.0000792  -0.0004040  -0.0004341   0.0001390   0.0013464
    3  -0.0000939  -0.0001516   0.0004035   0.0002702   0.0002356  -0.0004619
           13
    1  -0.0003323
    2   0.0004967
    3   0.0002118
 Max gradient component =       2.772E-03
 RMS gradient           =       6.906E-04
 Gradient time:  CPU 15.54 s  wall 4.01 s
 Geometry Optimization Parameters
   NAtoms,    NIC,     NZ,  NCons,   NDum,   NFix, NCnnct, MaxDiis
       13      84       0       0       0       0       0       0

 Cartesian Hessian Update
 Hessian Updated using BFGS Update


** GEOMETRY OPTIMIZATION IN DELOCALIZED INTERNAL COORDINATES **
   Searching for a Minimum

   Optimization Cycle:   3

                       Coordinates (Angstroms)
     ATOM                X               Y               Z
      1  C         2.1505955050    0.1390073598   -0.5195411376
      2  C         1.2102243380   -0.7877128441   -0.2605088693
      3  C        -0.1296930365   -0.0846714850   -0.2917989888
      4  C        -0.9952012899   -0.2296323432    0.8957147301
      5  C         0.3321294018    1.3379377820   -0.5757725294
      6  N         1.6069038269    1.4450902220   -0.7168256101
      7  H         3.2220718602    0.0049611774   -0.5999211177
      8  H         1.3458701954   -1.8446680748   -0.0736201206
      9  H        -0.6960492407   -0.4343021921   -1.1805202337
     10  H        -2.9598733469   -0.8284426088    0.4211910298
     11  H        -0.3405240524    2.1870999049   -0.6606543102
     12  C        -2.2446928949   -0.5160033459    1.1907049511
     13  H        -2.6244696839   -0.4730064120    2.2099622919
   Point Group: c1    Number of degrees of freedom:    33


   Energy is   -286.875964056

 Hessian Updated using BFGS Update

 33 Hessian modes will be used to form the next step
  Hessian Eigenvalues:
     0.003883    0.011165    0.011856    0.016720    0.021826    0.025278
     0.034141    0.040492    0.065953    0.066792    0.077350    0.135380
     0.159324    0.159965    0.159993    0.160000    0.160133    0.215379
     0.228879    0.240199    0.290511    0.302400    0.327688    0.340845
     0.346913    0.351831    0.352918    0.356482    0.357944    0.395831
     0.526792    0.632164    0.677026

 Minimum Search - Taking Simple RFO Step
 Searching for Lamda that Minimizes Along All modes
 Value Taken    Lamda =  -0.00012145
 Step Taken.  Stepsize is  0.123681

                             Maximum     Tolerance    Cnvgd?
         Gradient           0.001261      0.000300      NO
         Displacement       0.086466      0.001200      NO
         Energy change     -0.000316      0.000001      NO


 New Cartesian Coordinates Obtained by Inverse Iteration

 Displacement from previous Coordinates is:  0.183466
 ----------------------------------------------------------------
             Standard Nuclear Orientation (Angstroms)
    I     Atom           X                Y                Z
 ----------------------------------------------------------------
    1      C       2.1482016083     0.1312855022    -0.5303553344
    2      C       1.2011813889    -0.7825174215    -0.2496433636
    3      C      -0.1323285725    -0.0689099713    -0.2851209183
    4      C      -1.0027289601    -0.2013063173     0.8996297146
    5      C       0.3425485112     1.3491278589    -0.5701691015
    6      N       1.6164300800     1.4418829676    -0.7284164168
    7      H       3.2176889363    -0.0138363920    -0.6183525627
    8      H       1.3281400917    -1.8388308225    -0.0535043799
    9      H      -0.7025274580    -0.4126657179    -1.1749116817
   10      H      -2.9353572387    -0.8895748796     0.4185091628
   11      H      -0.3225088380     2.2035993018    -0.6592022380
   12      C      -2.2439545985    -0.5278690979     1.1884390278
   13      H      -2.6374933687    -0.4747278705     2.2015081775
 ----------------------------------------------------------------
 Nuclear Repulsion Energy =   255.0012227811 hartrees
 There are       25 alpha and       24 beta electrons
 Applying Cartesian multipole field
    Component          Value
    ---------          -----
     (2,0,0)        1.00000E-11
     (0,2,0)        2.00000E-11
     (0,0,2)       -3.00000E-11
 Nucleus-field energy     =     0.0000000041 hartrees
 Requested basis set is 6-31+G(d,p)
 There are 53 shells and 163 basis functions
 A cutoff of  1.0D-14 yielded   1345 shell pairs
 There are     13149 function pairs
 Smallest overlap matrix eigenvalue = 1.38E-05
 Guess MOs from SCF MO coefficient file
 Reading MOs from coefficient file
 Reading MOs from coefficient file
 An unrestricted hybrid HF-DFT SCF calculation will be
 performed using Pulay DIIS extrapolation
 Exchange:     0.2000 Hartree-Fock + 0.0800 Slater + 0.7200 B88
 Correlation:  0.1900 VWN1RPA + 0.8100 LYP
 Using SG-1 standard quadrature grid
 SCF converges when DIIS error is below 1.0E-08
 Geometry optimization detected.  Setting ReadMinima to 0
 Setting SaveMinima to 0
Using Q-Chem read-in guess as SCF_GUESS READ specified.

 using 4 threads for integral computing
 -------------------------------------------------------
 OpenMP Integral computing Module                
 Release: version 1.0, May 2013, Q-Chem Inc. Pittsburgh 
 -------------------------------------------------------
 -------------------------------------------------------
 OpenMP BLAS3 based DFT computing Module                
 Release: version 1.0, May 2013, Q-Chem Inc. Pittsburgh 
 -------------------------------------------------------
 ---------------------------------------
  Cycle       Energy         DIIS Error
 ---------------------------------------
    1    -286.8748363415      7.68E-04
    2    -286.8759791525      5.63E-05
    3    -286.8760151891      5.06E-05
    4    -286.8760244414      2.83E-05
    5    -286.8760286551      1.13E-05
    6    -286.8760299547      4.64E-06
    7    -286.8760303721      1.72E-06
    8    -286.8760304597      1.20E-06
    9    -286.8760304814      5.01E-07
   10    -286.8760304835      1.03E-07
   11    -286.8760304838      3.89E-08
   12    -286.8760304839      2.50E-08
   13    -286.8760304840      5.10E-09 Convergence criterion met
 ---------------------------------------
 <S^2> = 0.7595
 SCF time:  CPU 60.87 s  wall 17.26 s
 SCF   energy in the final basis set = -286.87603048
 Total energy in the final basis set = -286.87603048
 
 --------------------------------------------------------------
 
                    Orbital Energies (a.u.)
 --------------------------------------------------------------
 
 Alpha MOs
 -- Occupied --
-14.350 -10.245 -10.238 -10.235 -10.227 -10.210 -10.205  -0.967
 -0.824  -0.764  -0.731  -0.612  -0.566  -0.556  -0.518  -0.478
 -0.459  -0.427  -0.410  -0.395  -0.367  -0.302  -0.275  -0.255
 -0.237
 -- Virtual --
 -0.056  -0.015   0.005   0.019   0.026   0.033   0.038   0.044
  0.049   0.062   0.065   0.078   0.090   0.095   0.100   0.103
  0.123   0.134   0.139   0.142   0.150   0.165   0.180   0.189
  0.190   0.196   0.197   0.211   0.220   0.225   0.241   0.244
  0.250   0.254   0.273   0.288   0.301   0.303   0.338   0.373
  0.395   0.425   0.442   0.459   0.610   0.640   0.655   0.670
  0.682   0.695   0.710   0.730   0.732   0.741   0.771   0.797
  0.811   0.840   0.862   0.882   0.909   0.929   0.963   0.974
  0.996   1.005   1.015   1.040   1.068   1.074   1.096   1.149
  1.175   1.226   1.248   1.275   1.341   1.372   1.418   1.424
  1.466   1.476   1.531   1.592   1.634   1.678   1.741   1.785
  1.829   1.831   1.880   1.940   1.955   2.002   2.022   2.035
  2.058   2.074   2.120   2.203   2.243   2.261   2.272   2.341
  2.370   2.406   2.444   2.490   2.496   2.522   2.543   2.556
  2.588   2.605   2.625   2.663   2.691   2.713   2.749   2.758
  2.871   2.902   3.021   3.048   3.131   3.270   3.310   3.356
  3.474   3.567   3.674   4.136   4.279   4.330   4.397   4.512
  4.576   4.755
 
 Beta MOs
 -- Occupied --
-14.350 -10.245 -10.237 -10.227 -10.220 -10.209 -10.207  -0.967
 -0.811  -0.759  -0.728  -0.607  -0.566  -0.546  -0.508  -0.469
 -0.447  -0.425  -0.408  -0.392  -0.364  -0.297  -0.273  -0.254
 -- Virtual --
 -0.089  -0.054  -0.006   0.008   0.020   0.026   0.033   0.039
  0.044   0.051   0.063   0.065   0.079   0.091   0.095   0.101
  0.105   0.123   0.135   0.140   0.143   0.152   0.167   0.183
  0.190   0.193   0.197   0.199   0.214   0.223   0.228   0.241
  0.246   0.255   0.258   0.276   0.289   0.301   0.305   0.346
  0.378   0.397   0.435   0.445   0.460   0.617   0.647   0.659
  0.675   0.685   0.699   0.719   0.731   0.734   0.763   0.774
  0.803   0.819   0.849   0.866   0.884   0.911   0.932   0.971
  0.978   1.003   1.007   1.018   1.043   1.072   1.077   1.100
  1.150   1.178   1.230   1.257   1.278   1.342   1.375   1.424
  1.426   1.467   1.479   1.540   1.598   1.643   1.695   1.770
  1.799   1.835   1.850   1.882   1.944   1.956   2.006   2.037
  2.044   2.067   2.083   2.125   2.211   2.251   2.261   2.276
  2.347   2.373   2.407   2.446   2.492   2.500   2.525   2.548
  2.559   2.590   2.607   2.628   2.677   2.693   2.716   2.757
  2.766   2.880   2.909   3.026   3.058   3.132   3.271   3.318
  3.362   3.476   3.579   3.674   4.136   4.299   4.330   4.397
  4.520   4.580   4.759
 --------------------------------------------------------------
 
          Ground-State Mulliken Net Atomic Charges

     Atom                 Charge (a.u.)    Spin (a.u.)
  --------------------------------------------------------
      1 C                    -0.182166      -0.006593
      2 C                     0.048751      -0.011977
      3 C                    -0.294938       0.071027
      4 C                     0.043338       0.941378
      5 C                     0.026508      -0.035752
      6 N                    -0.187495       0.004722
      7 H                     0.136138       0.000469
      8 H                     0.143018      -0.000418
      9 H                     0.188044       0.058802
     10 H                     0.144596       0.084275
     11 H                     0.143878      -0.000093
     12 C                    -0.365589      -0.144810
     13 H                     0.155916       0.038970
  --------------------------------------------------------
  Sum of atomic charges =     0.000000
  Sum of spin   charges =     1.000000

 -----------------------------------------------------------------
                    Cartesian Multipole Moments
 -----------------------------------------------------------------
    Charge (ESU x 10^10)
                 0.0000
    Dipole Moment (Debye)
         X      -1.6645      Y      -1.7454      Z      -0.3281
       Tot       2.4340
    Quadrupole Moments (Debye-Ang)
        XX     -40.0027     XY      -4.3167     YY     -44.5876
        XZ       1.1009     YZ       1.3756     ZZ     -43.4230
    Octopole Moments (Debye-Ang^2)
       XXX     -26.1959    XXY     -19.7650    XYY     -17.0839
       YYY     -25.1982    XXZ       4.8160    XYZ       4.2106
       YYZ       2.4347    XZZ     -16.5091    YZZ      -7.8517
       ZZZ       7.2995
    Hexadecapole Moments (Debye-Ang^3)
      XXXX    -593.4441   XXXY     -67.4339   XXYY    -172.8848
      XYYY     -93.8767   YYYY    -256.5980   XXXZ     107.2523
      XXYZ      20.4587   XYYZ      54.4940   YYYZ      52.4320
      XXZZ    -136.7660   XYZZ     -21.8978   YYZZ     -83.7245
      XZZZ     115.4566   YZZZ      48.2017   ZZZZ    -194.1584
 -----------------------------------------------------------------
 Calculating analytic gradient of the SCF energy
 Gradient of SCF Energy
            1           2           3           4           5           6
    1  -0.0000342   0.0002829  -0.0005749   0.0007221   0.0000282  -0.0000739
    2  -0.0001713   0.0002975   0.0009663  -0.0017235   0.0000970  -0.0000697
    3  -0.0003563   0.0005499  -0.0007761   0.0000003   0.0012660  -0.0002729
            7           8           9          10          11          12
    1  -0.0000106  -0.0000190  -0.0000349   0.0001565  -0.0000174  -0.0002452
    2  -0.0000034  -0.0000163  -0.0004310  -0.0005922  -0.0000288   0.0013626
    3  -0.0000437  -0.0000422   0.0000221   0.0001618  -0.0000974  -0.0004237
           13
    1  -0.0001797
    2   0.0003127
    3   0.0000123
 Max gradient component =       1.724E-03
 RMS gradient           =       5.192E-04
 Gradient time:  CPU 15.67 s  wall 4.00 s
 Geometry Optimization Parameters
   NAtoms,    NIC,     NZ,  NCons,   NDum,   NFix, NCnnct, MaxDiis
       13      84       0       0       0       0       0       0

 Cartesian Hessian Update
 Hessian Updated using BFGS Update


** GEOMETRY OPTIMIZATION IN DELOCALIZED INTERNAL COORDINATES **
   Searching for a Minimum

   Optimization Cycle:   4

                       Coordinates (Angstroms)
     ATOM                X               Y               Z
      1  C         2.1482016083    0.1312855022   -0.5303553344
      2  C         1.2011813889   -0.7825174215   -0.2496433636
      3  C        -0.1323285725   -0.0689099713   -0.2851209183
      4  C        -1.0027289601   -0.2013063173    0.8996297146
      5  C         0.3425485112    1.3491278589   -0.5701691015
      6  N         1.6164300800    1.4418829676   -0.7284164168
      7  H         3.2176889363   -0.0138363920   -0.6183525627
      8  H         1.3281400917   -1.8388308225   -0.0535043799
      9  H        -0.7025274580   -0.4126657179   -1.1749116817
     10  H        -2.9353572387   -0.8895748796    0.4185091628
     11  H        -0.3225088380    2.2035993018   -0.6592022380
     12  C        -2.2439545985   -0.5278690979    1.1884390278
     13  H        -2.6374933687   -0.4747278705    2.2015081775
   Point Group: c1    Number of degrees of freedom:    33


   Energy is   -286.876030484

 Hessian Updated using BFGS Update

 33 Hessian modes will be used to form the next step
  Hessian Eigenvalues:
     0.003392    0.011544    0.013432    0.018201    0.020886    0.025142
     0.028190    0.036031    0.064437    0.070461    0.084778    0.139722
     0.159246    0.159956    0.159975    0.159996    0.160062    0.215706
     0.228852    0.242698    0.290802    0.301874    0.328855    0.340768
     0.349010    0.351801    0.353239    0.356483    0.357949    0.395927
     0.526516    0.632090    0.677033

 Minimum Search - Taking Simple RFO Step
 Searching for Lamda that Minimizes Along All modes
 Value Taken    Lamda =  -0.00009246
 Step Taken.  Stepsize is  0.089293

                             Maximum     Tolerance    Cnvgd?
         Gradient           0.001101      0.000300      NO
         Displacement       0.072173      0.001200      NO
         Energy change     -0.000066      0.000001      NO


 New Cartesian Coordinates Obtained by Inverse Iteration

 Displacement from previous Coordinates is:  0.091350
 ----------------------------------------------------------------
             Standard Nuclear Orientation (Angstroms)
    I     Atom           X                Y                Z
 ----------------------------------------------------------------
    1      C       2.1464388724     0.1279432595    -0.5287469968
    2      C       1.1938444385    -0.7800656929    -0.2470856524
    3      C      -0.1355039955    -0.0600155946    -0.2866516814
    4      C      -1.0066566015    -0.1845245886     0.8989985975
    5      C       0.3472341155     1.3541017596    -0.5798435885
    6      N       1.6225301282     1.4410024170    -0.7301727292
    7      H       3.2155431397    -0.0227549441    -0.6122572169
    8      H       1.3153150527    -1.8358867200    -0.0450607471
    9      H      -0.7090703474    -0.4003406243    -1.1757441751
   10      H      -2.9277720600    -0.9042779909     0.4201393375
   11      H      -0.3127877574     2.2121639925    -0.6712269034
   12      C      -2.2399640662    -0.5377563729     1.1910910116
   13      H      -2.6318593367    -0.4939317601     2.2049708300
 ----------------------------------------------------------------
 Nuclear Repulsion Energy =   254.9840478828 hartrees
 There are       25 alpha and       24 beta electrons
 Applying Cartesian multipole field
    Component          Value
    ---------          -----
     (2,0,0)        1.00000E-11
     (0,2,0)        2.00000E-11
     (0,0,2)       -3.00000E-11
 Nucleus-field energy     =     0.0000000041 hartrees
 Requested basis set is 6-31+G(d,p)
 There are 53 shells and 163 basis functions
 A cutoff of  1.0D-14 yielded   1347 shell pairs
 There are     13161 function pairs
 Smallest overlap matrix eigenvalue = 1.39E-05
 Guess MOs from SCF MO coefficient file
 Reading MOs from coefficient file
 Reading MOs from coefficient file
 An unrestricted hybrid HF-DFT SCF calculation will be
 performed using Pulay DIIS extrapolation
 Exchange:     0.2000 Hartree-Fock + 0.0800 Slater + 0.7200 B88
 Correlation:  0.1900 VWN1RPA + 0.8100 LYP
 Using SG-1 standard quadrature grid
 SCF converges when DIIS error is below 1.0E-08
 Geometry optimization detected.  Setting ReadMinima to 0
 Setting SaveMinima to 0
Using Q-Chem read-in guess as SCF_GUESS READ specified.

 using 4 threads for integral computing
 -------------------------------------------------------
 OpenMP Integral computing Module                
 Release: version 1.0, May 2013, Q-Chem Inc. Pittsburgh 
 -------------------------------------------------------
 -------------------------------------------------------
 OpenMP BLAS3 based DFT computing Module                
 Release: version 1.0, May 2013, Q-Chem Inc. Pittsburgh 
 -------------------------------------------------------
 ---------------------------------------
  Cycle       Energy         DIIS Error
 ---------------------------------------
    1    -286.8753538650      4.56E-04
    2    -286.8760849799      3.04E-05
    3    -286.8760869704      3.84E-05
    4    -286.8760915036      1.37E-05
    5    -286.8760920749      5.32E-06
    6    -286.8760921743      1.36E-06
    7    -286.8760921863      5.54E-07
    8    -286.8760921885      2.50E-07
    9    -286.8760921893      1.01E-07
   10    -286.8760921896      3.24E-08
   11    -286.8760921896      1.60E-08
   12    -286.8760921896      1.09E-08
   13    -286.8760921896      1.98E-09 Convergence criterion met
 ---------------------------------------
 <S^2> = 0.7595
 SCF time:  CPU 62.05 s  wall 20.72 s
 SCF   energy in the final basis set = -286.87609219
 Total energy in the final basis set = -286.87609219
 
 --------------------------------------------------------------
 
                    Orbital Energies (a.u.)
 --------------------------------------------------------------
 
 Alpha MOs
 -- Occupied --
-14.350 -10.245 -10.238 -10.235 -10.227 -10.210 -10.206  -0.967
 -0.824  -0.764  -0.731  -0.612  -0.566  -0.556  -0.518  -0.478
 -0.459  -0.427  -0.410  -0.395  -0.367  -0.302  -0.275  -0.255
 -0.238
 -- Virtual --
 -0.056  -0.015   0.005   0.019   0.026   0.033   0.038   0.044
  0.049   0.062   0.065   0.078   0.089   0.094   0.101   0.103
  0.123   0.134   0.139   0.142   0.150   0.165   0.180   0.189
  0.191   0.196   0.197   0.210   0.221   0.225   0.241   0.244
  0.250   0.254   0.273   0.288   0.301   0.303   0.338   0.373
  0.394   0.425   0.443   0.459   0.609   0.640   0.655   0.670
  0.682   0.695   0.710   0.730   0.732   0.741   0.772   0.796
  0.811   0.840   0.863   0.882   0.908   0.928   0.964   0.973
  0.996   1.004   1.015   1.039   1.069   1.073   1.098   1.149
  1.177   1.226   1.247   1.271   1.340   1.372   1.419   1.424
  1.466   1.476   1.532   1.592   1.634   1.679   1.740   1.786
  1.827   1.832   1.879   1.940   1.955   2.002   2.025   2.033
  2.058   2.074   2.119   2.204   2.244   2.261   2.270   2.341
  2.370   2.406   2.444   2.490   2.496   2.523   2.544   2.556
  2.588   2.605   2.624   2.663   2.691   2.713   2.748   2.758
  2.870   2.902   3.021   3.048   3.131   3.270   3.311   3.356
  3.475   3.567   3.674   4.136   4.278   4.330   4.397   4.512
  4.576   4.755
 
 Beta MOs
 -- Occupied --
-14.350 -10.245 -10.237 -10.227 -10.220 -10.209 -10.207  -0.967
 -0.811  -0.759  -0.728  -0.607  -0.566  -0.546  -0.508  -0.469
 -0.447  -0.425  -0.408  -0.392  -0.364  -0.297  -0.273  -0.254
 -- Virtual --
 -0.089  -0.054  -0.006   0.008   0.020   0.026   0.033   0.039
  0.044   0.051   0.063   0.065   0.079   0.091   0.095   0.101
  0.105   0.123   0.135   0.140   0.143   0.152   0.167   0.182
  0.190   0.193   0.197   0.200   0.213   0.223   0.228   0.241
  0.246   0.255   0.258   0.276   0.289   0.301   0.304   0.347
  0.378   0.396   0.435   0.446   0.460   0.616   0.647   0.659
  0.676   0.685   0.699   0.719   0.731   0.735   0.763   0.775
  0.803   0.819   0.849   0.866   0.884   0.911   0.931   0.971
  0.977   1.003   1.007   1.018   1.043   1.073   1.076   1.102
  1.150   1.180   1.230   1.256   1.274   1.341   1.375   1.424
  1.426   1.467   1.479   1.541   1.596   1.644   1.695   1.769
  1.801   1.834   1.849   1.882   1.944   1.956   2.006   2.039
  2.043   2.067   2.084   2.124   2.211   2.253   2.261   2.274
  2.347   2.373   2.407   2.446   2.492   2.499   2.526   2.549
  2.559   2.591   2.606   2.627   2.676   2.693   2.715   2.756
  2.766   2.879   2.909   3.026   3.058   3.132   3.271   3.319
  3.362   3.476   3.579   3.674   4.136   4.299   4.330   4.397
  4.520   4.580   4.758
 --------------------------------------------------------------
 
          Ground-State Mulliken Net Atomic Charges

     Atom                 Charge (a.u.)    Spin (a.u.)
  --------------------------------------------------------
      1 C                    -0.179106      -0.006750
      2 C                     0.041271      -0.010957
      3 C                    -0.289474       0.071264
      4 C                     0.042187       0.940244
      5 C                     0.029135      -0.037485
      6 N                    -0.188258       0.004854
      7 H                     0.136142       0.000450
      8 H                     0.143041      -0.000414
      9 H                     0.187680       0.058704
     10 H                     0.144633       0.084244
     11 H                     0.143772      -0.000091
     12 C                    -0.366958      -0.142795
     13 H                     0.155935       0.038730
  --------------------------------------------------------
  Sum of atomic charges =    -0.000000
  Sum of spin   charges =     1.000000

 -----------------------------------------------------------------
                    Cartesian Multipole Moments
 -----------------------------------------------------------------
    Charge (ESU x 10^10)
                -0.0000
    Dipole Moment (Debye)
         X      -1.6715      Y      -1.7558      Z      -0.3204
       Tot       2.4453
    Quadrupole Moments (Debye-Ang)
        XX     -40.0789     XY      -4.2848     YY     -44.5512
        XZ       1.1346     YZ       1.2959     ZZ     -43.4045
    Octopole Moments (Debye-Ang^2)
       XXX     -26.1775    XXY     -20.1194    XYY     -17.1768
       YYY     -25.3656    XXZ       4.9186    XYZ       4.3458
       YYZ       2.4916    XZZ     -16.5534    YZZ      -8.0284
       ZZZ       7.4561
    Hexadecapole Moments (Debye-Ang^3)
      XXXX    -593.6366   XXXY     -68.0332   XXYY    -172.8989
      XYYY     -94.2058   YYYY    -256.8259   XXXZ     107.7642
      XXYZ      20.4939   XYYZ      54.4732   YYYZ      52.6721
      XXZZ    -136.8190   XYZZ     -21.9088   YYZZ     -83.8110
      XZZZ     115.4505   YZZZ      48.4590   ZZZZ    -194.6389
 -----------------------------------------------------------------
 Calculating analytic gradient of the SCF energy
 Gradient of SCF Energy
            1           2           3           4           5           6
    1  -0.0000039   0.0000475  -0.0000915   0.0004111  -0.0000727   0.0001098
    2  -0.0001151   0.0003858  -0.0002127  -0.0005514  -0.0000543   0.0000589
    3  -0.0008434   0.0005076  -0.0000195   0.0000484  -0.0000659   0.0005315
            7           8           9          10          11          12
    1   0.0000155  -0.0000065  -0.0001436   0.0000726   0.0000300  -0.0003205
    2   0.0000458   0.0000151   0.0000302  -0.0002609  -0.0000339   0.0005802
    3   0.0000005   0.0000397  -0.0001384  -0.0000017   0.0000661  -0.0000593
           13
    1  -0.0000476
    2   0.0001124
    3  -0.0000656
 Max gradient component =       8.434E-04
 RMS gradient           =       2.562E-04
 Gradient time:  CPU 15.39 s  wall 4.04 s
 Geometry Optimization Parameters
   NAtoms,    NIC,     NZ,  NCons,   NDum,   NFix, NCnnct, MaxDiis
       13      84       0       0       0       0       0       0

 Cartesian Hessian Update
 Hessian Updated using BFGS Update


** GEOMETRY OPTIMIZATION IN DELOCALIZED INTERNAL COORDINATES **
   Searching for a Minimum

   Optimization Cycle:   5

                       Coordinates (Angstroms)
     ATOM                X               Y               Z
      1  C         2.1464388724    0.1279432595   -0.5287469968
      2  C         1.1938444385   -0.7800656929   -0.2470856524
      3  C        -0.1355039955   -0.0600155946   -0.2866516814
      4  C        -1.0066566015   -0.1845245886    0.8989985975
      5  C         0.3472341155    1.3541017596   -0.5798435885
      6  N         1.6225301282    1.4410024170   -0.7301727292
      7  H         3.2155431397   -0.0227549441   -0.6122572169
      8  H         1.3153150527   -1.8358867200   -0.0450607471
      9  H        -0.7090703474   -0.4003406243   -1.1757441751
     10  H        -2.9277720600   -0.9042779909    0.4201393375
     11  H        -0.3127877574    2.2121639925   -0.6712269034
     12  C        -2.2399640662   -0.5377563729    1.1910910116
     13  H        -2.6318593367   -0.4939317601    2.2049708300
   Point Group: c1    Number of degrees of freedom:    33


   Energy is   -286.876092190

 Hessian Updated using BFGS Update

 33 Hessian modes will be used to form the next step
  Hessian Eigenvalues:
     0.002819    0.011267    0.013026    0.017319    0.020493    0.024408
     0.027462    0.035027    0.066761    0.070526    0.083061    0.133844
     0.159393    0.159936    0.159969    0.159995    0.160142    0.216304
     0.228960    0.241899    0.290829    0.302025    0.328736    0.340858
     0.348732    0.351789    0.353148    0.356485    0.357949    0.396090
     0.527057    0.632735    0.677078

 Minimum Search - Taking Simple RFO Step
 Searching for Lamda that Minimizes Along All modes
 Value Taken    Lamda =  -0.00005817
 Step Taken.  Stepsize is  0.091484

                             Maximum     Tolerance    Cnvgd?
         Gradient           0.000619      0.000300      NO
         Displacement       0.071249      0.001200      NO
         Energy change     -0.000062      0.000001      NO


 New Cartesian Coordinates Obtained by Inverse Iteration

 Displacement from previous Coordinates is:  0.110226
 ----------------------------------------------------------------
             Standard Nuclear Orientation (Angstroms)
    I     Atom           X                Y                Z
 ----------------------------------------------------------------
    1      C       2.1442734747     0.1253168835    -0.5200774390
    2      C       1.1844164272    -0.7776218061    -0.2466938193
    3      C      -0.1396623312    -0.0487711628    -0.2903703259
    4      C      -1.0103520873    -0.1695080928     0.8965461497
    5      C       0.3525854071     1.3614409520    -0.5878821789
    6      N       1.6284405600     1.4388900546    -0.7387978232
    7      H       3.2129299569    -0.0321425285    -0.5964999873
    8      H       1.2987723249    -1.8334463505    -0.0405857020
    9      H      -0.7154191596    -0.3868404323    -1.1785600840
   10      H      -2.9218403409    -0.9177266491     0.4248042070
   11      H      -0.3021090636     2.2225233490    -0.6896255116
   12      C      -2.2341679150    -0.5493789550     1.1948815961
   13      H      -2.6205756713    -0.5170781219     2.2112710042
 ----------------------------------------------------------------
 Nuclear Repulsion Energy =   254.9722192304 hartrees
 There are       25 alpha and       24 beta electrons
 Applying Cartesian multipole field
    Component          Value
    ---------          -----
     (2,0,0)        1.00000E-11
     (0,2,0)        2.00000E-11
     (0,0,2)       -3.00000E-11
 Nucleus-field energy     =     0.0000000041 hartrees
 Requested basis set is 6-31+G(d,p)
 There are 53 shells and 163 basis functions
 A cutoff of  1.0D-14 yielded   1347 shell pairs
 There are     13161 function pairs
 Smallest overlap matrix eigenvalue = 1.42E-05
 Guess MOs from SCF MO coefficient file
 Reading MOs from coefficient file
 Reading MOs from coefficient file
 An unrestricted hybrid HF-DFT SCF calculation will be
 performed using Pulay DIIS extrapolation
 Exchange:     0.2000 Hartree-Fock + 0.0800 Slater + 0.7200 B88
 Correlation:  0.1900 VWN1RPA + 0.8100 LYP
 Using SG-1 standard quadrature grid
 SCF converges when DIIS error is below 1.0E-08
 Geometry optimization detected.  Setting ReadMinima to 0
 Setting SaveMinima to 0
Using Q-Chem read-in guess as SCF_GUESS READ specified.

 using 4 threads for integral computing
 -------------------------------------------------------
 OpenMP Integral computing Module                
 Release: version 1.0, May 2013, Q-Chem Inc. Pittsburgh 
 -------------------------------------------------------
 -------------------------------------------------------
 OpenMP BLAS3 based DFT computing Module                
 Release: version 1.0, May 2013, Q-Chem Inc. Pittsburgh 
 -------------------------------------------------------
 ---------------------------------------
  Cycle       Energy         DIIS Error
 ---------------------------------------
    1    -286.8756384379      5.07E-04
    2    -286.8761006644      3.72E-05
    3    -286.8761007740      5.22E-05
    4    -286.8761096047      1.51E-05
    5    -286.8761102410      6.34E-06
    6    -286.8761103757      1.47E-06
    7    -286.8761103838      7.78E-07
    8    -286.8761103864      2.21E-07
    9    -286.8761103866      7.71E-08
   10    -286.8761103867      2.52E-08
   11    -286.8761103867      1.08E-08
   12    -286.8761103867      4.71E-09 Convergence criterion met
 ---------------------------------------
 <S^2> = 0.7595
 SCF time:  CPU 56.79 s  wall 15.09 s
 SCF   energy in the final basis set = -286.87611039
 Total energy in the final basis set = -286.87611039
 
 --------------------------------------------------------------
 
                    Orbital Energies (a.u.)
 --------------------------------------------------------------
 
 Alpha MOs
 -- Occupied --
-14.350 -10.245 -10.238 -10.235 -10.227 -10.210 -10.206  -0.967
 -0.824  -0.764  -0.731  -0.612  -0.566  -0.556  -0.518  -0.477
 -0.459  -0.427  -0.410  -0.396  -0.367  -0.302  -0.275  -0.255
 -0.238
 -- Virtual --
 -0.056  -0.015   0.005   0.020   0.026   0.033   0.038   0.044
  0.050   0.062   0.065   0.079   0.089   0.094   0.101   0.103
  0.122   0.134   0.139   0.143   0.150   0.165   0.180   0.189
  0.191   0.196   0.197   0.209   0.222   0.225   0.241   0.244
  0.250   0.254   0.273   0.288   0.300   0.303   0.338   0.372
  0.395   0.425   0.443   0.458   0.608   0.640   0.655   0.671
  0.682   0.695   0.710   0.730   0.732   0.741   0.772   0.797
  0.812   0.839   0.863   0.882   0.908   0.928   0.964   0.973
  0.996   1.004   1.015   1.040   1.069   1.073   1.098   1.149
  1.178   1.226   1.246   1.269   1.342   1.370   1.419   1.424
  1.465   1.477   1.532   1.592   1.634   1.678   1.739   1.788
  1.825   1.833   1.878   1.939   1.955   2.002   2.027   2.032
  2.057   2.074   2.120   2.203   2.246   2.261   2.269   2.341
  2.370   2.406   2.444   2.489   2.495   2.523   2.545   2.556
  2.588   2.605   2.623   2.662   2.691   2.713   2.748   2.759
  2.869   2.902   3.020   3.048   3.131   3.270   3.312   3.356
  3.474   3.567   3.673   4.136   4.278   4.330   4.397   4.512
  4.575   4.755
 
 Beta MOs
 -- Occupied --
-14.350 -10.245 -10.237 -10.227 -10.220 -10.209 -10.207  -0.967
 -0.811  -0.759  -0.728  -0.607  -0.566  -0.546  -0.508  -0.469
 -0.447  -0.424  -0.408  -0.392  -0.363  -0.297  -0.273  -0.254
 -- Virtual --
 -0.089  -0.054  -0.006   0.008   0.020   0.026   0.034   0.039
  0.044   0.051   0.062   0.065   0.079   0.091   0.095   0.101
  0.105   0.123   0.135   0.139   0.144   0.152   0.167   0.182
  0.190   0.194   0.197   0.200   0.212   0.224   0.227   0.241
  0.246   0.255   0.258   0.276   0.289   0.301   0.304   0.347
  0.377   0.397   0.436   0.446   0.459   0.615   0.647   0.660
  0.676   0.685   0.699   0.718   0.731   0.735   0.763   0.775
  0.803   0.819   0.848   0.866   0.883   0.911   0.932   0.972
  0.977   1.003   1.007   1.018   1.044   1.074   1.075   1.102
  1.150   1.180   1.230   1.256   1.272   1.343   1.373   1.424
  1.426   1.465   1.481   1.541   1.596   1.644   1.695   1.768
  1.803   1.832   1.850   1.881   1.943   1.956   2.006   2.041
  2.043   2.066   2.083   2.126   2.211   2.256   2.261   2.271
  2.347   2.373   2.407   2.447   2.492   2.498   2.526   2.550
  2.558   2.591   2.606   2.626   2.675   2.693   2.715   2.755
  2.767   2.878   2.909   3.025   3.058   3.132   3.271   3.319
  3.362   3.476   3.579   3.674   4.136   4.299   4.330   4.397
  4.520   4.580   4.758
 --------------------------------------------------------------
 
          Ground-State Mulliken Net Atomic Charges

     Atom                 Charge (a.u.)    Spin (a.u.)
  --------------------------------------------------------
      1 C                    -0.176805      -0.006757
      2 C                     0.035087      -0.009922
      3 C                    -0.287570       0.072145
      4 C                     0.044743       0.937309
      5 C                     0.032526      -0.039018
      6 N                    -0.189020       0.004860
      7 H                     0.136064       0.000455
      8 H                     0.143157      -0.000418
      9 H                     0.187391       0.058538
     10 H                     0.144612       0.084241
     11 H                     0.143659      -0.000086
     12 C                    -0.369749      -0.140034
     13 H                     0.155905       0.038687
  --------------------------------------------------------
  Sum of atomic charges =    -0.000000
  Sum of spin   charges =     1.000000

 -----------------------------------------------------------------
                    Cartesian Multipole Moments
 -----------------------------------------------------------------
    Charge (ESU x 10^10)
                -0.0000
    Dipole Moment (Debye)
         X      -1.6771      Y      -1.7618      Z      -0.3056
       Tot       2.4515
    Quadrupole Moments (Debye-Ang)
        XX     -40.1745     XY      -4.2484     YY     -44.4880
        XZ       1.2136     YZ       1.2321     ZZ     -43.4020
    Octopole Moments (Debye-Ang^2)
       XXX     -26.1398    XXY     -20.4594    XYY     -17.2384
       YYY     -25.4899    XXZ       5.1179    XYZ       4.5488
       YYZ       2.5471    XZZ     -16.6550    YZZ      -8.2501
       ZZZ       7.6938
    Hexadecapole Moments (Debye-Ang^3)
      XXXX    -593.4246   XXXY     -68.7867   XXYY    -172.8211
      XYYY     -94.6132   YYYY    -257.1367   XXXZ     108.6411
      XXYZ      20.6810   XYYZ      54.4639   YYYZ      53.1542
      XXZZ    -137.0503   XYZZ     -22.0106   YYZZ     -83.9611
      XZZZ     115.4114   YZZZ      48.9544   ZZZZ    -195.2503
 -----------------------------------------------------------------
 Calculating analytic gradient of the SCF energy
 Gradient of SCF Energy
            1           2           3           4           5           6
    1   0.0000719  -0.0002307   0.0003080  -0.0000873   0.0001015  -0.0000476
    2   0.0002497   0.0000591  -0.0008397   0.0005085   0.0002985  -0.0001424
    3   0.0007533  -0.0003529  -0.0000061   0.0000078   0.0005709  -0.0008530
            7           8           9          10          11          12
    1  -0.0000085   0.0000115  -0.0000524   0.0000249  -0.0000001  -0.0001402
    2  -0.0000000  -0.0000299   0.0000351   0.0001120   0.0000043  -0.0001978
    3  -0.0000504  -0.0000773  -0.0000293  -0.0000689   0.0000414   0.0000943
           13
    1   0.0000490
    2  -0.0000572
    3  -0.0000297
 Max gradient component =       8.530E-04
 RMS gradient           =       2.849E-04
 Gradient time:  CPU 15.35 s  wall 3.96 s
 Geometry Optimization Parameters
   NAtoms,    NIC,     NZ,  NCons,   NDum,   NFix, NCnnct, MaxDiis
       13      84       0       0       0       0       0       0

 Cartesian Hessian Update
 Hessian Updated using BFGS Update


** GEOMETRY OPTIMIZATION IN DELOCALIZED INTERNAL COORDINATES **
   Searching for a Minimum

   Optimization Cycle:   6

                       Coordinates (Angstroms)
     ATOM                X               Y               Z
      1  C         2.1442734747    0.1253168835   -0.5200774390
      2  C         1.1844164272   -0.7776218061   -0.2466938193
      3  C        -0.1396623312   -0.0487711628   -0.2903703259
      4  C        -1.0103520873   -0.1695080928    0.8965461497
      5  C         0.3525854071    1.3614409520   -0.5878821789
      6  N         1.6284405600    1.4388900546   -0.7387978232
      7  H         3.2129299569   -0.0321425285   -0.5964999873
      8  H         1.2987723249   -1.8334463505   -0.0405857020
      9  H        -0.7154191596   -0.3868404323   -1.1785600840
     10  H        -2.9218403409   -0.9177266491    0.4248042070
     11  H        -0.3021090636    2.2225233490   -0.6896255116
     12  C        -2.2341679150   -0.5493789550    1.1948815961
     13  H        -2.6205756713   -0.5170781219    2.2112710042
   Point Group: c1    Number of degrees of freedom:    33


   Energy is   -286.876110387

 Hessian Updated using BFGS Update

 33 Hessian modes will be used to form the next step
  Hessian Eigenvalues:
     0.002661    0.010815    0.013741    0.019217    0.020074    0.024728
     0.034560    0.038380    0.065913    0.070897    0.082939    0.129097
     0.159397    0.159950    0.159989    0.160039    0.160086    0.215705
     0.228982    0.240604    0.291304    0.302675    0.328478    0.340847
     0.348957    0.351768    0.353054    0.356486    0.357958    0.395939
     0.526934    0.632452    0.677092

 Minimum Search - Taking Simple RFO Step
 Searching for Lamda that Minimizes Along All modes
 Value Taken    Lamda =  -0.00001454
 Step Taken.  Stepsize is  0.020347

                             Maximum     Tolerance    Cnvgd?
         Gradient           0.000360      0.000300      NO
         Displacement       0.010762      0.001200      NO
         Energy change     -0.000018      0.000001      NO


 New Cartesian Coordinates Obtained by Inverse Iteration

[...]
    8      H       1.2960517178    -1.8331814657    -0.0410088062
    9      H      -0.7156320280    -0.3864825292    -1.1812005845
   10      H      -2.9211503632    -0.9247047648     0.4282952365
   11      H      -0.3007311370     2.2241657267    -0.6908467200
   12      C      -2.2333430216    -0.5499669597     1.1951832989
   13      H      -2.6186546511    -0.5137932528     2.2119528026
 ----------------------------------------------------------------
 Nuclear Repulsion Energy =   254.9835576333 hartrees
 There are       25 alpha and       24 beta electrons
 Applying Cartesian multipole field
    Component          Value
    ---------          -----
     (2,0,0)        1.00000E-11
     (0,2,0)        2.00000E-11
     (0,0,2)       -3.00000E-11
 Nucleus-field energy     =     0.0000000041 hartrees
 Requested basis set is 6-31+G(d,p)
 There are 53 shells and 163 basis functions
 A cutoff of  1.0D-14 yielded   1347 shell pairs
 There are     13161 function pairs
 Smallest overlap matrix eigenvalue = 1.42E-05
 Guess MOs from SCF MO coefficient file
 Reading MOs from coefficient file
 Reading MOs from coefficient file
 An unrestricted hybrid HF-DFT SCF calculation will be
 performed using Pulay DIIS extrapolation
 Exchange:     0.2000 Hartree-Fock + 0.0800 Slater + 0.7200 B88
 Correlation:  0.1900 VWN1RPA + 0.8100 LYP
 Using SG-1 standard quadrature grid
 SCF converges when DIIS error is below 1.0E-08
 Geometry optimization detected.  Setting ReadMinima to 0
 Setting SaveMinima to 0
Using Q-Chem read-in guess as SCF_GUESS READ specified.

 using 4 threads for integral computing
 -------------------------------------------------------
 OpenMP Integral computing Module                
 Release: version 1.0, May 2013, Q-Chem Inc. Pittsburgh 
 -------------------------------------------------------
 -------------------------------------------------------
 OpenMP BLAS3 based DFT computing Module                
 Release: version 1.0, May 2013, Q-Chem Inc. Pittsburgh 
 -------------------------------------------------------
 ---------------------------------------
  Cycle       Energy         DIIS Error
 ---------------------------------------
    1    -286.8760521656      3.28E-05
    2    -286.8761179024      3.57E-06
    3    -286.8761178911      5.02E-06
    4    -286.8761179822      9.87E-07
    5    -286.8761179860      4.83E-07
    6    -286.8761179873      1.75E-07
    7    -286.8761179875      1.13E-07
    8    -286.8761179876      3.55E-08
    9    -286.8761179876      1.57E-08
   10    -286.8761179876      7.00E-09 Convergence criterion met
 ---------------------------------------
 <S^2> = 0.7595
 SCF time:  CPU 47.84 s  wall 16.76 s
 SCF   energy in the final basis set = -286.87611799
 Total energy in the final basis set = -286.87611799
 
 --------------------------------------------------------------
 
                    Orbital Energies (a.u.)
 --------------------------------------------------------------
 
 Alpha MOs
 -- Occupied --
-14.350 -10.245 -10.238 -10.235 -10.227 -10.210 -10.206  -0.967
 -0.824  -0.764  -0.731  -0.612  -0.566  -0.556  -0.518  -0.478
 -0.459  -0.427  -0.410  -0.396  -0.367  -0.302  -0.275  -0.255
 -0.238
 -- Virtual --
 -0.056  -0.015   0.005   0.020   0.026   0.033   0.038   0.044
  0.050   0.062   0.065   0.079   0.089   0.094   0.101   0.103
  0.122   0.134   0.139   0.143   0.150   0.165   0.180   0.189
  0.191   0.196   0.197   0.209   0.222   0.225   0.241   0.244
  0.250   0.254   0.273   0.288   0.300   0.303   0.338   0.372
  0.395   0.425   0.443   0.458   0.609   0.640   0.655   0.671
  0.683   0.696   0.710   0.731   0.732   0.741   0.772   0.797
  0.812   0.839   0.863   0.882   0.908   0.928   0.964   0.973
  0.997   1.004   1.015   1.039   1.069   1.073   1.098   1.149
  1.178   1.226   1.246   1.269   1.341   1.371   1.419   1.424
  1.466   1.476   1.532   1.592   1.634   1.679   1.739   1.787
  1.826   1.833   1.878   1.940   1.955   2.002   2.027   2.032
  2.057   2.074   2.119   2.203   2.246   2.261   2.269   2.341
  2.370   2.406   2.445   2.489   2.495   2.523   2.545   2.556
  2.588   2.604   2.623   2.662   2.692   2.713   2.748   2.759
  2.869   2.903   3.020   3.048   3.131   3.270   3.311   3.356
  3.474   3.567   3.674   4.136   4.278   4.330   4.397   4.513
  4.576   4.755
 
 Beta MOs
 -- Occupied --
-14.350 -10.245 -10.237 -10.227 -10.220 -10.209 -10.207  -0.967
 -0.811  -0.759  -0.728  -0.607  -0.566  -0.546  -0.508  -0.469
 -0.447  -0.424  -0.408  -0.392  -0.363  -0.297  -0.273  -0.254
 -- Virtual --
 -0.089  -0.054  -0.006   0.008   0.020   0.026   0.034   0.039
  0.044   0.051   0.062   0.065   0.079   0.091   0.095   0.101
  0.105   0.123   0.135   0.139   0.144   0.152   0.167   0.182
  0.190   0.194   0.197   0.200   0.212   0.224   0.227   0.241
  0.246   0.255   0.258   0.276   0.289   0.301   0.304   0.347
  0.377   0.397   0.436   0.446   0.459   0.615   0.647   0.660
  0.676   0.685   0.700   0.719   0.731   0.735   0.763   0.776
  0.803   0.819   0.848   0.866   0.883   0.911   0.931   0.972
  0.977   1.004   1.007   1.018   1.044   1.074   1.075   1.102
  1.150   1.181   1.231   1.256   1.272   1.342   1.374   1.424
  1.426   1.466   1.480   1.542   1.596   1.644   1.695   1.768
  1.803   1.832   1.850   1.881   1.943   1.956   2.006   2.041
  2.043   2.066   2.084   2.126   2.211   2.256   2.261   2.272
  2.348   2.373   2.407   2.447   2.492   2.498   2.526   2.550
  2.558   2.590   2.606   2.626   2.675   2.694   2.715   2.756
  2.767   2.878   2.910   3.026   3.058   3.132   3.271   3.319
  3.362   3.476   3.579   3.674   4.136   4.299   4.330   4.397
  4.521   4.580   4.758
 --------------------------------------------------------------
 
          Ground-State Mulliken Net Atomic Charges

     Atom                 Charge (a.u.)    Spin (a.u.)
  --------------------------------------------------------
      1 C                    -0.175702      -0.006891
      2 C                     0.033243      -0.009246
      3 C                    -0.283854       0.071219
      4 C                     0.042188       0.937562
      5 C                     0.032321      -0.039412
      6 N                    -0.189322       0.004946
      7 H                     0.136085       0.000448
      8 H                     0.143178      -0.000414
      9 H                     0.187283       0.058663
     10 H                     0.144639       0.084294
     11 H                     0.143636      -0.000088
     12 C                    -0.369581      -0.139895
     13 H                     0.155887       0.038814
  --------------------------------------------------------
  Sum of atomic charges =     0.000000
  Sum of spin   charges =     1.000000

 -----------------------------------------------------------------
                    Cartesian Multipole Moments
 -----------------------------------------------------------------
    Charge (ESU x 10^10)
                 0.0000
    Dipole Moment (Debye)
         X      -1.6784      Y      -1.7633      Z      -0.3124
       Tot       2.4543
    Quadrupole Moments (Debye-Ang)
        XX     -40.1903     XY      -4.2486     YY     -44.4818
        XZ       1.1986     YZ       1.2173     ZZ     -43.3822
    Octopole Moments (Debye-Ang^2)
       XXX     -26.1305    XXY     -20.5163    XYY     -17.2848
       YYY     -25.5347    XXZ       5.1285    XYZ       4.5042
       YYZ       2.5135    XZZ     -16.6303    YZZ      -8.2030
       ZZZ       7.6898
    Hexadecapole Moments (Debye-Ang^3)
      XXXX    -593.3809   XXXY     -68.9175   XXYY    -172.8249
      XYYY     -94.7155   YYYY    -257.3281   XXXZ     108.4759
      XXYZ      20.6393   XYYZ      54.3554   YYYZ      53.0045
      XXZZ    -136.9484   XYZZ     -22.0409   YYZZ     -83.9171
      XZZZ     115.2274   YZZZ      48.8825   ZZZZ    -194.9998
 -----------------------------------------------------------------
 Calculating analytic gradient of the SCF energy
 Gradient of SCF Energy
            1           2           3           4           5           6
    1   0.0000121  -0.0000749   0.0000409   0.0000112   0.0000135   0.0000167
    2   0.0000170   0.0000494  -0.0000771   0.0000077   0.0000185  -0.0000159
    3  -0.0000499  -0.0000170   0.0000813   0.0000278  -0.0000745   0.0000401
            7           8           9          10          11          12
    1   0.0000023   0.0000151  -0.0000106   0.0000060  -0.0000016  -0.0000354
    2  -0.0000045   0.0000060   0.0000172   0.0000120  -0.0000057  -0.0000277
    3   0.0000020   0.0000008  -0.0000214  -0.0000131   0.0000283   0.0000057
           13
    1   0.0000047
    2   0.0000030
    3  -0.0000101
 Max gradient component =       8.125E-05
 RMS gradient           =       3.170E-05
 Gradient time:  CPU 15.35 s  wall 3.95 s
 Geometry Optimization Parameters
   NAtoms,    NIC,     NZ,  NCons,   NDum,   NFix, NCnnct, MaxDiis
       13      84       0       0       0       0       0       0

 Cartesian Hessian Update
 Hessian Updated using BFGS Update


** GEOMETRY OPTIMIZATION IN DELOCALIZED INTERNAL COORDINATES **
   Searching for a Minimum

   Optimization Cycle:   8

                       Coordinates (Angstroms)
     ATOM                X               Y               Z
      1  C         2.1438785484    0.1246525631   -0.5202666229
      2  C         1.1831115811   -0.7772686504   -0.2473062587
      3  C        -0.1407658665   -0.0471237248   -0.2929950682
      4  C        -1.0105317891   -0.1693098939    0.8942509301
      5  C         0.3528885858    1.3622330778   -0.5895714132
      6  N         1.6295619439    1.4397621484   -0.7334912274
      7  H         3.2126080614   -0.0333251346   -0.5945854810
      8  H         1.2960517178   -1.8331814657   -0.0410088062
      9  H        -0.7156320280   -0.3864825292   -1.1812005845
     10  H        -2.9211503632   -0.9247047648    0.4282952365
     11  H        -0.3007311370    2.2241657267   -0.6908467200
     12  C        -2.2333430216   -0.5499669597    1.1951832989
     13  H        -2.6186546511   -0.5137932528    2.2119528026
   Point Group: c1    Number of degrees of freedom:    33


   Energy is   -286.876117988

 Hessian Updated using BFGS Update

 33 Hessian modes will be used to form the next step
  Hessian Eigenvalues:
     0.002915    0.012522    0.013784    0.019080    0.019671    0.024737
     0.034721    0.042467    0.054732    0.067221    0.080841    0.120065
     0.155874    0.159688    0.159967    0.160033    0.160163    0.220030
     0.225354    0.230370    0.286626    0.297519    0.328945    0.340885
     0.348306    0.351753    0.353310    0.356490    0.358025    0.398249
     0.527408    0.632163    0.677302

 Minimum Search - Taking Simple RFO Step
 Searching for Lamda that Minimizes Along All modes
 Value Taken    Lamda =   0.00000000
 Step Taken.  Stepsize is  0.003822

                             Maximum     Tolerance    Cnvgd?
         Gradient           0.000092      0.000300     YES
         Displacement       0.001765      0.001200      NO
         Energy change     -0.000001      0.000001     YES


                       Distance Matrix (Angstroms)
             C (  1)   C (  2)   C (  3)   C (  4)   C (  5)   N (  6)
   C (  2)  1.345750
   C (  3)  2.302338  1.512564
   C (  4)  3.469521  2.546534  1.476813
   C (  5)  2.178085  2.320320  1.522478  2.531061
   N (  6)  1.428110  2.313205  2.353493  3.494103  1.287097
   H (  7)  1.082896  2.189272  3.366937  4.479959  3.182075  2.166868
   H (  8)  2.186690  1.081788  2.306067  2.993912  3.376559  3.361982
   H (  9)  2.979076  2.151767  1.111101  2.107517  2.133018  3.005919
   H ( 10)  5.258844  4.162108  3.003489  2.106703  4.121343  5.258273
   H ( 11)  3.226944  3.377444  2.311413  2.957208  1.086464  2.084020
   C ( 12)  4.749521  3.715455  2.616564  1.315571  3.678376  4.754034
   H ( 13)  5.527600  4.535504  3.554220  2.107384  4.494228  5.526243
             H (  7)   H (  8)   H (  9)   H ( 10)   H ( 11)   C ( 12)
   H (  8)  2.686842
   H (  9)  3.987469  2.727608
   H ( 10)  6.282025  4.339397  2.782889
   H ( 11)  4.177210  4.408409  2.688508  4.246700
   C ( 12)  5.755743  3.953661  2.824425  1.096186  3.871422
   H ( 13)  6.489309  4.705481  3.892453  1.855205  4.614698  1.087931

 
 Final energy is   -286.876117987647     


 ******************************
 **  OPTIMIZATION CONVERGED  **
 ******************************

                       Coordinates (Angstroms)
     ATOM                X               Y               Z
      1  C         2.1438785484    0.1246525631   -0.5202666229
      2  C         1.1831115811   -0.7772686504   -0.2473062587
      3  C        -0.1407658665   -0.0471237248   -0.2929950682
      4  C        -1.0105317891   -0.1693098939    0.8942509301
      5  C         0.3528885858    1.3622330778   -0.5895714132
      6  N         1.6295619439    1.4397621484   -0.7334912274
      7  H         3.2126080614   -0.0333251346   -0.5945854810
      8  H         1.2960517178   -1.8331814657   -0.0410088062
      9  H        -0.7156320280   -0.3864825292   -1.1812005845
     10  H        -2.9211503632   -0.9247047648    0.4282952365
     11  H        -0.3007311370    2.2241657267   -0.6908467200
     12  C        -2.2333430216   -0.5499669597    1.1951832989
     13  H        -2.6186546511   -0.5137932528    2.2119528026

Z-matrix Print:
$molecule
0 2
C 
H  1 1.111101
C  1 1.476813 2 108.220147
C  3 1.315571 1 139.047776 2 -0.163024 0
H  4 1.087931 3 122.232790 1 -179.105376 0
H  4 1.096186 3 121.473102 1 1.014415 0
C  1 1.512564 2 109.241715 3 128.176414 0
H  7 1.081788 1 124.632576 2 -68.956377 0
C  7 1.345750 1 107.170826 2 110.413979 0
H  9 1.082896 7 128.369902 1 -178.752856 0
N  9 1.428110 7 112.975732 1 1.063948 0
C  11 1.287097 9 106.562250 7 0.237981 0
H  12 1.086464 11 122.582981 9 179.593170 0
$end

 
 --------------------------------------------------------------
 
                    Orbital Energies (a.u.)
 --------------------------------------------------------------
 
 Alpha MOs
 -- Occupied --
-14.350 -10.245 -10.238 -10.235 -10.227 -10.210 -10.206  -0.967
 -0.824  -0.764  -0.731  -0.612  -0.566  -0.556  -0.518  -0.478
 -0.459  -0.427  -0.410  -0.396  -0.367  -0.302  -0.275  -0.255
 -0.238
 -- Virtual --
 -0.056  -0.015   0.005   0.020   0.026   0.033   0.038   0.044
  0.050   0.062   0.065   0.079   0.089   0.094   0.101   0.103
  0.122   0.134   0.139   0.143   0.150   0.165   0.180   0.189
  0.191   0.196   0.197   0.209   0.222   0.225   0.241   0.244
  0.250   0.254   0.273   0.288   0.300   0.303   0.338   0.372
  0.395   0.425   0.443   0.458   0.609   0.640   0.655   0.671
  0.683   0.696   0.710   0.731   0.732   0.741   0.772   0.797
  0.812   0.839   0.863   0.882   0.908   0.928   0.964   0.973
  0.997   1.004   1.015   1.039   1.069   1.073   1.098   1.149
  1.178   1.226   1.246   1.269   1.341   1.371   1.419   1.424
  1.466   1.476   1.532   1.592   1.634   1.679   1.739   1.787
  1.826   1.833   1.878   1.940   1.955   2.002   2.027   2.032
  2.057   2.074   2.119   2.203   2.246   2.261   2.269   2.341
  2.370   2.406   2.445   2.489   2.495   2.523   2.545   2.556
  2.588   2.604   2.623   2.662   2.692   2.713   2.748   2.759
  2.869   2.903   3.020   3.048   3.131   3.270   3.311   3.356
  3.474   3.567   3.674   4.136   4.278   4.330   4.397   4.513
  4.576   4.755
 
 Beta MOs
 -- Occupied --
-14.350 -10.245 -10.237 -10.227 -10.220 -10.209 -10.207  -0.967
 -0.811  -0.759  -0.728  -0.607  -0.566  -0.546  -0.508  -0.469
 -0.447  -0.424  -0.408  -0.392  -0.363  -0.297  -0.273  -0.254
 -- Virtual --
 -0.089  -0.054  -0.006   0.008   0.020   0.026   0.034   0.039
  0.044   0.051   0.062   0.065   0.079   0.091   0.095   0.101
  0.105   0.123   0.135   0.139   0.144   0.152   0.167   0.182
  0.190   0.194   0.197   0.200   0.212   0.224   0.227   0.241
  0.246   0.255   0.258   0.276   0.289   0.301   0.304   0.347
  0.377   0.397   0.436   0.446   0.459   0.615   0.647   0.660
  0.676   0.685   0.700   0.719   0.731   0.735   0.763   0.776
  0.803   0.819   0.848   0.866   0.883   0.911   0.931   0.972
  0.977   1.004   1.007   1.018   1.044   1.074   1.075   1.102
  1.150   1.181   1.231   1.256   1.272   1.342   1.374   1.424
  1.426   1.466   1.480   1.542   1.596   1.644   1.695   1.768
  1.803   1.832   1.850   1.881   1.943   1.956   2.006   2.041
  2.043   2.066   2.084   2.126   2.211   2.256   2.261   2.272
  2.348   2.373   2.407   2.447   2.492   2.498   2.526   2.550
  2.558   2.590   2.606   2.626   2.675   2.694   2.715   2.756
  2.767   2.878   2.910   3.026   3.058   3.132   3.271   3.319
  3.362   3.476   3.579   3.674   4.136   4.299   4.330   4.397
  4.521   4.580   4.758
 --------------------------------------------------------------
 
          Ground-State Mulliken Net Atomic Charges

     Atom                 Charge (a.u.)    Spin (a.u.)
  --------------------------------------------------------
      1 C                    -0.175702      -0.006891
      2 C                     0.033243      -0.009246
      3 C                    -0.283854       0.071219
      4 C                     0.042188       0.937562
      5 C                     0.032321      -0.039412
      6 N                    -0.189322       0.004946
      7 H                     0.136085       0.000448
      8 H                     0.143178      -0.000414
      9 H                     0.187283       0.058663
     10 H                     0.144639       0.084294
     11 H                     0.143636      -0.000088
     12 C                    -0.369581      -0.139895
     13 H                     0.155887       0.038814
  --------------------------------------------------------
  Sum of atomic charges =     0.000000
  Sum of spin   charges =     1.000000

 -----------------------------------------------------------------
                    Cartesian Multipole Moments
 -----------------------------------------------------------------
    Charge (ESU x 10^10)
                 0.0000
    Dipole Moment (Debye)
         X      -1.6784      Y      -1.7633      Z      -0.3124
       Tot       2.4543
    Quadrupole Moments (Debye-Ang)
        XX     -40.1903     XY      -4.2486     YY     -44.4818
        XZ       1.1986     YZ       1.2173     ZZ     -43.3822
    Octopole Moments (Debye-Ang^2)
       XXX     -26.1305    XXY     -20.5163    XYY     -17.2848
       YYY     -25.5347    XXZ       5.1285    XYZ       4.5042
       YYZ       2.5135    XZZ     -16.6303    YZZ      -8.2030
       ZZZ       7.6898
    Hexadecapole Moments (Debye-Ang^3)
      XXXX    -593.3809   XXXY     -68.9175   XXYY    -172.8249
      XYYY     -94.7155   YYYY    -257.3281   XXXZ     108.4759
      XXYZ      20.6393   XYYZ      54.3554   YYYZ      53.0045
      XXZZ    -136.9484   XYZZ     -22.0409   YYZZ     -83.9171
      XZZZ     115.2274   YZZZ      48.8825   ZZZZ    -194.9998
 -----------------------------------------------------------------
Archival summary:
1\1\c8-89\OPT\ProcedureUnspecified\6-31+G**\166(2)\hpark21\ThuMar311:41:182022ThuMar311:41:182022\0\\#,OPT,ProcedureUnspecified,6-31+G**,\\0,2\C\H,1,1.1111\C,1,1.47681,2,108.22\C,3,1.31557,1,139.048,2,-0.163024,0\H,4,1.08793,3,122.233,1,-179.105,0\H,4,1.09619,3,121.473,1,1.01442,0\C,1,1.51256,2,109.242,3,128.176,0\H,7,1.08179,1,124.633,2,-68.9564,0\C,7,1.34575,1,107.171,2,110.414,0\H,9,1.0829,7,128.37,1,-178.753,0\N,9,1.42811,7,112.976,1,1.06395,0\C,11,1.2871,9,106.562,7,0.237981,0\H,12,1.08646,11,122.583,9,179.593,0\\\@

 Total job time:  189.98s(wall), 634.53s(cpu) 
 Thu Mar  3 11:41:18 2022

        *************************************************************
        *                                                           *
        *  Thank you very much for using Q-Chem.  Have a nice day.  *
        *                                                           *
        *************************************************************


