
Running Job 1 of 1 qcts2.in
qchem qcts2.in_77928.0 ./qcts2.d/ 1
/home/leeping/opt/qchem/5.0.2-openmp/exe/qcprog.exe_s qcts2.in_77928.0 ./qcts2.d/
Check license passed

                  Welcome to Q-Chem
     A Quantum Leap Into The Future Of Chemistry


 Q-Chem 5.0, Q-Chem, Inc., Pleasanton, CA (2017)

 Yihan Shao,  Zhengting Gan,  E. Epifanovsky,  A. T. B. Gilbert,  M. Wormit,  
 J. Kussmann,  A. W. Lange,  A. Behn,  Jia Deng,  Xintian Feng,  D. Ghosh,  
 M. Goldey,  P. R. Horn,  L. D. Jacobson,  I. Kaliman,  T. Kus,  A. Landau,  
 Jie Liu,  E. I. Proynov,  R. M. Richard,  R. P. Steele,  E. J. Sundstrom,  
 H. L. Woodcock III,  P. M. Zimmerman,  D. Zuev,  B. Albrecht,  E. Alguire,  
 S. A. Baeppler,  D. Barton,  Z. Benda,  Y. A. Bernard,  E. J. Berquist,  
 K. B. Bravaya,  H. Burton,  D. Casanova,  Chun-Min Chang,  Yunqing Chen,  
 A. Chien,  K. D. Closser,  M. P. Coons,  S. Dasgupta,  A. L. Dempwolff,  
 M. Diedenhofen,  Hainam Do,  R. G. Edgar,  Po-Tung Fang,  S. Fatehi,  
 Qingguo Feng,  J. Fosso-Tande,  Qinghui Ge,  A. Ghysels,  G. Gidofalvi,  
 J. Gomes,  J. Gonthier,  A. Gunina,  M. W. D. Hanson-Heine,  
 P. H. P. Harbach,  A. W. Hauser,  J. E. Herr,  E. G. Hohenstein,  
 Z. C. Holden,  Kerwin Hui,  T.-C. Jagau,  Hyunjun Ji,  B. Kaduk,  
 K. Khistyaev,  Jaehoon Kim,  P. Klunzinger,  K. Koh,  D. Kosenkov,  
 L. Koulias,  T. Kowalczyk,  C. M. Krauter,  A. Kunitsa,  Ka Un Lao,  
 A. Laurent,  K. V. Lawler,  Joonho Lee,  D. Lefrancois,  S. Lehtola,  
 D. S. Levine,  Yi-Pei Li,  You-Sheng Lin,  Fenglai Liu,  E. Livshits,  
 A. Luenser,  P. Manohar,  E. Mansoor,  S. F. Manzer,  Shan-Ping Mao,  
 Yuezhi Mao,  N. Mardirossian,  A. V. Marenich,  T. Markovich,  
 L. A. Martinez-Martinez,  S. A. Maurer,  N. J. Mayhall,  S. C. McKenzie,  
 J.-M. Mewes,  A. F. Morrison,  J. W. Mullinax,  K. Nanda,  
 T. S. Nguyen-Beck,  R. Olivares-Amaya,  J. A. Parkhill,  T. M. Perrine,  
 F. Plasser,  S. Prager,  A. Prociuk,  E. Ramos,  D. R. Rehn,  F. Rob,  
 M. Schneider,  N. Sergueev,  S. M. Sharada,  S. Sharma,  D. W. Small,  
 T. Stauch,  T. Stein,  Yu-Chuan Su,  A. J. W. Thom,  A. Tkatchenko,  
 T. Tsuchimochi,  L. Vogt,  O. Vydrov,  M. A. Watson,  J. Wenzel,  
 M. de Wergifosse,  T. A. Wesolowski,  A. White,  J. Witte,  A. Yamada,  
 Jun Yang,  K. Yao,  S. Yeganeh,  S. R. Yost,  Zhi-Qiang You,  A. Zech,  
 Igor Ying Zhang,  Xing Zhang,  Yan Zhao,  Ying Zhu,  B. R. Brooks,  
 G. K. L. Chan,  C. J. Cramer,  M. S. Gordon,  W. J. Hehre,  A. Klamt,  
 M. W. Schmidt,  C. D. Sherrill,  D. G. Truhlar,  A. Aspuru-Guzik,  R. Baer,  
 A. T. Bell,  N. A. Besley,  Jeng-Da Chai,  R. A. DiStasio Jr.,  A. Dreuw,  
 B. D. Dunietz,  T. R. Furlani,  Chao-Ping Hsu,  Yousung Jung,  Jing Kong,  
 D. S. Lambrecht,  WanZhen Liang,  C. Ochsenfeld,  V. A. Rassolov,  
 L. V. Slipchenko,  J. E. Subotnik,  T. Van Voorhis,  J. M. Herbert,  
 A. I. Krylov,  P. M. W. Gill,  M. Head-Gordon

 Contributors to earlier versions of Q-Chem not listed above: 
 R. D. Adamson,  B. Austin,  J. Baker,  G. J. O. Beran,  K. Brandhorst,  
 S. T. Brown,  E. F. C. Byrd,  A. K. Chakraborty,  C.-L. Cheng,  
 Siu Hung Chien,  D. M. Chipman,  D. L. Crittenden,  H. Dachsel,  
 R. J. Doerksen,  A. D. Dutoi,  L. Fusti-Molnar,  W. A. Goddard III,  
 A. Golubeva-Zadorozhnaya,  S. R. Gwaltney,  G. Hawkins,  A. Heyden,  
 S. Hirata,  G. Kedziora,  F. J. Keil,  C. Kelley,  Jihan Kim,  R. A. King,  
 R. Z. Khaliullin,  P. P. Korambath,  W. Kurlancheek,  A. M. Lee,  M. S. Lee,  
 S. V. Levchenko,  Ching Yeh Lin,  D. Liotard,  R. C. Lochan,  I. Lotan,  
 P. E. Maslen,  N. Nair,  D. P. O'Neill,  D. Neuhauser,  E. Neuscamman,  
 C. M. Oana,  R. Olson,  B. Peters,  R. Peverati,  P. A. Pieniazek,  
 Y. M. Rhee,  J. Ritchie,  M. A. Rohrdanz,  E. Rosta,  N. J. Russ,  
 H. F. Schaefer III,  N. E. Schultz,  N. Shenvi,  A. C. Simmonett,  A. Sodt,  
 D. Stuck,  K. S. Thanthiriwatte,  V. Vanovschi,  Tao Wang,  A. Warshel,  
 C. F. Williams,  Q. Wu,  X. Xu,  W. Zhang

 Please cite Q-Chem as follows:
 Y. Shao et al., Mol. Phys. 113, 184-215 (2015)
 DOI: 10.1080/00268976.2014.952696

 Q-Chem 5.0.2 for Intel X86 EM64T Linux

 Parts of Q-Chem use Armadillo 5.200.1 (Boston Tea Smuggler).
 http://arma.sourceforge.net/

 Q-Chem begins on Thu Mar  3 07:19:13 2022  

Host: 
0

     Scratch files written to ./qcts2.d//
 Dec517 15110_ 26548  26544 5633   
Processing $rem in /home/leeping/opt/qchem/5.0.2-openmp/config/preferences.
 MEM_STATIC 2000
 MEM_TOTAL  8000
 SYMMETRY   OFF
 SYM_IGNORE TRUE 

Checking the input file for inconsistencies... 	...done.

--------------------------------------------------------------
User input:
--------------------------------------------------------------
$molecule
0 2
C        2.0523007183    0.1567020619   -0.4098177778
C        1.0939013491   -0.7554373006   -0.1730158308
C       -0.2359133896   -0.0681708829   -0.3874663234
C       -1.0785700249   -0.1363483193    0.8688980009
C        0.2520680897    1.3220051239   -0.7412466182
N        1.5338650237    1.4388857168   -0.7640305060
H        3.1275152602    0.0252132625   -0.3719666269
H        1.2076095012   -1.7929005920    0.1125267451
H       -0.7677000351   -0.5129777878   -1.2475547067
H       -2.3176752535    0.1361271993    0.6580895856
H       -0.4048591685    2.1598828596   -0.9650602813
C       -2.0304273233   -1.0464797938    1.1470615255
H       -2.5548231675   -1.0108444129    2.1119929012
$end

$rem
method                b3lyp
basis                 6-31+g(d,p)
unrestricted          true
symmetry              off
sym_ignore            true
incdft                false
incfock               0
scf_convergence       8
thresh                14
jobtype               ts
scf_guess             read
scf_algorithm         diis
max_scf_cycles        100
geom_opt_max_cycles   500
geom_opt_dmax         100
geom_opt_tol_gradient 10
geom_opt_hessian      read
$end

--------------------------------------------------------------
 ----------------------------------------------------------------
             Standard Nuclear Orientation (Angstroms)
    I     Atom           X                Y                Z
 ----------------------------------------------------------------
    1      C       2.0523007183     0.1567020619    -0.4098177778
    2      C       1.0939013491    -0.7554373006    -0.1730158308
    3      C      -0.2359133896    -0.0681708829    -0.3874663234
    4      C      -1.0785700249    -0.1363483193     0.8688980009
    5      C       0.2520680897     1.3220051239    -0.7412466182
    6      N       1.5338650237     1.4388857168    -0.7640305060
    7      H       3.1275152602     0.0252132625    -0.3719666269
    8      H       1.2076095012    -1.7929005920     0.1125267451
    9      H      -0.7677000351    -0.5129777878    -1.2475547067
   10      H      -2.3176752535     0.1361271993     0.6580895856
   11      H      -0.4048591685     2.1598828596    -0.9650602813
   12      C      -2.0304273233    -1.0464797938     1.1470615255
   13      H      -2.5548231675    -1.0108444129     2.1119929012
 ----------------------------------------------------------------
 Nuclear Repulsion Energy =   256.9895419004 hartrees
 There are       25 alpha and       24 beta electrons
 Requested basis set is 6-31+G(d,p)
 There are 53 shells and 163 basis functions

 Total QAlloc Memory Limit   8000 MB
 Mega-Array Size      1956 MB
 MEM_STATIC part      2000 MB
 A cutoff of  1.0D-14 yielded   1358 shell pairs
 There are     13269 function pairs
 
 -------------------------------------------------------
 OpenMP Integral Computing Module                       
 Release: version 1.0, May 2013, Q-Chem Inc. Pittsburgh 
 -------------------------------------------------------
 Integral Job Info:
 Integral job number is                      11
 Integral operator is                         1
 short-range coefficients                     0
 long-range coefficients              100000000
 Omega coefficients                           0
 if combine SR and LR in K                    0
 Integral screening is                        0
 Integral computing path is                   2
 max size of driver memory is            800000
 size of driver memory is                593474
 size of scratch memory is              2361544
 max col of scratch BK array               1296
 max len of scratch array in speh3          155
 max len of scratch index in speh4           18
 max int batch size is                      520
 min int batch size is                       52
 fixed nKL is                                52
 max L of basis functions is                  2
 order of int derivative is                   0
 number of shells is                         53
 number of basis is                         163
 number of cartesian basis is               163
 number of contracted shell pairs          1358
 number of primitive shell pairs           4530
 maxK2 (contraction) of shell pair           36
 max number of K2 of shell pair               1
 max number of CS2 of shell pair            128
 max number of PS2 of shell pair            666
 mem total for path MDJ                  531564
 -------------------------------------------------------
 Smallest overlap matrix eigenvalue = 1.70E-05

 Scale SEOQF with 1.000000e-01/1.000000e-01/1.000000e-01

 Standard Electronic Orientation quadrupole field applied
 Nucleus-field energy     =     0.0000000038 hartrees
 Guess MOs from SCF MO coefficient file
 Reading MOs from coefficient file
 Reading MOs from coefficient file
 An unrestricted hybrid HF-DFT SCF calculation will be
 performed using Pulay DIIS extrapolation
 Exchange:     0.2000 Hartree-Fock + 0.0800 Slater + 0.7200 B88
 Correlation:  0.1900 VWN1RPA + 0.8100 LYP
 Using SG-1 standard quadrature grid
 SCF converges when DIIS error is below 1.0E-08
Using Q-Chem read-in guess as SCF_GUESS READ specified.

 using 4 threads for integral computing
 -------------------------------------------------------
 OpenMP Integral computing Module                
 Release: version 1.0, May 2013, Q-Chem Inc. Pittsburgh 
 -------------------------------------------------------
 -------------------------------------------------------
 OpenMP BLAS3 based DFT computing Module                
 Release: version 1.0, May 2013, Q-Chem Inc. Pittsburgh 
 -------------------------------------------------------
 ---------------------------------------
  Cycle       Energy         DIIS Error
 ---------------------------------------
    1    -286.7921250884      5.28E-10
    2    -286.7921250884      5.94E-10 Convergence criterion met
 ---------------------------------------
 <S^2> = 0.7558
 SCF time:  CPU 9.56 s  wall 2.45 s
 SCF   energy in the final basis set = -286.79212509
 Total energy in the final basis set = -286.79212509
 
 --------------------------------------------------------------
 
                    Orbital Energies (a.u.)
 --------------------------------------------------------------
 
 Alpha MOs
 -- Occupied --
-14.350 -10.256 -10.244 -10.240 -10.237 -10.229 -10.212  -0.969
 -0.861  -0.781  -0.738  -0.609  -0.569  -0.553  -0.516  -0.490
 -0.436  -0.425  -0.405  -0.383  -0.371  -0.343  -0.283  -0.260
 -0.196
 -- Virtual --
 -0.060  -0.044  -0.003   0.016   0.022   0.032   0.035   0.043
  0.047   0.057   0.067   0.073   0.085   0.089   0.101   0.109
  0.115   0.116   0.133   0.138   0.149   0.157   0.177   0.183
  0.185   0.193   0.200   0.202   0.216   0.222   0.233   0.238
  0.250   0.253   0.265   0.280   0.300   0.307   0.329   0.359
  0.390   0.395   0.445   0.456   0.599   0.634   0.644   0.658
  0.684   0.688   0.705   0.727   0.731   0.738   0.745   0.756
  0.819   0.845   0.853   0.863   0.877   0.906   0.930   0.967
  0.985   1.001   1.022   1.034   1.056   1.083   1.106   1.137
  1.193   1.209   1.216   1.299   1.332   1.353   1.417   1.429
  1.458   1.484   1.506   1.581   1.645   1.673   1.735   1.742
  1.815   1.846   1.867   1.882   1.940   1.953   1.991   2.017
  2.061   2.115   2.144   2.197   2.241   2.259   2.269   2.341
  2.366   2.389   2.406   2.462   2.500   2.507   2.518   2.560
  2.580   2.599   2.617   2.668   2.691   2.710   2.728   2.792
  2.869   2.902   2.951   3.027   3.045   3.128   3.269   3.370
  3.399   3.465   3.673   4.129   4.322   4.327   4.344   4.492
  4.562   4.739
 
 Beta MOs
 -- Occupied --
-14.350 -10.248 -10.244 -10.235 -10.234 -10.229 -10.212  -0.969
 -0.849  -0.779  -0.736  -0.604  -0.569  -0.546  -0.511  -0.481
 -0.433  -0.422  -0.401  -0.380  -0.365  -0.302  -0.278  -0.259
 -- Virtual --
 -0.089  -0.058  -0.032   0.003   0.017   0.023   0.033   0.036
  0.044   0.047   0.059   0.069   0.074   0.086   0.090   0.103
  0.111   0.116   0.116   0.133   0.138   0.149   0.160   0.178
  0.184   0.187   0.193   0.204   0.206   0.217   0.224   0.233
  0.241   0.251   0.256   0.266   0.281   0.300   0.308   0.337
  0.367   0.391   0.405   0.448   0.456   0.602   0.638   0.649
  0.664   0.689   0.695   0.709   0.733   0.738   0.744   0.754
  0.767   0.821   0.853   0.859   0.864   0.877   0.910   0.933
  0.970   0.993   1.003   1.027   1.035   1.059   1.089   1.110
  1.140   1.197   1.210   1.223   1.305   1.333   1.356   1.418
  1.440   1.459   1.486   1.512   1.600   1.653   1.685   1.746
  1.749   1.818   1.852   1.877   1.891   1.943   1.956   1.995
  2.020   2.063   2.116   2.152   2.214   2.245   2.261   2.275
  2.349   2.368   2.400   2.408   2.466   2.503   2.508   2.523
  2.565   2.582   2.600   2.620   2.672   2.693   2.713   2.731
  2.803   2.882   2.905   2.964   3.032   3.047   3.129   3.270
  3.376   3.410   3.466   3.673   4.129   4.327   4.338   4.358
  4.498   4.563   4.740
 --------------------------------------------------------------
 
          Ground-State Mulliken Net Atomic Charges

     Atom                 Charge (a.u.)    Spin (a.u.)
  --------------------------------------------------------
      1 C                    -0.122481      -0.027605
      2 C                    -0.060170      -0.007217
      3 C                     0.021201      -0.116263
      4 C                    -0.120755       0.562402
      5 C                     0.014009      -0.112405
      6 N                    -0.198481       0.010427
      7 H                     0.136437      -0.000040
      8 H                     0.147727      -0.000302
      9 H                     0.189905       0.028934
     10 H                     0.154252      -0.003174
     11 H                     0.139082      -0.000034
     12 C                    -0.468819       0.623069
     13 H                     0.168093       0.042208
  --------------------------------------------------------
  Sum of atomic charges =    -0.000000
  Sum of spin   charges =     1.000000

 -----------------------------------------------------------------
                    Cartesian Multipole Moments
 -----------------------------------------------------------------
    Charge (ESU x 10^10)
                 0.0000
    Dipole Moment (Debye)
         X      -1.6137      Y      -0.9673      Z       0.0859
       Tot       1.8834
    Quadrupole Moments (Debye-Ang)
        XX     -40.4190     XY      -7.4826     YY     -46.7374
        XZ       0.3513     YZ      -0.2651     ZZ     -43.3673
    Octopole Moments (Debye-Ang^2)
       XXX     -15.8526    XXY      -6.1594    XYY     -10.1934
       YYY     -15.5337    XXZ      10.7543    XYZ       5.6977
       YYZ       4.0166    XZZ     -16.0108    YZZ      -9.0585
       ZZZ       8.0887
    Hexadecapole Moments (Debye-Ang^3)
      XXXX    -546.2763   XXXY    -106.5088   XXYY    -177.0615
      XYYY    -114.1007   YYYY    -293.1949   XXXZ      89.5590
      XXYZ      23.3815   XYYZ      48.3268   YYYZ      64.7323
      XXZZ    -123.4951   XYZZ     -20.7595   YYZZ     -82.6036
      XZZZ     100.5684   YZZZ      56.9014   ZZZZ    -201.1756
 -----------------------------------------------------------------
 Calculating analytic gradient of the SCF energy
 Gradient of SCF Energy
            1           2           3           4           5           6
    1  -0.0036550   0.0016227  -0.0014602   0.0010971   0.0027465  -0.0003889
    2  -0.0009797   0.0018369  -0.0013404   0.0025952  -0.0018420   0.0012831
    3   0.0004968  -0.0005584  -0.0009474   0.0029701   0.0005718  -0.0001835
            7           8           9          10          11          12
    1   0.0005917  -0.0002994   0.0001332   0.0002276  -0.0002684  -0.0003904
    2   0.0001400  -0.0003174  -0.0001163   0.0003328   0.0003121  -0.0026939
    3  -0.0000845   0.0000869  -0.0004714  -0.0003646  -0.0001562  -0.0026312
           13
    1   0.0000436
    2   0.0007895
    3   0.0012718
 Max gradient component =       3.655E-03
 RMS gradient           =       1.372E-03
 Gradient time:  CPU 15.98 s  wall 4.05 s
 Geometry Optimization Parameters
   NAtoms,    NIC,     NZ,  NCons,   NDum,   NFix, NCnnct, MaxDiis
       13      94       0       0       0       0       0       0

 Cartesian Hessian read from HESS file


** GEOMETRY OPTIMIZATION IN DELOCALIZED INTERNAL COORDINATES **
   Searching for a Transition State

   Optimization Cycle:   1

                       Coordinates (Angstroms)
     ATOM                X               Y               Z
      1  C         2.0523007183    0.1567020619   -0.4098177778
      2  C         1.0939013491   -0.7554373006   -0.1730158308
      3  C        -0.2359133896   -0.0681708829   -0.3874663234
      4  C        -1.0785700249   -0.1363483193    0.8688980009
      5  C         0.2520680897    1.3220051239   -0.7412466182
      6  N         1.5338650237    1.4388857168   -0.7640305060
      7  H         3.1275152602    0.0252132625   -0.3719666269
      8  H         1.2076095012   -1.7929005920    0.1125267451
      9  H        -0.7677000351   -0.5129777878   -1.2475547067
     10  H        -2.3176752535    0.1361271993    0.6580895856
     11  H        -0.4048591685    2.1598828596   -0.9650602813
     12  C        -2.0304273233   -1.0464797938    1.1470615255
     13  H        -2.5548231675   -1.0108444129    2.1119929012
   Point Group: c1    Number of degrees of freedom:    33


   Energy is   -286.792125088


 Attempting to Generate Delocalized Internal Coordinates

 Transforming Cartesian Hessian to Internal Coordinates
 Hessian Transformation does not Include Derivative of B-matrix

 33 Hessian modes will be used to form the next step
  Hessian Eigenvalues:
    -0.025829    0.001953    0.006999    0.010370    0.018019    0.024354
     0.032291    0.038175    0.041732    0.044340    0.048730    0.056706
     0.059656    0.073158    0.088112    0.095930    0.101414    0.109998
     0.117804    0.194697    0.207650    0.226057    0.268069    0.307573
     0.318620    0.328533    0.348294    0.359773    0.373302    0.373926
     0.421937    0.523956    0.627393

 Transition State Search - Taking P-RFO Step
 Searching for Lamda that Maximizes Along the Lowest mode
 Value Taken    Lamda =   0.00000149
 Searching for Lamda that Minimizes Along All other modes
 Value Taken    Lamda =  -0.00019249
 Step Taken.  Stepsize is  0.083181

                             Maximum     Tolerance    Cnvgd?
         Gradient           0.002217      0.000010      NO
         Displacement       0.030887      0.001200      NO
         Energy change     *********      0.000001      NO


 New Cartesian Coordinates Obtained by Inverse Iteration

 Displacement from previous Coordinates is:  0.094777
 ----------------------------------------------------------------
             Standard Nuclear Orientation (Angstroms)
    I     Atom           X                Y                Z
 ----------------------------------------------------------------
    1      C       2.0580596108     0.1549121124    -0.4202186270
    2      C       1.0969714773    -0.7524699913    -0.1648923571
    3      C      -0.2318289769    -0.0617322359    -0.3762642269
    4      C      -1.0889260386    -0.1378044392     0.8655061612
    5      C       0.2540164423     1.3273388590    -0.7368717140
    6      N       1.5373545784     1.4352001785    -0.7761261845
    7      H       3.1320859374     0.0190196840    -0.3931037717
    8      H       1.2120138239    -1.7882850013     0.1243962596
    9      H      -0.7570619395    -0.5062730957    -1.2410833352
   10      H      -2.3310478397     0.1222815311     0.6501762715
   11      H      -0.4009182172     2.1664065675    -0.9576736608
   12      C      -2.0332093869    -1.0482345504     1.1546846842
   13      H      -2.5702178915    -1.0147024839     2.1098805879
 ----------------------------------------------------------------
 Nuclear Repulsion Energy =   256.8295688797 hartrees
 There are       25 alpha and       24 beta electrons
 Applying Cartesian multipole field
    Component          Value
    ---------          -----
     (2,0,0)        1.00000E-11
     (0,2,0)        2.00000E-11
     (0,0,2)       -3.00000E-11
 Nucleus-field energy     =     0.0000000038 hartrees
 Requested basis set is 6-31+G(d,p)
 There are 53 shells and 163 basis functions
 A cutoff of  1.0D-14 yielded   1357 shell pairs
 There are     13265 function pairs
 Smallest overlap matrix eigenvalue = 1.70E-05
 Guess MOs from SCF MO coefficient file
 Reading MOs from coefficient file
 Reading MOs from coefficient file
 An unrestricted hybrid HF-DFT SCF calculation will be
 performed using Pulay DIIS extrapolation
 Exchange:     0.2000 Hartree-Fock + 0.0800 Slater + 0.7200 B88
 Correlation:  0.1900 VWN1RPA + 0.8100 LYP
 Using SG-1 standard quadrature grid
 SCF converges when DIIS error is below 1.0E-08
 Geometry optimization detected.  Setting ReadMinima to 0
 Setting SaveMinima to 0
Using Q-Chem read-in guess as SCF_GUESS READ specified.

 using 4 threads for integral computing
 -------------------------------------------------------
 OpenMP Integral computing Module                
 Release: version 1.0, May 2013, Q-Chem Inc. Pittsburgh 
 -------------------------------------------------------
 -------------------------------------------------------
 OpenMP BLAS3 based DFT computing Module                
 Release: version 1.0, May 2013, Q-Chem Inc. Pittsburgh 
 -------------------------------------------------------
 ---------------------------------------
  Cycle       Energy         DIIS Error
 ---------------------------------------
    1    -286.7939385278      4.70E-04
    2    -286.7921995250      5.55E-05
    3    -286.7921906001      8.85E-05
    4    -286.7922203001      1.62E-05
    5    -286.7922215363      7.42E-06
    6    -286.7922218699      4.49E-06
    7    -286.7922220129      2.11E-06
    8    -286.7922220576      6.31E-07
    9    -286.7922220775      2.63E-07
   10    -286.7922220791      1.08E-07
   11    -286.7922220793      5.39E-08
   12    -286.7922220793      3.39E-08
   13    -286.7922220793      1.39E-08
   14    -286.7922220793      6.16E-09 Convergence criterion met
 ---------------------------------------
 <S^2> = 0.7558
 SCF time:  CPU 66.71 s  wall 18.46 s
 SCF   energy in the final basis set = -286.79222208
 Total energy in the final basis set = -286.79222208
 
 --------------------------------------------------------------
 
                    Orbital Energies (a.u.)
 --------------------------------------------------------------
 
 Alpha MOs
 -- Occupied --
-14.350 -10.255 -10.245 -10.239 -10.237 -10.229 -10.213  -0.969
 -0.861  -0.782  -0.739  -0.610  -0.569  -0.554  -0.516  -0.491
 -0.436  -0.426  -0.406  -0.384  -0.371  -0.342  -0.283  -0.260
 -0.194
 -- Virtual --
 -0.060  -0.043  -0.003   0.016   0.022   0.032   0.035   0.043
  0.046   0.057   0.067   0.073   0.085   0.090   0.101   0.109
  0.114   0.117   0.133   0.138   0.148   0.157   0.176   0.183
  0.185   0.193   0.200   0.203   0.216   0.222   0.233   0.238
  0.250   0.253   0.265   0.280   0.300   0.306   0.330   0.360
  0.389   0.397   0.446   0.455   0.598   0.634   0.645   0.658
  0.684   0.687   0.705   0.728   0.730   0.737   0.744   0.756
  0.818   0.845   0.854   0.862   0.878   0.906   0.933   0.967
  0.986   1.001   1.024   1.034   1.056   1.082   1.105   1.138
  1.192   1.208   1.217   1.300   1.330   1.353   1.418   1.427
  1.460   1.483   1.506   1.582   1.644   1.671   1.735   1.743
  1.814   1.846   1.867   1.881   1.941   1.951   1.989   2.017
  2.060   2.113   2.144   2.203   2.239   2.255   2.268   2.336
  2.366   2.396   2.407   2.458   2.500   2.509   2.521   2.562
  2.580   2.600   2.617   2.671   2.691   2.711   2.727   2.797
  2.871   2.902   2.955   3.025   3.043   3.128   3.270   3.369
  3.408   3.468   3.672   4.128   4.322   4.326   4.345   4.491
  4.562   4.739
 
 Beta MOs
 -- Occupied --
-14.351 -10.248 -10.245 -10.236 -10.233 -10.229 -10.213  -0.968
 -0.849  -0.779  -0.737  -0.605  -0.569  -0.547  -0.510  -0.482
 -0.433  -0.423  -0.403  -0.381  -0.365  -0.302  -0.278  -0.259
 -- Virtual --
 -0.087  -0.058  -0.032   0.003   0.017   0.023   0.032   0.036
  0.044   0.047   0.058   0.069   0.074   0.086   0.090   0.102
  0.111   0.115   0.117   0.133   0.138   0.149   0.160   0.178
  0.184   0.187   0.193   0.204   0.206   0.218   0.224   0.233
  0.241   0.251   0.256   0.266   0.281   0.300   0.308   0.339
  0.367   0.390   0.407   0.449   0.455   0.602   0.639   0.650
  0.664   0.688   0.694   0.708   0.732   0.738   0.743   0.752
  0.767   0.820   0.853   0.860   0.865   0.878   0.910   0.936
  0.971   0.994   1.002   1.028   1.035   1.059   1.088   1.109
  1.141   1.196   1.210   1.225   1.305   1.331   1.356   1.419
  1.438   1.460   1.486   1.511   1.602   1.651   1.682   1.746
  1.751   1.817   1.852   1.877   1.889   1.943   1.954   1.993
  2.020   2.062   2.115   2.151   2.220   2.243   2.258   2.274
  2.343   2.368   2.405   2.413   2.462   2.502   2.510   2.525
  2.568   2.581   2.601   2.620   2.675   2.693   2.714   2.731
  2.808   2.884   2.905   2.968   3.030   3.045   3.129   3.270
  3.374   3.419   3.469   3.672   4.128   4.326   4.337   4.359
  4.497   4.563   4.741
 --------------------------------------------------------------
 
          Ground-State Mulliken Net Atomic Charges

     Atom                 Charge (a.u.)    Spin (a.u.)
  --------------------------------------------------------
      1 C                    -0.124139      -0.026928
      2 C                    -0.060079      -0.004958
      3 C                     0.024372      -0.129848
      4 C                    -0.116742       0.566685
      5 C                     0.018828      -0.114427
      6 N                    -0.198574       0.010537
      7 H                     0.136804      -0.000059
      8 H                     0.148061      -0.000309
      9 H                     0.190941       0.029484
     10 H                     0.154302      -0.002462
     11 H                     0.139726      -0.000057
     12 C                    -0.481961       0.630784
     13 H                     0.168461       0.041557
  --------------------------------------------------------
  Sum of atomic charges =    -0.000000
  Sum of spin   charges =     1.000000

 -----------------------------------------------------------------
                    Cartesian Multipole Moments
 -----------------------------------------------------------------
    Charge (ESU x 10^10)
                -0.0000
    Dipole Moment (Debye)
         X      -1.6126      Y      -0.9533      Z       0.0901
       Tot       1.8755
    Quadrupole Moments (Debye-Ang)
        XX     -40.2986     XY      -7.5048     YY     -46.7884
        XZ       0.3732     YZ      -0.2399     ZZ     -43.4300
    Octopole Moments (Debye-Ang^2)
       XXX     -16.3329    XXY      -6.3890    XYY     -10.0416
       YYY     -15.1942    XXZ      10.7726    XYZ       5.8410
       YYZ       4.0348    XZZ     -16.0665    YZZ      -9.2146
       ZZZ       8.1750
    Hexadecapole Moments (Debye-Ang^3)
      XXXX    -546.9139   XXXY    -106.6723   XXYY    -177.8984
      XYYY    -114.6984   YYYY    -293.6037   XXXZ      89.8666
      XXYZ      23.5609   XYYZ      49.0584   YYYZ      65.5864
      XXZZ    -124.0228   XYZZ     -20.9006   YYZZ     -82.9644
      XZZZ     101.8993   YZZZ      57.6099   ZZZZ    -201.9842
 -----------------------------------------------------------------
 Calculating analytic gradient of the SCF energy
 Gradient of SCF Energy
            1           2           3           4           5           6
    1  -0.0000229   0.0000294  -0.0000941   0.0000772   0.0000371  -0.0000277
    2  -0.0000259   0.0000628  -0.0000317  -0.0000083  -0.0000024   0.0000089
    3  -0.0000376   0.0000345  -0.0000060   0.0000436   0.0000308  -0.0000007
            7           8           9          10          11          12
    1  -0.0000014   0.0000088  -0.0000022   0.0000094  -0.0000084  -0.0000562
    2   0.0000218   0.0000079  -0.0000158  -0.0000113  -0.0000103   0.0000075
    3   0.0000046  -0.0000005   0.0000024   0.0000001  -0.0000124  -0.0000568
           13
    1   0.0000510
    2  -0.0000032
    3  -0.0000019
 Max gradient component =       9.413E-05
 RMS gradient           =       3.207E-05
 Gradient time:  CPU 16.12 s  wall 4.30 s
 Geometry Optimization Parameters
   NAtoms,    NIC,     NZ,  NCons,   NDum,   NFix, NCnnct, MaxDiis
       13      94       0       0       0       0       0       0

 Cartesian Hessian Update
 Hessian Updated using Powell/Murtagh-Sargent Update
  Mixing factors:     0.991554 Powell
                      0.008446 Murtagh-Sargent


** GEOMETRY OPTIMIZATION IN DELOCALIZED INTERNAL COORDINATES **
   Searching for a Transition State

   Optimization Cycle:   2

                       Coordinates (Angstroms)
     ATOM                X               Y               Z
      1  C         2.0580596108    0.1549121124   -0.4202186270
      2  C         1.0969714773   -0.7524699913   -0.1648923571
      3  C        -0.2318289769   -0.0617322359   -0.3762642269
      4  C        -1.0889260386   -0.1378044392    0.8655061612
      5  C         0.2540164423    1.3273388590   -0.7368717140
      6  N         1.5373545784    1.4352001785   -0.7761261845
      7  H         3.1320859374    0.0190196840   -0.3931037717
      8  H         1.2120138239   -1.7882850013    0.1243962596
      9  H        -0.7570619395   -0.5062730957   -1.2410833352
     10  H        -2.3310478397    0.1222815311    0.6501762715
     11  H        -0.4009182172    2.1664065675   -0.9576736608
     12  C        -2.0332093869   -1.0482345504    1.1546846842
     13  H        -2.5702178915   -1.0147024839    2.1098805879
   Point Group: c1    Number of degrees of freedom:    33


   Energy is   -286.792222079

 Hessian Updated using Powell/Murtagh-Sargent Update
  Mixing factors:     0.934622 Powell
                      0.065378 Murtagh-Sargent

 33 Hessian modes will be used to form the next step
  Hessian Eigenvalues:
    -0.025892    0.001650    0.007419    0.010366    0.018064    0.024350
     0.032256    0.038160    0.041729    0.044333    0.048736    0.056671
     0.059620    0.072706    0.088111    0.095935    0.101419    0.109988
     0.117802    0.194685    0.207586    0.226037    0.268007    0.307584
     0.318620    0.328535    0.348270    0.359764    0.373300    0.373923
     0.421926    0.523949    0.627330

 Transition State Search - Taking P-RFO Step
 Searching for Lamda that Maximizes Along the Lowest mode
 Value Taken    Lamda =   0.00000002
 Searching for Lamda that Minimizes Along All other modes
 Value Taken    Lamda =  -0.00000133
 Step Taken.  Stepsize is  0.026860

                             Maximum     Tolerance    Cnvgd?
         Gradient           0.000070      0.000010      NO
         Displacement       0.011518      0.001200      NO
         Energy change     -0.000097      0.000001      NO


 New Cartesian Coordinates Obtained by Inverse Iteration

 Displacement from previous Coordinates is:  0.027698
 ----------------------------------------------------------------
             Standard Nuclear Orientation (Angstroms)
    I     Atom           X                Y                Z
 ----------------------------------------------------------------
    1      C       2.0577693928     0.1541333142    -0.4198026295
    2      C       1.0954347469    -0.7519584981    -0.1644638983
    3      C      -0.2323022617    -0.0593992504    -0.3763442393
    4      C      -1.0909123420    -0.1344356239     0.8645411639
    5      C       0.2553002338     1.3288699456    -0.7375401859
    6      N       1.5388205242     1.4349685068    -0.7765389087
    7      H       3.1316095734     0.0167802185    -0.3925702169
    8      H       1.2088535111    -1.7878043400     0.1253451198
    9      H      -0.7574593041    -0.5034504011    -1.2414745865
   10      H      -2.3350656011     0.1144465697     0.6457339639
   11      H      -0.3984825948     2.1687492764    -0.9586682942
   12      C      -2.0286372873    -1.0501420646     1.1580718009
   13      H      -2.5676370114    -1.0151005186     2.1121209979
 ----------------------------------------------------------------
 Nuclear Repulsion Energy =   256.8262891369 hartrees
 There are       25 alpha and       24 beta electrons
 Applying Cartesian multipole field
    Component          Value
    ---------          -----
     (2,0,0)        1.00000E-11
     (0,2,0)        2.00000E-11
     (0,0,2)       -3.00000E-11
 Nucleus-field energy     =     0.0000000038 hartrees
 Requested basis set is 6-31+G(d,p)
 There are 53 shells and 163 basis functions
 A cutoff of  1.0D-14 yielded   1358 shell pairs
 There are     13269 function pairs
 Smallest overlap matrix eigenvalue = 1.70E-05
 Guess MOs from SCF MO coefficient file
 Reading MOs from coefficient file
 Reading MOs from coefficient file
 An unrestricted hybrid HF-DFT SCF calculation will be
 performed using Pulay DIIS extrapolation
 Exchange:     0.2000 Hartree-Fock + 0.0800 Slater + 0.7200 B88
 Correlation:  0.1900 VWN1RPA + 0.8100 LYP
 Using SG-1 standard quadrature grid
 SCF converges when DIIS error is below 1.0E-08
 Geometry optimization detected.  Setting ReadMinima to 0
 Setting SaveMinima to 0
Using Q-Chem read-in guess as SCF_GUESS READ specified.

 using 4 threads for integral computing
 -------------------------------------------------------
 OpenMP Integral computing Module                
 Release: version 1.0, May 2013, Q-Chem Inc. Pittsburgh 
 -------------------------------------------------------
 -------------------------------------------------------
 OpenMP BLAS3 based DFT computing Module                
 Release: version 1.0, May 2013, Q-Chem Inc. Pittsburgh 
 -------------------------------------------------------
 ---------------------------------------
  Cycle       Energy         DIIS Error
 ---------------------------------------
    1    -286.7911863473      1.07E-04
    2    -286.7922186308      2.57E-05
    3    -286.7922135008      4.90E-05
    4    -286.7922225651      6.01E-06
    5    -286.7922227691      3.00E-06
    6    -286.7922228600      1.67E-06
    7    -286.7922228916      7.26E-07
    8    -286.7922229039      2.87E-07
    9    -286.7922229067      1.01E-07
   10    -286.7922229071      5.04E-08
   11    -286.7922229071      2.67E-08
   12    -286.7922229071      1.33E-08
   13    -286.7922229071      6.11E-09 Convergence criterion met
 ---------------------------------------
 <S^2> = 0.7558
 SCF time:  CPU 61.95 s  wall 16.70 s
 SCF   energy in the final basis set = -286.79222291
 Total energy in the final basis set = -286.79222291
 
 --------------------------------------------------------------
 
                    Orbital Energies (a.u.)
 --------------------------------------------------------------
 
 Alpha MOs
 -- Occupied --
-14.350 -10.255 -10.245 -10.239 -10.237 -10.229 -10.213  -0.968
 -0.861  -0.781  -0.739  -0.610  -0.569  -0.554  -0.516  -0.491
 -0.436  -0.427  -0.406  -0.383  -0.371  -0.342  -0.283  -0.260
 -0.193
 -- Virtual --
 -0.060  -0.043  -0.003   0.016   0.022   0.032   0.035   0.043
  0.046   0.057   0.067   0.073   0.085   0.090   0.101   0.109
  0.114   0.117   0.133   0.138   0.149   0.157   0.176   0.183
  0.185   0.193   0.200   0.203   0.216   0.222   0.233   0.238
  0.250   0.253   0.265   0.280   0.300   0.306   0.330   0.360
  0.389   0.397   0.446   0.455   0.599   0.634   0.645   0.658
  0.684   0.687   0.704   0.728   0.730   0.737   0.744   0.756
  0.818   0.845   0.853   0.862   0.878   0.906   0.933   0.967
  0.986   1.000   1.024   1.034   1.056   1.083   1.105   1.138
  1.192   1.209   1.218   1.301   1.330   1.353   1.418   1.427
  1.460   1.483   1.506   1.582   1.644   1.671   1.736   1.743
  1.814   1.846   1.867   1.881   1.941   1.951   1.989   2.017
  2.060   2.113   2.143   2.203   2.239   2.255   2.268   2.336
  2.366   2.396   2.407   2.459   2.500   2.509   2.521   2.562
  2.580   2.600   2.617   2.671   2.691   2.711   2.728   2.797
  2.871   2.902   2.955   3.025   3.043   3.128   3.270   3.369
  3.408   3.468   3.672   4.128   4.323   4.325   4.345   4.491
  4.562   4.739
 
 Beta MOs
 -- Occupied --
-14.350 -10.248 -10.244 -10.236 -10.233 -10.229 -10.213  -0.968
 -0.849  -0.779  -0.737  -0.605  -0.569  -0.547  -0.510  -0.482
 -0.433  -0.423  -0.403  -0.381  -0.365  -0.302  -0.278  -0.259
 -- Virtual --
 -0.087  -0.058  -0.032   0.003   0.017   0.023   0.032   0.036
  0.044   0.047   0.058   0.069   0.074   0.086   0.091   0.102
  0.111   0.115   0.117   0.133   0.138   0.149   0.160   0.178
  0.184   0.187   0.193   0.204   0.206   0.218   0.224   0.233
  0.241   0.251   0.256   0.266   0.281   0.300   0.308   0.339
  0.367   0.390   0.406   0.449   0.455   0.603   0.639   0.650
  0.664   0.688   0.694   0.707   0.732   0.738   0.743   0.753
  0.767   0.820   0.853   0.859   0.865   0.878   0.910   0.936
  0.970   0.994   1.002   1.028   1.035   1.059   1.088   1.109
  1.140   1.196   1.210   1.225   1.306   1.331   1.356   1.419
  1.438   1.460   1.486   1.511   1.602   1.651   1.682   1.746
  1.752   1.817   1.852   1.877   1.889   1.943   1.954   1.993
  2.020   2.062   2.115   2.151   2.220   2.243   2.257   2.274
  2.343   2.368   2.405   2.412   2.462   2.502   2.510   2.525
  2.568   2.582   2.601   2.620   2.675   2.693   2.714   2.731
  2.808   2.884   2.905   2.968   3.030   3.045   3.129   3.270
  3.374   3.420   3.469   3.672   4.128   4.326   4.336   4.359
  4.497   4.563   4.741
 --------------------------------------------------------------
 
          Ground-State Mulliken Net Atomic Charges

     Atom                 Charge (a.u.)    Spin (a.u.)
  --------------------------------------------------------
      1 C                    -0.124744      -0.026887
      2 C                    -0.059677      -0.004443
      3 C                     0.023762      -0.130442
      4 C                    -0.114890       0.566110
      5 C                     0.018935      -0.114516
      6 N                    -0.198498       0.010527
      7 H                     0.136797      -0.000064
      8 H                     0.148146      -0.000316
      9 H                     0.190965       0.029241
     10 H                     0.154204      -0.002403
     11 H                     0.139760      -0.000058
     12 C                    -0.483240       0.631679
     13 H                     0.168479       0.041572
  --------------------------------------------------------
  Sum of atomic charges =    -0.000000
  Sum of spin   charges =     1.000000

 -----------------------------------------------------------------
                    Cartesian Multipole Moments
 -----------------------------------------------------------------
    Charge (ESU x 10^10)
                -0.0000
    Dipole Moment (Debye)
         X      -1.6223      Y      -0.9558      Z       0.0849
       Tot       1.8849
    Quadrupole Moments (Debye-Ang)
        XX     -40.2703     XY      -7.4864     YY     -46.8230
        XZ       0.4037     YZ      -0.2412     ZZ     -43.4201
    Octopole Moments (Debye-Ang^2)
       XXX     -16.6161    XXY      -6.5251    XYY     -10.0088
       YYY     -15.1467    XXZ      10.7256    XYZ       5.8482
       YYZ       3.9700    XZZ     -16.0684    YZZ      -9.2458
       ZZZ       8.1888
    Hexadecapole Moments (Debye-Ang^3)
      XXXX    -545.8555   XXXY    -106.5347   XXYY    -177.9768
      XYYY    -114.8139   YYYY    -293.9730   XXXZ      90.0546
      XXYZ      23.6460   XYYZ      49.1745   YYYZ      65.7850
      XXZZ    -124.0620   XYZZ     -20.9134   YYZZ     -83.0856
      XZZZ     101.9432   YZZZ      57.7150   ZZZZ    -202.0946
 -----------------------------------------------------------------
 Calculating analytic gradient of the SCF energy
 Gradient of SCF Energy
            1           2           3           4           5           6
    1   0.0000015  -0.0000056   0.0000010   0.0000154  -0.0000079  -0.0000068
    2   0.0000087   0.0000011   0.0000117  -0.0000248   0.0000019   0.0000054
    3   0.0000010   0.0000015  -0.0000018   0.0000121  -0.0000085  -0.0000064
            7           8           9          10          11          12
    1  -0.0000007   0.0000091   0.0000042   0.0000023  -0.0000110  -0.0000113
    2   0.0000132   0.0000056  -0.0000049  -0.0000100  -0.0000027   0.0000115
    3  -0.0000053   0.0000036  -0.0000039   0.0000033  -0.0000010  -0.0000050
           13
    1   0.0000099
    2  -0.0000168
    3   0.0000103
 Max gradient component =       2.477E-05
 RMS gradient           =       8.635E-06
 Gradient time:  CPU 15.62 s  wall 4.01 s
 Geometry Optimization Parameters
   NAtoms,    NIC,     NZ,  NCons,   NDum,   NFix, NCnnct, MaxDiis
       13      94       0       0       0       0       0       0

 Cartesian Hessian Update
 Hessian Updated using Powell/Murtagh-Sargent Update
  Mixing factors:     0.991869 Powell
                      0.008131 Murtagh-Sargent


** GEOMETRY OPTIMIZATION IN DELOCALIZED INTERNAL COORDINATES **
   Searching for a Transition State

   Optimization Cycle:   3

                       Coordinates (Angstroms)
     ATOM                X               Y               Z
      1  C         2.0577693928    0.1541333142   -0.4198026295
      2  C         1.0954347469   -0.7519584981   -0.1644638983
      3  C        -0.2323022617   -0.0593992504   -0.3763442393
      4  C        -1.0909123420   -0.1344356239    0.8645411639
      5  C         0.2553002338    1.3288699456   -0.7375401859
      6  N         1.5388205242    1.4349685068   -0.7765389087
      7  H         3.1316095734    0.0167802185   -0.3925702169
      8  H         1.2088535111   -1.7878043400    0.1253451198
      9  H        -0.7574593041   -0.5034504011   -1.2414745865
     10  H        -2.3350656011    0.1144465697    0.6457339639
     11  H        -0.3984825948    2.1687492764   -0.9586682942
     12  C        -2.0286372873   -1.0501420646    1.1580718009
     13  H        -2.5676370114   -1.0151005186    2.1121209979
   Point Group: c1    Number of degrees of freedom:    33


   Energy is   -286.792222907

 Hessian Updated using Powell/Murtagh-Sargent Update
  Mixing factors:     0.822727 Powell
                      0.177273 Murtagh-Sargent

 33 Hessian modes will be used to form the next step
  Hessian Eigenvalues:
    -0.025910    0.001153    0.007414    0.010354    0.018059    0.024350
     0.032172    0.038160    0.041729    0.044322    0.048735    0.056671
     0.059607    0.072702    0.087985    0.095912    0.101408    0.109984
     0.117802    0.194677    0.207574    0.226026    0.268003    0.307575
     0.318617    0.328529    0.348269    0.359763    0.373300    0.373923
     0.421914    0.523941    0.627330

 Transition State Search - Taking P-RFO Step
 Searching for Lamda that Maximizes Along the Lowest mode
 Value Taken    Lamda =   0.00000000
 Searching for Lamda that Minimizes Along All other modes
 Value Taken    Lamda =   0.00000000
 Step Taken.  Stepsize is  0.011730

                             Maximum     Tolerance    Cnvgd?
         Gradient           0.000015      0.000010      NO
         Displacement       0.005099      0.001200      NO
         Energy change     -0.000001      0.000001     YES


 New Cartesian Coordinates Obtained by Inverse Iteration

 Displacement from previous Coordinates is:  0.011804
 ----------------------------------------------------------------
             Standard Nuclear Orientation (Angstroms)
    I     Atom           X                Y                Z
 ----------------------------------------------------------------
    1      C       2.0576312224     0.1537996266    -0.4196453412
    2      C       1.0948059915    -0.7517514498    -0.1642955122
    3      C      -0.2325411141    -0.0585007043    -0.3763933447
    4      C      -1.0917457650    -0.1329045260     0.8641097506
    5      C       0.2558146571     1.3294704712    -0.7377299563
    6      N       1.5393921962     1.4348978743    -0.7765628750
    7      H       3.1313966052     0.0158844098    -0.3922778985
    8      H       1.2075625536    -1.7876564413     0.1255515569
    9      H      -0.7577598552    -0.5024000024    -1.2415523619
   10      H      -2.3367149418     0.1110515697     0.6436705906
   11      H      -0.3974965784     2.1696810081    -0.9589864425
   12      C      -2.0266083599    -1.0509199110     1.1594929901
   13      H      -2.5664450319    -1.0149947903     2.1130289312
 ----------------------------------------------------------------
 Nuclear Repulsion Energy =   256.8277071098 hartrees
 There are       25 alpha and       24 beta electrons
 Applying Cartesian multipole field
    Component          Value
    ---------          -----
     (2,0,0)        1.00000E-11
     (0,2,0)        2.00000E-11
     (0,0,2)       -3.00000E-11
 Nucleus-field energy     =     0.0000000038 hartrees
 Requested basis set is 6-31+G(d,p)
 There are 53 shells and 163 basis functions
 A cutoff of  1.0D-14 yielded   1358 shell pairs
 There are     13269 function pairs
 Smallest overlap matrix eigenvalue = 1.70E-05
 Guess MOs from SCF MO coefficient file
 Reading MOs from coefficient file
 Reading MOs from coefficient file
 An unrestricted hybrid HF-DFT SCF calculation will be
 performed using Pulay DIIS extrapolation
 Exchange:     0.2000 Hartree-Fock + 0.0800 Slater + 0.7200 B88
 Correlation:  0.1900 VWN1RPA + 0.8100 LYP
 Using SG-1 standard quadrature grid
 SCF converges when DIIS error is below 1.0E-08
 Geometry optimization detected.  Setting ReadMinima to 0
 Setting SaveMinima to 0
Using Q-Chem read-in guess as SCF_GUESS READ specified.

 using 4 threads for integral computing
 -------------------------------------------------------
 OpenMP Integral computing Module                
 Release: version 1.0, May 2013, Q-Chem Inc. Pittsburgh 
 -------------------------------------------------------
 -------------------------------------------------------
 OpenMP BLAS3 based DFT computing Module                
 Release: version 1.0, May 2013, Q-Chem Inc. Pittsburgh 
 -------------------------------------------------------
 ---------------------------------------
  Cycle       Energy         DIIS Error
 ---------------------------------------
    1    -286.7917961444      4.58E-05
    2    -286.7922221962      1.10E-05
    3    -286.7922212678      2.10E-05
    4    -286.7922229266      2.56E-06
    5    -286.7922229647      1.32E-06
    6    -286.7922229824      7.23E-07
    7    -286.7922229885      3.17E-07
    8    -286.7922229908      1.24E-07
    9    -286.7922229913      4.37E-08
   10    -286.7922229914      2.27E-08
   11    -286.7922229914      1.23E-08
   12    -286.7922229914      6.37E-09 Convergence criterion met
 ---------------------------------------
 <S^2> = 0.7558
 SCF time:  CPU 57.84 s  wall 18.45 s
 SCF   energy in the final basis set = -286.79222299
 Total energy in the final basis set = -286.79222299
 
 --------------------------------------------------------------
 
                    Orbital Energies (a.u.)
 --------------------------------------------------------------
 
 Alpha MOs
 -- Occupied --
-14.350 -10.255 -10.245 -10.239 -10.237 -10.229 -10.213  -0.968
 -0.861  -0.781  -0.739  -0.610  -0.569  -0.554  -0.516  -0.491
 -0.436  -0.427  -0.406  -0.383  -0.371  -0.342  -0.283  -0.260
 -0.193
 -- Virtual --
 -0.060  -0.043  -0.003   0.016   0.022   0.032   0.035   0.043
  0.046   0.057   0.067   0.073   0.085   0.090   0.101   0.109
  0.114   0.117   0.133   0.138   0.149   0.157   0.176   0.183
  0.185   0.193   0.200   0.203   0.216   0.222   0.233   0.238
  0.250   0.253   0.265   0.280   0.300   0.306   0.330   0.360
  0.389   0.397   0.446   0.455   0.599   0.634   0.645   0.658
  0.684   0.687   0.704   0.728   0.730   0.737   0.744   0.755
  0.818   0.845   0.853   0.862   0.878   0.906   0.933   0.967
  0.986   1.000   1.024   1.034   1.055   1.083   1.105   1.138
  1.193   1.209   1.218   1.301   1.330   1.353   1.418   1.427
  1.460   1.483   1.505   1.582   1.644   1.671   1.736   1.743
  1.814   1.846   1.867   1.881   1.940   1.951   1.989   2.017
  2.060   2.113   2.143   2.202   2.239   2.255   2.268   2.336
  2.366   2.395   2.407   2.459   2.500   2.509   2.521   2.562
  2.580   2.600   2.617   2.671   2.691   2.711   2.728   2.797
  2.871   2.902   2.955   3.025   3.043   3.128   3.270   3.369
  3.408   3.468   3.672   4.128   4.323   4.325   4.345   4.491
  4.562   4.739
 
 Beta MOs
 -- Occupied --
-14.350 -10.248 -10.244 -10.236 -10.233 -10.229 -10.213  -0.968
 -0.849  -0.779  -0.737  -0.605  -0.569  -0.547  -0.510  -0.482
 -0.433  -0.423  -0.403  -0.381  -0.365  -0.302  -0.278  -0.259
 -- Virtual --
 -0.087  -0.058  -0.032   0.003   0.017   0.023   0.032   0.036
  0.044   0.047   0.058   0.069   0.074   0.086   0.091   0.103
  0.111   0.115   0.117   0.133   0.138   0.149   0.160   0.178
  0.184   0.187   0.193   0.204   0.206   0.218   0.224   0.233
  0.241   0.251   0.256   0.266   0.281   0.300   0.308   0.339
  0.367   0.390   0.406   0.449   0.455   0.603   0.639   0.650
  0.664   0.688   0.694   0.707   0.732   0.738   0.743   0.753
  0.767   0.820   0.853   0.859   0.865   0.878   0.910   0.936
  0.970   0.994   1.002   1.028   1.035   1.059   1.088   1.109
  1.140   1.196   1.210   1.225   1.306   1.331   1.356   1.419
  1.438   1.460   1.486   1.511   1.602   1.651   1.682   1.746
  1.752   1.817   1.852   1.877   1.889   1.943   1.954   1.993
  2.020   2.062   2.114   2.151   2.220   2.243   2.257   2.274
  2.343   2.368   2.405   2.412   2.462   2.502   2.510   2.525
  2.568   2.582   2.601   2.620   2.675   2.693   2.714   2.732
  2.809   2.884   2.905   2.968   3.030   3.045   3.129   3.270
  3.374   3.420   3.469   3.672   4.128   4.326   4.336   4.359
  4.497   4.563   4.741
 --------------------------------------------------------------
 
          Ground-State Mulliken Net Atomic Charges

     Atom                 Charge (a.u.)    Spin (a.u.)
  --------------------------------------------------------
      1 C                    -0.124979      -0.026854
      2 C                    -0.059513      -0.004261
      3 C                     0.023558      -0.130655
      4 C                    -0.114107       0.565890
      5 C                     0.018872      -0.114530
      6 N                    -0.198455       0.010519
      7 H                     0.136793      -0.000066
      8 H                     0.148178      -0.000319
      9 H                     0.190973       0.029136
     10 H                     0.154160      -0.002380
     11 H                     0.139769      -0.000059
     12 C                    -0.483730       0.631997
     13 H                     0.168480       0.041582
  --------------------------------------------------------
  Sum of atomic charges =     0.000000
  Sum of spin   charges =     1.000000

 -----------------------------------------------------------------
                    Cartesian Multipole Moments
 -----------------------------------------------------------------
    Charge (ESU x 10^10)
                 0.0000
    Dipole Moment (Debye)
         X      -1.6263      Y      -0.9570      Z       0.0823
       Tot       1.8888
    Quadrupole Moments (Debye-Ang)
        XX     -40.2581     XY      -7.4781     YY     -46.8387
        XZ       0.4171     YZ      -0.2409     ZZ     -43.4155
    Octopole Moments (Debye-Ang^2)
       XXX     -16.7341    XXY      -6.5825    XYY      -9.9941
       YYY     -15.1285    XXZ      10.7005    XYZ       5.8484
       YYZ       3.9387    XZZ     -16.0667    YZZ      -9.2567
       ZZZ       8.1922
    Hexadecapole Moments (Debye-Ang^3)
      XXXX    -545.3859   XXXY    -106.4637   XXYY    -178.0057
      XYYY    -114.8564   YYYY    -294.1297   XXXZ      90.1338
      XXYZ      23.6811   XYYZ      49.2218   YYYZ      65.8624
      XXZZ    -124.0755   XYZZ     -20.9181   YYZZ     -83.1357
      XZZZ     101.9528   YZZZ      57.7502   ZZZZ    -202.1184
 -----------------------------------------------------------------
 Calculating analytic gradient of the SCF energy
 Gradient of SCF Energy
            1           2           3           4           5           6
    1  -0.0000012   0.0000021  -0.0000002   0.0000028  -0.0000066  -0.0000063
    2   0.0000086   0.0000037  -0.0000000  -0.0000044   0.0000004   0.0000055
    3  -0.0000029  -0.0000003   0.0000008   0.0000007  -0.0000011  -0.0000029
            7           8           9          10          11          12
    1  -0.0000006   0.0000073   0.0000005   0.0000002  -0.0000098   0.0000049
    2   0.0000122   0.0000049  -0.0000039  -0.0000092  -0.0000022  -0.0000061
    3  -0.0000039  -0.0000003   0.0000011   0.0000025  -0.0000010   0.0000034
           13
    1   0.0000068
    2  -0.0000095
    3   0.0000039
 Max gradient component =       1.216E-05
 RMS gradient           =       4.878E-06
 Gradient time:  CPU 15.93 s  wall 4.06 s
 Geometry Optimization Parameters
   NAtoms,    NIC,     NZ,  NCons,   NDum,   NFix, NCnnct, MaxDiis
       13      94       0       0       0       0       0       0

 Cartesian Hessian Update
 Hessian Updated using Powell/Murtagh-Sargent Update
**WARNING** Small Scalar Product
 Hessian Update Skipped this cycle


** GEOMETRY OPTIMIZATION IN DELOCALIZED INTERNAL COORDINATES **
   Searching for a Transition State

   Optimization Cycle:   4

                       Coordinates (Angstroms)
     ATOM                X               Y               Z
      1  C         2.0576312224    0.1537996266   -0.4196453412
      2  C         1.0948059915   -0.7517514498   -0.1642955122
      3  C        -0.2325411141   -0.0585007043   -0.3763933447
      4  C        -1.0917457650   -0.1329045260    0.8641097506
      5  C         0.2558146571    1.3294704712   -0.7377299563
      6  N         1.5393921962    1.4348978743   -0.7765628750
      7  H         3.1313966052    0.0158844098   -0.3922778985
      8  H         1.2075625536   -1.7876564413    0.1255515569
      9  H        -0.7577598552   -0.5024000024   -1.2415523619
     10  H        -2.3367149418    0.1110515697    0.6436705906
     11  H        -0.3974965784    2.1696810081   -0.9589864425
     12  C        -2.0266083599   -1.0509199110    1.1594929901
     13  H        -2.5664450319   -1.0149947903    2.1130289312
   Point Group: c1    Number of degrees of freedom:    33


   Energy is   -286.792222991

 Hessian Updated using Powell/Murtagh-Sargent Update
**WARNING** Small Scalar Product
 Hessian Update Skipped this cycle

 33 Hessian modes will be used to form the next step
  Hessian Eigenvalues:
    -0.025910    0.001153    0.007414    0.010354    0.018059    0.024350
     0.032172    0.038160    0.041729    0.044322    0.048735    0.056671
     0.059607    0.072702    0.087985    0.095912    0.101408    0.109984
     0.117802    0.194677    0.207574    0.226026    0.268003    0.307575
     0.318617    0.328529    0.348269    0.359763    0.373300    0.373923
     0.421914    0.523941    0.627330

 Transition State Search - Taking P-RFO Step
 Searching for Lamda that Maximizes Along the Lowest mode
 Value Taken    Lamda =   0.00000000
 Searching for Lamda that Minimizes Along All other modes
 Value Taken    Lamda =   0.00000000
 Step Taken.  Stepsize is  0.000053

                             Maximum     Tolerance    Cnvgd?
         Gradient           0.000001      0.000010     YES
         Displacement       0.000024      0.001200     YES
         Energy change     -0.000000      0.000001     YES


                       Distance Matrix (Angstroms)
             C (  1)   C (  2)   C (  3)   C (  4)   C (  5)   N (  6)
   C (  2)  1.346202
   C (  3)  2.300398  1.512426
   C (  4)  3.413034  2.494313  1.510833
   C (  5)  2.174839  2.316078  1.515097  2.553498
   N (  6)  1.427296  2.313863  2.351621  3.474579  1.288485
   H (  7)  1.082932  2.188365  3.364798  4.408580  3.180223  2.166968
   H (  8)  2.188403  1.081584  2.305608  2.927540  3.371581  3.362853
   H (  9)  3.005421  2.157466  1.105170  2.163767  2.153351  3.040764
   H ( 10)  4.521366  3.629404  2.344531  1.287655  3.180255  4.335186
   H ( 11)  3.222161  3.375392  2.308987  3.017874  1.087071  2.079597
   C ( 12)  4.541590  3.403696  2.561742  1.343120  3.804625  4.758567
   H ( 13)  5.400241  4.319753  3.543898  2.124293  4.646342  5.586557
             H (  7)   H (  8)   H (  9)   H ( 10)   H ( 11)   C ( 12)
   H (  8)  2.687386
   H (  9)  4.014402  2.717232
   H ( 10)  5.566192  4.054065  2.534460
   H ( 11)  4.172899  4.406014  2.711024  3.250697
   C ( 12)  5.491000  3.474432  2.770536  1.308593  4.185001
   H ( 13)  6.309095  4.334767  3.845427  1.865414  4.927857  1.096333

 
 Final energy is   -286.792222991396     


 ******************************
 **  OPTIMIZATION CONVERGED  **
 ******************************

                       Coordinates (Angstroms)
     ATOM                X               Y               Z
      1  C         2.0576312224    0.1537996266   -0.4196453412
      2  C         1.0948059915   -0.7517514498   -0.1642955122
      3  C        -0.2325411141   -0.0585007043   -0.3763933447
      4  C        -1.0917457650   -0.1329045260    0.8641097506
      5  C         0.2558146571    1.3294704712   -0.7377299563
      6  N         1.5393921962    1.4348978743   -0.7765628750
      7  H         3.1313966052    0.0158844098   -0.3922778985
      8  H         1.2075625536   -1.7876564413    0.1255515569
      9  H        -0.7577598552   -0.5024000024   -1.2415523619
     10  H        -2.3367149418    0.1110515697    0.6436705906
     11  H        -0.3974965784    2.1696810081   -0.9589864425
     12  C        -2.0266083599   -1.0509199110    1.1594929901
     13  H        -2.5664450319   -1.0149947903    2.1130289312

Z-matrix Print:
$molecule
0 2
C 
H  1 1.105170
C  1 1.510833 2 110.653327
H  3 1.287655 1 113.575084 2 -39.845369 0
C  4 1.308593 3 62.300623 1 121.046829 0
H  5 1.096333 4 101.364743 3 119.314031 0
C  1 1.512426 2 110.044865 3 123.273627 0
H  7 1.081584 1 124.616893 2 -65.542964 0
C  7 1.346202 1 107.023323 2 113.713356 0
H  9 1.082932 7 128.221379 1 -178.619630 0
N  9 1.427296 7 113.048705 1 0.815319 0
C  11 1.288485 9 106.303792 7 0.285859 0
H  12 1.087071 11 121.959376 9 179.366568 0
$end

 
 --------------------------------------------------------------
 
                    Orbital Energies (a.u.)
 --------------------------------------------------------------
 
 Alpha MOs
 -- Occupied --
-14.350 -10.255 -10.245 -10.239 -10.237 -10.229 -10.213  -0.968
 -0.861  -0.781  -0.739  -0.610  -0.569  -0.554  -0.516  -0.491
 -0.436  -0.427  -0.406  -0.383  -0.371  -0.342  -0.283  -0.260
 -0.193
 -- Virtual --
 -0.060  -0.043  -0.003   0.016   0.022   0.032   0.035   0.043
  0.046   0.057   0.067   0.073   0.085   0.090   0.101   0.109
  0.114   0.117   0.133   0.138   0.149   0.157   0.176   0.183
  0.185   0.193   0.200   0.203   0.216   0.222   0.233   0.238
  0.250   0.253   0.265   0.280   0.300   0.306   0.330   0.360
  0.389   0.397   0.446   0.455   0.599   0.634   0.645   0.658
  0.684   0.687   0.704   0.728   0.730   0.737   0.744   0.755
  0.818   0.845   0.853   0.862   0.878   0.906   0.933   0.967
  0.986   1.000   1.024   1.034   1.055   1.083   1.105   1.138
  1.193   1.209   1.218   1.301   1.330   1.353   1.418   1.427
  1.460   1.483   1.505   1.582   1.644   1.671   1.736   1.743
  1.814   1.846   1.867   1.881   1.940   1.951   1.989   2.017
  2.060   2.113   2.143   2.202   2.239   2.255   2.268   2.336
  2.366   2.395   2.407   2.459   2.500   2.509   2.521   2.562
  2.580   2.600   2.617   2.671   2.691   2.711   2.728   2.797
  2.871   2.902   2.955   3.025   3.043   3.128   3.270   3.369
  3.408   3.468   3.672   4.128   4.323   4.325   4.345   4.491
  4.562   4.739
 
 Beta MOs
 -- Occupied --
-14.350 -10.248 -10.244 -10.236 -10.233 -10.229 -10.213  -0.968
 -0.849  -0.779  -0.737  -0.605  -0.569  -0.547  -0.510  -0.482
 -0.433  -0.423  -0.403  -0.381  -0.365  -0.302  -0.278  -0.259
 -- Virtual --
 -0.087  -0.058  -0.032   0.003   0.017   0.023   0.032   0.036
  0.044   0.047   0.058   0.069   0.074   0.086   0.091   0.103
  0.111   0.115   0.117   0.133   0.138   0.149   0.160   0.178
  0.184   0.187   0.193   0.204   0.206   0.218   0.224   0.233
  0.241   0.251   0.256   0.266   0.281   0.300   0.308   0.339
  0.367   0.390   0.406   0.449   0.455   0.603   0.639   0.650
  0.664   0.688   0.694   0.707   0.732   0.738   0.743   0.753
  0.767   0.820   0.853   0.859   0.865   0.878   0.910   0.936
  0.970   0.994   1.002   1.028   1.035   1.059   1.088   1.109
  1.140   1.196   1.210   1.225   1.306   1.331   1.356   1.419
  1.438   1.460   1.486   1.511   1.602   1.651   1.682   1.746
  1.752   1.817   1.852   1.877   1.889   1.943   1.954   1.993
  2.020   2.062   2.114   2.151   2.220   2.243   2.257   2.274
  2.343   2.368   2.405   2.412   2.462   2.502   2.510   2.525
  2.568   2.582   2.601   2.620   2.675   2.693   2.714   2.732
  2.809   2.884   2.905   2.968   3.030   3.045   3.129   3.270
  3.374   3.420   3.469   3.672   4.128   4.326   4.336   4.359
  4.497   4.563   4.741
 --------------------------------------------------------------
 
          Ground-State Mulliken Net Atomic Charges

     Atom                 Charge (a.u.)    Spin (a.u.)
  --------------------------------------------------------
      1 C                    -0.124979      -0.026854
      2 C                    -0.059513      -0.004261
      3 C                     0.023558      -0.130655
      4 C                    -0.114107       0.565890
      5 C                     0.018872      -0.114530
      6 N                    -0.198455       0.010519
      7 H                     0.136793      -0.000066
      8 H                     0.148178      -0.000319
      9 H                     0.190973       0.029136
     10 H                     0.154160      -0.002380
     11 H                     0.139769      -0.000059
     12 C                    -0.483730       0.631997
     13 H                     0.168480       0.041582
  --------------------------------------------------------
  Sum of atomic charges =     0.000000
  Sum of spin   charges =     1.000000

 -----------------------------------------------------------------
                    Cartesian Multipole Moments
 -----------------------------------------------------------------
    Charge (ESU x 10^10)
                 0.0000
    Dipole Moment (Debye)
         X      -1.6263      Y      -0.9570      Z       0.0823
       Tot       1.8888
    Quadrupole Moments (Debye-Ang)
        XX     -40.2581     XY      -7.4781     YY     -46.8387
        XZ       0.4171     YZ      -0.2409     ZZ     -43.4155
    Octopole Moments (Debye-Ang^2)
       XXX     -16.7341    XXY      -6.5825    XYY      -9.9941
       YYY     -15.1285    XXZ      10.7005    XYZ       5.8484
       YYZ       3.9387    XZZ     -16.0667    YZZ      -9.2567
       ZZZ       8.1922
    Hexadecapole Moments (Debye-Ang^3)
      XXXX    -545.3859   XXXY    -106.4637   XXYY    -178.0057
      XYYY    -114.8564   YYYY    -294.1297   XXXZ      90.1338
      XXYZ      23.6811   XYYZ      49.2218   YYYZ      65.8624
      XXZZ    -124.0755   XYZZ     -20.9181   YYZZ     -83.1357
      XZZZ     101.9528   YZZZ      57.7502   ZZZZ    -202.1184
 -----------------------------------------------------------------
Archival summary:
1\1\c8-89\TS\ProcedureUnspecified\6-31+G**\166(2)\hpark21\ThuMar307:20:282022ThuMar307:20:282022\0\\#,TS,ProcedureUnspecified,6-31+G**,\\0,2\C\H,1,1.10517\C,1,1.51083,2,110.653\H,3,1.28766,1,113.575,2,-39.8454,0\C,4,1.30859,3,62.3006,1,121.047,0\H,5,1.09633,4,101.365,3,119.314,0\C,1,1.51243,2,110.045,3,123.274,0\H,7,1.08158,1,124.617,2,-65.543,0\C,7,1.3462,1,107.023,2,113.713,0\H,9,1.08293,7,128.221,1,-178.62,0\N,9,1.4273,7,113.049,1,0.815319,0\C,11,1.28849,9,106.304,7,0.285859,0\H,12,1.08707,11,121.959,9,179.367,0\\\@

 Total job time:  75.70s(wall), 264.72s(cpu) 
 Thu Mar  3 07:20:28 2022

        *************************************************************
        *                                                           *
        *  Thank you very much for using Q-Chem.  Have a nice day.  *
        *                                                           *
        *************************************************************


