
Running Job 1 of 1 qcts2.in
qchem qcts2.in_77552.0 ./qcts2.d/ 1
/home/leeping/opt/qchem/5.0.2-openmp/exe/qcprog.exe_s qcts2.in_77552.0 ./qcts2.d/
Check license passed

                  Welcome to Q-Chem
     A Quantum Leap Into The Future Of Chemistry


 Q-Chem 5.0, Q-Chem, Inc., Pleasanton, CA (2017)

 Yihan Shao,  Zhengting Gan,  E. Epifanovsky,  A. T. B. Gilbert,  M. Wormit,  
 J. Kussmann,  A. W. Lange,  A. Behn,  Jia Deng,  Xintian Feng,  D. Ghosh,  
 M. Goldey,  P. R. Horn,  L. D. Jacobson,  I. Kaliman,  T. Kus,  A. Landau,  
 Jie Liu,  E. I. Proynov,  R. M. Richard,  R. P. Steele,  E. J. Sundstrom,  
 H. L. Woodcock III,  P. M. Zimmerman,  D. Zuev,  B. Albrecht,  E. Alguire,  
 S. A. Baeppler,  D. Barton,  Z. Benda,  Y. A. Bernard,  E. J. Berquist,  
 K. B. Bravaya,  H. Burton,  D. Casanova,  Chun-Min Chang,  Yunqing Chen,  
 A. Chien,  K. D. Closser,  M. P. Coons,  S. Dasgupta,  A. L. Dempwolff,  
 M. Diedenhofen,  Hainam Do,  R. G. Edgar,  Po-Tung Fang,  S. Fatehi,  
 Qingguo Feng,  J. Fosso-Tande,  Qinghui Ge,  A. Ghysels,  G. Gidofalvi,  
 J. Gomes,  J. Gonthier,  A. Gunina,  M. W. D. Hanson-Heine,  
 P. H. P. Harbach,  A. W. Hauser,  J. E. Herr,  E. G. Hohenstein,  
 Z. C. Holden,  Kerwin Hui,  T.-C. Jagau,  Hyunjun Ji,  B. Kaduk,  
 K. Khistyaev,  Jaehoon Kim,  P. Klunzinger,  K. Koh,  D. Kosenkov,  
 L. Koulias,  T. Kowalczyk,  C. M. Krauter,  A. Kunitsa,  Ka Un Lao,  
 A. Laurent,  K. V. Lawler,  Joonho Lee,  D. Lefrancois,  S. Lehtola,  
 D. S. Levine,  Yi-Pei Li,  You-Sheng Lin,  Fenglai Liu,  E. Livshits,  
 A. Luenser,  P. Manohar,  E. Mansoor,  S. F. Manzer,  Shan-Ping Mao,  
 Yuezhi Mao,  N. Mardirossian,  A. V. Marenich,  T. Markovich,  
 L. A. Martinez-Martinez,  S. A. Maurer,  N. J. Mayhall,  S. C. McKenzie,  
 J.-M. Mewes,  A. F. Morrison,  J. W. Mullinax,  K. Nanda,  
 T. S. Nguyen-Beck,  R. Olivares-Amaya,  J. A. Parkhill,  T. M. Perrine,  
 F. Plasser,  S. Prager,  A. Prociuk,  E. Ramos,  D. R. Rehn,  F. Rob,  
 M. Schneider,  N. Sergueev,  S. M. Sharada,  S. Sharma,  D. W. Small,  
 T. Stauch,  T. Stein,  Yu-Chuan Su,  A. J. W. Thom,  A. Tkatchenko,  
 T. Tsuchimochi,  L. Vogt,  O. Vydrov,  M. A. Watson,  J. Wenzel,  
 M. de Wergifosse,  T. A. Wesolowski,  A. White,  J. Witte,  A. Yamada,  
 Jun Yang,  K. Yao,  S. Yeganeh,  S. R. Yost,  Zhi-Qiang You,  A. Zech,  
 Igor Ying Zhang,  Xing Zhang,  Yan Zhao,  Ying Zhu,  B. R. Brooks,  
 G. K. L. Chan,  C. J. Cramer,  M. S. Gordon,  W. J. Hehre,  A. Klamt,  
 M. W. Schmidt,  C. D. Sherrill,  D. G. Truhlar,  A. Aspuru-Guzik,  R. Baer,  
 A. T. Bell,  N. A. Besley,  Jeng-Da Chai,  R. A. DiStasio Jr.,  A. Dreuw,  
 B. D. Dunietz,  T. R. Furlani,  Chao-Ping Hsu,  Yousung Jung,  Jing Kong,  
 D. S. Lambrecht,  WanZhen Liang,  C. Ochsenfeld,  V. A. Rassolov,  
 L. V. Slipchenko,  J. E. Subotnik,  T. Van Voorhis,  J. M. Herbert,  
 A. I. Krylov,  P. M. W. Gill,  M. Head-Gordon

 Contributors to earlier versions of Q-Chem not listed above: 
 R. D. Adamson,  B. Austin,  J. Baker,  G. J. O. Beran,  K. Brandhorst,  
 S. T. Brown,  E. F. C. Byrd,  A. K. Chakraborty,  C.-L. Cheng,  
 Siu Hung Chien,  D. M. Chipman,  D. L. Crittenden,  H. Dachsel,  
 R. J. Doerksen,  A. D. Dutoi,  L. Fusti-Molnar,  W. A. Goddard III,  
 A. Golubeva-Zadorozhnaya,  S. R. Gwaltney,  G. Hawkins,  A. Heyden,  
 S. Hirata,  G. Kedziora,  F. J. Keil,  C. Kelley,  Jihan Kim,  R. A. King,  
 R. Z. Khaliullin,  P. P. Korambath,  W. Kurlancheek,  A. M. Lee,  M. S. Lee,  
 S. V. Levchenko,  Ching Yeh Lin,  D. Liotard,  R. C. Lochan,  I. Lotan,  
 P. E. Maslen,  N. Nair,  D. P. O'Neill,  D. Neuhauser,  E. Neuscamman,  
 C. M. Oana,  R. Olson,  B. Peters,  R. Peverati,  P. A. Pieniazek,  
 Y. M. Rhee,  J. Ritchie,  M. A. Rohrdanz,  E. Rosta,  N. J. Russ,  
 H. F. Schaefer III,  N. E. Schultz,  N. Shenvi,  A. C. Simmonett,  A. Sodt,  
 D. Stuck,  K. S. Thanthiriwatte,  V. Vanovschi,  Tao Wang,  A. Warshel,  
 C. F. Williams,  Q. Wu,  X. Xu,  W. Zhang

 Please cite Q-Chem as follows:
 Y. Shao et al., Mol. Phys. 113, 184-215 (2015)
 DOI: 10.1080/00268976.2014.952696

 Q-Chem 5.0.2 for Intel X86 EM64T Linux

 Parts of Q-Chem use Armadillo 5.200.1 (Boston Tea Smuggler).
 http://arma.sourceforge.net/

 Q-Chem begins on Thu Mar  3 07:10:19 2022  

Host: 
0

     Scratch files written to ./qcts2.d//
 Dec517 15110_ 26548  26544 5633   
Processing $rem in /home/leeping/opt/qchem/5.0.2-openmp/config/preferences.
 MEM_STATIC 2000
 MEM_TOTAL  8000
 SYMMETRY   OFF
 SYM_IGNORE TRUE 

Checking the input file for inconsistencies... 	...done.

--------------------------------------------------------------
User input:
--------------------------------------------------------------
$molecule
0 2
C        2.0523007183    0.1567020619   -0.4098177778
C        1.0939013491   -0.7554373006   -0.1730158308
C       -0.2359133896   -0.0681708829   -0.3874663234
C       -1.0785700249   -0.1363483193    0.8688980009
C        0.2520680897    1.3220051239   -0.7412466182
N        1.5338650237    1.4388857168   -0.7640305060
H        3.1275152602    0.0252132625   -0.3719666269
H        1.2076095012   -1.7929005920    0.1125267451
H       -0.7677000351   -0.5129777878   -1.2475547067
H       -2.3176752535    0.1361271993    0.6580895856
H       -0.4048591685    2.1598828596   -0.9650602813
C       -2.0304273233   -1.0464797938    1.1470615255
H       -2.5548231675   -1.0108444129    2.1119929012
$end

$rem
method                b3lyp
basis                 6-31+g(d,p)
unrestricted          true
symmetry              off
sym_ignore            true
incdft                false
incfock               0
scf_convergence       8
thresh                14
jobtype               freq
scf_guess             read
scf_algorithm         diis
max_scf_cycles        100
$end

--------------------------------------------------------------
 ----------------------------------------------------------------
             Standard Nuclear Orientation (Angstroms)
    I     Atom           X                Y                Z
 ----------------------------------------------------------------
    1      C       2.0523007183     0.1567020619    -0.4098177778
    2      C       1.0939013491    -0.7554373006    -0.1730158308
    3      C      -0.2359133896    -0.0681708829    -0.3874663234
    4      C      -1.0785700249    -0.1363483193     0.8688980009
    5      C       0.2520680897     1.3220051239    -0.7412466182
    6      N       1.5338650237     1.4388857168    -0.7640305060
    7      H       3.1275152602     0.0252132625    -0.3719666269
    8      H       1.2076095012    -1.7929005920     0.1125267451
    9      H      -0.7677000351    -0.5129777878    -1.2475547067
   10      H      -2.3176752535     0.1361271993     0.6580895856
   11      H      -0.4048591685     2.1598828596    -0.9650602813
   12      C      -2.0304273233    -1.0464797938     1.1470615255
   13      H      -2.5548231675    -1.0108444129     2.1119929012
 ----------------------------------------------------------------
 Nuclear Repulsion Energy =   256.9895419004 hartrees
 There are       25 alpha and       24 beta electrons
 Requested basis set is 6-31+G(d,p)
 There are 53 shells and 163 basis functions

 Total QAlloc Memory Limit   8000 MB
 Mega-Array Size      1956 MB
 MEM_STATIC part      2000 MB

                       Distance Matrix (Angstroms)
             C (  1)   C (  2)   C (  3)   C (  4)   C (  5)   N (  6)
   C (  2)  1.344099
   C (  3)  2.299346  1.512194
   C (  4)  3.394605  2.487667  1.514322
   C (  5)  2.169934  2.312431  1.515215  2.547540
   N (  6)  1.427668  2.314718  2.354811  3.460150  1.287316
   H (  7)  1.083886  2.187369  3.364760  4.388280  3.175883  2.166081
   H (  8)  2.187989  1.082032  2.304006  2.922821  3.368178  3.364408
   H (  9)  3.017065  2.163095  1.104718  2.172064  2.159499  3.056267
   H ( 10)  4.498615  3.622772  2.338516  1.286105  3.157219  4.307432
   H ( 11)  3.218488  3.372345  2.307895  3.014957  1.087973  2.078197
   C ( 12)  4.532128  3.404224  2.555806  1.346011  3.792784  4.746946
   H ( 13)  5.380361  4.312736  3.537410  2.118809  4.632688  5.566872
             H (  7)   H (  8)   H (  9)   H ( 10)   H ( 11)   C ( 12)
   H (  8)  2.688180
   H (  9)  4.028524  2.718432
   H ( 10)  5.542871  4.055419  2.540717
   H ( 11)  4.169681  4.402925  2.712128  3.223208
   C ( 12)  5.482731  3.480271  2.759219  1.311550  4.169447
   H ( 13)  6.287483  4.331902  3.837739  1.866981  4.913666  1.098796

 
 A cutoff of  1.0D-14 yielded   1358 shell pairs
 There are     13269 function pairs
 Smallest overlap matrix eigenvalue = 1.70E-05
 Guess MOs from SCF MO coefficient file
 Reading MOs from coefficient file
 Reading MOs from coefficient file
 An unrestricted hybrid HF-DFT SCF calculation will be
 performed using Pulay DIIS extrapolation
 Exchange:     0.2000 Hartree-Fock + 0.0800 Slater + 0.7200 B88
 Correlation:  0.1900 VWN1RPA + 0.8100 LYP
 Using SG-1 standard quadrature grid
 SCF converges when DIIS error is below 1.0E-08
Using Q-Chem read-in guess as SCF_GUESS READ specified.

 -------------------------------------------------------
 OpenMP BLAS3 based DFT computing Module                
 -------------------------------------------------------
 ---------------------------------------
  Cycle       Energy         DIIS Error
 ---------------------------------------
    1    -286.7921250883      1.10E-09
    2    -286.7921250883      1.78E-09 Convergence criterion met
 ---------------------------------------
 <S^2> = 0.7558
 SCF time:  CPU 6.02 s  wall 6.31 s
 SCF   energy in the final basis set = -286.79212509
 Total energy in the final basis set = -286.79212509
 
 --------------------------------------------------------------
 
                    Orbital Energies (a.u.)
 --------------------------------------------------------------
 
 Alpha MOs
 -- Occupied --
-14.350 -10.256 -10.244 -10.240 -10.237 -10.229 -10.212  -0.969
 -0.861  -0.781  -0.738  -0.609  -0.569  -0.553  -0.516  -0.490
 -0.436  -0.425  -0.405  -0.383  -0.371  -0.343  -0.283  -0.260
 -0.196
 -- Virtual --
 -0.060  -0.044  -0.003   0.016   0.022   0.032   0.035   0.043
  0.047   0.057   0.067   0.073   0.085   0.089   0.101   0.109
  0.115   0.116   0.133   0.138   0.149   0.157   0.177   0.183
  0.185   0.193   0.200   0.202   0.216   0.222   0.233   0.238
  0.250   0.253   0.265   0.280   0.300   0.307   0.329   0.359
  0.390   0.395   0.445   0.456   0.599   0.634   0.644   0.658
  0.684   0.688   0.705   0.727   0.731   0.738   0.745   0.756
  0.819   0.845   0.853   0.863   0.877   0.906   0.930   0.967
  0.985   1.001   1.022   1.034   1.056   1.083   1.106   1.137
  1.193   1.209   1.216   1.299   1.332   1.353   1.417   1.429
  1.458   1.484   1.506   1.581   1.645   1.673   1.735   1.742
  1.815   1.846   1.867   1.882   1.940   1.953   1.991   2.017
  2.061   2.115   2.144   2.197   2.241   2.259   2.269   2.341
  2.366   2.389   2.406   2.462   2.500   2.507   2.518   2.560
  2.580   2.599   2.617   2.668   2.691   2.710   2.728   2.792
  2.869   2.902   2.951   3.027   3.045   3.128   3.269   3.370
  3.399   3.465   3.673   4.129   4.322   4.327   4.344   4.492
  4.562   4.739
 
 Beta MOs
 -- Occupied --
-14.350 -10.248 -10.244 -10.235 -10.234 -10.229 -10.212  -0.969
 -0.849  -0.779  -0.736  -0.604  -0.569  -0.546  -0.511  -0.481
 -0.433  -0.422  -0.401  -0.380  -0.365  -0.302  -0.278  -0.259
 -- Virtual --
 -0.089  -0.058  -0.032   0.003   0.017   0.023   0.033   0.036
  0.044   0.047   0.059   0.069   0.074   0.086   0.090   0.103
  0.111   0.116   0.116   0.133   0.138   0.149   0.160   0.178
  0.184   0.187   0.193   0.204   0.206   0.217   0.224   0.233
  0.241   0.251   0.256   0.266   0.281   0.300   0.308   0.337
  0.367   0.391   0.405   0.448   0.456   0.602   0.638   0.649
  0.664   0.689   0.695   0.709   0.733   0.738   0.744   0.754
  0.767   0.821   0.853   0.859   0.864   0.877   0.910   0.933
  0.970   0.993   1.003   1.027   1.035   1.059   1.089   1.110
  1.140   1.197   1.210   1.223   1.305   1.333   1.356   1.418
  1.440   1.459   1.486   1.512   1.600   1.653   1.685   1.746
  1.749   1.818   1.852   1.877   1.891   1.943   1.956   1.995
  2.020   2.063   2.116   2.152   2.214   2.245   2.261   2.275
  2.349   2.368   2.400   2.408   2.466   2.503   2.508   2.523
  2.565   2.582   2.600   2.620   2.672   2.693   2.713   2.731
  2.803   2.882   2.905   2.964   3.032   3.047   3.129   3.270
  3.376   3.410   3.466   3.673   4.129   4.327   4.338   4.358
  4.498   4.563   4.740
 --------------------------------------------------------------
 
          Ground-State Mulliken Net Atomic Charges

     Atom                 Charge (a.u.)    Spin (a.u.)
  --------------------------------------------------------
      1 C                    -0.122481      -0.027595
      2 C                    -0.060170      -0.007229
      3 C                     0.021200      -0.116262
      4 C                    -0.120755       0.562402
      5 C                     0.014009      -0.112397
      6 N                    -0.198481       0.010421
      7 H                     0.136437      -0.000041
      8 H                     0.147727      -0.000301
      9 H                     0.189905       0.028933
     10 H                     0.154252      -0.003174
     11 H                     0.139082      -0.000035
     12 C                    -0.468819       0.623069
     13 H                     0.168093       0.042208
  --------------------------------------------------------
  Sum of atomic charges =    -0.000000
  Sum of spin   charges =     1.000000

 -----------------------------------------------------------------
                    Cartesian Multipole Moments
 -----------------------------------------------------------------
    Charge (ESU x 10^10)
                -0.0000
    Dipole Moment (Debye)
         X      -1.6137      Y      -0.9673      Z       0.0859
       Tot       1.8834
    Quadrupole Moments (Debye-Ang)
        XX     -40.4190     XY      -7.4826     YY     -46.7374
        XZ       0.3513     YZ      -0.2651     ZZ     -43.3673
    Octopole Moments (Debye-Ang^2)
       XXX     -15.8527    XXY      -6.1594    XYY     -10.1934
       YYY     -15.5337    XXZ      10.7543    XYZ       5.6977
       YYZ       4.0166    XZZ     -16.0108    YZZ      -9.0585
       ZZZ       8.0887
    Hexadecapole Moments (Debye-Ang^3)
      XXXX    -546.2763   XXXY    -106.5088   XXYY    -177.0615
      XYYY    -114.1007   YYYY    -293.1949   XXXZ      89.5590
      XXYZ      23.3815   XYYZ      48.3268   YYYZ      64.7323
      XXZZ    -123.4951   XYZZ     -20.7595   YYZZ     -82.6036
      XZZZ     100.5684   YZZZ      56.9014   ZZZZ    -201.1756
 -----------------------------------------------------------------
 Calculating MO derivatives via CPSCF
   1         3          39      0.305253    0.063087
   2         3          39      0.037991    0.008606
   3         3          39      0.004708    0.001200
   4         3          39      0.000527    0.000142
   5        31          11      0.000038    0.000011
   6        41           1      0.000001    0.000001
   7        42           0      0.000000    0.000000    Roots Converged
 Time for AOints: 19.1 s (CPU) 19.4 s (wall)
 ------------------------------------------------------------------------------
                     AOints        : Timing summary (seconds)
 ------------------------------------------------------------------------------
     job step          cpu (% of tot)      sys (% of tot)     wall (% of tot)
 ------------------------------------------------------------------------------
  cpscf_lag         0.1104E+03 (28.4)   0.4100E-04 (37.6)   0.1106E+03 (28.3)
  iterzp            0.2593E+03 (66.6)   0.6600E-04 (60.6)   0.2610E+03 (66.7)
  make_fx           0.0000E+00 ( 0.0)   0.0000E+00 ( 0.0)   0.0000E+00 ( 0.0)
  AOints            0.1914E+02 ( 4.9)   0.1000E-05 ( 0.9)   0.1940E+02 ( 5.0)
 ------------------------------------------------------------------------------
   Grand Totals     0.3892E+03          0.1090E-03          0.3913E+03
 ------------------------------------------------------------------------------
 Calculating analytic Hessian of the SCF energy
 Polarizability Matrix (a.u.)
            1           2           3
    1 -96.8759090 -13.6855507   9.7299815
    2 -13.6855507 -80.9849624   7.9191456
    3   9.7299815   7.9191456 -60.4245586
 
 Direct stationary perturbation theory relativistic correction:
 
 rels  =       0.069429598545
 relv  =      -0.333676554736
 rel2e =       0.151093772482
 E_rel =      -0.113153183710
 
 Hessian of the SCF Energy
            1           2           3           4           5           6
    1   0.8754767   0.0934348  -0.0211673  -0.3150476  -0.1922732   0.0513023
    2   0.0934348   0.5282615  -0.1044965  -0.1843437  -0.2624219   0.0530829
    3  -0.0211673  -0.1044965   0.1673495   0.0494652   0.0539982  -0.0723938
    4  -0.3150476  -0.1843437   0.0494652   0.5593877   0.1074560  -0.0259156
    5  -0.1922732  -0.2624219   0.0539982   0.1074560   0.7958287  -0.1828914
    6   0.0513023   0.0530829  -0.0723938  -0.0259156  -0.1828914   0.1767614
    7  -0.0516735  -0.0188473   0.0019107  -0.1470676   0.0402432  -0.0081965
    8  -0.0067006   0.0040576  -0.0008916   0.0505119  -0.0991210   0.0112685
    9   0.0016659  -0.0043930   0.0032788  -0.0221723   0.0129104  -0.0695280
   10  -0.0001048  -0.0066104   0.0011199  -0.0185450   0.0023392   0.0085147
   11   0.0034094  -0.0013531   0.0034588   0.0069844   0.0012258  -0.0131623
   12  -0.0046026   0.0003031  -0.0005292   0.0099172  -0.0057872   0.0054849
   13  -0.0566753   0.0620279  -0.0175066  -0.0137584   0.0096704  -0.0022067
   14   0.0436789  -0.0194952   0.0076527   0.0211262  -0.0516754   0.0151196
   15  -0.0118085   0.0093214   0.0051553  -0.0080686   0.0166338   0.0024909
   16  -0.1062514   0.0399891  -0.0109530   0.0195728   0.0141965  -0.0041412
   17   0.0209829  -0.1799761   0.0315301  -0.0208528  -0.0666188   0.0210776
   18  -0.0055124   0.0323513  -0.0721202   0.0050741   0.0214343   0.0064417
   19  -0.3459737   0.0307992  -0.0089819  -0.0099981   0.0068825  -0.0019312
   20   0.0265919  -0.0583316   0.0049269  -0.0199706   0.0093726  -0.0011176
   21  -0.0077131   0.0051997  -0.0414331   0.0049863  -0.0015358   0.0056087
   22   0.0101215  -0.0196196   0.0053187  -0.0581094   0.0305503  -0.0084691
   23   0.0084155  -0.0087054   0.0028386   0.0296070  -0.3308789   0.0832183
   24  -0.0024889   0.0021823   0.0010741  -0.0081780   0.0835706  -0.0511883
   25  -0.0029108  -0.0004879   0.0003742  -0.0134705  -0.0110164  -0.0182750
   26   0.0033514  -0.0032481  -0.0016979   0.0094946   0.0080703   0.0128877
   27  -0.0005711   0.0030652  -0.0003550  -0.0043094  -0.0013025  -0.0012803
   28  -0.0011620   0.0029116  -0.0001475  -0.0017038  -0.0025934   0.0051066
   29  -0.0015212   0.0011869  -0.0000708  -0.0004997  -0.0020687   0.0039061
   30   0.0009820  -0.0008810   0.0002087   0.0012050   0.0015202  -0.0029076
   31  -0.0054486  -0.0009515   0.0001852  -0.0016446  -0.0032056   0.0008722
   32  -0.0006279   0.0018067   0.0024517  -0.0021865  -0.0029736   0.0005173
   33  -0.0000780   0.0021574   0.0107281   0.0009269   0.0005255  -0.0008038
   34  -0.0008413   0.0022097   0.0000511  -0.0007821  -0.0025733   0.0045099
   35   0.0021475  -0.0018619   0.0003343   0.0035217   0.0018414  -0.0057015
   36  -0.0003781   0.0019546  -0.0011242  -0.0031336   0.0006893   0.0021972
   37   0.0004908  -0.0005118   0.0003315   0.0011667   0.0003238  -0.0011704
   38  -0.0008894   0.0000807  -0.0000347  -0.0008484  -0.0005804   0.0017948
   39   0.0003697   0.0001524   0.0001609   0.0002028   0.0002346  -0.0008830
            7           8           9          10          11          12
    1  -0.0516735  -0.0067006   0.0016659  -0.0001048   0.0034094  -0.0046026
    2  -0.0188473   0.0040576  -0.0043930  -0.0066104  -0.0013531   0.0003031
    3   0.0019107  -0.0008916   0.0032788   0.0011199   0.0034588  -0.0005292
    4  -0.1470676   0.0505119  -0.0221723  -0.0185450   0.0069844   0.0099172
    5   0.0402432  -0.0991210   0.0129104   0.0023392   0.0012258  -0.0057872
    6  -0.0081965   0.0112685  -0.0695280   0.0085147  -0.0131623   0.0054849
    7   0.4977595   0.0607267   0.0314614  -0.0559578  -0.0082568   0.0364483
    8   0.0607267   0.4234150   0.0113437  -0.0033881  -0.0543267  -0.0037252
    9   0.0314614   0.0113437   0.4451071   0.0761621   0.0189109  -0.1398527
   10  -0.0559578  -0.0033881   0.0761621   0.3404258   0.2292565  -0.1786241
   11  -0.0082568  -0.0543267   0.0189109   0.2292565   0.3011272  -0.0777488
   12   0.0364483  -0.0037252  -0.1398527  -0.1786241  -0.0777488   0.2506795
   13  -0.0707011  -0.0189503   0.0016872  -0.0080578  -0.0171491   0.0119030
   14  -0.0063461  -0.1697411   0.0176240  -0.0045093   0.0056148   0.0090206
   15   0.0028788   0.0202417  -0.0875529   0.0046546   0.0259806  -0.0084607
   16  -0.0471783  -0.0326551   0.0062858  -0.0036328  -0.0038472  -0.0038841
   17  -0.0195089  -0.0045533   0.0124576   0.0032829  -0.0078475  -0.0003399
   18   0.0057512   0.0092495   0.0273069  -0.0011201  -0.0049909  -0.0002538
   19  -0.0012314  -0.0010183   0.0004915  -0.0001122  -0.0001229  -0.0004182
   20  -0.0033431  -0.0019243   0.0038578   0.0002633   0.0006616  -0.0011173
   21   0.0004582   0.0035391   0.0096665  -0.0001425   0.0009698  -0.0006849
   22   0.0023166   0.0231622  -0.0046933   0.0016014   0.0005361  -0.0014267
   23  -0.0030184  -0.0029971   0.0002127  -0.0006332   0.0000271   0.0005318
   24   0.0010943   0.0011988  -0.0018656  -0.0007162  -0.0004856   0.0004925
   25  -0.0964053  -0.0523170  -0.0982547   0.0051982   0.0049338   0.0175372
   26  -0.0524012  -0.0846745  -0.0789585   0.0032328   0.0018060  -0.0011591
   27  -0.0986304  -0.0767204  -0.1811145   0.0006784  -0.0119485  -0.0285412
   28  -0.0143953   0.0076326  -0.0018870  -0.0403006   0.0262915  -0.0051753
   29  -0.0118682   0.0062139  -0.0029712   0.0808241  -0.0354449   0.0321313
   30   0.0113016  -0.0070240   0.0036412  -0.0141599   0.0176300  -0.0180448
   31   0.0093077  -0.0092281   0.0035690   0.0006617   0.0004847  -0.0010759
   32   0.0151749  -0.0078730   0.0039953   0.0005197  -0.0003824  -0.0008945
   33  -0.0034785   0.0027795   0.0028515  -0.0012224  -0.0019649   0.0011730
   34  -0.0285875  -0.0089814   0.0022549  -0.1900792  -0.2487671   0.1039906
   35   0.0162503  -0.0110427   0.0094913  -0.3057122  -0.2013591   0.0194838
   36   0.0153996   0.0305832  -0.0139646   0.1174979   0.0424707  -0.0576030
   37   0.0038139  -0.0087945   0.0034297  -0.0310970   0.0062466   0.0154107
   38  -0.0088051   0.0025673  -0.0044810   0.0011346  -0.0097489   0.0293014
   39   0.0036014  -0.0018427   0.0020262  -0.0126424   0.0008802  -0.0038597
           13          14          15          16          17          18
    1  -0.0566753   0.0436789  -0.0118085  -0.1062514   0.0209829  -0.0055124
    2   0.0620279  -0.0194952   0.0093214   0.0399891  -0.1799761   0.0323513
    3  -0.0175066   0.0076527   0.0051553  -0.0109530   0.0315301  -0.0721202
    4  -0.0137584   0.0211262  -0.0080686   0.0195728  -0.0208528   0.0050741
    5   0.0096704  -0.0516754   0.0166338   0.0141965  -0.0666188   0.0214343
    6  -0.0022067   0.0151196   0.0024909  -0.0041412   0.0210776   0.0064417
    7  -0.0707011  -0.0063461   0.0028788  -0.0471783  -0.0195089   0.0057512
    8  -0.0189503  -0.1697411   0.0202417  -0.0326551  -0.0045533   0.0092495
    9   0.0016872   0.0176240  -0.0875529   0.0062858   0.0124576   0.0273069
   10  -0.0080578  -0.0045093   0.0046546  -0.0036328   0.0032829  -0.0011201
   11  -0.0171491   0.0056148   0.0259806  -0.0038472  -0.0078475  -0.0049909
   12   0.0119030   0.0090206  -0.0084607  -0.0038841  -0.0003399  -0.0002538
   13   0.8408574  -0.1144310   0.0313154  -0.5346797  -0.0352439   0.0060044
   14  -0.1144310   0.5850747  -0.1122884  -0.0705211  -0.1055844   0.0111133
   15   0.0313154  -0.1122884   0.1935297   0.0177907   0.0106743  -0.0633937
   16  -0.5346797  -0.0705211   0.0177907   0.7046881   0.0306728  -0.0036590
   17  -0.0352439  -0.1055844   0.0106743   0.0306728   0.3620861  -0.0765516
   18   0.0060044   0.0111133  -0.0633937  -0.0036590  -0.0765516   0.0998896
   19  -0.0002102   0.0009713  -0.0002874  -0.0049057   0.0003500  -0.0000978
   20   0.0031411  -0.0058081   0.0022853   0.0290796  -0.0022352   0.0009281
   21  -0.0007557   0.0024081   0.0018073  -0.0080590   0.0010660   0.0005038
   22  -0.0067907   0.0013890  -0.0004781  -0.0013080  -0.0041690   0.0011070
   23  -0.0010075  -0.0001367   0.0002560  -0.0012800  -0.0014883   0.0026750
   24   0.0003062   0.0004071   0.0004891   0.0000601   0.0027896   0.0074662
   25  -0.0025601  -0.0004330  -0.0057420  -0.0026628   0.0010130  -0.0002617
   26  -0.0158485  -0.0084244  -0.0243836  -0.0034792  -0.0026745   0.0073532
   27   0.0019588   0.0011234   0.0070354   0.0034557  -0.0006134  -0.0026355
   28   0.0002745   0.0001033   0.0001465   0.0012671  -0.0006761   0.0003571
   29   0.0001847   0.0011458  -0.0010975   0.0002106   0.0002467   0.0003876
   30  -0.0001955  -0.0000090   0.0004025  -0.0004873  -0.0001750  -0.0003005
   31  -0.1463167   0.1239667  -0.0331267  -0.0237508   0.0268234  -0.0073865
   32   0.1290059  -0.2321130   0.0524580  -0.0016407   0.0085238  -0.0035247
   33  -0.0342052   0.0527652  -0.0497624  -0.0001875  -0.0033997  -0.0040514
   34  -0.0010237   0.0038534   0.0015928  -0.0004570  -0.0020811   0.0003456
   35  -0.0016991   0.0015668  -0.0002566  -0.0007432  -0.0003990  -0.0003564
   36   0.0018146  -0.0040704  -0.0018543   0.0032208   0.0013375   0.0013577
   37  -0.0003583   0.0011516   0.0011325  -0.0007015  -0.0005933  -0.0006018
   38   0.0002994  -0.0004238   0.0001750   0.0000179   0.0005205  -0.0000688
   39  -0.0001199  -0.0008662   0.0001137   0.0005582   0.0001468  -0.0002109
           19          20          21          22          23          24
    1  -0.3459737   0.0265919  -0.0077131   0.0101215   0.0084155  -0.0024889
    2   0.0307992  -0.0583316   0.0051997  -0.0196196  -0.0087054   0.0021823
    3  -0.0089819   0.0049269  -0.0414331   0.0053187   0.0028386   0.0010741
    4  -0.0099981  -0.0199706   0.0049863  -0.0581094   0.0296070  -0.0081780
    5   0.0068825   0.0093726  -0.0015358   0.0305503  -0.3308789   0.0835706
    6  -0.0019312  -0.0011176   0.0056087  -0.0084691   0.0832183  -0.0511883
    7  -0.0012314  -0.0033431   0.0004582   0.0023166  -0.0030184   0.0010943
    8  -0.0010183  -0.0019243   0.0035391   0.0231622  -0.0029971   0.0011988
    9   0.0004915   0.0038578   0.0096665  -0.0046933   0.0002127  -0.0018656
   10  -0.0001122   0.0002633  -0.0001425   0.0016014  -0.0006332  -0.0007162
   11  -0.0001229   0.0006616   0.0009698   0.0005361   0.0000271  -0.0004856
   12  -0.0004182  -0.0011173  -0.0006849  -0.0014267   0.0005318   0.0004925
   13  -0.0002102   0.0031411  -0.0007557  -0.0067907  -0.0010075   0.0003062
   14   0.0009713  -0.0058081   0.0024081   0.0013890  -0.0001367   0.0004071
   15  -0.0002874   0.0022853   0.0018073  -0.0004781   0.0002560   0.0004891
   16  -0.0049057   0.0290796  -0.0080590  -0.0013080  -0.0012800   0.0000601
   17   0.0003500  -0.0022352   0.0010660  -0.0041690  -0.0014883   0.0027896
   18  -0.0000978   0.0009281   0.0005038   0.0011070   0.0026750   0.0074662
   19   0.3632124  -0.0373394   0.0108430   0.0002017  -0.0004129   0.0001348
   20  -0.0373394   0.0580435  -0.0089873   0.0008431  -0.0000310  -0.0010124
   21   0.0108430  -0.0089873   0.0275234  -0.0001951  -0.0010367  -0.0035578
   22   0.0002017   0.0008431  -0.0001951   0.0506593  -0.0325554   0.0091726
   23  -0.0004129  -0.0000310  -0.0010367  -0.0325554   0.3440356  -0.0889794
   24   0.0001348  -0.0010124  -0.0035578   0.0091726  -0.0889794   0.0454367
   25  -0.0004032   0.0001168   0.0020488   0.0004879   0.0005658   0.0008078
   26   0.0000115  -0.0000839  -0.0015360  -0.0005736  -0.0000604  -0.0003056
   27   0.0000554  -0.0000964  -0.0000686  -0.0002712   0.0001624   0.0002909
   28  -0.0001314  -0.0005294  -0.0005415   0.0000303   0.0000943  -0.0002552
   29  -0.0001521  -0.0004485  -0.0004679  -0.0004511   0.0001970  -0.0000141
   30   0.0001044   0.0003327   0.0003138  -0.0000883  -0.0000987   0.0000231
   31  -0.0002528   0.0015646  -0.0004292   0.0010912  -0.0001032   0.0000659
   32  -0.0001208   0.0004087  -0.0000128   0.0011493   0.0000743   0.0004177
   33   0.0000027   0.0000653   0.0004994  -0.0003199   0.0003913   0.0013741
   34  -0.0002162  -0.0005322  -0.0006730  -0.0003191   0.0003077  -0.0000362
   35   0.0001810   0.0005439   0.0006225  -0.0002089  -0.0001045   0.0002587
   36   0.0000109  -0.0001467  -0.0002795   0.0002722  -0.0001561  -0.0000402
   37   0.0000206   0.0001142   0.0001728   0.0000173   0.0000202   0.0000328
   38  -0.0000291  -0.0001676  -0.0002287  -0.0000524   0.0000682  -0.0000275
   39   0.0000738   0.0000816   0.0001008   0.0000713  -0.0000151   0.0000051
           25          26          27          28          29          30
    1  -0.0029108   0.0033514  -0.0005711  -0.0011620  -0.0015212   0.0009820
    2  -0.0004879  -0.0032481   0.0030652   0.0029116   0.0011869  -0.0008810
    3   0.0003742  -0.0016979  -0.0003550  -0.0001475  -0.0000708   0.0002087
    4  -0.0134705   0.0094946  -0.0043094  -0.0017038  -0.0004997   0.0012050
    5  -0.0110164   0.0080703  -0.0013025  -0.0025934  -0.0020687   0.0015202
    6  -0.0182750   0.0128877  -0.0012803   0.0051066   0.0039061  -0.0029076
    7  -0.0964053  -0.0524012  -0.0986304  -0.0143953  -0.0118682   0.0113016
    8  -0.0523170  -0.0846745  -0.0767204   0.0076326   0.0062139  -0.0070240
    9  -0.0982547  -0.0789585  -0.1811145  -0.0018870  -0.0029712   0.0036412
   10   0.0051982   0.0032328   0.0006784  -0.0403006   0.0808241  -0.0141599
   11   0.0049338   0.0018060  -0.0119485   0.0262915  -0.0354449   0.0176300
   12   0.0175372  -0.0011591  -0.0285412  -0.0051753   0.0321313  -0.0180448
   13  -0.0025601  -0.0158485   0.0019588   0.0002745   0.0001847  -0.0001955
   14  -0.0004330  -0.0084244   0.0011234   0.0001033   0.0011458  -0.0000090
   15  -0.0057420  -0.0243836   0.0070354   0.0001465  -0.0010975   0.0004025
   16  -0.0026628  -0.0034792   0.0034557   0.0012671   0.0002106  -0.0004873
   17   0.0010130  -0.0026745  -0.0006134  -0.0006761   0.0002467  -0.0001750
   18  -0.0002617   0.0073532  -0.0026355   0.0003571   0.0003876  -0.0003005
   19  -0.0004032   0.0000115   0.0000554  -0.0001314  -0.0001521   0.0001044
   20   0.0001168  -0.0000839  -0.0000964  -0.0005294  -0.0004485   0.0003327
   21   0.0020488  -0.0015360  -0.0000686  -0.0005415  -0.0004679   0.0003138
   22   0.0004879  -0.0005736  -0.0002712   0.0000303  -0.0004511  -0.0000883
   23   0.0005658  -0.0000604   0.0001624   0.0000943   0.0001970  -0.0000987
   24   0.0008078  -0.0003056   0.0002909  -0.0002552  -0.0000141   0.0000231
   25   0.1109029   0.0563338   0.1020574   0.0000412   0.0003186  -0.0003691
   26   0.0563338   0.0880762   0.0850886  -0.0006372  -0.0009575  -0.0002923
   27   0.1020574   0.0850886   0.2032108  -0.0009529  -0.0012372  -0.0002942
   28   0.0000412  -0.0006372  -0.0009529   0.0979732  -0.0849928   0.0146977
   29   0.0003186  -0.0009575  -0.0012372  -0.0849928   0.0586257  -0.0472476
   30  -0.0003691  -0.0002923  -0.0002942   0.0146977  -0.0472476   0.0431338
   31   0.0000456   0.0007372  -0.0004899   0.0000387   0.0001438  -0.0000632
   32  -0.0002158   0.0001429  -0.0005440  -0.0002576  -0.0001608   0.0001792
   33   0.0006066   0.0021952  -0.0003060   0.0002339   0.0000687   0.0000114
   34   0.0012527  -0.0006896  -0.0034161  -0.0518943   0.0120563  -0.0070972
   35   0.0003187   0.0024903   0.0049012   0.0648921  -0.0244211   0.0268426
   36  -0.0002697   0.0007628   0.0031539  -0.0187073   0.0140157  -0.0209677
   37   0.0004843   0.0004682   0.0004352   0.0099625   0.0057469  -0.0058301
   38   0.0008695  -0.0004624  -0.0018782  -0.0122389  -0.0041146   0.0092229
   39  -0.0002598   0.0000456   0.0009041   0.0071250   0.0025968  -0.0052198
           31          32          33          34          35          36
    1  -0.0054486  -0.0006279  -0.0000780  -0.0008413   0.0021475  -0.0003781
    2  -0.0009515   0.0018067   0.0021574   0.0022097  -0.0018619   0.0019546
    3   0.0001852   0.0024517   0.0107281   0.0000511   0.0003343  -0.0011242
    4  -0.0016446  -0.0021865   0.0009269  -0.0007821   0.0035217  -0.0031336
    5  -0.0032056  -0.0029736   0.0005255  -0.0025733   0.0018414   0.0006893
    6   0.0008722   0.0005173  -0.0008038   0.0045099  -0.0057015   0.0021972
    7   0.0093077   0.0151749  -0.0034785  -0.0285875   0.0162503   0.0153996
    8  -0.0092281  -0.0078730   0.0027795  -0.0089814  -0.0110427   0.0305832
    9   0.0035690   0.0039953   0.0028515   0.0022549   0.0094913  -0.0139646
   10   0.0006617   0.0005197  -0.0012224  -0.1900792  -0.3057122   0.1174979
   11   0.0004847  -0.0003824  -0.0019649  -0.2487671  -0.2013591   0.0424707
   12  -0.0010759  -0.0008945   0.0011730   0.1039906   0.0194838  -0.0576030
   13  -0.1463167   0.1290059  -0.0342052  -0.0010237  -0.0016991   0.0018146
   14   0.1239667  -0.2321130   0.0527652   0.0038534   0.0015668  -0.0040704
   15  -0.0331267   0.0524580  -0.0497624   0.0015928  -0.0002566  -0.0018543
   16  -0.0237508  -0.0016407  -0.0001875  -0.0004570  -0.0007432   0.0032208
   17   0.0268234   0.0085238  -0.0033997  -0.0020811  -0.0003990   0.0013375
   18  -0.0073865  -0.0035247  -0.0040514   0.0003456  -0.0003564   0.0013577
   19  -0.0002528  -0.0001208   0.0000027  -0.0002162   0.0001810   0.0000109
   20   0.0015646   0.0004087   0.0000653  -0.0005322   0.0005439  -0.0001467
   21  -0.0004292  -0.0000128   0.0004994  -0.0006730   0.0006225  -0.0002795
   22   0.0010912   0.0011493  -0.0003199  -0.0003191  -0.0002089   0.0002722
   23  -0.0001032   0.0000743   0.0003913   0.0003077  -0.0001045  -0.0001561
   24   0.0000659   0.0004177   0.0013741  -0.0000362   0.0002587  -0.0000402
   25   0.0000456  -0.0002158   0.0006066   0.0012527   0.0003187  -0.0002697
   26   0.0007372   0.0001429   0.0021952  -0.0006896   0.0024903   0.0007628
   27  -0.0004899  -0.0005440  -0.0003060  -0.0034161   0.0049012   0.0031539
   28   0.0000387  -0.0002576   0.0002339  -0.0518943   0.0648921  -0.0187073
   29   0.0001438  -0.0001608   0.0000687   0.0120563  -0.0244211   0.0140157
   30  -0.0000632   0.0001792   0.0000114  -0.0070972   0.0268426  -0.0209677
   31   0.1663508  -0.1400985   0.0377104  -0.0000219  -0.0001487   0.0001393
   32  -0.1400985   0.2326582  -0.0555964  -0.0005178  -0.0001414   0.0005147
   33   0.0377104  -0.0555964   0.0383984  -0.0000652  -0.0000079  -0.0001678
   34  -0.0000219  -0.0005178  -0.0000652   0.3551977   0.2258436  -0.2329299
   35  -0.0001487  -0.0001414  -0.0000079   0.2258436   0.2530149  -0.0547635
   36   0.0001393   0.0005147  -0.0001678  -0.2329299  -0.0547635   0.3368353
   37  -0.0000603  -0.0001840   0.0000762  -0.0822282  -0.0046428   0.1170633
   38   0.0000153   0.0000297   0.0000209   0.0198717  -0.0201277  -0.0331919
   39   0.0000293   0.0000386   0.0000556   0.1314729  -0.0008486  -0.2475429
           37          38          39
    1   0.0004908  -0.0008894   0.0003697
    2  -0.0005118   0.0000807   0.0001524
    3   0.0003315  -0.0000347   0.0001609
    4   0.0011667  -0.0008484   0.0002028
    5   0.0003238  -0.0005804   0.0002346
    6  -0.0011704   0.0017948  -0.0008830
    7   0.0038139  -0.0088051   0.0036014
    8  -0.0087945   0.0025673  -0.0018427
    9   0.0034297  -0.0044810   0.0020262
   10  -0.0310970   0.0011346  -0.0126424
   11   0.0062466  -0.0097489   0.0008802
   12   0.0154107   0.0293014  -0.0038597
   13  -0.0003583   0.0002994  -0.0001199
   14   0.0011516  -0.0004238  -0.0008662
   15   0.0011325   0.0001750   0.0001137
   16  -0.0007015   0.0000179   0.0005582
   17  -0.0005933   0.0005205   0.0001468
   18  -0.0006018  -0.0000688  -0.0002109
   19   0.0000206  -0.0000291   0.0000738
   20   0.0001142  -0.0001676   0.0000816
   21   0.0001728  -0.0002287   0.0001008
   22   0.0000173  -0.0000524   0.0000713
   23   0.0000202   0.0000682  -0.0000151
   24   0.0000328  -0.0000275   0.0000051
   25   0.0004843   0.0008695  -0.0002598
   26   0.0004682  -0.0004624   0.0000456
   27   0.0004352  -0.0018782   0.0009041
   28   0.0099625  -0.0122389   0.0071250
   29   0.0057469  -0.0041146   0.0025968
   30  -0.0058301   0.0092229  -0.0052198
   31  -0.0000603   0.0000153   0.0000293
   32  -0.0001840   0.0000297   0.0000386
   33   0.0000762   0.0000209   0.0000556
   34  -0.0822282   0.0198717   0.1314729
   35  -0.0046428  -0.0201277  -0.0008486
   36   0.1170633  -0.0331919  -0.2475429
   37   0.0984892   0.0006549  -0.1304824
   38   0.0006549   0.0323590  -0.0006041
   39  -0.1304824  -0.0006041   0.2543497
 Gradient time:  CPU 510.68 s  wall 513.35 s
 **********************************************************************
 **                                                                  **
 **                       VIBRATIONAL ANALYSIS                       **
 **                       --------------------                       **
 **                                                                  **
 **        VIBRATIONAL FREQUENCIES (CM**-1) AND NORMAL MODES         **
 **     FORCE CONSTANTS (mDYN/ANGSTROM) AND REDUCED MASSES (AMU)     **
 **                  INFRARED INTENSITIES (KM/MOL)                   **
 **                                                                  **
 **********************************************************************
 

 Mode:                 1                      2                      3
 Frequency:      -935.87                  98.35                 131.77
 Force Cnst:      0.6731                 0.0240                 0.0463
 Red. Mass:       1.3044                 4.2112                 4.5268
 IR Active:          YES                    YES                    YES
 IR Intens:      104.257                  4.285                  1.766
 Raman Active:       YES                    YES                    YES
               X      Y      Z        X      Y      Z        X      Y      Z
 C          0.005 -0.001 -0.000   -0.061 -0.076  0.101   -0.046  0.039  0.175
 C          0.006 -0.001 -0.005   -0.157  0.006  0.017   -0.023 -0.075 -0.173
 C          0.019 -0.011  0.009   -0.081  0.123 -0.082   -0.037 -0.121 -0.239
 C         -0.108  0.032 -0.052   -0.121  0.158 -0.108    0.174 -0.017 -0.084
 C          0.001 -0.004  0.002    0.063  0.074 -0.080   -0.065 -0.073 -0.098
 N         -0.000  0.001 -0.001    0.075 -0.036  0.029   -0.072  0.044  0.231
 H          0.006  0.008  0.009   -0.075 -0.160  0.207   -0.043  0.122  0.397
 H          0.012  0.000 -0.000   -0.282  0.003  0.052    0.002 -0.098 -0.264
 H          0.013  0.010  0.008   -0.080  0.153 -0.096   -0.137 -0.134 -0.160
 H          0.503  0.749  0.333   -0.253 -0.483 -0.224    0.187  0.236  0.197
 H         -0.004 -0.007 -0.001    0.155  0.126 -0.156   -0.085 -0.096 -0.125
 C          0.047 -0.088  0.028    0.293 -0.199  0.128    0.062  0.170  0.125
 H         -0.171  0.101 -0.094    0.252 -0.170  0.104    0.278  0.280  0.240
 TransDip  -0.274 -0.052  0.171   -0.058 -0.014 -0.030    0.033  0.009 -0.026

 Mode:                 4                      5                      6
 Frequency:       265.27                 396.19                 485.81
 Force Cnst:      0.1058                 0.4070                 0.4349
 Red. Mass:       2.5511                 4.4009                 3.1276
 IR Active:          YES                    YES                    YES
 IR Intens:        7.044                 41.393                 15.481
 Raman Active:       YES                    YES                    YES
               X      Y      Z        X      Y      Z        X      Y      Z
 C         -0.054 -0.010  0.103   -0.046 -0.037 -0.047   -0.060 -0.059 -0.106
 C         -0.107  0.036  0.050    0.004 -0.077  0.002   -0.051  0.034  0.248
 C         -0.059  0.088 -0.009    0.019 -0.060  0.073   -0.003 -0.012 -0.091
 C          0.171 -0.093  0.137    0.067  0.318  0.135    0.113 -0.040 -0.207
 C          0.009  0.040 -0.098   -0.100 -0.116  0.006   -0.056  0.023  0.140
 N          0.020 -0.035 -0.079   -0.113 -0.018  0.105   -0.059 -0.029  0.013
 H         -0.062 -0.036  0.246   -0.037  0.000 -0.170   -0.059 -0.099 -0.277
 H         -0.177  0.065  0.185    0.033 -0.100 -0.092   -0.105  0.078  0.426
 H         -0.144  0.095  0.045   -0.147 -0.202  0.266    0.233 -0.073 -0.215
 H          0.181  0.284  0.525    0.083  0.029 -0.236    0.083  0.127  0.118
 H          0.068  0.041 -0.267   -0.166 -0.135  0.129   -0.074  0.089  0.441
 C          0.012 -0.021 -0.149    0.226  0.052 -0.241    0.086  0.070 -0.050
 H          0.184 -0.438 -0.043   -0.232 -0.308 -0.488    0.384  0.094  0.112
 TransDip  -0.005  0.003  0.085   -0.146 -0.145 -0.003    0.116  0.046 -0.018

 Mode:                 7                      8                      9
 Frequency:       572.83                 698.37                 744.57
 Force Cnst:      0.5642                 0.4316                 0.4728
 Red. Mass:       2.9184                 1.5020                 1.4475
 IR Active:          YES                    YES                    YES
 IR Intens:       12.747                 12.940                 41.557
 Raman Active:       YES                    YES                    YES
               X      Y      Z        X      Y      Z        X      Y      Z
 C          0.034 -0.035 -0.165   -0.056 -0.030 -0.033    0.022 -0.003 -0.086
 C          0.007  0.065  0.107   -0.069  0.011  0.018   -0.003  0.026 -0.045
 C         -0.034 -0.002 -0.022    0.041  0.026  0.048   -0.060 -0.070 -0.099
 C         -0.052 -0.004  0.047    0.091 -0.098  0.011   -0.008  0.016  0.068
 C          0.039 -0.023 -0.212   -0.008  0.050 -0.055    0.036 -0.010  0.011
 N          0.047  0.072  0.227   -0.004  0.026  0.052    0.040  0.029  0.024
 H          0.031 -0.182 -0.590   -0.062 -0.088 -0.105    0.016  0.065  0.340
 H          0.011  0.021 -0.055   -0.148  0.028  0.106    0.067  0.255  0.758
 H          0.080 -0.295  0.064   -0.003  0.024  0.075   -0.196 -0.038 -0.023
 H         -0.142  0.038  0.323    0.314 -0.056 -0.462    0.013 -0.027 -0.039
 H          0.088 -0.012 -0.311    0.000  0.005 -0.253    0.055  0.066  0.242
 C         -0.067 -0.027  0.014    0.034 -0.024  0.026   -0.009 -0.013  0.026
 H          0.162 -0.274  0.148   -0.448  0.500 -0.252   -0.258 -0.094 -0.112
 TransDip   0.033 -0.045 -0.100   -0.062  0.053 -0.082   -0.123 -0.022  0.164

 Mode:                10                     11                     12
 Frequency:       789.94                 839.86                 886.72
 Force Cnst:      0.5541                 2.4347                 0.9531
 Red. Mass:       1.5071                 5.8585                 2.0575
 IR Active:          YES                    YES                    YES
 IR Intens:       22.518                  1.582                 32.867
 Raman Active:       YES                    YES                    YES
               X      Y      Z        X      Y      Z        X      Y      Z
 C         -0.010  0.023  0.044   -0.321  0.031 -0.004   -0.037 -0.049 -0.017
 C         -0.044  0.074  0.081   -0.092 -0.235  0.047    0.066 -0.144  0.007
 C         -0.047 -0.078 -0.083    0.098 -0.187  0.064    0.086  0.054  0.053
 C          0.020 -0.010  0.052   -0.017  0.023 -0.020   -0.015 -0.003  0.003
 C          0.038  0.005 -0.038    0.173 -0.003  0.034   -0.044  0.134 -0.169
 N          0.048  0.019 -0.055    0.148  0.359 -0.097   -0.037  0.001  0.020
 H         -0.021 -0.098 -0.061   -0.354 -0.221 -0.020   -0.019  0.197  0.328
 H         -0.000 -0.100 -0.568    0.324 -0.173  0.107    0.022 -0.122  0.119
 H          0.003 -0.275 -0.004   -0.000  0.102 -0.028    0.009 -0.194  0.232
 H          0.066 -0.015 -0.063   -0.093  0.014  0.118   -0.011  0.003  0.009
 H          0.065  0.195  0.593   -0.183 -0.324 -0.148    0.017  0.402  0.623
 C          0.005 -0.008  0.030   -0.004  0.015 -0.018   -0.033 -0.029 -0.020
 H         -0.323 -0.047 -0.154    0.197 -0.154  0.097    0.223  0.144  0.125
 TransDip  -0.104 -0.095 -0.057   -0.039 -0.008 -0.004    0.103  0.108  0.107

 Mode:                13                     14                     15
 Frequency:       906.42                 958.36                 970.04
 Force Cnst:      0.9817                 0.7586                 0.9307
 Red. Mass:       2.0280                 1.4018                 1.6786
 IR Active:          YES                    YES                    YES
 IR Intens:       30.177                  8.425                 48.822
 Raman Active:       YES                    YES                    YES
               X      Y      Z        X      Y      Z        X      Y      Z
 C         -0.018 -0.026  0.014    0.006 -0.051 -0.143    0.037 -0.037  0.060
 C          0.100 -0.135  0.068   -0.021  0.031  0.073   -0.053  0.006 -0.063
 C          0.016  0.005 -0.128    0.048  0.025 -0.006    0.152  0.073 -0.014
 C          0.003  0.008  0.030   -0.001 -0.002  0.005   -0.006 -0.008  0.001
 C         -0.042  0.169  0.033   -0.004 -0.032  0.021   -0.023 -0.084 -0.044
 N         -0.041 -0.029 -0.009   -0.008  0.025  0.016   -0.028  0.062 -0.013
 H          0.009  0.118 -0.200    0.002  0.189  0.798    0.035 -0.122 -0.185
 H          0.162 -0.155 -0.004   -0.147 -0.108 -0.384   -0.513  0.036  0.219
 H          0.148  0.119 -0.268    0.149  0.075 -0.095    0.381  0.066 -0.164
 H         -0.062 -0.029  0.106   -0.021 -0.008  0.024   -0.075 -0.024  0.095
 H          0.061  0.149 -0.384   -0.085 -0.146 -0.163   -0.252 -0.167  0.334
 C          0.004  0.035  0.074   -0.003  0.010  0.017   -0.018  0.025  0.055
 H         -0.509 -0.450 -0.211   -0.072 -0.114 -0.020   -0.238 -0.349 -0.067
 TransDip  -0.126 -0.087 -0.087   -0.065 -0.053  0.041   -0.154 -0.148  0.067

 Mode:                16                     17                     18
 Frequency:      1019.06                1026.06                1066.60
 Force Cnst:      1.4714                 1.1998                 2.1647
 Red. Mass:       2.4048                 1.9342                 3.2295
 IR Active:          YES                    YES                    YES
 IR Intens:        4.201                  7.842                  3.726
 Raman Active:       YES                    YES                    YES
               X      Y      Z        X      Y      Z        X      Y      Z
 C          0.147 -0.116  0.032   -0.110  0.106 -0.035   -0.096  0.076 -0.013
 C          0.068 -0.084  0.105    0.029 -0.027  0.044   -0.040  0.022  0.017
 C         -0.081  0.069 -0.108   -0.005  0.118  0.005    0.191 -0.025 -0.206
 C          0.003  0.013  0.064    0.013 -0.027 -0.017   -0.029  0.105  0.224
 C         -0.025 -0.046 -0.004    0.048 -0.142 -0.076    0.010  0.010  0.056
 N         -0.038  0.159 -0.041    0.019 -0.086  0.049    0.006 -0.099  0.008
 H          0.170 -0.055 -0.129   -0.098  0.220 -0.094   -0.083  0.186 -0.172
 H         -0.156 -0.169 -0.068    0.395 -0.006 -0.036   -0.172  0.011  0.003
 H         -0.527  0.479 -0.033   -0.153  0.683 -0.205    0.285  0.038 -0.280
 H          0.079 -0.005 -0.075   -0.007 -0.021  0.031    0.100  0.009 -0.129
 H         -0.232 -0.177  0.089    0.013 -0.071  0.340    0.016 -0.036 -0.104
 C         -0.022 -0.060 -0.027    0.005  0.006  0.025   -0.089 -0.134 -0.050
 H          0.112  0.380  0.050   -0.177 -0.033 -0.079    0.403  0.527  0.243
 TransDip   0.055  0.003 -0.036   -0.040  0.079 -0.013   -0.004  0.038 -0.049

 Mode:                19                     20                     21
 Frequency:      1138.17                1195.86                1224.50
 Force Cnst:      0.9245                 1.3375                 1.3016
 Red. Mass:       1.2113                 1.5874                 1.4734
 IR Active:          YES                    YES                    YES
 IR Intens:        7.284                  0.876                  9.764
 Raman Active:       YES                    YES                    YES
               X      Y      Z        X      Y      Z        X      Y      Z
 C          0.002 -0.080  0.022    0.002 -0.007  0.004    0.045 -0.007 -0.000
 C          0.001  0.063 -0.020    0.028 -0.066 -0.027   -0.024  0.023  0.003
 C          0.034  0.019 -0.011   -0.176  0.064  0.040   -0.020 -0.155  0.080
 C         -0.002  0.011  0.028    0.018  0.010  0.050   -0.017  0.003  0.025
 C         -0.048  0.025 -0.021    0.014 -0.052 -0.004   -0.013  0.041 -0.061
 N         -0.030  0.003  0.002    0.008  0.047 -0.010   -0.023  0.006  0.010
 H         -0.073 -0.637  0.170    0.020  0.125  0.034    0.056  0.044 -0.021
 H          0.655  0.140 -0.022    0.047 -0.048  0.062   -0.166  0.002 -0.011
 H          0.167  0.110 -0.143    0.773 -0.207 -0.429    0.118  0.561 -0.399
 H          0.018  0.002 -0.028    0.033 -0.011  0.044    0.223  0.130 -0.388
 H         -0.159 -0.040  0.044    0.109  0.031  0.029    0.171  0.226  0.044
 C         -0.008 -0.009 -0.003    0.021 -0.019 -0.027    0.002  0.029 -0.005
 H          0.037  0.028  0.024   -0.008  0.281 -0.044    0.233 -0.261  0.125
 TransDip   0.017 -0.080  0.027   -0.006 -0.026  0.013   -0.059 -0.042  0.069

 Mode:                22                     23                     24
 Frequency:      1265.85                1300.25                1359.57
 Force Cnst:      1.1431                 1.3503                 1.8428
 Red. Mass:       1.2108                 1.3556                 1.6921
 IR Active:          YES                    YES                    YES
 IR Intens:       43.684                  1.692                  5.676
 Raman Active:       YES                    YES                    YES
               X      Y      Z        X      Y      Z        X      Y      Z
 C          0.021  0.011 -0.005   -0.038  0.053 -0.014    0.030 -0.128  0.034
 C         -0.007  0.020 -0.004    0.080 -0.019  0.009   -0.126  0.031 -0.009
 C          0.026 -0.099  0.043    0.026  0.040 -0.023    0.076  0.013 -0.011
 C          0.013  0.021 -0.013   -0.001 -0.001 -0.001   -0.002 -0.004 -0.005
 C         -0.014  0.029 -0.025   -0.011 -0.100  0.030    0.038 -0.066  0.020
 N         -0.013 -0.006  0.006   -0.060  0.041 -0.012   -0.087  0.066 -0.019
 H          0.007 -0.100  0.035   -0.116 -0.520  0.133    0.121  0.561 -0.151
 H         -0.143  0.006 -0.007   -0.243 -0.053  0.012    0.470  0.099 -0.020
 H         -0.007  0.283 -0.138   -0.059 -0.010  0.064   -0.002 -0.019  0.066
 H         -0.390 -0.201  0.625    0.030  0.014 -0.046   -0.061 -0.034  0.077
 H          0.073  0.110  0.006    0.662  0.380 -0.100    0.511  0.271 -0.069
 C          0.031 -0.019 -0.032   -0.009 -0.003  0.008    0.000  0.002  0.002
 H         -0.204  0.425 -0.165    0.001 -0.041  0.014   -0.026  0.020 -0.014
 TransDip   0.103  0.156 -0.100   -0.004 -0.040  0.012    0.076 -0.004  0.009

 Mode:                25                     26                     27
 Frequency:      1538.85                1582.97                1647.37
 Force Cnst:     11.7654                 9.7694                10.4302
 Red. Mass:       8.4327                 6.6172                 6.5232
 IR Active:          YES                    YES                    YES
 IR Intens:       40.161                  3.391                 26.181
 Raman Active:       YES                    YES                    YES
               X      Y      Z        X      Y      Z        X      Y      Z
 C         -0.013 -0.031  0.009   -0.256 -0.254  0.067    0.213  0.242 -0.064
 C          0.020  0.029 -0.014    0.327  0.231 -0.059   -0.221 -0.176  0.044
 C         -0.062 -0.031  0.096   -0.055 -0.033  0.000   -0.008  0.013 -0.009
 C          0.431  0.382 -0.232   -0.050 -0.039  0.031   -0.016 -0.021  0.015
 C          0.069  0.015 -0.000    0.353  0.061 -0.018    0.395  0.097 -0.021
 N         -0.058 -0.002  0.001   -0.244 -0.013  0.002   -0.344 -0.060  0.013
 H         -0.010  0.038  0.013   -0.267  0.207 -0.063    0.163 -0.506  0.144
 H         -0.026  0.029 -0.022   -0.433  0.209 -0.056    0.157 -0.187  0.053
 H          0.020  0.056 -0.003   -0.044  0.028 -0.029    0.066 -0.143  0.028
 H          0.246 -0.077  0.021   -0.036 -0.002  0.018    0.017  0.015 -0.025
 H         -0.007 -0.047 -0.002   -0.155 -0.325  0.095   -0.129 -0.322  0.081
 C         -0.369 -0.337  0.120    0.040  0.036 -0.018    0.015  0.011 -0.004
 H         -0.319 -0.301  0.237    0.041  0.043 -0.026    0.012  0.012 -0.009
 TransDip   0.190 -0.024 -0.066    0.058  0.011  0.003    0.155  0.047 -0.024

 Mode:                28                     29                     30
 Frequency:      2217.73                2979.98                3052.50
 Force Cnst:      3.0703                 5.6573                 5.9786
 Red. Mass:       1.0595                 1.0813                 1.0890
 IR Active:          YES                    YES                    YES
 IR Intens:        4.666                  9.961                 17.414
 Raman Active:       YES                    YES                    YES
               X      Y      Z        X      Y      Z        X      Y      Z
 C          0.000  0.001 -0.000    0.000  0.001 -0.000    0.000  0.000  0.000
 C         -0.000 -0.000 -0.000   -0.000  0.000 -0.000   -0.000 -0.000 -0.000
 C          0.002 -0.001  0.000   -0.042 -0.034 -0.061    0.000  0.000  0.001
 C         -0.047  0.017 -0.012    0.000 -0.001 -0.002   -0.004 -0.005 -0.000
 C         -0.000 -0.000  0.001    0.000 -0.001 -0.000   -0.000 -0.000 -0.000
 N          0.000 -0.001 -0.000    0.001 -0.000 -0.000    0.000  0.000 -0.000
 H          0.000  0.000  0.000    0.004 -0.001 -0.001   -0.001  0.000 -0.000
 H          0.001  0.000 -0.001   -0.002 -0.009  0.005    0.000 -0.000  0.000
 H         -0.004  0.001  0.004    0.494  0.409  0.762   -0.005 -0.004 -0.005
 H          0.718 -0.626  0.293   -0.001 -0.001 -0.003    0.004 -0.006  0.000
 H         -0.000 -0.000  0.001   -0.016  0.016 -0.002    0.002 -0.002  0.001
 C         -0.018  0.039 -0.014    0.000  0.001 -0.000    0.045  0.005 -0.073
 H          0.029 -0.031  0.002   -0.002 -0.002  0.009   -0.488  0.007  0.868
 TransDip  -0.020 -0.050  0.044    0.017  0.014 -0.099    0.088  0.054 -0.085

 Mode:                31                     32                     33
 Frequency:      3186.69                3231.39                3261.01
 Force Cnst:      6.5440                 6.7033                 6.9194
 Red. Mass:       1.0937                 1.0896                 1.1044
 IR Active:          YES                    YES                    YES
 IR Intens:        7.700                  5.239                  3.971
 Raman Active:       YES                    YES                    YES
               X      Y      Z        X      Y      Z        X      Y      Z
 C          0.001  0.001 -0.000   -0.079  0.008 -0.002    0.042  0.001 -0.000
 C         -0.001 -0.001  0.000    0.007 -0.032  0.009    0.003 -0.081  0.022
 C          0.002  0.003  0.001   -0.000  0.000 -0.000   -0.002  0.000 -0.001
 C          0.000 -0.000 -0.000   -0.000 -0.000  0.000   -0.000 -0.000  0.000
 C          0.054 -0.067  0.018    0.002 -0.001  0.000   -0.002  0.003 -0.001
 N         -0.002 -0.001  0.000   -0.000 -0.000  0.000   -0.001  0.001 -0.000
 H         -0.023  0.002 -0.001    0.896 -0.108  0.031   -0.411  0.045 -0.013
 H         -0.002  0.016 -0.004   -0.047  0.403 -0.111   -0.093  0.868 -0.239
 H         -0.011 -0.012 -0.014    0.001 -0.001  0.001    0.007  0.003  0.007
 H         -0.001 -0.001  0.001    0.001  0.001 -0.000    0.001  0.001 -0.001
 H         -0.598  0.769 -0.205   -0.008  0.010 -0.003    0.013 -0.017  0.005
 C         -0.000 -0.000  0.000    0.000 -0.000 -0.000    0.000 -0.000 -0.000
 H         -0.002  0.000  0.002   -0.000  0.000  0.001    0.000  0.000 -0.000
 TransDip   0.057 -0.063  0.026   -0.063  0.036 -0.011    0.058 -0.026 -0.001

 STANDARD THERMODYNAMIC QUANTITIES AT   298.15 K  AND     1.00 ATM

   This Molecule has  1 Imaginary Frequencies
   Zero point vibrational energy:       60.098 kcal/mol

   Atom    1 Element C  Has Mass   12.00000
   Atom    2 Element C  Has Mass   12.00000
   Atom    3 Element C  Has Mass   12.00000
   Atom    4 Element C  Has Mass   12.00000
   Atom    5 Element C  Has Mass   12.00000
   Atom    6 Element N  Has Mass   14.00307
   Atom    7 Element H  Has Mass    1.00783
   Atom    8 Element H  Has Mass    1.00783
   Atom    9 Element H  Has Mass    1.00783
   Atom   10 Element H  Has Mass    1.00783
   Atom   11 Element H  Has Mass    1.00783
   Atom   12 Element C  Has Mass   12.00000
   Atom   13 Element H  Has Mass    1.00783
   Molecular Mass:    92.050050 amu
   Principal axes and moments of inertia in amu*Bohr^2:
                             1           2           3
    Eigenvalues --      243.25096   902.81503  1076.27002
          X               0.83054    -0.48849     0.26757
          Y               0.37816     0.84727     0.37300
          Z              -0.40891    -0.20861     0.88841
   Rotational Symmetry Number is   1
   The Molecule is an Asymmetric Top
   Translational Enthalpy:        0.889 kcal/mol
   Rotational Enthalpy:           0.889 kcal/mol
   Vibrational Enthalpy:         62.198 kcal/mol
   gas constant (RT):             0.592 kcal/mol
   Translational Entropy:        39.471  cal/mol.K
   Rotational Entropy:           26.960  cal/mol.K
   Vibrational Entropy:          12.142  cal/mol.K

   Total Enthalpy:               64.568 kcal/mol
   Total Entropy:                78.573  cal/mol.K
Archival summary:
1\1\c8-89\FREQ\ProcedureUnspecified\6-31+G**\166(2)\hpark21\ThuMar307:19:012022ThuMar307:19:012022\0\\#,FREQ,ProcedureUnspecified,6-31+G**,\\0,2\C\H,1,1.10472\C,1,1.51219,2,110.532\H,3,1.08203,1,124.444,2,-64.8357,0\C,3,1.3441,1,107.076,2,114.859,0\H,5,1.08389,3,128.233,1,-178.86,0\N,5,1.42767,3,113.219,1,0.480173,0\C,7,1.28732,5,106,3,0.254639,0\H,8,1.08797,7,121.847,5,179.406,0\C,1,1.51432,2,111.097,3,-123.127,0\H,10,1.2861,1,112.991,2,-41.1526,0\C,11,1.31155,10,62.4093,1,120.081,0\H,12,1.0988,11,101.165,10,118.314,0\\\@

 Total job time:  521.34s(wall), 516.91s(cpu) 
 Thu Mar  3 07:19:01 2022

        *************************************************************
        *                                                           *
        *  Thank you very much for using Q-Chem.  Have a nice day.  *
        *                                                           *
        *************************************************************


