
Running Job 1 of 1 qcts2.in
qchem qcts2.in_78215.0 ./qcts2.d/ 1
/home/leeping/opt/qchem/5.0.2-openmp/exe/qcprog.exe_s qcts2.in_78215.0 ./qcts2.d/
Check license passed

                  Welcome to Q-Chem
     A Quantum Leap Into The Future Of Chemistry


 Q-Chem 5.0, Q-Chem, Inc., Pleasanton, CA (2017)

 Yihan Shao,  Zhengting Gan,  E. Epifanovsky,  A. T. B. Gilbert,  M. Wormit,  
 J. Kussmann,  A. W. Lange,  A. Behn,  Jia Deng,  Xintian Feng,  D. Ghosh,  
 M. Goldey,  P. R. Horn,  L. D. Jacobson,  I. Kaliman,  T. Kus,  A. Landau,  
 Jie Liu,  E. I. Proynov,  R. M. Richard,  R. P. Steele,  E. J. Sundstrom,  
 H. L. Woodcock III,  P. M. Zimmerman,  D. Zuev,  B. Albrecht,  E. Alguire,  
 S. A. Baeppler,  D. Barton,  Z. Benda,  Y. A. Bernard,  E. J. Berquist,  
 K. B. Bravaya,  H. Burton,  D. Casanova,  Chun-Min Chang,  Yunqing Chen,  
 A. Chien,  K. D. Closser,  M. P. Coons,  S. Dasgupta,  A. L. Dempwolff,  
 M. Diedenhofen,  Hainam Do,  R. G. Edgar,  Po-Tung Fang,  S. Fatehi,  
 Qingguo Feng,  J. Fosso-Tande,  Qinghui Ge,  A. Ghysels,  G. Gidofalvi,  
 J. Gomes,  J. Gonthier,  A. Gunina,  M. W. D. Hanson-Heine,  
 P. H. P. Harbach,  A. W. Hauser,  J. E. Herr,  E. G. Hohenstein,  
 Z. C. Holden,  Kerwin Hui,  T.-C. Jagau,  Hyunjun Ji,  B. Kaduk,  
 K. Khistyaev,  Jaehoon Kim,  P. Klunzinger,  K. Koh,  D. Kosenkov,  
 L. Koulias,  T. Kowalczyk,  C. M. Krauter,  A. Kunitsa,  Ka Un Lao,  
 A. Laurent,  K. V. Lawler,  Joonho Lee,  D. Lefrancois,  S. Lehtola,  
 D. S. Levine,  Yi-Pei Li,  You-Sheng Lin,  Fenglai Liu,  E. Livshits,  
 A. Luenser,  P. Manohar,  E. Mansoor,  S. F. Manzer,  Shan-Ping Mao,  
 Yuezhi Mao,  N. Mardirossian,  A. V. Marenich,  T. Markovich,  
 L. A. Martinez-Martinez,  S. A. Maurer,  N. J. Mayhall,  S. C. McKenzie,  
 J.-M. Mewes,  A. F. Morrison,  J. W. Mullinax,  K. Nanda,  
 T. S. Nguyen-Beck,  R. Olivares-Amaya,  J. A. Parkhill,  T. M. Perrine,  
 F. Plasser,  S. Prager,  A. Prociuk,  E. Ramos,  D. R. Rehn,  F. Rob,  
 M. Schneider,  N. Sergueev,  S. M. Sharada,  S. Sharma,  D. W. Small,  
 T. Stauch,  T. Stein,  Yu-Chuan Su,  A. J. W. Thom,  A. Tkatchenko,  
 T. Tsuchimochi,  L. Vogt,  O. Vydrov,  M. A. Watson,  J. Wenzel,  
 M. de Wergifosse,  T. A. Wesolowski,  A. White,  J. Witte,  A. Yamada,  
 Jun Yang,  K. Yao,  S. Yeganeh,  S. R. Yost,  Zhi-Qiang You,  A. Zech,  
 Igor Ying Zhang,  Xing Zhang,  Yan Zhao,  Ying Zhu,  B. R. Brooks,  
 G. K. L. Chan,  C. J. Cramer,  M. S. Gordon,  W. J. Hehre,  A. Klamt,  
 M. W. Schmidt,  C. D. Sherrill,  D. G. Truhlar,  A. Aspuru-Guzik,  R. Baer,  
 A. T. Bell,  N. A. Besley,  Jeng-Da Chai,  R. A. DiStasio Jr.,  A. Dreuw,  
 B. D. Dunietz,  T. R. Furlani,  Chao-Ping Hsu,  Yousung Jung,  Jing Kong,  
 D. S. Lambrecht,  WanZhen Liang,  C. Ochsenfeld,  V. A. Rassolov,  
 L. V. Slipchenko,  J. E. Subotnik,  T. Van Voorhis,  J. M. Herbert,  
 A. I. Krylov,  P. M. W. Gill,  M. Head-Gordon

 Contributors to earlier versions of Q-Chem not listed above: 
 R. D. Adamson,  B. Austin,  J. Baker,  G. J. O. Beran,  K. Brandhorst,  
 S. T. Brown,  E. F. C. Byrd,  A. K. Chakraborty,  C.-L. Cheng,  
 Siu Hung Chien,  D. M. Chipman,  D. L. Crittenden,  H. Dachsel,  
 R. J. Doerksen,  A. D. Dutoi,  L. Fusti-Molnar,  W. A. Goddard III,  
 A. Golubeva-Zadorozhnaya,  S. R. Gwaltney,  G. Hawkins,  A. Heyden,  
 S. Hirata,  G. Kedziora,  F. J. Keil,  C. Kelley,  Jihan Kim,  R. A. King,  
 R. Z. Khaliullin,  P. P. Korambath,  W. Kurlancheek,  A. M. Lee,  M. S. Lee,  
 S. V. Levchenko,  Ching Yeh Lin,  D. Liotard,  R. C. Lochan,  I. Lotan,  
 P. E. Maslen,  N. Nair,  D. P. O'Neill,  D. Neuhauser,  E. Neuscamman,  
 C. M. Oana,  R. Olson,  B. Peters,  R. Peverati,  P. A. Pieniazek,  
 Y. M. Rhee,  J. Ritchie,  M. A. Rohrdanz,  E. Rosta,  N. J. Russ,  
 H. F. Schaefer III,  N. E. Schultz,  N. Shenvi,  A. C. Simmonett,  A. Sodt,  
 D. Stuck,  K. S. Thanthiriwatte,  V. Vanovschi,  Tao Wang,  A. Warshel,  
 C. F. Williams,  Q. Wu,  X. Xu,  W. Zhang

 Please cite Q-Chem as follows:
 Y. Shao et al., Mol. Phys. 113, 184-215 (2015)
 DOI: 10.1080/00268976.2014.952696

 Q-Chem 5.0.2 for Intel X86 EM64T Linux

 Parts of Q-Chem use Armadillo 5.200.1 (Boston Tea Smuggler).
 http://arma.sourceforge.net/

 Q-Chem begins on Thu Mar  3 07:24:48 2022  

Host: 
0

     Scratch files written to ./qcts2.d//
 Dec517 15110_ 26548  26544 5633   
Processing $rem in /home/leeping/opt/qchem/5.0.2-openmp/config/preferences.
 MEM_STATIC 2000
 MEM_TOTAL  8000
 SYMMETRY   OFF
 SYM_IGNORE TRUE 

Checking the input file for inconsistencies... 	...done.

--------------------------------------------------------------
User input:
--------------------------------------------------------------
$molecule
0 2
C        2.0576312224    0.1537996266   -0.4196453412
C        1.0948059915   -0.7517514498   -0.1642955122
C       -0.2325411141   -0.0585007043   -0.3763933447
C       -1.0917457650   -0.1329045260    0.8641097506
C        0.2558146571    1.3294704712   -0.7377299563
N        1.5393921962    1.4348978743   -0.7765628750
H        3.1313966052    0.0158844098   -0.3922778985
H        1.2075625536   -1.7876564413    0.1255515569
H       -0.7577598552   -0.5024000024   -1.2415523619
H       -2.3367149418    0.1110515697    0.6436705906
H       -0.3974965784    2.1696810081   -0.9589864425
C       -2.0266083599   -1.0509199110    1.1594929901
H       -2.5664450319   -1.0149947903    2.1130289312
$end

$rem
method                b3lyp
basis                 6-31+g(d,p)
unrestricted          true
symmetry              off
sym_ignore            true
incdft                false
incfock               0
scf_convergence       8
thresh                14
jobtype               freq
scf_guess             read
scf_algorithm         diis
max_scf_cycles        100
$end

--------------------------------------------------------------
 ----------------------------------------------------------------
             Standard Nuclear Orientation (Angstroms)
    I     Atom           X                Y                Z
 ----------------------------------------------------------------
    1      C       2.0576312224     0.1537996266    -0.4196453412
    2      C       1.0948059915    -0.7517514498    -0.1642955122
    3      C      -0.2325411141    -0.0585007043    -0.3763933447
    4      C      -1.0917457650    -0.1329045260     0.8641097506
    5      C       0.2558146571     1.3294704712    -0.7377299563
    6      N       1.5393921962     1.4348978743    -0.7765628750
    7      H       3.1313966052     0.0158844098    -0.3922778985
    8      H       1.2075625536    -1.7876564413     0.1255515569
    9      H      -0.7577598552    -0.5024000024    -1.2415523619
   10      H      -2.3367149418     0.1110515697     0.6436705906
   11      H      -0.3974965784     2.1696810081    -0.9589864425
   12      C      -2.0266083599    -1.0509199110     1.1594929901
   13      H      -2.5664450319    -1.0149947903     2.1130289312
 ----------------------------------------------------------------
 Nuclear Repulsion Energy =   256.8277071104 hartrees
 There are       25 alpha and       24 beta electrons
 Requested basis set is 6-31+G(d,p)
 There are 53 shells and 163 basis functions

 Total QAlloc Memory Limit   8000 MB
 Mega-Array Size      1956 MB
 MEM_STATIC part      2000 MB

                       Distance Matrix (Angstroms)
             C (  1)   C (  2)   C (  3)   C (  4)   C (  5)   N (  6)
   C (  2)  1.346202
   C (  3)  2.300398  1.512426
   C (  4)  3.413034  2.494313  1.510833
   C (  5)  2.174839  2.316078  1.515097  2.553498
   N (  6)  1.427296  2.313863  2.351621  3.474579  1.288485
   H (  7)  1.082932  2.188365  3.364798  4.408580  3.180223  2.166968
   H (  8)  2.188403  1.081584  2.305608  2.927540  3.371581  3.362853
   H (  9)  3.005421  2.157466  1.105170  2.163767  2.153351  3.040764
   H ( 10)  4.521366  3.629404  2.344531  1.287655  3.180255  4.335186
   H ( 11)  3.222161  3.375392  2.308987  3.017874  1.087071  2.079597
   C ( 12)  4.541590  3.403696  2.561742  1.343120  3.804625  4.758567
   H ( 13)  5.400241  4.319753  3.543898  2.124293  4.646342  5.586557
             H (  7)   H (  8)   H (  9)   H ( 10)   H ( 11)   C ( 12)
   H (  8)  2.687386
   H (  9)  4.014402  2.717232
   H ( 10)  5.566192  4.054065  2.534460
   H ( 11)  4.172899  4.406014  2.711024  3.250697
   C ( 12)  5.491000  3.474432  2.770536  1.308593  4.185001
   H ( 13)  6.309095  4.334767  3.845427  1.865414  4.927857  1.096333

 
 A cutoff of  1.0D-14 yielded   1358 shell pairs
 There are     13269 function pairs
 Smallest overlap matrix eigenvalue = 1.70E-05
 Guess MOs from SCF MO coefficient file
 Reading MOs from coefficient file
 Reading MOs from coefficient file
 An unrestricted hybrid HF-DFT SCF calculation will be
 performed using Pulay DIIS extrapolation
 Exchange:     0.2000 Hartree-Fock + 0.0800 Slater + 0.7200 B88
 Correlation:  0.1900 VWN1RPA + 0.8100 LYP
 Using SG-1 standard quadrature grid
 SCF converges when DIIS error is below 1.0E-08
Using Q-Chem read-in guess as SCF_GUESS READ specified.

 -------------------------------------------------------
 OpenMP BLAS3 based DFT computing Module                
 -------------------------------------------------------
 ---------------------------------------
  Cycle       Energy         DIIS Error
 ---------------------------------------
    1    -286.7922229913      3.47E-10
    2    -286.7922229913      6.16E-10 Convergence criterion met
 ---------------------------------------
 <S^2> = 0.7558
 SCF time:  CPU 6.15 s  wall 7.70 s
 SCF   energy in the final basis set = -286.79222299
 Total energy in the final basis set = -286.79222299
 
 --------------------------------------------------------------
 
                    Orbital Energies (a.u.)
 --------------------------------------------------------------
 
 Alpha MOs
 -- Occupied --
-14.350 -10.255 -10.245 -10.239 -10.237 -10.229 -10.213  -0.968
 -0.861  -0.781  -0.739  -0.610  -0.569  -0.554  -0.516  -0.491
 -0.436  -0.427  -0.406  -0.383  -0.371  -0.342  -0.283  -0.260
 -0.193
 -- Virtual --
 -0.060  -0.043  -0.003   0.016   0.022   0.032   0.035   0.043
  0.046   0.057   0.067   0.073   0.085   0.090   0.101   0.109
  0.114   0.117   0.133   0.138   0.149   0.157   0.176   0.183
  0.185   0.193   0.200   0.203   0.216   0.222   0.233   0.238
  0.250   0.253   0.265   0.280   0.300   0.306   0.330   0.360
  0.389   0.397   0.446   0.455   0.599   0.634   0.645   0.658
  0.684   0.687   0.704   0.728   0.730   0.737   0.744   0.755
  0.818   0.845   0.853   0.862   0.878   0.906   0.933   0.967
  0.986   1.000   1.024   1.034   1.055   1.083   1.105   1.138
  1.193   1.209   1.218   1.301   1.330   1.353   1.418   1.427
  1.460   1.483   1.505   1.582   1.644   1.671   1.736   1.743
  1.814   1.846   1.867   1.881   1.940   1.951   1.989   2.017
  2.060   2.113   2.143   2.202   2.239   2.255   2.268   2.336
  2.366   2.395   2.407   2.459   2.500   2.509   2.521   2.562
  2.580   2.600   2.617   2.671   2.691   2.711   2.728   2.797
  2.871   2.902   2.955   3.025   3.043   3.128   3.270   3.369
  3.408   3.468   3.672   4.128   4.323   4.325   4.345   4.491
  4.562   4.739
 
 Beta MOs
 -- Occupied --
-14.350 -10.248 -10.244 -10.236 -10.233 -10.229 -10.213  -0.968
 -0.849  -0.779  -0.737  -0.605  -0.569  -0.547  -0.510  -0.482
 -0.433  -0.423  -0.403  -0.381  -0.365  -0.302  -0.278  -0.259
 -- Virtual --
 -0.087  -0.058  -0.032   0.003   0.017   0.023   0.032   0.036
  0.044   0.047   0.058   0.069   0.074   0.086   0.091   0.103
  0.111   0.115   0.117   0.133   0.138   0.149   0.160   0.178
  0.184   0.187   0.193   0.204   0.206   0.218   0.224   0.233
  0.241   0.251   0.256   0.266   0.281   0.300   0.308   0.339
  0.367   0.390   0.406   0.449   0.455   0.603   0.639   0.650
  0.664   0.688   0.694   0.707   0.732   0.738   0.743   0.753
  0.767   0.820   0.853   0.859   0.865   0.878   0.910   0.936
  0.970   0.994   1.002   1.028   1.035   1.059   1.088   1.109
  1.140   1.196   1.210   1.225   1.306   1.331   1.356   1.419
  1.438   1.460   1.486   1.511   1.602   1.651   1.682   1.746
  1.752   1.817   1.852   1.877   1.889   1.943   1.954   1.993
  2.020   2.062   2.114   2.151   2.220   2.243   2.257   2.274
  2.343   2.368   2.405   2.412   2.462   2.502   2.510   2.525
  2.568   2.582   2.601   2.620   2.675   2.693   2.714   2.732
  2.809   2.884   2.905   2.968   3.030   3.045   3.129   3.270
  3.374   3.420   3.469   3.672   4.128   4.326   4.336   4.359
  4.497   4.563   4.741
 --------------------------------------------------------------
 
          Ground-State Mulliken Net Atomic Charges

     Atom                 Charge (a.u.)    Spin (a.u.)
  --------------------------------------------------------
      1 C                    -0.124979      -0.026853
      2 C                    -0.059513      -0.004263
      3 C                     0.023558      -0.130655
      4 C                    -0.114107       0.565889
      5 C                     0.018872      -0.114529
      6 N                    -0.198455       0.010518
      7 H                     0.136793      -0.000066
      8 H                     0.148178      -0.000319
      9 H                     0.190973       0.029136
     10 H                     0.154160      -0.002380
     11 H                     0.139769      -0.000059
     12 C                    -0.483730       0.631998
     13 H                     0.168480       0.041582
  --------------------------------------------------------
  Sum of atomic charges =    -0.000000
  Sum of spin   charges =     1.000000

 -----------------------------------------------------------------
                    Cartesian Multipole Moments
 -----------------------------------------------------------------
    Charge (ESU x 10^10)
                 0.0000
    Dipole Moment (Debye)
         X      -1.6263      Y      -0.9570      Z       0.0823
       Tot       1.8888
    Quadrupole Moments (Debye-Ang)
        XX     -40.2581     XY      -7.4781     YY     -46.8387
        XZ       0.4171     YZ      -0.2409     ZZ     -43.4155
    Octopole Moments (Debye-Ang^2)
       XXX     -16.7342    XXY      -6.5825    XYY      -9.9941
       YYY     -15.1285    XXZ      10.7005    XYZ       5.8484
       YYZ       3.9387    XZZ     -16.0667    YZZ      -9.2567
       ZZZ       8.1922
    Hexadecapole Moments (Debye-Ang^3)
      XXXX    -545.3858   XXXY    -106.4637   XXYY    -178.0057
      XYYY    -114.8564   YYYY    -294.1297   XXXZ      90.1338
      XXYZ      23.6811   XYYZ      49.2218   YYYZ      65.8624
      XXZZ    -124.0755   XYZZ     -20.9181   YYZZ     -83.1357
      XZZZ     101.9528   YZZZ      57.7502   ZZZZ    -202.1184
 -----------------------------------------------------------------
 Calculating MO derivatives via CPSCF
   1         3          39      0.306621    0.063362
   2         3          39      0.038320    0.008727
   3         3          39      0.004790    0.001228
   4         3          39      0.000536    0.000145
   5        30          12      0.000040    0.000012
   6        41           1      0.000001    0.000001
   7        42           0      0.000000    0.000000    Roots Converged
 Time for AOints: 19.3 s (CPU) 19.6 s (wall)
 ------------------------------------------------------------------------------
                     AOints        : Timing summary (seconds)
 ------------------------------------------------------------------------------
     job step          cpu (% of tot)      sys (% of tot)     wall (% of tot)
 ------------------------------------------------------------------------------
  cpscf_lag         0.1109E+03 (28.3)   0.3800E-04 (33.9)   0.1111E+03 (28.2)
  iterzp            0.2608E+03 (66.6)   0.7200E-04 (64.3)   0.2632E+03 (66.8)
  make_fx           0.0000E+00 ( 0.0)   0.0000E+00 ( 0.0)   0.0000E+00 ( 0.0)
  AOints            0.1929E+02 ( 4.9)   0.1000E-05 ( 0.9)   0.1962E+02 ( 5.0)
 ------------------------------------------------------------------------------
   Grand Totals     0.3913E+03          0.1120E-03          0.3942E+03
 ------------------------------------------------------------------------------
 Calculating analytic Hessian of the SCF energy
 Polarizability Matrix (a.u.)
            1           2           3
    1 -96.7104885 -13.5648493   9.9734769
    2 -13.5648493 -81.4438111   8.1831003
    3   9.9734769   8.1831003 -60.5925859
 
 Direct stationary perturbation theory relativistic correction:
 
 rels  =       0.069430053530
 relv  =      -0.333613774870
 rel2e =       0.151037430398
 E_rel =      -0.113146290941
 
 Hessian of the SCF Energy
            1           2           3           4           5           6
    1   0.8749530   0.0862811  -0.0293175  -0.3131082  -0.1874093   0.0550875
    2   0.0862811   0.5222860  -0.1068449  -0.1792375  -0.2563992   0.0555856
    3  -0.0293175  -0.1068449   0.1693192   0.0531184   0.0563104  -0.0747958
    4  -0.3131082  -0.1792375   0.0531184   0.5563997   0.1027880  -0.0303738
    5  -0.1874093  -0.2563992   0.0563104   0.1027880   0.7899755  -0.1878697
    6   0.0550875   0.0555856  -0.0747958  -0.0303738  -0.1878697   0.1798944
    7  -0.0518601  -0.0188073   0.0023354  -0.1461499   0.0404787  -0.0075379
    8  -0.0064023   0.0036618  -0.0006485   0.0508653  -0.0993179   0.0117427
    9   0.0021266  -0.0054565   0.0034390  -0.0210632   0.0136169  -0.0692218
   10   0.0002138  -0.0061493   0.0010453  -0.0189298   0.0021674   0.0082375
   11   0.0034719  -0.0010633   0.0033874   0.0064615   0.0013300  -0.0129974
   12  -0.0046132   0.0003535  -0.0004679   0.0096712  -0.0061040   0.0050796
   13  -0.0560161   0.0616804  -0.0170470  -0.0136244   0.0094516  -0.0018865
   14   0.0434983  -0.0196405   0.0070901   0.0208832  -0.0511765   0.0147844
   15  -0.0112990   0.0091702   0.0051067  -0.0082569   0.0171931   0.0023948
   16  -0.1064702   0.0399608  -0.0105984   0.0196687   0.0140099  -0.0041158
   17   0.0211279  -0.1799262   0.0321043  -0.0211807  -0.0667005   0.0215732
   18  -0.0050757   0.0327587  -0.0722537   0.0051836   0.0218295   0.0062173
   19  -0.3479956   0.0328991  -0.0059761  -0.0099653   0.0069168  -0.0018396
   20   0.0286701  -0.0583839   0.0049106  -0.0197943   0.0094062  -0.0009457
   21  -0.0047740   0.0050520  -0.0408425   0.0052945  -0.0016867   0.0055788
   22   0.0101377  -0.0196246   0.0053440  -0.0579320   0.0304320  -0.0083886
   23   0.0083139  -0.0085719   0.0027241   0.0294928  -0.3312403   0.0848933
   24  -0.0026045   0.0026096   0.0009979  -0.0080323   0.0849615  -0.0517563
   25  -0.0028412  -0.0007062   0.0004705  -0.0135363  -0.0107429  -0.0184119
   26   0.0032542  -0.0032289  -0.0017722   0.0096093   0.0078776   0.0129260
   27  -0.0005733   0.0032332  -0.0003761  -0.0045564  -0.0013158  -0.0013541
   28  -0.0012112   0.0028532  -0.0001519  -0.0015823  -0.0026194   0.0050006
   29  -0.0015418   0.0011470  -0.0000503  -0.0003516  -0.0021214   0.0038135
   30   0.0010172  -0.0008909   0.0001873   0.0011889   0.0016204  -0.0028650
   31  -0.0053723  -0.0008738   0.0004125  -0.0016749  -0.0032045   0.0008580
   32  -0.0005900   0.0018657   0.0025094  -0.0022286  -0.0029307   0.0004764
   33   0.0001586   0.0022932   0.0106621   0.0008470   0.0005620  -0.0008112
   34  -0.0009526   0.0022448   0.0000428  -0.0007629  -0.0025911   0.0046164
   35   0.0021964  -0.0018406   0.0002856   0.0035225   0.0018823  -0.0057139
   36  -0.0005389   0.0020070  -0.0011418  -0.0032824   0.0006630   0.0026112
   37   0.0005230  -0.0005207   0.0003219   0.0011975   0.0003229  -0.0012459
   38  -0.0008704   0.0000940  -0.0000060  -0.0008300  -0.0005851   0.0017315
   39   0.0004061   0.0001293   0.0001655   0.0002615   0.0002194  -0.0009719
            7           8           9          10          11          12
    1  -0.0518601  -0.0064023   0.0021266   0.0002138   0.0034719  -0.0046132
    2  -0.0188073   0.0036618  -0.0054565  -0.0061493  -0.0010633   0.0003535
    3   0.0023354  -0.0006485   0.0034390   0.0010453   0.0033874  -0.0004679
    4  -0.1461499   0.0508653  -0.0210632  -0.0189298   0.0064615   0.0096712
    5   0.0404787  -0.0993179   0.0136169   0.0021674   0.0013300  -0.0061040
    6  -0.0075379   0.0117427  -0.0692218   0.0082375  -0.0129974   0.0050796
    7   0.4973235   0.0597487   0.0251253  -0.0578656  -0.0088535   0.0411967
    8   0.0597487   0.4225088   0.0089505  -0.0038872  -0.0543706  -0.0030609
    9   0.0251253   0.0089505   0.4462960   0.0788613   0.0198668  -0.1405958
   10  -0.0578656  -0.0038872   0.0788613   0.3370632   0.2336381  -0.1888977
   11  -0.0088535  -0.0543706   0.0198668   0.2336381   0.3076494  -0.0841061
   12   0.0411967  -0.0030609  -0.1405958  -0.1888977  -0.0841061   0.2532637
   13  -0.0706014  -0.0183926   0.0026221  -0.0084974  -0.0173308   0.0117249
   14  -0.0060787  -0.1697997   0.0181764  -0.0046991   0.0059293   0.0087643
   15   0.0032708   0.0207049  -0.0873326   0.0047807   0.0256451  -0.0086936
   16  -0.0479207  -0.0328928   0.0067299  -0.0031963  -0.0038455  -0.0038188
   17  -0.0192977  -0.0038386   0.0139486   0.0029389  -0.0080546  -0.0003500
   18   0.0066540   0.0095307   0.0268989  -0.0010735  -0.0047833  -0.0001446
   19  -0.0012465  -0.0009744   0.0007016  -0.0001000  -0.0001040  -0.0004368
   20  -0.0033505  -0.0018590   0.0039950   0.0003214   0.0006673  -0.0011047
   21   0.0005589   0.0035364   0.0094690  -0.0000499   0.0009364  -0.0005706
   22   0.0023647   0.0230635  -0.0047635   0.0016443   0.0005298  -0.0014104
   23  -0.0030874  -0.0029607   0.0001915  -0.0006417   0.0000170   0.0005189
   24   0.0010644   0.0010755  -0.0018809  -0.0007145  -0.0004792   0.0004919
   25  -0.0941077  -0.0516995  -0.0970947   0.0049935   0.0050125   0.0177598
   26  -0.0517733  -0.0834597  -0.0790341   0.0036389   0.0017808  -0.0010175
   27  -0.0976450  -0.0766890  -0.1818297   0.0016933  -0.0121253  -0.0285783
   28  -0.0144555   0.0076830  -0.0019492  -0.0408989   0.0251819  -0.0058895
   29  -0.0121355   0.0061507  -0.0030727   0.0805947  -0.0325500   0.0331081
   30   0.0112185  -0.0069661   0.0039433  -0.0157515   0.0175367  -0.0189911
   31   0.0093481  -0.0092622   0.0036369   0.0006413   0.0004722  -0.0011246
   32   0.0150687  -0.0077927   0.0039745   0.0004851  -0.0003985  -0.0008799
   33  -0.0035568   0.0026970   0.0028038  -0.0011768  -0.0019566   0.0011727
   34  -0.0293102  -0.0093121   0.0013780  -0.1828483  -0.2508472   0.1122224
   35   0.0165905  -0.0113126   0.0094301  -0.3088936  -0.2114537   0.0240224
   36   0.0133186   0.0311834  -0.0142492   0.1270021   0.0479578  -0.0576029
   37   0.0044814  -0.0085375   0.0036889  -0.0322198   0.0062132   0.0136159
   38  -0.0085027   0.0023903  -0.0045868   0.0004866  -0.0094831   0.0298560
   39   0.0039973  -0.0020566   0.0022601  -0.0139563   0.0011178  -0.0043631
           13          14          15          16          17          18
    1  -0.0560161   0.0434983  -0.0112990  -0.1064702   0.0211279  -0.0050757
    2   0.0616804  -0.0196405   0.0091702   0.0399608  -0.1799262   0.0327587
    3  -0.0170470   0.0070901   0.0051067  -0.0105984   0.0321043  -0.0722537
    4  -0.0136244   0.0208832  -0.0082569   0.0196687  -0.0211807   0.0051836
    5   0.0094516  -0.0511765   0.0171931   0.0140099  -0.0667005   0.0218295
    6  -0.0018865   0.0147844   0.0023948  -0.0041158   0.0215732   0.0062173
    7  -0.0706014  -0.0060787   0.0032708  -0.0479207  -0.0192977   0.0066540
    8  -0.0183926  -0.1697997   0.0207049  -0.0328928  -0.0038386   0.0095307
    9   0.0026221   0.0181764  -0.0873326   0.0067299   0.0139486   0.0268989
   10  -0.0084974  -0.0046991   0.0047807  -0.0031963   0.0029389  -0.0010735
   11  -0.0173308   0.0059293   0.0256451  -0.0038455  -0.0080546  -0.0047833
   12   0.0117249   0.0087643  -0.0086936  -0.0038188  -0.0003500  -0.0001446
   13   0.8355483  -0.1196019   0.0240931  -0.5303250  -0.0307773   0.0116984
   14  -0.1196019   0.5867694  -0.1133557  -0.0658758  -0.1051957   0.0122621
   15   0.0240931  -0.1133557   0.1940614   0.0241427   0.0109758  -0.0642774
   16  -0.5303250  -0.0658758   0.0241427   0.7006633   0.0262982  -0.0112189
   17  -0.0307773  -0.1051957   0.0109758   0.0262982   0.3613781  -0.0788756
   18   0.0116984   0.0122621  -0.0642774  -0.0112189  -0.0788756   0.1015352
   19  -0.0001452   0.0009423  -0.0002584  -0.0047652   0.0003836  -0.0000329
   20   0.0031052  -0.0057730   0.0022999   0.0289791  -0.0022852   0.0005605
   21  -0.0007089   0.0024647   0.0017967  -0.0082077   0.0011918   0.0004524
   22  -0.0067833   0.0013889  -0.0004590  -0.0013214  -0.0041830   0.0012608
   23  -0.0010182  -0.0001327   0.0002819  -0.0012402  -0.0014872   0.0027559
   24   0.0003201   0.0003313   0.0005026   0.0002390   0.0028593   0.0073977
   25  -0.0024485  -0.0005364  -0.0059571  -0.0028066   0.0012285  -0.0002014
   26  -0.0159243  -0.0089885  -0.0244933  -0.0033203  -0.0024612   0.0075329
   27   0.0016842   0.0010825   0.0068341   0.0035104  -0.0007998  -0.0025703
   28   0.0003120   0.0000525   0.0001320   0.0012344  -0.0006313   0.0003341
   29   0.0002309   0.0011091  -0.0010914   0.0001514   0.0002468   0.0003655
   30  -0.0002445   0.0000400   0.0003888  -0.0004745  -0.0001886  -0.0002616
   31  -0.1461117   0.1250187  -0.0328440  -0.0235087   0.0268030  -0.0073443
   32   0.1300386  -0.2343751   0.0526586  -0.0015040   0.0083221  -0.0035482
   33  -0.0339353   0.0533669  -0.0492521   0.0000162  -0.0039630  -0.0040377
   34  -0.0010251   0.0038663   0.0016035  -0.0005703  -0.0021447   0.0003954
   35  -0.0016896   0.0017317  -0.0001826  -0.0007547  -0.0004879  -0.0003014
   36   0.0017942  -0.0041884  -0.0016569   0.0032536   0.0013907   0.0012818
   37  -0.0002822   0.0011416   0.0010516  -0.0006821  -0.0005653  -0.0005795
   38   0.0002279  -0.0004577   0.0001936   0.0000341   0.0004900  -0.0000872
   39  -0.0001150  -0.0008186   0.0001275   0.0005424   0.0001335  -0.0002379
           19          20          21          22          23          24
    1  -0.3479956   0.0286701  -0.0047740   0.0101377   0.0083139  -0.0026045
    2   0.0328991  -0.0583839   0.0050520  -0.0196246  -0.0085719   0.0026096
    3  -0.0059761   0.0049106  -0.0408425   0.0053440   0.0027241   0.0009979
    4  -0.0099653  -0.0197943   0.0052945  -0.0579320   0.0294928  -0.0080323
    5   0.0069168   0.0094062  -0.0016867   0.0304320  -0.3312403   0.0849615
    6  -0.0018396  -0.0009457   0.0055788  -0.0083886   0.0848933  -0.0517563
    7  -0.0012465  -0.0033505   0.0005589   0.0023647  -0.0030874   0.0010644
    8  -0.0009744  -0.0018590   0.0035364   0.0230635  -0.0029607   0.0010755
    9   0.0007016   0.0039950   0.0094690  -0.0047635   0.0001915  -0.0018809
   10  -0.0001000   0.0003214  -0.0000499   0.0016443  -0.0006417  -0.0007145
   11  -0.0001040   0.0006673   0.0009364   0.0005298   0.0000170  -0.0004792
   12  -0.0004368  -0.0011047  -0.0005706  -0.0014104   0.0005189   0.0004919
   13  -0.0001452   0.0031052  -0.0007089  -0.0067833  -0.0010182   0.0003201
   14   0.0009423  -0.0057730   0.0024647   0.0013889  -0.0001327   0.0003313
   15  -0.0002584   0.0022999   0.0017967  -0.0004590   0.0002819   0.0005026
   16  -0.0047652   0.0289791  -0.0082077  -0.0013214  -0.0012402   0.0002390
   17   0.0003836  -0.0022852   0.0011918  -0.0041830  -0.0014872   0.0028593
   18  -0.0000329   0.0005605   0.0004524   0.0012608   0.0027559   0.0073977
   19   0.3649692  -0.0395025   0.0075108   0.0001944  -0.0004225   0.0000920
   20  -0.0395025   0.0580532  -0.0088666   0.0008248  -0.0000482  -0.0010402
   21   0.0075108  -0.0088666   0.0271077  -0.0002421  -0.0010359  -0.0035094
   22   0.0001944   0.0008248  -0.0002421   0.0503881  -0.0322806   0.0090046
   23  -0.0004225  -0.0000482  -0.0010359  -0.0322806   0.3442420  -0.0906423
   24   0.0000920  -0.0010402  -0.0035094   0.0090046  -0.0906423   0.0461162
   25  -0.0003523   0.0001711   0.0020577   0.0004944   0.0005699   0.0008149
   26  -0.0000197  -0.0001278  -0.0015331  -0.0005636  -0.0000615  -0.0002999
   27   0.0000449  -0.0001000  -0.0000687  -0.0002746   0.0001701   0.0002952
   28  -0.0001434  -0.0005400  -0.0005238   0.0000198   0.0000950  -0.0002450
   29  -0.0001614  -0.0004511  -0.0004384  -0.0004641   0.0001996  -0.0000104
   30   0.0001148   0.0003397   0.0002949  -0.0000803  -0.0000968   0.0000209
   31  -0.0002398   0.0015542  -0.0004258   0.0010922  -0.0000994   0.0000771
   32  -0.0001197   0.0004048  -0.0000195   0.0011380   0.0000782   0.0004102
   33   0.0000130   0.0000529   0.0005174  -0.0003224   0.0004019   0.0013699
   34  -0.0002384  -0.0005621  -0.0006703  -0.0003224   0.0003028  -0.0000479
   35   0.0001950   0.0005635   0.0006148  -0.0002081  -0.0001023   0.0002543
   36  -0.0000096  -0.0001911  -0.0003377   0.0002569  -0.0001466  -0.0000508
   37   0.0000280   0.0001234   0.0001806   0.0000236   0.0000156   0.0000321
   38  -0.0000327  -0.0001668  -0.0002159  -0.0000530   0.0000681  -0.0000296
   39   0.0000764   0.0000898   0.0001119   0.0000745  -0.0000161   0.0000053
           25          26          27          28          29          30
    1  -0.0028412   0.0032542  -0.0005733  -0.0012112  -0.0015418   0.0010172
    2  -0.0007062  -0.0032289   0.0032332   0.0028532   0.0011470  -0.0008909
    3   0.0004705  -0.0017722  -0.0003761  -0.0001519  -0.0000503   0.0001873
    4  -0.0135363   0.0096093  -0.0045564  -0.0015823  -0.0003516   0.0011889
    5  -0.0107429   0.0078776  -0.0013158  -0.0026194  -0.0021214   0.0016204
    6  -0.0184119   0.0129260  -0.0013541   0.0050006   0.0038135  -0.0028650
    7  -0.0941077  -0.0517733  -0.0976450  -0.0144555  -0.0121355   0.0112185
    8  -0.0516995  -0.0834597  -0.0766890   0.0076830   0.0061507  -0.0069661
    9  -0.0970947  -0.0790341  -0.1818297  -0.0019492  -0.0030727   0.0039433
   10   0.0049935   0.0036389   0.0016933  -0.0408989   0.0805947  -0.0157515
   11   0.0050125   0.0017808  -0.0121253   0.0251819  -0.0325500   0.0175367
   12   0.0177598  -0.0010175  -0.0285783  -0.0058895   0.0331081  -0.0189911
   13  -0.0024485  -0.0159243   0.0016842   0.0003120   0.0002309  -0.0002445
   14  -0.0005364  -0.0089885   0.0010825   0.0000525   0.0011091   0.0000400
   15  -0.0059571  -0.0244933   0.0068341   0.0001320  -0.0010914   0.0003888
   16  -0.0028066  -0.0033203   0.0035104   0.0012344   0.0001514  -0.0004745
   17   0.0012285  -0.0024612  -0.0007998  -0.0006313   0.0002468  -0.0001886
   18  -0.0002014   0.0075329  -0.0025703   0.0003341   0.0003655  -0.0002616
   19  -0.0003523  -0.0000197   0.0000449  -0.0001434  -0.0001614   0.0001148
   20   0.0001711  -0.0001278  -0.0001000  -0.0005400  -0.0004511   0.0003397
   21   0.0020577  -0.0015331  -0.0000687  -0.0005238  -0.0004384   0.0002949
   22   0.0004944  -0.0005636  -0.0002746   0.0000198  -0.0004641  -0.0000803
   23   0.0005699  -0.0000615   0.0001701   0.0000950   0.0001996  -0.0000968
   24   0.0008149  -0.0002999   0.0002952  -0.0002450  -0.0000104   0.0000209
   25   0.1087004   0.0553832   0.1008495   0.0000174   0.0003232  -0.0003439
   26   0.0553832   0.0873582   0.0851149  -0.0006836  -0.0010344  -0.0002967
   27   0.1008495   0.0851149   0.2044262  -0.0010287  -0.0013366  -0.0003094
   28   0.0000174  -0.0006836  -0.0010287   0.1003893  -0.0838183   0.0175060
   29   0.0003232  -0.0010344  -0.0013366  -0.0838183   0.0538831  -0.0481727
   30  -0.0003439  -0.0002967  -0.0003094   0.0175060  -0.0481727   0.0450715
   31   0.0000523   0.0007560  -0.0004988   0.0000343   0.0001307  -0.0000579
   32  -0.0002020   0.0001616  -0.0005537  -0.0002401  -0.0001496   0.0001600
   33   0.0006267   0.0022273  -0.0002840   0.0002195   0.0000694   0.0000155
   34   0.0014520  -0.0008679  -0.0038678  -0.0540695   0.0108742  -0.0080879
   35   0.0003241   0.0026742   0.0052373   0.0646579  -0.0222662   0.0278797
   36  -0.0002463   0.0005741   0.0027907  -0.0211096   0.0137337  -0.0220542
   37   0.0003828   0.0005111   0.0006622   0.0103536   0.0061675  -0.0060048
   38   0.0008744  -0.0004904  -0.0019179  -0.0119910  -0.0041636   0.0090352
   39  -0.0003240   0.0000716   0.0010246   0.0077054   0.0030824  -0.0054409
           31          32          33          34          35          36
    1  -0.0053723  -0.0005900   0.0001586  -0.0009526   0.0021964  -0.0005389
    2  -0.0008738   0.0018657   0.0022932   0.0022448  -0.0018406   0.0020070
    3   0.0004125   0.0025094   0.0106621   0.0000428   0.0002856  -0.0011418
    4  -0.0016749  -0.0022286   0.0008470  -0.0007629   0.0035225  -0.0032824
    5  -0.0032045  -0.0029307   0.0005620  -0.0025911   0.0018823   0.0006630
    6   0.0008580   0.0004764  -0.0008112   0.0046164  -0.0057139   0.0026112
    7   0.0093481   0.0150687  -0.0035568  -0.0293102   0.0165905   0.0133186
    8  -0.0092622  -0.0077927   0.0026970  -0.0093121  -0.0113126   0.0311834
    9   0.0036369   0.0039745   0.0028038   0.0013780   0.0094301  -0.0142492
   10   0.0006413   0.0004851  -0.0011768  -0.1828483  -0.3088936   0.1270021
   11   0.0004722  -0.0003985  -0.0019566  -0.2508472  -0.2114537   0.0479578
   12  -0.0011246  -0.0008799   0.0011727   0.1122224   0.0240224  -0.0576029
   13  -0.1461117   0.1300386  -0.0339353  -0.0010251  -0.0016896   0.0017942
   14   0.1250187  -0.2343751   0.0533669   0.0038663   0.0017317  -0.0041884
   15  -0.0328440   0.0526586  -0.0492521   0.0016035  -0.0001826  -0.0016569
   16  -0.0235087  -0.0015040   0.0000162  -0.0005703  -0.0007547   0.0032536
   17   0.0268030   0.0083221  -0.0039630  -0.0021447  -0.0004879   0.0013907
   18  -0.0073443  -0.0035482  -0.0040377   0.0003954  -0.0003014   0.0012818
   19  -0.0002398  -0.0001197   0.0000130  -0.0002384   0.0001950  -0.0000096
   20   0.0015542   0.0004048   0.0000529  -0.0005621   0.0005635  -0.0001911
   21  -0.0004258  -0.0000195   0.0005174  -0.0006703   0.0006148  -0.0003377
   22   0.0010922   0.0011380  -0.0003224  -0.0003224  -0.0002081   0.0002569
   23  -0.0000994   0.0000782   0.0004019   0.0003028  -0.0001023  -0.0001466
   24   0.0000771   0.0004102   0.0013699  -0.0000479   0.0002543  -0.0000508
   25   0.0000523  -0.0002020   0.0006267   0.0014520   0.0003241  -0.0002463
   26   0.0007560   0.0001616   0.0022273  -0.0008679   0.0026742   0.0005741
   27  -0.0004988  -0.0005537  -0.0002840  -0.0038678   0.0052373   0.0027907
   28   0.0000343  -0.0002401   0.0002195  -0.0540695   0.0646579  -0.0211096
   29   0.0001307  -0.0001496   0.0000694   0.0108742  -0.0222662   0.0137337
   30  -0.0000579   0.0001600   0.0000155  -0.0080879   0.0278797  -0.0220542
   31   0.1658244  -0.1411602   0.0371026  -0.0000130  -0.0001519   0.0001860
   32  -0.1411602   0.2349300  -0.0557498  -0.0005055  -0.0001419   0.0005317
   33   0.0371026  -0.0557498   0.0379856  -0.0000743  -0.0000254  -0.0002008
   34  -0.0000130  -0.0005055  -0.0000743   0.3554137   0.2290060  -0.2439345
   35  -0.0001519  -0.0001419  -0.0000254   0.2290060   0.2599670  -0.0598441
   36   0.0001860   0.0005317  -0.0002008  -0.2439345  -0.0598441   0.3369916
   37  -0.0000724  -0.0001802   0.0000820  -0.0867530  -0.0047945   0.1233099
   38   0.0000172   0.0000262   0.0000243   0.0205366  -0.0192135  -0.0336712
   39   0.0000223   0.0000303   0.0000586   0.1364243  -0.0016568  -0.2463807
           37          38          39
    1   0.0005230  -0.0008704   0.0004061
    2  -0.0005207   0.0000940   0.0001293
    3   0.0003219  -0.0000060   0.0001655
    4   0.0011975  -0.0008300   0.0002615
    5   0.0003229  -0.0005851   0.0002194
    6  -0.0012459   0.0017315  -0.0009719
    7   0.0044814  -0.0085027   0.0039973
    8  -0.0085375   0.0023903  -0.0020566
    9   0.0036889  -0.0045868   0.0022601
   10  -0.0322198   0.0004866  -0.0139563
   11   0.0062132  -0.0094831   0.0011178
   12   0.0136159   0.0298560  -0.0043631
   13  -0.0002822   0.0002279  -0.0001150
   14   0.0011416  -0.0004577  -0.0008186
   15   0.0010516   0.0001936   0.0001275
   16  -0.0006821   0.0000341   0.0005424
   17  -0.0005653   0.0004900   0.0001335
   18  -0.0005795  -0.0000872  -0.0002379
   19   0.0000280  -0.0000327   0.0000764
   20   0.0001234  -0.0001668   0.0000898
   21   0.0001806  -0.0002159   0.0001119
   22   0.0000236  -0.0000530   0.0000745
   23   0.0000156   0.0000681  -0.0000161
   24   0.0000321  -0.0000296   0.0000053
   25   0.0003828   0.0008744  -0.0003240
   26   0.0005111  -0.0004904   0.0000716
   27   0.0006622  -0.0019179   0.0010246
   28   0.0103536  -0.0119910   0.0077054
   29   0.0061675  -0.0041636   0.0030824
   30  -0.0060048   0.0090352  -0.0054409
   31  -0.0000724   0.0000172   0.0000223
   32  -0.0001802   0.0000262   0.0000303
   33   0.0000820   0.0000243   0.0000586
   34  -0.0867530   0.0205366   0.1364243
   35  -0.0047945  -0.0192135  -0.0016568
   36   0.1233099  -0.0336712  -0.2463807
   37   0.1030197   0.0001029  -0.1351148
   38   0.0001029   0.0314916  -0.0003260
   39  -0.1351148  -0.0003260   0.2536410
 Gradient time:  CPU 513.44 s  wall 518.99 s
 **********************************************************************
 **                                                                  **
 **                       VIBRATIONAL ANALYSIS                       **
 **                       --------------------                       **
 **                                                                  **
 **        VIBRATIONAL FREQUENCIES (CM**-1) AND NORMAL MODES         **
 **     FORCE CONSTANTS (mDYN/ANGSTROM) AND REDUCED MASSES (AMU)     **
 **                  INFRARED INTENSITIES (KM/MOL)                   **
 **                                                                  **
 **********************************************************************
 

 Mode:                 1                      2                      3
 Frequency:      -954.02                  81.28                 133.05
 Force Cnst:      0.7069                 0.0157                 0.0472
 Red. Mass:       1.3182                 4.0230                 4.5277
 IR Active:          YES                    YES                    YES
 IR Intens:      104.975                  5.438                  1.735
 Raman Active:       YES                    YES                    YES
               X      Y      Z        X      Y      Z        X      Y      Z
 C          0.005 -0.002 -0.001   -0.050 -0.076  0.072   -0.048  0.032  0.182
 C          0.006 -0.001 -0.006   -0.139  0.008  0.023   -0.040 -0.074 -0.169
 C          0.020 -0.011  0.010   -0.068  0.120 -0.056   -0.047 -0.109 -0.248
 C         -0.110  0.031 -0.055   -0.152  0.162 -0.112    0.161 -0.006 -0.094
 C          0.001 -0.004  0.002    0.065  0.074 -0.056   -0.058 -0.065 -0.105
 N         -0.000  0.001 -0.001    0.076 -0.036  0.017   -0.059  0.043  0.232
 H          0.006  0.008  0.009   -0.063 -0.161  0.143   -0.044  0.109  0.416
 H          0.012  0.000 -0.001   -0.255  0.003  0.051   -0.029 -0.098 -0.258
 H          0.012  0.011  0.010   -0.053  0.152 -0.080   -0.145 -0.118 -0.174
 H          0.489  0.759  0.318   -0.273 -0.549 -0.302    0.156  0.197  0.187
 H         -0.004 -0.007 -0.000    0.149  0.125 -0.110   -0.069 -0.081 -0.136
 C          0.051 -0.088  0.032    0.282 -0.199  0.129    0.087  0.149  0.138
 H         -0.183  0.101 -0.105    0.186 -0.142  0.072    0.309  0.266  0.260
 TransDip  -0.278 -0.053  0.165   -0.063 -0.018 -0.036    0.030  0.010 -0.028

 Mode:                 4                      5                      6
 Frequency:       249.85                 393.98                 485.34
 Force Cnst:      0.0921                 0.3952                 0.4279
 Red. Mass:       2.5049                 4.3213                 3.0835
 IR Active:          YES                    YES                    YES
 IR Intens:        7.029                 42.409                 15.302
 Raman Active:       YES                    YES                    YES
               X      Y      Z        X      Y      Z        X      Y      Z
 C         -0.055 -0.017  0.105   -0.044 -0.034 -0.043   -0.062 -0.062 -0.108
 C         -0.115  0.037  0.054    0.008 -0.078 -0.002   -0.048  0.035  0.247
 C         -0.064  0.095 -0.015    0.020 -0.064  0.069   -0.002 -0.012 -0.090
 C          0.157 -0.074  0.129    0.064  0.317  0.133    0.109 -0.035 -0.203
 C          0.013  0.044 -0.101   -0.100 -0.119  0.003   -0.055  0.021  0.137
 N          0.025 -0.038 -0.075   -0.112 -0.014  0.106   -0.060 -0.028  0.017
 H         -0.063 -0.050  0.246   -0.035  0.006 -0.162   -0.063 -0.105 -0.290
 H         -0.193  0.066  0.187    0.040 -0.102 -0.101   -0.099  0.078  0.417
 H         -0.144  0.100  0.035   -0.149 -0.210  0.263    0.238 -0.080 -0.211
 H          0.152  0.271  0.509    0.087  0.025 -0.236    0.074  0.129  0.116
 H          0.077  0.049 -0.271   -0.167 -0.139  0.126   -0.071  0.089  0.441
 C          0.031 -0.040 -0.142    0.220  0.056 -0.234    0.087  0.068 -0.053
 H          0.213 -0.454 -0.026   -0.231 -0.318 -0.486    0.387  0.096  0.118
 TransDip  -0.009  0.003  0.084   -0.146 -0.149 -0.003    0.115  0.046 -0.018

 Mode:                 7                      8                      9
 Frequency:       571.83                 690.41                 739.38
 Force Cnst:      0.5557                 0.4310                 0.4649
 Red. Mass:       2.8844                 1.5348                 1.4433
 IR Active:          YES                    YES                    YES
 IR Intens:       12.485                 13.246                 40.045
 Raman Active:       YES                    YES                    YES
               X      Y      Z        X      Y      Z        X      Y      Z
 C          0.034 -0.034 -0.162   -0.057 -0.031 -0.033    0.021 -0.005 -0.086
 C          0.011  0.066  0.102   -0.070  0.014  0.021   -0.004  0.028 -0.043
 C         -0.035 -0.004 -0.022    0.041  0.027  0.048   -0.061 -0.070 -0.099
 C         -0.062  0.002  0.047    0.097 -0.100  0.013   -0.007  0.014  0.067
 C          0.039 -0.025 -0.208   -0.009  0.050 -0.060    0.036 -0.009  0.010
 N          0.052  0.074  0.223   -0.003  0.025  0.056    0.040  0.029  0.022
 H          0.026 -0.185 -0.586   -0.065 -0.094 -0.119    0.020  0.066  0.337
 H          0.018  0.018 -0.068   -0.151  0.028  0.098    0.071  0.257  0.749
 H          0.080 -0.301  0.065   -0.003  0.018  0.077   -0.198 -0.040 -0.022
 H         -0.155  0.038  0.322    0.317 -0.059 -0.453    0.019 -0.029 -0.044
 H          0.088 -0.011 -0.297   -0.001  0.004 -0.261    0.059  0.072  0.249
 C         -0.068 -0.030  0.017    0.033 -0.021  0.025   -0.009 -0.012  0.028
 H          0.166 -0.279  0.158   -0.449  0.488 -0.264   -0.266 -0.097 -0.120
 TransDip   0.029 -0.048 -0.098   -0.056  0.051 -0.088   -0.119 -0.024  0.162

 Mode:                10                     11                     12
 Frequency:       785.21                 839.58                 883.90
 Force Cnst:      0.5403                 2.4231                 0.8461
 Red. Mass:       1.4874                 5.8343                 1.8382
 IR Active:          YES                    YES                    YES
 IR Intens:       21.392                  2.000                 41.997
 Raman Active:       YES                    YES                    YES
               X      Y      Z        X      Y      Z        X      Y      Z
 C         -0.009  0.023  0.046   -0.321  0.035 -0.000   -0.035 -0.042 -0.019
 C         -0.041  0.072  0.081   -0.095 -0.229  0.048    0.048 -0.119 -0.002
 C         -0.046 -0.074 -0.081    0.097 -0.189  0.062    0.077  0.050  0.069
 C          0.020 -0.011  0.050   -0.017  0.022 -0.019   -0.015 -0.003 -0.001
 C          0.036  0.005 -0.038    0.174 -0.005  0.036   -0.035  0.100 -0.163
 N          0.045  0.017 -0.057    0.150  0.356 -0.102   -0.027  0.009  0.020
 H         -0.022 -0.097 -0.062   -0.357 -0.227 -0.025   -0.017  0.173  0.340
 H         -0.007 -0.107 -0.573    0.328 -0.167  0.108    0.006 -0.096  0.111
 H          0.004 -0.269 -0.003   -0.002  0.107 -0.032   -0.013 -0.194  0.250
 H          0.066 -0.016 -0.062   -0.089  0.013  0.110   -0.003  0.007 -0.003
 H          0.070  0.198  0.594   -0.187 -0.330 -0.155    0.015  0.353  0.625
 C          0.005 -0.006  0.031   -0.003  0.015 -0.016   -0.030 -0.034 -0.030
 H         -0.316 -0.057 -0.155    0.178 -0.149  0.091    0.275  0.211  0.148
 TransDip  -0.098 -0.094 -0.058   -0.044 -0.010 -0.005    0.119  0.123  0.117

 Mode:                13                     14                     15
 Frequency:       902.00                 953.85                 966.76
 Force Cnst:      1.0871                 0.7475                 0.9209
 Red. Mass:       2.2679                 1.3944                 1.6724
 IR Active:          YES                    YES                    YES
 IR Intens:       20.865                  6.100                 53.158
 Raman Active:       YES                    YES                    YES
               X      Y      Z        X      Y      Z        X      Y      Z
 C         -0.024 -0.036  0.012   -0.001 -0.047 -0.147    0.033 -0.035  0.047
 C          0.114 -0.163  0.070   -0.019  0.033  0.075   -0.057  0.011 -0.064
 C          0.030  0.014 -0.119    0.038  0.018 -0.001    0.151  0.074  0.001
 C          0.002  0.004  0.024   -0.000 -0.003  0.001   -0.005 -0.015 -0.011
 C         -0.050  0.197  0.007   -0.002 -0.027  0.024   -0.022 -0.087 -0.046
 N         -0.049 -0.029 -0.005   -0.004  0.019  0.018   -0.025  0.058 -0.008
 H          0.007  0.152 -0.154    0.006  0.199  0.803    0.027 -0.106 -0.110
 H          0.167 -0.180  0.017   -0.115 -0.107 -0.394   -0.506  0.039  0.198
 H          0.160  0.092 -0.237    0.132  0.060 -0.080    0.393  0.055 -0.150
 H         -0.068 -0.030  0.112   -0.018 -0.006  0.019   -0.082 -0.024  0.100
 H          0.063  0.214 -0.308   -0.068 -0.135 -0.183   -0.246 -0.167  0.332
 C         -0.001  0.038  0.076   -0.002  0.011  0.014   -0.015  0.035  0.058
 H         -0.496 -0.487 -0.207   -0.060 -0.107 -0.019   -0.245 -0.397 -0.072
 TransDip  -0.106 -0.075 -0.068   -0.055 -0.043  0.037   -0.159 -0.152  0.077

 Mode:                16                     17                     18
 Frequency:      1016.63                1025.86                1067.03
 Force Cnst:      1.6864                 1.0809                 2.1988
 Red. Mass:       2.7695                 1.7433                 3.2778
 IR Active:          YES                    YES                    YES
 IR Intens:        3.758                  7.264                  3.603
 Raman Active:       YES                    YES                    YES
               X      Y      Z        X      Y      Z        X      Y      Z
 C          0.177 -0.149  0.039   -0.077  0.079 -0.027   -0.104  0.084 -0.015
 C          0.061 -0.081  0.100    0.038 -0.038  0.059   -0.041  0.019  0.011
 C         -0.062  0.050 -0.123   -0.020  0.120 -0.010    0.199 -0.021 -0.204
 C         -0.002  0.025  0.079    0.014 -0.025 -0.009   -0.031  0.109  0.222
 C         -0.039 -0.021  0.014    0.039 -0.139 -0.072    0.013  0.005  0.050
 N         -0.045  0.188 -0.055    0.012 -0.054  0.040    0.006 -0.105  0.012
 H          0.198 -0.102 -0.107   -0.062  0.196 -0.106   -0.089  0.221 -0.168
 H         -0.307 -0.179 -0.059    0.347 -0.033 -0.047   -0.202  0.010  0.015
 H         -0.466  0.368 -0.028   -0.236  0.722 -0.195    0.369  0.046 -0.327
 H          0.077 -0.005 -0.072    0.002 -0.020  0.020    0.090  0.001 -0.106
 H         -0.275 -0.191  0.025   -0.024 -0.094  0.323    0.015 -0.036 -0.080
 C         -0.027 -0.069 -0.030    0.002 -0.000  0.019   -0.087 -0.135 -0.040
 H          0.132  0.396  0.066   -0.148  0.015 -0.069    0.328  0.492  0.217
 TransDip   0.049 -0.017 -0.033   -0.027  0.079 -0.021   -0.019  0.033 -0.048

 Mode:                19                     20                     21
 Frequency:      1135.48                1193.26                1222.12
 Force Cnst:      0.9238                 1.3800                 1.3079
 Red. Mass:       1.2161                 1.6449                 1.4862
 IR Active:          YES                    YES                    YES
 IR Intens:        7.333                  0.892                  9.800
 Raman Active:       YES                    YES                    YES
               X      Y      Z        X      Y      Z        X      Y      Z
 C          0.001 -0.079  0.022    0.000 -0.007  0.005    0.046 -0.008 -0.001
 C          0.002  0.064 -0.022    0.031 -0.071 -0.027   -0.023  0.019  0.001
 C          0.036  0.019 -0.014   -0.181  0.079  0.037   -0.032 -0.155  0.086
 C         -0.002  0.013  0.030    0.019  0.008  0.045   -0.015  0.005  0.027
 C         -0.049  0.025 -0.020    0.015 -0.058  0.000   -0.013  0.038 -0.062
 N         -0.029  0.002  0.002    0.011  0.050 -0.011   -0.023  0.010  0.010
 H         -0.076 -0.636  0.176    0.019  0.123  0.035    0.058  0.043 -0.017
 H          0.649  0.137 -0.028    0.063 -0.051  0.065   -0.166 -0.000 -0.007
 H          0.177  0.110 -0.148    0.774 -0.246 -0.397    0.170  0.550 -0.423
 H          0.018  0.001 -0.027    0.025 -0.014  0.060    0.220  0.123 -0.372
 H         -0.161 -0.040  0.046    0.098  0.012  0.024    0.186  0.234  0.044
 C         -0.009 -0.011 -0.003    0.023 -0.018 -0.023    0.004  0.028 -0.008
 H          0.034  0.031  0.024   -0.040  0.277 -0.062    0.229 -0.228  0.124
 TransDip   0.014 -0.081  0.026   -0.005 -0.028  0.011   -0.058 -0.042  0.070

 Mode:                22                     23                     24
 Frequency:      1265.02                1297.26                1357.42
 Force Cnst:      1.1242                 1.3587                 1.8533
 Red. Mass:       1.1923                 1.3703                 1.7071
 IR Active:          YES                    YES                    YES
 IR Intens:       43.142                  1.916                  5.531
 Raman Active:       YES                    YES                    YES
               X      Y      Z        X      Y      Z        X      Y      Z
 C          0.019  0.013 -0.006   -0.039  0.052 -0.014    0.030 -0.130  0.035
 C         -0.004  0.018 -0.005    0.081 -0.020  0.009   -0.126  0.033 -0.009
 C          0.024 -0.094  0.042    0.027  0.044 -0.026    0.077  0.013 -0.011
 C          0.015  0.020 -0.014   -0.001 -0.001 -0.000   -0.001 -0.004 -0.004
 C         -0.014  0.025 -0.024   -0.011 -0.102  0.031    0.038 -0.067  0.020
 N         -0.013 -0.005  0.006   -0.060  0.042 -0.012   -0.087  0.068 -0.019
 H          0.003 -0.111  0.039   -0.118 -0.515  0.136    0.124  0.559 -0.156
 H         -0.143  0.005 -0.005   -0.241 -0.053  0.015    0.473  0.099 -0.026
 H          0.004  0.262 -0.132   -0.064 -0.014  0.068    0.001 -0.020  0.063
 H         -0.395 -0.198  0.629    0.040  0.018 -0.061   -0.062 -0.035  0.078
 H          0.086  0.114  0.002    0.664  0.373 -0.109    0.509  0.265 -0.075
 C          0.032 -0.017 -0.030   -0.011 -0.003  0.009   -0.001  0.001  0.002
 H         -0.219  0.413 -0.179    0.007 -0.049  0.020   -0.027  0.020 -0.014
 TransDip   0.101  0.153 -0.103   -0.005 -0.042  0.013    0.075 -0.006  0.007

 Mode:                25                     26                     27
 Frequency:      1552.12                1575.72                1640.30
 Force Cnst:     11.8396                 9.6100                10.3659
 Red. Mass:       8.3413                 6.5692                 6.5390
 IR Active:          YES                    YES                    YES
 IR Intens:       43.022                  1.389                 25.534
 Raman Active:       YES                    YES                    YES
               X      Y      Z        X      Y      Z        X      Y      Z
 C         -0.044 -0.059  0.017   -0.257 -0.251  0.072    0.209  0.235 -0.067
 C          0.061  0.056 -0.022    0.327  0.227 -0.063   -0.215 -0.170  0.047
 C         -0.072 -0.034  0.098   -0.049 -0.030 -0.007   -0.008  0.013 -0.010
 C          0.414  0.374 -0.234   -0.092 -0.078  0.055   -0.021 -0.026  0.019
 C          0.118  0.023 -0.005    0.335  0.055 -0.022    0.402  0.095 -0.027
 N         -0.092 -0.004  0.002   -0.227 -0.010  0.004   -0.349 -0.058  0.018
 H         -0.043  0.056  0.006   -0.264  0.215 -0.064    0.156 -0.507  0.146
 H         -0.085  0.052 -0.028   -0.435  0.206 -0.052    0.151 -0.182  0.052
 H          0.008  0.054 -0.000   -0.037  0.027 -0.033    0.065 -0.142  0.028
 H          0.243 -0.075  0.028   -0.062  0.007  0.015    0.014  0.016 -0.026
 H         -0.033 -0.095  0.014   -0.152 -0.310  0.096   -0.133 -0.327  0.086
 C         -0.352 -0.330  0.122    0.076  0.070 -0.031    0.019  0.015 -0.006
 H         -0.312 -0.295  0.236    0.073  0.073 -0.051    0.016  0.015 -0.012
 TransDip   0.199 -0.019 -0.065    0.033  0.014  0.011    0.153  0.046 -0.025

 Mode:                28                     29                     30
 Frequency:      2218.71                2973.90                3074.42
 Force Cnst:      3.0736                 5.6325                 6.0680
 Red. Mass:       1.0597                 1.0809                 1.0896
 IR Active:          YES                    YES                    YES
 IR Intens:        4.406                 10.455                 16.025
 Raman Active:       YES                    YES                    YES
               X      Y      Z        X      Y      Z        X      Y      Z
 C          0.000  0.001 -0.000    0.000  0.001 -0.000    0.000  0.000  0.000
 C         -0.000 -0.000 -0.000   -0.000  0.000 -0.000   -0.000 -0.000 -0.000
 C          0.002 -0.001  0.000   -0.041 -0.034 -0.062    0.000  0.000  0.001
 C         -0.047  0.015 -0.012    0.001 -0.001 -0.002   -0.004 -0.005  0.000
 C         -0.000 -0.000  0.001    0.000 -0.001 -0.000   -0.000 -0.000 -0.000
 N          0.000 -0.001 -0.000    0.001 -0.000 -0.000    0.000  0.000 -0.000
 H          0.000  0.000  0.000    0.003 -0.001 -0.001   -0.001  0.000 -0.000
 H          0.001  0.000 -0.001   -0.002 -0.009  0.005    0.000 -0.000  0.000
 H         -0.004  0.001  0.004    0.488  0.409  0.767   -0.004 -0.003 -0.004
 H          0.725 -0.609  0.311   -0.002 -0.002 -0.003    0.005 -0.005  0.000
 H         -0.000 -0.000  0.001   -0.015  0.014 -0.002    0.002 -0.002  0.001
 C         -0.019  0.039 -0.015    0.000  0.001 -0.000    0.046  0.005 -0.072
 H          0.030 -0.029  0.003   -0.001 -0.002  0.007   -0.502  0.009  0.861
 TransDip  -0.020 -0.047  0.043    0.018  0.015 -0.101    0.083  0.051 -0.083

 Mode:                31                     32                     33
 Frequency:      3195.92                3239.68                3266.19
 Force Cnst:      6.5822                 6.7338                 6.9435
 Red. Mass:       1.0938                 1.0889                 1.1047
 IR Active:          YES                    YES                    YES
 IR Intens:        6.932                  4.427                  4.245
 Raman Active:       YES                    YES                    YES
               X      Y      Z        X      Y      Z        X      Y      Z
 C          0.001  0.001 -0.000   -0.076  0.008 -0.002    0.047 -0.000 -0.000
 C         -0.001 -0.001  0.000    0.007 -0.037  0.010    0.003 -0.078  0.022
 C          0.002  0.003  0.000   -0.000  0.000 -0.000   -0.002  0.000 -0.001
 C         -0.000 -0.000 -0.000   -0.000 -0.000  0.000   -0.000 -0.000  0.000
 C          0.054 -0.068  0.018    0.002 -0.001  0.000   -0.002  0.003 -0.001
 N         -0.002 -0.001  0.000   -0.000 -0.000  0.000   -0.001  0.001 -0.000
 H         -0.022  0.002 -0.000    0.868 -0.110  0.022   -0.467  0.055 -0.010
 H         -0.002  0.017 -0.005   -0.052  0.455 -0.127   -0.088  0.840 -0.235
 H         -0.010 -0.011 -0.013    0.001 -0.001  0.001    0.006  0.003  0.007
 H         -0.001 -0.001  0.001    0.001  0.001 -0.000    0.001  0.001 -0.001
 H         -0.596  0.771 -0.203   -0.006  0.008 -0.002    0.014 -0.018  0.005
 C         -0.000 -0.000  0.000    0.000 -0.000 -0.000    0.000 -0.000 -0.000
 H         -0.002  0.000  0.002   -0.001  0.000  0.001    0.000  0.000 -0.000
 TransDip   0.054 -0.060  0.024   -0.056  0.035 -0.011    0.060 -0.027 -0.000

 STANDARD THERMODYNAMIC QUANTITIES AT   298.15 K  AND     1.00 ATM

   This Molecule has  1 Imaginary Frequencies
   Zero point vibrational energy:       60.033 kcal/mol

   Atom    1 Element C  Has Mass   12.00000
   Atom    2 Element C  Has Mass   12.00000
   Atom    3 Element C  Has Mass   12.00000
   Atom    4 Element C  Has Mass   12.00000
   Atom    5 Element C  Has Mass   12.00000
   Atom    6 Element N  Has Mass   14.00307
   Atom    7 Element H  Has Mass    1.00783
   Atom    8 Element H  Has Mass    1.00783
   Atom    9 Element H  Has Mass    1.00783
   Atom   10 Element H  Has Mass    1.00783
   Atom   11 Element H  Has Mass    1.00783
   Atom   12 Element C  Has Mass   12.00000
   Atom   13 Element H  Has Mass    1.00783
   Molecular Mass:    92.050050 amu
   Principal axes and moments of inertia in amu*Bohr^2:
                             1           2           3
    Eigenvalues --      242.26363   906.63913  1082.36388
          X               0.82976    -0.48900     0.26901
          Y               0.37722     0.84662     0.37543
          Z              -0.41133    -0.21004     0.88696
   Rotational Symmetry Number is   1
   The Molecule is an Asymmetric Top
   Translational Enthalpy:        0.889 kcal/mol
   Rotational Enthalpy:           0.889 kcal/mol
   Vibrational Enthalpy:         62.175 kcal/mol
   gas constant (RT):             0.592 kcal/mol
   Translational Entropy:        39.471  cal/mol.K
   Rotational Entropy:           26.966  cal/mol.K
   Vibrational Entropy:          12.642  cal/mol.K

   Total Enthalpy:               64.544 kcal/mol
   Total Entropy:                79.078  cal/mol.K
Archival summary:
1\1\c8-89\FREQ\ProcedureUnspecified\6-31+G**\166(2)\hpark21\ThuMar307:33:372022ThuMar307:33:372022\0\\#,FREQ,ProcedureUnspecified,6-31+G**,\\0,2\C\H,1,1.10517\C,1,1.51083,2,110.653\H,3,1.28766,1,113.575,2,-39.8454,0\C,4,1.30859,3,62.3006,1,121.047,0\H,5,1.09633,4,101.365,3,119.314,0\C,1,1.51243,2,110.045,3,123.274,0\H,7,1.08158,1,124.617,2,-65.543,0\C,7,1.3462,1,107.023,2,113.713,0\H,9,1.08293,7,128.221,1,-178.62,0\N,9,1.4273,7,113.049,1,0.815319,0\C,11,1.28849,9,106.304,7,0.285859,0\H,12,1.08707,11,121.959,9,179.367,0\\\@

 Total job time:  529.11s(wall), 519.81s(cpu) 
 Thu Mar  3 07:33:37 2022

        *************************************************************
        *                                                           *
        *  Thank you very much for using Q-Chem.  Have a nice day.  *
        *                                                           *
        *************************************************************


