13
image # 1 Energy = -286.95149
C 1.89701   0.27426   -0.53640  
C 1.24584   -0.96315  -0.63500  
C -0.07650  -1.05968  -0.23751  
C -0.74563  0.09373   0.26037   
C 0.03333   1.29099   0.30906   
N 1.30029   1.38679   -0.07074  
H 2.93622   0.37983   -0.84102  
H 1.77837   -1.82878  -1.01886  
H -0.61128  -2.00430  -0.30037  
H -2.67822  -0.82994  0.64789   
H -0.43028  2.20433   0.68281   
C -2.08538  0.07837   0.68279   
H -2.56378  0.97756   1.05698   
13
image # 2 Energy = -286.94877
C 1.91678   0.26588   -0.52314  
C 1.24909   -0.95745  -0.61882  
C -0.09406  -1.04290  -0.26600  
C -0.75420  0.10778   0.26371   
C 0.02840   1.29628   0.26310   
N 1.30960   1.39284   -0.09733  
H 2.96092   0.36018   -0.80250  
H 1.77937   -1.83775  -0.97543  
H -0.62540  -1.97179  -0.38378  
H -2.67339  -0.85397  0.58504   
H -0.42181  2.23183   0.59424   
C -2.09372  0.03464   0.76817   
H -2.58835  0.93044   1.17244   
13
image # 3 Energy = -286.94405
C 1.92399   0.26971   -0.49624  
C 1.24075   -0.96252  -0.60526  
C -0.09975  -1.00233  -0.29320  
C -0.76224  0.11639   0.26555   
C 0.01726   1.31229   0.23224   
N 1.30479   1.38342   -0.13288  
H 2.98887   0.34009   -0.76116  
H 1.77629   -1.84565  -0.92790  
H -0.65109  -1.94623  -0.47152  
H -2.67466  -0.84124  0.51688   
H -0.42286  2.25429   0.50119   
C -2.06805  0.00347   0.83643   
H -2.59068  0.85419   1.28875   
13
image # 4 Energy = -286.93801
C 1.93545   0.25372   -0.47942  
C 1.24438   -0.95320  -0.58993  
C -0.11640  -0.98853  -0.32686  
C -0.78219  0.12301   0.27440   
C 0.01925   1.31853   0.19580   
N 1.29811   1.39141   -0.15771  
H 3.00428   0.32330   -0.72110  
H 1.77135   -1.85634  -0.88498  
H -0.66699  -1.90269  -0.54960  
H -2.67677  -0.82258  0.45215   
H -0.43044  2.27762   0.42374   
C -2.04391  -0.02463  0.89153   
H -2.58324  0.77969   1.39533   
13
image # 5 Energy = -286.92868
C 1.94618   0.24842   -0.45908  
C 1.24474   -0.95589  -0.57379  
C -0.13644  -0.96167  -0.36202  
C -0.78686  0.11318   0.27328   
C 0.01746   1.33734   0.15857   
N 1.30347   1.39722   -0.18840  
H 3.01179   0.30415   -0.66801  
H 1.76017   -1.86747  -0.83458  
H -0.68863  -1.84681  -0.63892  
H -2.67172  -0.78227  0.38942   
H -0.44631  2.30021   0.33730   
C -2.03247  -0.06069  0.93239   
H -2.55808  0.68459   1.52449   
13
image # 6 Energy = -286.91775
C 1.93959   0.24005   -0.43941  
C 1.23436   -0.94878  -0.55641  
C -0.13018  -0.93403  -0.39795  
C -0.79811  0.12516   0.28207   
C 0.02295   1.34263   0.12218   
N 1.30511   1.40437   -0.21215  
H 3.02436   0.28773   -0.62006  
H 1.74945   -1.88238  -0.79181  
H -0.71452  -1.80180  -0.72073  
H -2.67125  -0.74101  0.33460   
H -0.46223  2.31567   0.26318   
C -2.01404  -0.09683  0.96067   
H -2.53046  0.59729   1.63892   
13
image # 7 Energy = -286.90234
C 1.94782   0.23914   -0.42006  
C 1.23982   -0.95250  -0.54164  
C -0.15166  -0.90361  -0.43198  
C -0.81116  0.13339   0.28563   
C 0.01881   1.35374   0.08334   
N 1.31011   1.40861   -0.23208  
H 3.03058   0.27012   -0.57301  
H 1.73283   -1.89034  -0.74997  
H -0.73317  -1.74518  -0.80153  
H -2.67091  -0.69592  0.27813   
H -0.47365  2.31776   0.19296   
C -1.99213  -0.12898  1.00708   
H -2.50044  0.50483   1.74114   
13
image # 8 Energy = -286.88992
C 1.95182   0.22756   -0.39170  
C 1.21804   -0.94067  -0.52605  
C -0.16393  -0.86546  -0.46716  
C -0.80314  0.14395   0.27674   
C 0.01780   1.36331   0.04519   
N 1.30619   1.41256   -0.25659  
H 3.03539   0.24776   -0.49671  
H 1.71027   -1.90919  -0.70503  
H -0.76541  -1.66462  -0.90169  
H -2.65598  -0.63073  0.24701   
H -0.49892  2.32201   0.10263   
C -1.97867  -0.15614  1.01778   
H -2.43572  0.36556   1.87509   
13
image # 9 Energy = -286.86235
C 1.95440   0.22375   -0.37177  
C 1.21648   -0.93879  -0.51137  
C -0.17414  -0.82755  -0.50597  
C -0.83243  0.14223   0.29658   
C 0.02101   1.36434   -0.00102  
N 1.31908   1.41245   -0.27084  
H 3.04611   0.23110   -0.45336  
H 1.68346   -1.90968  -0.67425  
H -0.77699  -1.58972  -0.98614  
H -2.64021  -0.57858  0.21204   
H -0.51157  2.30921   0.04350   
C -1.96105  -0.19972  1.08377   
H -2.41678  0.28422   1.94771   
13
image # 10 Energy = -286.84137
C 1.96815   0.21201   -0.34036  
C 1.20312   -0.92753  -0.50270  
C -0.20058  -0.77204  -0.53217  
C -0.83448  0.14970   0.30570   
C 0.02412   1.35397   -0.03678  
N 1.31809   1.41189   -0.28554  
H 3.04923   0.20500   -0.37648  
H 1.64282   -1.91699  -0.64598  
H -0.80118  -1.48616  -1.10516  
H -2.61497  -0.52603  0.21837   
H -0.53418  2.29030   -0.04619  
C -1.92879  -0.23490  1.10241   
H -2.37412  0.16805   2.05082   
13
image # 11 Energy = -286.78430
C 1.98486   0.20963   -0.33699  
C 1.20010   -0.91444  -0.48533  
C -0.20697  -0.73022  -0.56492  
C -0.90028  0.10408   0.35478   
C 0.03607   1.33914   -0.08117  
N 1.33838   1.40415   -0.27847  
H 3.07165   0.19922   -0.38853  
H 1.62612   -1.91187  -0.65736  
H -0.77221  -1.40086  -1.17572  
H -2.56754  -0.52663  0.19056   
H -0.54195  2.23504   -0.05821  
C -1.91617  -0.28857  1.22514   
H -2.44887  0.21407   2.06331   
13
image # 12 Energy = -286.76546
C 2.00062   0.18421   -0.32499  
C 1.20539   -0.90806  -0.46741  
C -0.22625  -0.66825  -0.58835  
C -0.94979  0.04184   0.41746   
C 0.06756   1.30675   -0.12031  
N 1.34266   1.40175   -0.25810  
H 3.09963   0.18275   -0.38827  
H 1.58110   -1.89366  -0.66746  
H -0.75016  -1.27487  -1.31661  
H -2.48526  -0.55503  0.23919   
H -0.56096  2.17317   -0.10094  
C -1.91444  -0.32117  1.34213   
H -2.51873  0.25875   2.05095   
13
image # 13 Energy = -286.74477
C 2.00182   0.19501   -0.32558  
C 1.19169   -0.90254  -0.45912  
C -0.22896  -0.61770  -0.60963  
C -1.00694  -0.01145  0.41292   
C 0.05329   1.31857   -0.24542  
N 1.35835   1.39640   -0.22355  
H 3.07819   0.17589   -0.33865  
H 1.57494   -1.91348  -0.61618  
H -0.76836  -1.22986  -1.31568  
H -2.49590  -0.47268  0.21169   
H -0.56784  2.20115   -0.13969  
C -1.85989  -0.34618  1.35430   
H -2.44805  0.12853   2.12178   
13
image # 14 Energy = -286.65768
C 2.00516   0.20451   -0.34301  
C 1.21239   -0.89624  -0.43729  
C -0.20046  -0.57684  -0.59038  
C -1.17476  -0.06600  0.38612   
C 0.07566   1.31491   -0.28257  
N 1.35605   1.41657   -0.22916  
H 3.08673   0.20704   -0.39055  
H 1.59965   -1.89592  -0.62049  
H -0.73410  -1.25010  -1.28552  
H -2.47912  -0.45077  0.09027   
H -0.56230  2.17986   -0.08668  
C -1.78532  -0.40545  1.51315   
H -2.52228  0.13407   2.11452   
13
image # 15 Energy = -286.72981
C 2.02023   0.20427   -0.35498  
C 1.21696   -0.89568  -0.42049  
C -0.19501  -0.49524  -0.55474  
C -1.28495  -0.19924  0.40892   
C 0.08521   1.25651   -0.31985  
N 1.35108   1.41826   -0.21771  
H 3.09694   0.21157   -0.42528  
H 1.59377   -1.88855  -0.64448  
H -0.68378  -1.13334  -1.31729  
H -2.43062  -0.43828  -0.00698  
H -0.58230  2.08684   -0.06140  
C -1.74231  -0.34774  1.62441   
H -2.56801  0.13725   2.13459   
13
image # 16 Energy = -286.78731
C 2.03082   0.20255   -0.35802  
C 1.21064   -0.89176  -0.40216  
C -0.21026  -0.43221  -0.52139  
C -1.34888  -0.28477  0.42124   
C 0.09786   1.22531   -0.35436  
N 1.35329   1.41934   -0.21956  
H 3.10131   0.20201   -0.44354  
H 1.57414   -1.88543  -0.63438  
H -0.65007  -1.04154  -1.33474  
H -2.40377  -0.39340  -0.08080  
H -0.58243  2.04419   -0.06645  
C -1.71322  -0.33838  1.68118   
H -2.57123  0.09696   2.16149   
13
image # 17 Energy = -286.78503
C 2.01120   0.18075   -0.34369  
C 1.19108   -0.86353  -0.37281  
C -0.22318  -0.38351  -0.54217  
C -1.36522  -0.26951  0.41699   
C 0.10654   1.24877   -0.40263  
N 1.37421   1.42804   -0.24536  
H 3.10328   0.17172   -0.41266  
H 1.52588   -1.89501  -0.54813  
H -0.65865  -0.99283  -1.36064  
H -2.42747  -0.29811  -0.08076  
H -0.54800  2.08718   -0.14105  
C -1.67085  -0.44143  1.68046   
H -2.52504  -0.04219  2.20930   
13
image # 18 Energy = -286.80327
C 2.01776   0.17942   -0.33251  
C 1.16258   -0.86298  -0.35343  
C -0.23776  -0.33187  -0.54235  
C -1.40259  -0.29209  0.40778   
C 0.12203   1.25211   -0.44959  
N 1.38395   1.43635   -0.26145  
H 3.10088   0.15019   -0.38662  
H 1.48396   -1.89166  -0.49064  
H -0.65693  -0.92781  -1.38232  
H -2.42042  -0.22096  -0.08476  
H -0.53218  2.10341   -0.19998  
C -1.62850  -0.50076  1.69397   
H -2.49006  -0.15489  2.24836   
13
image # 19 Energy = -286.80825
C 2.00904   0.17239   -0.31298  
C 1.13469   -0.84976  -0.32923  
C -0.25571  -0.28893  -0.55827  
C -1.40151  -0.25542  0.40161   
C 0.13869   1.28298   -0.49394  
N 1.39774   1.44020   -0.29338  
H 3.09101   0.12148   -0.33438  
H 1.42618   -1.89801  -0.39628  
H -0.67575  -0.87457  -1.40786  
H -2.43787  -0.13072  -0.04163  
H -0.50322  2.15282   -0.30255  
C -1.59365  -0.60676  1.66038   
H -2.41927  -0.31817  2.28891   
13
image # 20 Energy = -286.81244
C 2.00114   0.16083   -0.29716  
C 1.10175   -0.84562  -0.30821  
C -0.25608  -0.25485  -0.57044  
C -1.40077  -0.21844  0.39822   
C 0.13645   1.30113   -0.53216  
N 1.42615   1.45015   -0.32439  
H 3.07793   0.09830   -0.27921  
H 1.36403   -1.89317  -0.30708  
H -0.68840  -0.80393  -1.43385  
H -2.44876  -0.05020  0.00752   
H -0.48320  2.19037   -0.41304  
C -1.55889  -0.69950  1.63099   
H -2.35249  -0.47740  2.32538   
13
image # 21 Energy = -286.81610
C 1.98334   0.15675   -0.28110  
C 1.07317   -0.83583  -0.28653  
C -0.27094  -0.22388  -0.57814  
C -1.37997  -0.18121  0.43288   
C 0.16969   1.31703   -0.55719  
N 1.42147   1.45568   -0.36629  
H 3.06953   0.07552   -0.22002  
H 1.29959   -1.89752  -0.22093  
H -0.69519  -0.72745  -1.46598  
H -2.46405  0.02125   0.05887   
H -0.46905  2.21852   -0.53143  
C -1.53004  -0.77467  1.57924   
H -2.27983  -0.63602  2.35235   
13
image # 22 Energy = -286.82747
C 1.97974   0.15362   -0.26594  
C 1.05295   -0.82422  -0.26845  
C -0.28876  -0.18063  -0.56928  
C -1.39433  -0.18231  0.43481   
C 0.17004   1.32781   -0.59070  
N 1.43569   1.45720   -0.39685  
H 3.05616   0.05782   -0.17311  
H 1.24553   -1.89641  -0.16212  
H -0.69308  -0.64832  -1.49145  
H -2.44547  0.08494   0.09320   
H -0.45747  2.21364   -0.62458  
C -1.49878  -0.82124  1.58217   
H -2.22350  -0.76354  2.36957   
13
image # 23 Energy = -286.83405
C 1.97323   0.14983   -0.24937  
C 1.03395   -0.81969  -0.24759  
C -0.28708  -0.15505  -0.56670  
C -1.41048  -0.18571  0.45684   
C 0.17082   1.33102   -0.60823  
N 1.45195   1.46082   -0.43535  
H 3.03871   0.04181   -0.12735  
H 1.18930   -1.88419  -0.10766  
H -0.69178  -0.57432  -1.51600  
H -2.43025  0.14379   0.12558   
H -0.45182  2.21618   -0.72067  
C -1.46026  -0.85224  1.56472   
H -2.17276  -0.88457  2.38896   
13
image # 24 Energy = -286.84123
C 1.95976   0.14377   -0.23333  
C 1.01294   -0.80565  -0.22778  
C -0.29216  -0.12149  -0.55515  
C -1.43467  -0.20246  0.45173   
C 0.19146   1.32579   -0.63602  
N 1.45375   1.46042   -0.47238  
H 3.02619   0.02663   -0.08210  
H 1.13425   -1.86832  -0.05784  
H -0.68622  -0.49698  -1.52893  
H -2.40306  0.20726   0.15373   
H -0.44828  2.21100   -0.81390  
C -1.42346  -0.88229  1.58185   
H -2.11690  -1.00269  2.39932   
13
image # 25 Energy = -286.84435
C 1.95212   0.14161   -0.21695  
C 0.98232   -0.78840  -0.20599  
C -0.30964  -0.09058  -0.53781  
C -1.44764  -0.23745  0.45665   
C 0.19710   1.33450   -0.67880  
N 1.46725   1.45417   -0.50901  
H 3.01274   0.01230   -0.03452  
H 1.07701   -1.84795  -0.00717  
H -0.67601  -0.41460  -1.52913  
H -2.37764  0.27500   0.17696   
H -0.43598  2.18840   -0.91150  
C -1.38720  -0.90262  1.58704   
H -2.05443  -1.12437  2.41021   
