13   
From optimize.out: Frame 1 / 2, Energy=    -286.8505842057
C       -0.0690280000    0.0429150000    0.0000000000
C       -0.1031790000   -0.1674460000   -0.0000000000
C       -0.1987520000    1.0402700000   -0.0000000000
C       -0.1426280000    0.0001930000    0.0000000000
C        0.0555690000    0.0048680000   -0.0000000000
N       -0.3776810000   -0.0035910000   -0.0000000000
H        0.1812070000   -0.0043760000    0.0000000000
H        0.1640150000    0.0787530000   -0.0000000000
H        0.1639670000    0.0049310000   -0.0000000000
H        0.1401610000    0.0001420000    0.0000000000
H        0.1436070000   -0.0001390000   -0.0000000000
C       -0.1104900000    0.0030050000    0.0000000000
H        0.1532310000    0.0004760000    0.0000000000
