
Running Job 1 of 1 optimize.in
qchem optimize.in_1092.0 ./optimize.d/ 1
/home/leeping/opt/qchem/5.0.2-openmp/exe/qcprog.exe_s optimize.in_1092.0 ./optimize.d/
Check license passed

                  Welcome to Q-Chem
     A Quantum Leap Into The Future Of Chemistry


 Q-Chem 5.0, Q-Chem, Inc., Pleasanton, CA (2017)

 Yihan Shao,  Zhengting Gan,  E. Epifanovsky,  A. T. B. Gilbert,  M. Wormit,  
 J. Kussmann,  A. W. Lange,  A. Behn,  Jia Deng,  Xintian Feng,  D. Ghosh,  
 M. Goldey,  P. R. Horn,  L. D. Jacobson,  I. Kaliman,  T. Kus,  A. Landau,  
 Jie Liu,  E. I. Proynov,  R. M. Richard,  R. P. Steele,  E. J. Sundstrom,  
 H. L. Woodcock III,  P. M. Zimmerman,  D. Zuev,  B. Albrecht,  E. Alguire,  
 S. A. Baeppler,  D. Barton,  Z. Benda,  Y. A. Bernard,  E. J. Berquist,  
 K. B. Bravaya,  H. Burton,  D. Casanova,  Chun-Min Chang,  Yunqing Chen,  
 A. Chien,  K. D. Closser,  M. P. Coons,  S. Dasgupta,  A. L. Dempwolff,  
 M. Diedenhofen,  Hainam Do,  R. G. Edgar,  Po-Tung Fang,  S. Fatehi,  
 Qingguo Feng,  J. Fosso-Tande,  Qinghui Ge,  A. Ghysels,  G. Gidofalvi,  
 J. Gomes,  J. Gonthier,  A. Gunina,  M. W. D. Hanson-Heine,  
 P. H. P. Harbach,  A. W. Hauser,  J. E. Herr,  E. G. Hohenstein,  
 Z. C. Holden,  Kerwin Hui,  T.-C. Jagau,  Hyunjun Ji,  B. Kaduk,  
 K. Khistyaev,  Jaehoon Kim,  P. Klunzinger,  K. Koh,  D. Kosenkov,  
 L. Koulias,  T. Kowalczyk,  C. M. Krauter,  A. Kunitsa,  Ka Un Lao,  
 A. Laurent,  K. V. Lawler,  Joonho Lee,  D. Lefrancois,  S. Lehtola,  
 D. S. Levine,  Yi-Pei Li,  You-Sheng Lin,  Fenglai Liu,  E. Livshits,  
 A. Luenser,  P. Manohar,  E. Mansoor,  S. F. Manzer,  Shan-Ping Mao,  
 Yuezhi Mao,  N. Mardirossian,  A. V. Marenich,  T. Markovich,  
 L. A. Martinez-Martinez,  S. A. Maurer,  N. J. Mayhall,  S. C. McKenzie,  
 J.-M. Mewes,  A. F. Morrison,  J. W. Mullinax,  K. Nanda,  
 T. S. Nguyen-Beck,  R. Olivares-Amaya,  J. A. Parkhill,  T. M. Perrine,  
 F. Plasser,  S. Prager,  A. Prociuk,  E. Ramos,  D. R. Rehn,  F. Rob,  
 M. Schneider,  N. Sergueev,  S. M. Sharada,  S. Sharma,  D. W. Small,  
 T. Stauch,  T. Stein,  Yu-Chuan Su,  A. J. W. Thom,  A. Tkatchenko,  
 T. Tsuchimochi,  L. Vogt,  O. Vydrov,  M. A. Watson,  J. Wenzel,  
 M. de Wergifosse,  T. A. Wesolowski,  A. White,  J. Witte,  A. Yamada,  
 Jun Yang,  K. Yao,  S. Yeganeh,  S. R. Yost,  Zhi-Qiang You,  A. Zech,  
 Igor Ying Zhang,  Xing Zhang,  Yan Zhao,  Ying Zhu,  B. R. Brooks,  
 G. K. L. Chan,  C. J. Cramer,  M. S. Gordon,  W. J. Hehre,  A. Klamt,  
 M. W. Schmidt,  C. D. Sherrill,  D. G. Truhlar,  A. Aspuru-Guzik,  R. Baer,  
 A. T. Bell,  N. A. Besley,  Jeng-Da Chai,  R. A. DiStasio Jr.,  A. Dreuw,  
 B. D. Dunietz,  T. R. Furlani,  Chao-Ping Hsu,  Yousung Jung,  Jing Kong,  
 D. S. Lambrecht,  WanZhen Liang,  C. Ochsenfeld,  V. A. Rassolov,  
 L. V. Slipchenko,  J. E. Subotnik,  T. Van Voorhis,  J. M. Herbert,  
 A. I. Krylov,  P. M. W. Gill,  M. Head-Gordon

 Contributors to earlier versions of Q-Chem not listed above: 
 R. D. Adamson,  B. Austin,  J. Baker,  G. J. O. Beran,  K. Brandhorst,  
 S. T. Brown,  E. F. C. Byrd,  A. K. Chakraborty,  C.-L. Cheng,  
 Siu Hung Chien,  D. M. Chipman,  D. L. Crittenden,  H. Dachsel,  
 R. J. Doerksen,  A. D. Dutoi,  L. Fusti-Molnar,  W. A. Goddard III,  
 A. Golubeva-Zadorozhnaya,  S. R. Gwaltney,  G. Hawkins,  A. Heyden,  
 S. Hirata,  G. Kedziora,  F. J. Keil,  C. Kelley,  Jihan Kim,  R. A. King,  
 R. Z. Khaliullin,  P. P. Korambath,  W. Kurlancheek,  A. M. Lee,  M. S. Lee,  
 S. V. Levchenko,  Ching Yeh Lin,  D. Liotard,  R. C. Lochan,  I. Lotan,  
 P. E. Maslen,  N. Nair,  D. P. O'Neill,  D. Neuhauser,  E. Neuscamman,  
 C. M. Oana,  R. Olson,  B. Peters,  R. Peverati,  P. A. Pieniazek,  
 Y. M. Rhee,  J. Ritchie,  M. A. Rohrdanz,  E. Rosta,  N. J. Russ,  
 H. F. Schaefer III,  N. E. Schultz,  N. Shenvi,  A. C. Simmonett,  A. Sodt,  
 D. Stuck,  K. S. Thanthiriwatte,  V. Vanovschi,  Tao Wang,  A. Warshel,  
 C. F. Williams,  Q. Wu,  X. Xu,  W. Zhang

 Please cite Q-Chem as follows:
 Y. Shao et al., Mol. Phys. 113, 184-215 (2015)
 DOI: 10.1080/00268976.2014.952696

 Q-Chem 5.0.2 for Intel X86 EM64T Linux

 Parts of Q-Chem use Armadillo 5.200.1 (Boston Tea Smuggler).
 http://arma.sourceforge.net/

 Q-Chem begins on Tue Mar  1 18:23:55 2022  

Host: 
0

     Scratch files written to ./optimize.d//
 Dec517 15110_ 26548  26544 5633   
Processing $rem in /home/leeping/opt/qchem/5.0.2-openmp/config/preferences.
 MEM_STATIC 2000
 MEM_TOTAL  8000
 SYMMETRY   OFF
 SYM_IGNORE TRUE 

Checking the input file for inconsistencies... 	...done.

--------------------------------------------------------------
User input:
--------------------------------------------------------------
$molecule
0 2
C        1.6673851774    0.2388028377   -2.2478310970
C        1.1912742399   -1.0232079390   -2.1757510783
C       -0.1377614598   -1.2514248597   -2.3847390203
C       -1.4357037666    0.4300900596   -0.6938140096
C       -0.8734492289    0.9378618231   -1.9886648193
N        0.8982601130    1.4266734893   -2.7275716154
H        2.6794492976    0.1042152354   -1.8721750854
H        1.7815874729   -1.7052298026   -1.5603347859
H       -0.7744641315   -1.7959529091   -3.1618115797
H       -1.7809589359    0.9624184188    0.2466247377
H       -1.4381541523    1.5474150056   -2.7404365407
C       -1.3756383870   -0.8460011898   -1.0656212149
H       -1.7691490608   -1.5234427430   -0.4017050979
$end

$rem
method                b3lyp
basis                 6-31g(d)
unrestricted          true
symmetry              off
sym_ignore            true
incdft                false
incfock               0
scf_convergence       8
thresh                14
jobtype               opt
scf_guess             read
scf_algorithm         diis
max_scf_cycles        100
geom_opt_tol_gradient 600
geom_opt_tol_displacement 2400
geom_opt_tol_energy   200
geom_opt_max_cycles   100
$end

--------------------------------------------------------------
 ----------------------------------------------------------------
             Standard Nuclear Orientation (Angstroms)
    I     Atom           X                Y                Z
 ----------------------------------------------------------------
    1      C       1.6673851774     0.2388028377    -2.2478310970
    2      C       1.1912742399    -1.0232079390    -2.1757510783
    3      C      -0.1377614598    -1.2514248597    -2.3847390203
    4      C      -1.4357037666     0.4300900596    -0.6938140096
    5      C      -0.8734492289     0.9378618231    -1.9886648193
    6      N       0.8982601130     1.4266734893    -2.7275716154
    7      H       2.6794492976     0.1042152354    -1.8721750854
    8      H       1.7815874729    -1.7052298026    -1.5603347859
    9      H      -0.7744641315    -1.7959529091    -3.1618115797
   10      H      -1.7809589359     0.9624184188     0.2466247377
   11      H      -1.4381541523     1.5474150056    -2.7404365407
   12      C      -1.3756383870    -0.8460011898    -1.0656212149
   13      H      -1.7691490608    -1.5234427430    -0.4017050979
 ----------------------------------------------------------------
 Nuclear Repulsion Energy =   249.3556377038 hartrees
 There are       25 alpha and       24 beta electrons
 Requested basis set is 6-31G(d)
 There are 40 shells and 117 basis functions

 Total QAlloc Memory Limit   8000 MB
 Mega-Array Size      1956 MB
 MEM_STATIC part      2000 MB
 A cutoff of  1.0D-14 yielded    802 shell pairs
 There are      7074 function pairs
 
 -------------------------------------------------------
 OpenMP Integral Computing Module                       
 Release: version 1.0, May 2013, Q-Chem Inc. Pittsburgh 
 -------------------------------------------------------
 Integral Job Info:
 Integral job number is                      11
 Integral operator is                         1
 short-range coefficients                     0
 long-range coefficients              100000000
 Omega coefficients                           0
 if combine SR and LR in K                    0
 Integral screening is                        0
 Integral computing path is                   2
 max size of driver memory is            800000
 size of driver memory is                593474
 size of scratch memory is              2361544
 max col of scratch BK array               1296
 max len of scratch array in speh3          155
 max len of scratch index in speh4           18
 max int batch size is                      520
 min int batch size is                       52
 fixed nKL is                                52
 max L of basis functions is                  2
 order of int derivative is                   0
 number of shells is                         40
 number of basis is                         117
 number of cartesian basis is               117
 number of contracted shell pairs           802
 number of primitive shell pairs           3372
 maxK2 (contraction) of shell pair           36
 max number of K2 of shell pair               1
 max number of CS2 of shell pair             86
 max number of PS2 of shell pair            438
 mem total for path MDJ                  534060
 -------------------------------------------------------
 Smallest overlap matrix eigenvalue = 2.94E-03

 Scale SEOQF with 1.000000e-01/1.000000e-01/1.000000e-01

 Standard Electronic Orientation quadrupole field applied
 Nucleus-field energy     =    -0.0000000151 hartrees
 Guess MOs from SCF MO coefficient file
 Reading MOs from coefficient file
 Reading MOs from coefficient file
 An unrestricted hybrid HF-DFT SCF calculation will be
 performed using Pulay DIIS extrapolation
 Exchange:     0.2000 Hartree-Fock + 0.0800 Slater + 0.7200 B88
 Correlation:  0.1900 VWN1RPA + 0.8100 LYP
 Using SG-1 standard quadrature grid
 SCF converges when DIIS error is below 1.0E-08
Using Q-Chem read-in guess as SCF_GUESS READ specified.

 using 4 threads for integral computing
 -------------------------------------------------------
 OpenMP Integral computing Module                
 Release: version 1.0, May 2013, Q-Chem Inc. Pittsburgh 
 -------------------------------------------------------
 -------------------------------------------------------
 OpenMP BLAS3 based DFT computing Module                
 Release: version 1.0, May 2013, Q-Chem Inc. Pittsburgh 
 -------------------------------------------------------
 ---------------------------------------
  Cycle       Energy         DIIS Error
 ---------------------------------------
    1    -286.6022567870      2.85E-09
    2    -286.6022567870      6.31E-09 Convergence criterion met
 ---------------------------------------
 <S^2> = 1.0439
 SCF time:  CPU 5.18 s  wall 2.91 s
 SCF   energy in the final basis set = -286.60225679
 Total energy in the final basis set = -286.60225679
 
 --------------------------------------------------------------
 
                    Orbital Energies (a.u.)
 --------------------------------------------------------------
 
 Alpha MOs
 -- Occupied --
-14.378 -10.256 -10.243 -10.223 -10.220 -10.219 -10.191  -0.858
 -0.813  -0.767  -0.657  -0.629  -0.542  -0.516  -0.493  -0.473
 -0.409  -0.400  -0.373  -0.345  -0.324  -0.302  -0.267  -0.228
 -0.204
 -- Virtual --
 -0.041  -0.034  -0.023   0.053   0.094   0.119   0.122   0.145
  0.149   0.170   0.204   0.243   0.266   0.330   0.381   0.387
  0.485   0.498   0.517   0.539   0.572   0.585   0.585   0.625
  0.637   0.639   0.661   0.684   0.712   0.733   0.754   0.760
  0.810   0.814   0.829   0.837   0.858   0.864   0.878   0.897
  0.912   0.951   0.995   1.031   1.108   1.130   1.182   1.226
  1.279   1.346   1.416   1.445   1.469   1.546   1.599   1.649
  1.681   1.739   1.766   1.771   1.806   1.834   1.865   1.892
  1.937   1.968   2.050   2.100   2.167   2.178   2.205   2.260
  2.318   2.364   2.386   2.422   2.430   2.542   2.544   2.571
  2.641   2.716   2.795   2.854   2.967   3.712   4.032   4.145
  4.193   4.263   4.358   4.440
 
 Beta MOs
 -- Occupied --
-14.359 -10.266 -10.235 -10.222 -10.222 -10.220 -10.188  -0.844
 -0.810  -0.735  -0.646  -0.635  -0.544  -0.510  -0.493  -0.461
 -0.401  -0.395  -0.370  -0.341  -0.313  -0.282  -0.254  -0.188
 -- Virtual --
 -0.096  -0.053  -0.022  -0.015   0.060   0.100   0.120   0.128
  0.143   0.156   0.174   0.205   0.250   0.263   0.331   0.389
  0.399   0.489   0.500   0.515   0.538   0.582   0.586   0.593
  0.628   0.638   0.646   0.663   0.683   0.718   0.738   0.759
  0.762   0.815   0.823   0.839   0.851   0.863   0.870   0.888
  0.901   0.912   0.953   0.996   1.037   1.111   1.135   1.192
  1.227   1.277   1.359   1.420   1.451   1.475   1.550   1.617
  1.656   1.686   1.773   1.776   1.790   1.810   1.851   1.871
  1.905   1.930   1.981   2.052   2.103   2.168   2.191   2.215
  2.260   2.328   2.366   2.391   2.431   2.434   2.542   2.553
  2.573   2.653   2.716   2.792   2.862   2.977   3.748   4.029
  4.143   4.193   4.268   4.354   4.447
 --------------------------------------------------------------
 
          Ground-State Mulliken Net Atomic Charges

     Atom                 Charge (a.u.)    Spin (a.u.)
  --------------------------------------------------------
      1 C                     0.066434      -0.155808
      2 C                    -0.124079       0.187218
      3 C                    -0.174445       0.580878
      4 C                    -0.092265       0.084580
      5 C                    -0.116590      -0.624482
      6 N                    -0.341357       0.988071
      7 H                     0.143144       0.027871
      8 H                     0.145913       0.019473
      9 H                     0.165951      -0.023007
     10 H                     0.170796      -0.007147
     11 H                     0.174197       0.020847
     12 C                    -0.147689      -0.082847
     13 H                     0.129990      -0.015646
  --------------------------------------------------------
  Sum of atomic charges =     0.000000
  Sum of spin   charges =     1.000000

 -----------------------------------------------------------------
                    Cartesian Multipole Moments
 -----------------------------------------------------------------
    Charge (ESU x 10^10)
                -0.0000
    Dipole Moment (Debye)
         X      -1.2042      Y      -1.5058      Z       1.8889
       Tot       2.6992
    Quadrupole Moments (Debye-Ang)
        XX     -37.6902     XY      -3.0379     YY     -42.4227
        XZ       2.7513     YZ       5.3148     ZZ     -47.7877
    Octopole Moments (Debye-Ang^2)
       XXX       9.4555    XXY       0.7984    XYY      -5.7121
       YYY      -2.8593    XXZ      76.5404    XYZ       5.5307
       YYZ      83.6204    XZZ     -14.0834    YZZ     -13.9669
       ZZZ     256.6460
    Hexadecapole Moments (Debye-Ang^3)
      XXXX    -415.7948   XXXY      -7.4222   XXYY    -118.1770
      XYYY     -10.4973   YYYY    -312.8311   XXXZ      60.3195
      XXYZ       2.2123   XYYZ      42.4791   YYYZ      24.1700
      XXZZ    -249.7987   XYZZ     -15.3748   YYZZ    -243.5087
      XZZZ     127.3684   YZZZ      52.9408   ZZZZ   -1143.6148
 -----------------------------------------------------------------
 Calculating analytic gradient of the SCF energy
 Gradient of SCF Energy
            1           2           3           4           5           6
    1   0.0161370  -0.0282343   0.1802407  -0.0349892  -0.0459173   0.0086381
    2  -0.0239896  -0.0116209  -0.0157063  -0.0306078  -0.0279563   0.0638264
    3   0.0130430  -0.0242779  -0.0192453   0.0394560   0.0477444  -0.0570758
            7           8           9          10          11          12
    1  -0.0135860  -0.0029719  -0.0305606  -0.0029453  -0.0060459  -0.0606788
    2  -0.0415258   0.0071881  -0.0182002   0.0136098   0.0113990   0.0214979
    3   0.0065181   0.0072485  -0.0138082   0.0280191  -0.0172920   0.0153545
           13
    1   0.0209136
    2   0.0520857
    3  -0.0256844
 Max gradient component =       1.802E-01
 RMS gradient           =       4.085E-02
 Gradient time:  CPU 7.60 s  wall 2.59 s
 Geometry Optimization Parameters
   NAtoms,    NIC,     NZ,  NCons,   NDum,   NFix, NCnnct, MaxDiis
       13      72       0       0       0       0       0       0


** GEOMETRY OPTIMIZATION IN DELOCALIZED INTERNAL COORDINATES **
   Searching for a Minimum

   Optimization Cycle:   1

                       Coordinates (Angstroms)
     ATOM                X               Y               Z
      1  C         1.6673851774    0.2388028377   -2.2478310970
      2  C         1.1912742399   -1.0232079390   -2.1757510783
      3  C        -0.1377614598   -1.2514248597   -2.3847390203
      4  C        -1.4357037666    0.4300900596   -0.6938140096
      5  C        -0.8734492289    0.9378618231   -1.9886648193
      6  N         0.8982601130    1.4266734893   -2.7275716154
      7  H         2.6794492976    0.1042152354   -1.8721750854
      8  H         1.7815874729   -1.7052298026   -1.5603347859
      9  H        -0.7744641315   -1.7959529091   -3.1618115797
     10  H        -1.7809589359    0.9624184188    0.2466247377
     11  H        -1.4381541523    1.5474150056   -2.7404365407
     12  C        -1.3756383870   -0.8460011898   -1.0656212149
     13  H        -1.7691490608   -1.5234427430   -0.4017050979
   Point Group: c1    Number of degrees of freedom:    33


   Energy is   -286.602256787


 Attempting to Generate Delocalized Internal Coordinates

 33 Hessian modes will be used to form the next step
  Hessian Eigenvalues:
     0.002000    0.009152    0.018239    0.019263    0.024429    0.027091
     0.028921    0.028924    0.031599    0.031879    0.122611    0.152113
     0.153466    0.158574    0.160000    0.160000    0.160000    0.219953
     0.220000    0.220001    0.221242    0.222312    0.293701    0.301416
     0.315092    0.323563    0.329896    0.345879    0.350576    0.432523
     0.520313    0.548603    0.593853

 Minimum Search - Taking Simple RFO Step
 Searching for Lamda that Minimizes Along All modes
 Value Taken    Lamda =  -0.36828040
 Calculated Step too Large.  Step scaled by  0.358891
 Step Taken.  Stepsize is  0.300000

                             Maximum     Tolerance    Cnvgd?
         Gradient           0.369494      0.000600      NO
         Displacement       0.245539      0.002400      NO
         Energy change     *********      0.000002      NO


 New Cartesian Coordinates Obtained by Inverse Iteration

 Displacement from previous Coordinates is:  1.724225
 ----------------------------------------------------------------
             Standard Nuclear Orientation (Angstroms)
    I     Atom           X                Y                Z
 ----------------------------------------------------------------
    1      C       1.4486959961     0.2908245837    -2.1186776886
    2      C       1.1180187101    -1.0169237921    -2.1692427764
    3      C      -0.2119463600    -1.2544279380    -2.4011120280
    4      C      -1.2299028237     0.4177942672    -0.7688056983
    5      C      -0.6379220645     0.7846346275    -2.1134577115
    6      N       0.4792431158     1.3558224507    -2.4449632262
    7      H       2.4764367754     0.2998398528    -1.7578544120
    8      H       1.7635540592    -1.7064309173    -1.6202502524
    9      H      -0.8508551973    -1.7308475211    -3.2058826968
   10      H      -1.4549414509     1.0313316773     0.1479122831
   11      H      -1.1393969101     1.4310624510    -2.8706299012
   12      C      -1.3490398656    -0.8732047262    -1.0684370257
   13      H      -1.7792668066    -1.5272575892    -0.3824300727
 ----------------------------------------------------------------
 Nuclear Repulsion Energy =   267.1019422639 hartrees
 There are       25 alpha and       24 beta electrons
 Applying Cartesian multipole field
    Component          Value
    ---------          -----
     (2,0,0)        1.00000E-11
     (0,2,0)        2.00000E-11
     (0,0,2)       -3.00000E-11
 Nucleus-field energy     =    -0.0000000150 hartrees
 Requested basis set is 6-31G(d)
 There are 40 shells and 117 basis functions
 A cutoff of  1.0D-14 yielded    807 shell pairs
 There are      7079 function pairs
 Smallest overlap matrix eigenvalue = 2.40E-03
 Guess MOs from SCF MO coefficient file
 Reading MOs from coefficient file
 Reading MOs from coefficient file
 An unrestricted hybrid HF-DFT SCF calculation will be
 performed using Pulay DIIS extrapolation
 Exchange:     0.2000 Hartree-Fock + 0.0800 Slater + 0.7200 B88
 Correlation:  0.1900 VWN1RPA + 0.8100 LYP
 Using SG-1 standard quadrature grid
 SCF converges when DIIS error is below 1.0E-08
 Geometry optimization detected.  Setting ReadMinima to 0
 Setting SaveMinima to 0
Using Q-Chem read-in guess as SCF_GUESS READ specified.

 using 4 threads for integral computing
 -------------------------------------------------------
 OpenMP Integral computing Module                
 Release: version 1.0, May 2013, Q-Chem Inc. Pittsburgh 
 -------------------------------------------------------
 -------------------------------------------------------
 OpenMP BLAS3 based DFT computing Module                
 Release: version 1.0, May 2013, Q-Chem Inc. Pittsburgh 
 -------------------------------------------------------
 ---------------------------------------
  Cycle       Energy         DIIS Error
 ---------------------------------------
    1    -286.9533665959      2.14E-02
    2    -286.6643271038      3.41E-03
    3    -286.6483962174      4.84E-03
    4    -286.6870550104      1.30E-03
    5    -286.6899692039      5.82E-04
    6    -286.6908496749      1.30E-04
    7    -286.6910867635      9.91E-05
    8    -286.6912188271      4.23E-05
    9    -286.6913119853      4.05E-05
   10    -286.6913711668      2.53E-05
   11    -286.6913947891      1.51E-05
   12    -286.6914052963      6.52E-06
   13    -286.6914070926      3.77E-06
   14    -286.6914074098      1.03E-06
   15    -286.6914074393      3.07E-07
   16    -286.6914074534      9.61E-08
   17    -286.6914074571      7.19E-08
   18    -286.6914074586      2.99E-08
   19    -286.6914074595      1.61E-08
   20    -286.6914074597      1.01E-08
   21    -286.6914074597      2.38E-09 Convergence criterion met
 ---------------------------------------
 <S^2> = 0.7880
 SCF time:  CPU 54.01 s  wall 38.45 s
 SCF   energy in the final basis set = -286.69140746
 Total energy in the final basis set = -286.69140746
 
 --------------------------------------------------------------
 
                    Orbital Energies (a.u.)
 --------------------------------------------------------------
 
 Alpha MOs
 -- Occupied --
-14.349 -10.230 -10.230 -10.218 -10.211 -10.208 -10.200  -0.954
 -0.813  -0.794  -0.670  -0.614  -0.555  -0.534  -0.503  -0.477
 -0.432  -0.409  -0.385  -0.369  -0.330  -0.295  -0.266  -0.220
 -0.214
 -- Virtual --
 -0.025  -0.001   0.023   0.106   0.118   0.129   0.141   0.163
  0.167   0.198   0.246   0.264   0.317   0.339   0.389   0.398
  0.489   0.495   0.510   0.537   0.569   0.586   0.594   0.624
  0.639   0.653   0.673   0.692   0.722   0.730   0.760   0.770
  0.807   0.821   0.833   0.846   0.853   0.872   0.903   0.914
  0.962   0.998   1.024   1.074   1.132   1.153   1.250   1.295
  1.326   1.336   1.381   1.473   1.525   1.570   1.615   1.641
  1.708   1.744   1.787   1.822   1.857   1.885   1.966   2.004
  2.066   2.131   2.157   2.233   2.251   2.270   2.314   2.360
  2.379   2.401   2.420   2.511   2.564   2.588   2.606   2.643
  2.739   2.795   2.844   2.966   2.999   3.896   4.078   4.197
  4.206   4.329   4.439   4.495
 
 Beta MOs
 -- Occupied --
-14.337 -10.233 -10.225 -10.220 -10.209 -10.208 -10.197  -0.938
 -0.801  -0.789  -0.664  -0.607  -0.550  -0.529  -0.498  -0.468
 -0.421  -0.402  -0.380  -0.356  -0.322  -0.278  -0.262  -0.206
 -- Virtual --
 -0.112  -0.018   0.006   0.035   0.112   0.122   0.133   0.144
  0.166   0.171   0.202   0.251   0.267   0.320   0.344   0.395
  0.403   0.492   0.500   0.516   0.539   0.579   0.591   0.605
  0.626   0.644   0.657   0.676   0.695   0.728   0.735   0.763
  0.777   0.809   0.831   0.846   0.853   0.857   0.880   0.906
  0.916   0.967   1.003   1.029   1.075   1.137   1.157   1.259
  1.299   1.329   1.348   1.384   1.477   1.534   1.579   1.627
  1.650   1.720   1.753   1.795   1.828   1.867   1.892   1.970
  2.011   2.069   2.136   2.162   2.237   2.264   2.276   2.326
  2.369   2.388   2.407   2.425   2.525   2.572   2.592   2.616
  2.647   2.744   2.800   2.849   2.970   3.004   3.915   4.083
  4.200   4.209   4.335   4.445   4.494
 --------------------------------------------------------------
 
          Ground-State Mulliken Net Atomic Charges

     Atom                 Charge (a.u.)    Spin (a.u.)
  --------------------------------------------------------
      1 C                     0.028279      -0.153434
      2 C                    -0.103413       0.261760
      3 C                    -0.216120       0.341673
      4 C                    -0.055652       0.116225
      5 C                    -0.041110      -0.166366
      6 N                    -0.355187       0.578995
      7 H                     0.129469       0.008453
      8 H                     0.160473      -0.002259
      9 H                     0.167473      -0.000401
     10 H                     0.165259       0.007061
     11 H                     0.149380       0.033386
     12 C                    -0.150822      -0.024054
     13 H                     0.121972      -0.001038
  --------------------------------------------------------
  Sum of atomic charges =    -0.000000
  Sum of spin   charges =     1.000000

 -----------------------------------------------------------------
                    Cartesian Multipole Moments
 -----------------------------------------------------------------
    Charge (ESU x 10^10)
                 0.0000
    Dipole Moment (Debye)
         X      -0.3353      Y      -1.3927      Z       1.3679
       Tot       1.9807
    Quadrupole Moments (Debye-Ang)
        XX     -39.1274     XY      -2.2225     YY     -42.1604
        XZ       1.0567     YZ       4.7402     ZZ     -44.8754
    Octopole Moments (Debye-Ang^2)
       XXX      15.9849    XXY       0.4606    XYY      -1.3976
       YYY       0.9376    XXZ      76.4742    XYZ       3.0910
       YYZ      81.1786    XZZ      -6.7238    YZZ      -9.5173
       ZZZ     239.8370
    Hexadecapole Moments (Debye-Ang^3)
      XXXX    -340.1709   XXXY      -5.3819   XXYY     -99.8589
      XYYY     -12.5797   YYYY    -296.7891   XXXZ      27.1236
      XXYZ       0.2339   XYYZ      24.0222   YYYZ       9.3509
      XXZZ    -229.1823   XYZZ      -6.7793   YYZZ    -226.2404
      XZZZ      77.2169   YZZZ      24.5611   ZZZZ   -1043.9479
 -----------------------------------------------------------------
 Calculating analytic gradient of the SCF energy
 Gradient of SCF Energy
            1           2           3           4           5           6
    1  -0.0302094  -0.0213833   0.1730748  -0.0126251   0.0549657  -0.1460273
    2  -0.0207336  -0.0081614  -0.0227398   0.0063292  -0.0394541   0.0378509
    3   0.0007333  -0.0188624  -0.0278233   0.0321006   0.0351580  -0.0249712
            7           8           9          10          11          12
    1  -0.0068600  -0.0029418  -0.0294399   0.0006892   0.0547949  -0.0507707
    2  -0.0375624   0.0035903  -0.0097014   0.0103061   0.0223281   0.0188235
    3   0.0033863   0.0101342  -0.0118715   0.0263841  -0.0129355   0.0061537
           13
    1   0.0167330
    2   0.0391247
    3  -0.0175864
 Max gradient component =       1.731E-01
 RMS gradient           =       4.419E-02
 Gradient time:  CPU 7.54 s  wall 3.39 s
 Geometry Optimization Parameters
   NAtoms,    NIC,     NZ,  NCons,   NDum,   NFix, NCnnct, MaxDiis
       13      72       0       0       0       0       0       0

 Cartesian Hessian Update
 Hessian Updated using BFGS Update


** GEOMETRY OPTIMIZATION IN DELOCALIZED INTERNAL COORDINATES **
   Searching for a Minimum

   Optimization Cycle:   2

                       Coordinates (Angstroms)
     ATOM                X               Y               Z
      1  C         1.4486959961    0.2908245837   -2.1186776886
      2  C         1.1180187101   -1.0169237921   -2.1692427764
      3  C        -0.2119463600   -1.2544279380   -2.4011120280
      4  C        -1.2299028237    0.4177942672   -0.7688056983
      5  C        -0.6379220645    0.7846346275   -2.1134577115
      6  N         0.4792431158    1.3558224507   -2.4449632262
      7  H         2.4764367754    0.2998398528   -1.7578544120
      8  H         1.7635540592   -1.7064309173   -1.6202502524
      9  H        -0.8508551973   -1.7308475211   -3.2058826968
     10  H        -1.4549414509    1.0313316773    0.1479122831
     11  H        -1.1393969101    1.4310624510   -2.8706299012
     12  C        -1.3490398656   -0.8732047262   -1.0684370257
     13  H        -1.7792668066   -1.5272575892   -0.3824300727
   Point Group: c1    Number of degrees of freedom:    33


   Energy is   -286.691407460

 Hessian Updated using BFGS Update

 33 Hessian modes will be used to form the next step
  Hessian Eigenvalues:
     0.001853    0.009125    0.018033    0.020274    0.023332    0.027915
     0.028914    0.029633    0.031743    0.035233    0.123394    0.147463
     0.152373    0.156042    0.158808    0.160000    0.160579    0.196101
     0.219978    0.220003    0.220401    0.291568    0.300087    0.314300
     0.318616    0.323790    0.345877    0.350545    0.426300    0.498732
     0.547324    0.593570    4.603494

 Minimum Search - Taking Simple RFO Step
 Searching for Lamda that Minimizes Along All modes
 Value Taken    Lamda =  -0.30001764
 Calculated Step too Large.  Step scaled by  0.398384
 Step Taken.  Stepsize is  0.300000

                             Maximum     Tolerance    Cnvgd?
         Gradient           0.527092      0.000600      NO
         Displacement       0.179892      0.002400      NO
         Energy change     -0.089151      0.000002      NO


 New Cartesian Coordinates Obtained by Inverse Iteration

 Displacement from previous Coordinates is:  1.123871
 ----------------------------------------------------------------
             Standard Nuclear Orientation (Angstroms)
    I     Atom           X                Y                Z
 ----------------------------------------------------------------
    1      C       1.5013899958     0.3021889532    -2.0004286235
    2      C       1.0935690191    -0.9803297418    -2.1645585724
    3      C      -0.2721005863    -1.1911660690    -2.3904216116
    4      C      -1.1586998718     0.4184308351    -0.8477331260
    5      C      -0.7380313714     0.7021617102    -2.2867018899
    6      N       0.5836175380     1.4002317016    -2.1663155905
    7      H       2.5425065347     0.2756046513    -1.6738233191
    8      H       1.7333710969    -1.7306858035    -1.6933788222
    9      H      -0.9095798509    -1.6135896410    -3.2062274882
   10      H      -1.3121079826     1.0904763016     0.0262860345
   11      H      -1.3818300947     1.2744052020    -2.9857648510
   12      C      -1.3220909307    -0.8845010021    -1.0470594893
   13      H      -1.7273363181    -1.5610096713    -0.3377038576
 ----------------------------------------------------------------
 Nuclear Repulsion Energy =   266.6432036364 hartrees
 There are       25 alpha and       24 beta electrons
 Applying Cartesian multipole field
    Component          Value
    ---------          -----
     (2,0,0)        1.00000E-11
     (0,2,0)        2.00000E-11
     (0,0,2)       -3.00000E-11
 Nucleus-field energy     =    -0.0000000143 hartrees
 Requested basis set is 6-31G(d)
 There are 40 shells and 117 basis functions
 A cutoff of  1.0D-14 yielded    807 shell pairs
 There are      7079 function pairs
 Smallest overlap matrix eigenvalue = 2.23E-03
 Guess MOs from SCF MO coefficient file
 Reading MOs from coefficient file
 Reading MOs from coefficient file
 An unrestricted hybrid HF-DFT SCF calculation will be
 performed using Pulay DIIS extrapolation
 Exchange:     0.2000 Hartree-Fock + 0.0800 Slater + 0.7200 B88
 Correlation:  0.1900 VWN1RPA + 0.8100 LYP
 Using SG-1 standard quadrature grid
 SCF converges when DIIS error is below 1.0E-08
 Geometry optimization detected.  Setting ReadMinima to 0
 Setting SaveMinima to 0
Using Q-Chem read-in guess as SCF_GUESS READ specified.

 using 4 threads for integral computing
 -------------------------------------------------------
 OpenMP Integral computing Module                
 Release: version 1.0, May 2013, Q-Chem Inc. Pittsburgh 
 -------------------------------------------------------
 -------------------------------------------------------
 OpenMP BLAS3 based DFT computing Module                
 Release: version 1.0, May 2013, Q-Chem Inc. Pittsburgh 
 -------------------------------------------------------
 ---------------------------------------
  Cycle       Energy         DIIS Error
 ---------------------------------------
    1    -286.6824534636      1.13E-02
    2    -286.7320496777      3.76E-03
    3    -286.6614359165      7.22E-03
    4    -286.7640618336      1.06E-03
    5    -286.7668255144      3.81E-04
    6    -286.7675126087      1.39E-04
    7    -286.7678873423      9.09E-05
    8    -286.7680538148      3.85E-05
    9    -286.7681211403      2.41E-05
   10    -286.7681469370      7.46E-06
   11    -286.7681520448      3.46E-06
   12    -286.7681538355      2.07E-06
   13    -286.7681545571      8.59E-07
   14    -286.7681549281      5.95E-07
   15    -286.7681551123      2.59E-07
   16    -286.7681551850      1.30E-07
   17    -286.7681551976      4.92E-08
   18    -286.7681551982      2.41E-08
   19    -286.7681551985      1.06E-08
   20    -286.7681551986      2.59E-09 Convergence criterion met
 ---------------------------------------
 <S^2> = 0.7831
 SCF time:  CPU 51.42 s  wall 32.02 s
 SCF   energy in the final basis set = -286.76815520
 Total energy in the final basis set = -286.76815520
 
 --------------------------------------------------------------
 
                    Orbital Energies (a.u.)
 --------------------------------------------------------------
 
 Alpha MOs
 -- Occupied --
-14.352 -10.239 -10.228 -10.219 -10.207 -10.204 -10.199  -0.914
 -0.803  -0.780  -0.660  -0.618  -0.543  -0.531  -0.499  -0.471
 -0.429  -0.410  -0.378  -0.361  -0.321  -0.314  -0.258  -0.241
 -0.212
 -- Virtual --
 -0.010   0.020   0.028   0.116   0.122   0.129   0.141   0.161
  0.169   0.197   0.206   0.251   0.264   0.357   0.386   0.398
  0.489   0.494   0.532   0.534   0.554   0.584   0.595   0.599
  0.620   0.643   0.647   0.688   0.715   0.720   0.754   0.772
  0.795   0.825   0.841   0.842   0.866   0.877   0.893   0.917
  0.921   1.025   1.051   1.059   1.114   1.179   1.252   1.296
  1.348   1.411   1.427   1.472   1.525   1.544   1.608   1.654
  1.737   1.779   1.795   1.841   1.864   1.870   1.933   1.994
  2.061   2.107   2.150   2.158   2.176   2.234   2.317   2.357
  2.379   2.419   2.445   2.481   2.526   2.550   2.571   2.603
  2.719   2.755   2.826   2.909   2.973   3.855   4.087   4.195
  4.275   4.326   4.450   4.525
 
 Beta MOs
 -- Occupied --
-14.339 -10.239 -10.229 -10.222 -10.205 -10.199 -10.198  -0.898
 -0.794  -0.765  -0.660  -0.609  -0.539  -0.525  -0.497  -0.465
 -0.422  -0.402  -0.372  -0.349  -0.305  -0.295  -0.254  -0.234
 -- Virtual --
 -0.100   0.005   0.025   0.036   0.117   0.125   0.131   0.145
  0.164   0.173   0.204   0.211   0.256   0.268   0.363   0.390
  0.402   0.491   0.497   0.536   0.540   0.557   0.587   0.601
  0.609   0.620   0.647   0.651   0.694   0.718   0.729   0.757
  0.784   0.802   0.828   0.844   0.848   0.874   0.884   0.897
  0.920   0.934   1.029   1.055   1.065   1.117   1.185   1.260
  1.302   1.360   1.419   1.431   1.475   1.532   1.554   1.613
  1.665   1.747   1.785   1.800   1.852   1.868   1.882   1.941
  2.001   2.065   2.119   2.153   2.165   2.183   2.243   2.326
  2.366   2.384   2.424   2.453   2.485   2.541   2.556   2.579
  2.618   2.725   2.760   2.829   2.913   2.977   3.879   4.094
  4.193   4.279   4.328   4.456   4.527
 --------------------------------------------------------------
 
          Ground-State Mulliken Net Atomic Charges

     Atom                 Charge (a.u.)    Spin (a.u.)
  --------------------------------------------------------
      1 C                     0.043613      -0.239418
      2 C                    -0.082164       0.479294
      3 C                    -0.211837      -0.066688
      4 C                    -0.050386      -0.002663
      5 C                    -0.102854      -0.015064
      6 N                    -0.348644       0.671970
      7 H                     0.139058       0.008413
      8 H                     0.148162      -0.023416
      9 H                     0.170478       0.026562
     10 H                     0.153778       0.006643
     11 H                     0.160204       0.014061
     12 C                    -0.150265       0.124224
     13 H                     0.130857       0.016083
  --------------------------------------------------------
  Sum of atomic charges =    -0.000000
  Sum of spin   charges =     1.000000

 -----------------------------------------------------------------
                    Cartesian Multipole Moments
 -----------------------------------------------------------------
    Charge (ESU x 10^10)
                -0.0000
    Dipole Moment (Debye)
         X      -0.5247      Y      -1.6905      Z       0.5681
       Tot       1.8590
    Quadrupole Moments (Debye-Ang)
        XX     -38.2895     XY      -2.6063     YY     -43.0048
        XZ       1.8719     YZ       3.6922     ZZ     -41.5726
    Octopole Moments (Debye-Ang^2)
       XXX      15.4463    XXY       0.5554    XYY      -3.2370
       YYY      -2.1518    XXZ      72.0039    XYZ       4.5792
       YYZ      80.2631    XZZ      -8.7405    YZZ      -4.2865
       ZZZ     224.8673
    Hexadecapole Moments (Debye-Ang^3)
      XXXX    -338.5472   XXXY     -11.3068   XXYY     -99.0050
      XYYY     -19.1633   YYYY    -294.3801   XXXZ      19.8927
      XXYZ      -3.1114   XYYZ      21.7402   YYYZ       6.6893
      XXZZ    -214.8059   XYZZ     -11.0861   YYZZ    -215.1417
      XZZZ      71.6321   YZZZ       1.6267   ZZZZ    -970.9456
 -----------------------------------------------------------------
 Calculating analytic gradient of the SCF energy
 Gradient of SCF Energy
            1           2           3           4           5           6
    1   0.0114528  -0.0130511   0.1414965   0.0222811  -0.0670760  -0.0279136
    2  -0.0437992   0.0234565  -0.0700536  -0.0023737  -0.0135024   0.0658404
    3   0.0072487  -0.0160133  -0.0171567   0.0252349  -0.0083850  -0.0025458
            7           8           9          10          11          12
    1  -0.0009451  -0.0013400  -0.0283269   0.0033670   0.0015894  -0.0464589
    2  -0.0331573   0.0057308   0.0057636   0.0082510   0.0156572   0.0133605
    3  -0.0000906   0.0132517  -0.0085992   0.0183043  -0.0064180   0.0046807
           13
    1   0.0049248
    2   0.0248261
    3  -0.0095118
 Max gradient component =       1.415E-01
 RMS gradient           =       3.409E-02
 Gradient time:  CPU 7.77 s  wall 2.94 s
 Geometry Optimization Parameters
   NAtoms,    NIC,     NZ,  NCons,   NDum,   NFix, NCnnct, MaxDiis
       13      72       0       0       0       0       0       0

 Cartesian Hessian Update
 Hessian Updated using BFGS Update


** GEOMETRY OPTIMIZATION IN DELOCALIZED INTERNAL COORDINATES **
   Searching for a Minimum

   Optimization Cycle:   3

                       Coordinates (Angstroms)
     ATOM                X               Y               Z
      1  C         1.5013899958    0.3021889532   -2.0004286235
      2  C         1.0935690191   -0.9803297418   -2.1645585724
      3  C        -0.2721005863   -1.1911660690   -2.3904216116
      4  C        -1.1586998718    0.4184308351   -0.8477331260
      5  C        -0.7380313714    0.7021617102   -2.2867018899
      6  N         0.5836175380    1.4002317016   -2.1663155905
      7  H         2.5425065347    0.2756046513   -1.6738233191
      8  H         1.7333710969   -1.7306858035   -1.6933788222
      9  H        -0.9095798509   -1.6135896410   -3.2062274882
     10  H        -1.3121079826    1.0904763016    0.0262860345
     11  H        -1.3818300947    1.2744052020   -2.9857648510
     12  C        -1.3220909307   -0.8845010021   -1.0470594893
     13  H        -1.7273363181   -1.5610096713   -0.3377038576
   Point Group: c1    Number of degrees of freedom:    33


   Energy is   -286.768155199

 Hessian Updated using BFGS Update

 33 Hessian modes will be used to form the next step
  Hessian Eigenvalues:
     0.002444    0.009120    0.017790    0.020057    0.026649    0.028096
     0.028914    0.031176    0.032042    0.045273    0.130181    0.151275
     0.154503    0.157194    0.159389    0.160009    0.161985    0.207609
     0.220002    0.220387    0.269615    0.290697    0.299214    0.311359
     0.315703    0.325926    0.345897    0.350659    0.428484    0.493728
     0.547294    0.593465    8.241076

 Minimum Search - Taking Simple RFO Step
 Searching for Lamda that Minimizes Along All modes
 Value Taken    Lamda =  -0.13583074
 Calculated Step too Large.  Step scaled by  0.364063
 Step Taken.  Stepsize is  0.300000

                             Maximum     Tolerance    Cnvgd?
         Gradient           0.109022      0.000600      NO
         Displacement       0.100833      0.002400      NO
         Energy change     -0.076748      0.000002      NO


 New Cartesian Coordinates Obtained by Inverse Iteration

 Displacement from previous Coordinates is:  0.582464
 ----------------------------------------------------------------
             Standard Nuclear Orientation (Angstroms)
    I     Atom           X                Y                Z
 ----------------------------------------------------------------
    1      C       1.5475858576     0.3294185814    -2.0123708946
    2      C       1.0648614899    -0.9391410830    -2.1549802187
    3      C      -0.3379172661    -1.1217867511    -2.3406989630
    4      C      -1.2021098669     0.3940348757    -0.8506748003
    5      C      -0.6679875955     0.6456383834    -2.2599530458
    6      N       0.6708936530     1.4045168664    -2.1683277614
    7      H       2.6057684788     0.3301924182    -1.7412466565
    8      H       1.6964613522    -1.7248074073    -1.7338664550
    9      H      -0.9563388683    -1.5343778198    -3.1573095738
   10      H      -1.3963755204     1.0802478354    -0.0125585225
   11      H      -1.2936914333     1.1778356229    -2.9973619947
   12      C      -1.3404961569    -0.9126599356    -1.0162473702
   13      H      -1.7579769461    -1.6268941603    -0.3282349500
 ----------------------------------------------------------------
 Nuclear Repulsion Energy =   267.9937227088 hartrees
 There are       25 alpha and       24 beta electrons
 Applying Cartesian multipole field
    Component          Value
    ---------          -----
     (2,0,0)        1.00000E-11
     (0,2,0)        2.00000E-11
     (0,0,2)       -3.00000E-11
 Nucleus-field energy     =    -0.0000000141 hartrees
 Requested basis set is 6-31G(d)
 There are 40 shells and 117 basis functions
 A cutoff of  1.0D-14 yielded    808 shell pairs
 There are      7080 function pairs
 Smallest overlap matrix eigenvalue = 1.77E-03
 Guess MOs from SCF MO coefficient file
 Reading MOs from coefficient file
 Reading MOs from coefficient file
 An unrestricted hybrid HF-DFT SCF calculation will be
 performed using Pulay DIIS extrapolation
 Exchange:     0.2000 Hartree-Fock + 0.0800 Slater + 0.7200 B88
 Correlation:  0.1900 VWN1RPA + 0.8100 LYP
 Using SG-1 standard quadrature grid
 SCF converges when DIIS error is below 1.0E-08
 Geometry optimization detected.  Setting ReadMinima to 0
 Setting SaveMinima to 0
Using Q-Chem read-in guess as SCF_GUESS READ specified.

 using 4 threads for integral computing
 -------------------------------------------------------
 OpenMP Integral computing Module                
 Release: version 1.0, May 2013, Q-Chem Inc. Pittsburgh 
 -------------------------------------------------------
 -------------------------------------------------------
 OpenMP BLAS3 based DFT computing Module                
 Release: version 1.0, May 2013, Q-Chem Inc. Pittsburgh 
 -------------------------------------------------------
 ---------------------------------------
  Cycle       Energy         DIIS Error
 ---------------------------------------
    1    -286.8565184064      4.78E-03
    2    -286.8069105793      1.18E-03
    3    -286.8063951644      1.41E-03
    4    -286.8095323905      3.83E-04
    5    -286.8097851248      1.27E-04
    6    -286.8098274593      4.16E-05
    7    -286.8098376871      1.97E-05
    8    -286.8098429873      8.31E-06
    9    -286.8098446517      4.06E-06
   10    -286.8098453217      2.18E-06
   11    -286.8098454864      6.82E-07
   12    -286.8098455392      2.52E-07
   13    -286.8098455688      1.44E-07
   14    -286.8098455842      8.34E-08
   15    -286.8098455927      4.07E-08
   16    -286.8098455959      1.61E-08
   17    -286.8098455963      7.38E-09 Convergence criterion met
 ---------------------------------------
 <S^2> = 0.7821
 SCF time:  CPU 43.87 s  wall 33.77 s
 SCF   energy in the final basis set = -286.80984560
 Total energy in the final basis set = -286.80984560
 
 --------------------------------------------------------------
 
                    Orbital Energies (a.u.)
 --------------------------------------------------------------
 
 Alpha MOs
 -- Occupied --
-14.347 -10.233 -10.223 -10.218 -10.207 -10.206 -10.198  -0.919
 -0.817  -0.766  -0.662  -0.619  -0.547  -0.528  -0.504  -0.473
 -0.424  -0.414  -0.378  -0.355  -0.327  -0.311  -0.270  -0.252
 -0.213
 -- Virtual --
 -0.002   0.022   0.066   0.119   0.128   0.130   0.147   0.165
  0.174   0.185   0.200   0.255   0.269   0.366   0.387   0.415
  0.486   0.504   0.522   0.535   0.556   0.579   0.599   0.609
  0.619   0.637   0.653   0.673   0.709   0.727   0.751   0.774
  0.789   0.828   0.839   0.842   0.859   0.879   0.899   0.916
  0.925   1.012   1.037   1.061   1.124   1.176   1.277   1.334
  1.364   1.419   1.434   1.475   1.538   1.560   1.593   1.651
  1.749   1.778   1.800   1.836   1.863   1.867   1.957   2.001
  2.081   2.104   2.143   2.168   2.189   2.229   2.321   2.358
  2.377   2.405   2.463   2.491   2.534   2.558   2.586   2.602
  2.713   2.779   2.853   2.893   2.990   3.843   4.080   4.184
  4.269   4.318   4.443   4.595
 
 Beta MOs
 -- Occupied --
-14.335 -10.233 -10.224 -10.222 -10.205 -10.199 -10.197  -0.905
 -0.809  -0.750  -0.662  -0.611  -0.542  -0.524  -0.500  -0.467
 -0.416  -0.408  -0.372  -0.343  -0.306  -0.300  -0.265  -0.245
 -- Virtual --
 -0.098   0.008   0.038   0.067   0.120   0.131   0.133   0.150
  0.168   0.177   0.193   0.205   0.260   0.272   0.373   0.392
  0.418   0.489   0.507   0.528   0.538   0.561   0.582   0.610
  0.614   0.621   0.639   0.660   0.679   0.713   0.734   0.756
  0.784   0.795   0.832   0.843   0.851   0.863   0.884   0.903
  0.920   0.938   1.014   1.043   1.065   1.129   1.183   1.284
  1.340   1.376   1.428   1.438   1.480   1.543   1.565   1.598
  1.660   1.760   1.787   1.807   1.847   1.868   1.876   1.961
  2.006   2.084   2.121   2.149   2.170   2.198   2.235   2.336
  2.366   2.382   2.409   2.472   2.494   2.547   2.563   2.595
  2.619   2.719   2.782   2.855   2.897   2.994   3.865   4.087
  4.182   4.272   4.320   4.451   4.596
 --------------------------------------------------------------
 
          Ground-State Mulliken Net Atomic Charges

     Atom                 Charge (a.u.)    Spin (a.u.)
  --------------------------------------------------------
      1 C                     0.056853      -0.245338
      2 C                    -0.084147       0.562736
      3 C                    -0.201872      -0.055591
      4 C                    -0.041571       0.018387
      5 C                    -0.106670      -0.026522
      6 N                    -0.359394       0.638181
      7 H                     0.140578       0.008501
      8 H                     0.136399      -0.027137
      9 H                     0.168397       0.028428
     10 H                     0.147943       0.005224
     11 H                     0.157804       0.011153
     12 C                    -0.147336       0.071327
     13 H                     0.133016       0.010651
  --------------------------------------------------------
  Sum of atomic charges =     0.000000
  Sum of spin   charges =     1.000000

 -----------------------------------------------------------------
                    Cartesian Multipole Moments
 -----------------------------------------------------------------
    Charge (ESU x 10^10)
                 0.0000
    Dipole Moment (Debye)
         X      -0.5633      Y      -1.8593      Z       0.5037
       Tot       2.0070
    Quadrupole Moments (Debye-Ang)
        XX     -38.0899     XY      -2.1576     YY     -43.3045
        XZ       1.6569     YZ       4.0519     ZZ     -41.4171
    Octopole Moments (Debye-Ang^2)
       XXX      15.1895    XXY       0.4455    XYY      -4.0889
       YYY      -3.6284    XXZ      71.2323    XYZ       4.0333
       YYZ      81.2339    XZZ      -8.0061    YZZ      -5.4437
       ZZZ     222.7645
    Hexadecapole Moments (Debye-Ang^3)
      XXXX    -345.9127   XXXY     -17.1798   XXYY     -99.8367
      XYYY     -26.3461   YYYY    -285.4221   XXXZ      21.8942
      XXYZ      -1.1910   XYYZ      23.2514   YYYZ      12.4402
      XXZZ    -213.6440   XYZZ     -12.9942   YYZZ    -216.6251
      XZZZ      73.5187   YZZZ       7.7532   ZZZZ    -955.8979
 -----------------------------------------------------------------
 Calculating analytic gradient of the SCF energy
 Gradient of SCF Energy
            1           2           3           4           5           6
    1   0.0119681  -0.0197746   0.1040545   0.0109092  -0.0461573  -0.0045913
    2  -0.0323838   0.0414241  -0.0823368  -0.0100780  -0.0175865   0.0612741
    3   0.0088230  -0.0199142  -0.0186513   0.0223519  -0.0083696  -0.0042313
            7           8           9          10          11          12
    1   0.0006682  -0.0009142  -0.0241965   0.0040186   0.0028597  -0.0396098
    2  -0.0237427   0.0056060   0.0093787   0.0041646   0.0114498   0.0196879
    3   0.0015098   0.0112046   0.0006061   0.0112877  -0.0051357   0.0027201
           13
    1   0.0007653
    2   0.0131426
    3  -0.0022012
 Max gradient component =       1.041E-01
 RMS gradient           =       2.892E-02
 Gradient time:  CPU 7.59 s  wall 2.58 s
 Geometry Optimization Parameters
   NAtoms,    NIC,     NZ,  NCons,   NDum,   NFix, NCnnct, MaxDiis
       13      72       0       0       0       0       0       0

 Cartesian Hessian Update
 Hessian Updated using BFGS Update


** GEOMETRY OPTIMIZATION IN DELOCALIZED INTERNAL COORDINATES **
   Searching for a Minimum

   Optimization Cycle:   4

                       Coordinates (Angstroms)
     ATOM                X               Y               Z
      1  C         1.5475858576    0.3294185814   -2.0123708946
      2  C         1.0648614899   -0.9391410830   -2.1549802187
      3  C        -0.3379172661   -1.1217867511   -2.3406989630
      4  C        -1.2021098669    0.3940348757   -0.8506748003
      5  C        -0.6679875955    0.6456383834   -2.2599530458
      6  N         0.6708936530    1.4045168664   -2.1683277614
      7  H         2.6057684788    0.3301924182   -1.7412466565
      8  H         1.6964613522   -1.7248074073   -1.7338664550
      9  H        -0.9563388683   -1.5343778198   -3.1573095738
     10  H        -1.3963755204    1.0802478354   -0.0125585225
     11  H        -1.2936914333    1.1778356229   -2.9973619947
     12  C        -1.3404961569   -0.9126599356   -1.0162473702
     13  H        -1.7579769461   -1.6268941603   -0.3282349500
   Point Group: c1    Number of degrees of freedom:    33


   Energy is   -286.809845596

 Hessian Updated using BFGS Update

 33 Hessian modes will be used to form the next step
  Hessian Eigenvalues:
     0.002072    0.009240    0.017405    0.019323    0.025516    0.028108
     0.028922    0.031111    0.033685    0.078927    0.126462    0.139566
     0.153059    0.157870    0.159582    0.160030    0.179646    0.201915
     0.220188    0.240567    0.275031    0.296304    0.304254    0.314891
     0.324538    0.345871    0.350570    0.412695    0.465057    0.509655
     0.572969    0.749675    7.840916

 Minimum Search - Taking Simple RFO Step
 Searching for Lamda that Minimizes Along All modes
 Value Taken    Lamda =  -0.12507322
 Calculated Step too Large.  Step scaled by  0.339911
 Step Taken.  Stepsize is  0.300000

                             Maximum     Tolerance    Cnvgd?
         Gradient           0.103985      0.000600      NO
         Displacement       0.102060      0.002400      NO
         Energy change     -0.041690      0.000002      NO


 New Cartesian Coordinates Obtained by Inverse Iteration

 Displacement from previous Coordinates is:  0.487668
 ----------------------------------------------------------------
             Standard Nuclear Orientation (Angstroms)
    I     Atom           X                Y                Z
 ----------------------------------------------------------------
    1      C       1.5693282484     0.3070111117    -1.9937020307
    2      C       1.0791951994    -0.9615666560    -2.1444165288
    3      C      -0.3588489341    -1.0628514319    -2.2938384441
    4      C      -1.2046157618     0.4093507531    -0.8750762283
    5      C      -0.6471223524     0.6683507626    -2.2751422404
    6      N       0.6338562280     1.2679183306    -2.1065425828
    7      H       2.6327373463     0.4089805514    -1.7649920214
    8      H       1.7016437832    -1.7850587122    -1.7869848536
    9      H      -0.9570250951    -1.4431480469    -3.1253352679
   10      H      -1.4414056872     1.1030966323    -0.0699780729
   11      H      -1.3175035393     1.1436955494    -3.0039094230
   12      C      -1.3157714598    -0.9056716429    -1.0033750598
   13      H      -1.7417907976    -1.6478897749    -0.3305384530
 ----------------------------------------------------------------
 Nuclear Repulsion Energy =   272.4318984689 hartrees
 There are       25 alpha and       24 beta electrons
 Applying Cartesian multipole field
    Component          Value
    ---------          -----
     (2,0,0)        1.00000E-11
     (0,2,0)        2.00000E-11
     (0,0,2)       -3.00000E-11
 Nucleus-field energy     =    -0.0000000140 hartrees
 Requested basis set is 6-31G(d)
 There are 40 shells and 117 basis functions
 A cutoff of  1.0D-14 yielded    807 shell pairs
 There are      7079 function pairs
 Smallest overlap matrix eigenvalue = 1.42E-03
 Guess MOs from SCF MO coefficient file
 Reading MOs from coefficient file
 Reading MOs from coefficient file
 An unrestricted hybrid HF-DFT SCF calculation will be
 performed using Pulay DIIS extrapolation
 Exchange:     0.2000 Hartree-Fock + 0.0800 Slater + 0.7200 B88
 Correlation:  0.1900 VWN1RPA + 0.8100 LYP
 Using SG-1 standard quadrature grid
 SCF converges when DIIS error is below 1.0E-08
 Geometry optimization detected.  Setting ReadMinima to 0
 Setting SaveMinima to 0
Using Q-Chem read-in guess as SCF_GUESS READ specified.

 using 4 threads for integral computing
 -------------------------------------------------------
 OpenMP Integral computing Module                
 Release: version 1.0, May 2013, Q-Chem Inc. Pittsburgh 
 -------------------------------------------------------
 -------------------------------------------------------
 OpenMP BLAS3 based DFT computing Module                
 Release: version 1.0, May 2013, Q-Chem Inc. Pittsburgh 
 -------------------------------------------------------
 ---------------------------------------
  Cycle       Energy         DIIS Error
 ---------------------------------------
    1    -286.9219765293      5.85E-03
    2    -286.8333356435      1.08E-03
    3    -286.8318748514      1.44E-03
    4    -286.8354841987      3.46E-04
    5    -286.8356849775      1.47E-04
    6    -286.8357302225      3.06E-05
    7    -286.8357368453      1.96E-05
    8    -286.8357404276      7.60E-06
    9    -286.8357414714      4.45E-06
   10    -286.8357417889      1.51E-06
   11    -286.8357418429      4.84E-07
   12    -286.8357418511      1.91E-07
   13    -286.8357418544      9.37E-08
   14    -286.8357418556      4.65E-08
   15    -286.8357418560      2.29E-08
   16    -286.8357418562      9.18E-09 Convergence criterion met
 ---------------------------------------
 <S^2> = 0.7775
 SCF time:  CPU 41.36 s  wall 23.06 s
 SCF   energy in the final basis set = -286.83574186
 Total energy in the final basis set = -286.83574186
 
 --------------------------------------------------------------
 
                    Orbital Energies (a.u.)
 --------------------------------------------------------------
 
 Alpha MOs
 -- Occupied --
-14.333 -10.226 -10.218 -10.211 -10.203 -10.201 -10.193  -0.945
 -0.821  -0.764  -0.665  -0.620  -0.550  -0.531  -0.504  -0.473
 -0.438  -0.415  -0.397  -0.355  -0.328  -0.316  -0.259  -0.245
 -0.203
 -- Virtual --
  0.009   0.024   0.084   0.123   0.132   0.135   0.156   0.168
  0.175   0.197   0.231   0.263   0.284   0.377   0.402   0.425
  0.488   0.511   0.535   0.540   0.562   0.594   0.598   0.614
  0.618   0.635   0.652   0.673   0.714   0.725   0.753   0.781
  0.801   0.829   0.838   0.843   0.859   0.885   0.910   0.920
  0.931   1.010   1.044   1.065   1.109   1.182   1.300   1.344
  1.393   1.425   1.436   1.486   1.550   1.557   1.603   1.680
  1.774   1.805   1.858   1.873   1.905   1.936   1.984   2.033
  2.064   2.100   2.172   2.193   2.212   2.265   2.340   2.384
  2.400   2.412   2.534   2.539   2.560   2.589   2.601   2.623
  2.698   2.820   2.875   2.956   3.003   3.932   4.079   4.186
  4.294   4.343   4.448   4.641
 
 Beta MOs
 -- Occupied --
-14.322 -10.226 -10.221 -10.211 -10.199 -10.195 -10.192  -0.931
 -0.814  -0.748  -0.665  -0.611  -0.546  -0.527  -0.500  -0.466
 -0.430  -0.409  -0.389  -0.342  -0.312  -0.304  -0.255  -0.237
 -- Virtual --
 -0.091   0.016   0.043   0.085   0.124   0.136   0.138   0.158
  0.172   0.177   0.205   0.237   0.268   0.286   0.384   0.406
  0.428   0.491   0.516   0.539   0.543   0.565   0.601   0.606
  0.617   0.623   0.638   0.661   0.678   0.720   0.732   0.760
  0.788   0.806   0.835   0.839   0.851   0.862   0.891   0.914
  0.925   0.945   1.013   1.049   1.071   1.114   1.189   1.305
  1.351   1.403   1.431   1.447   1.492   1.555   1.562   1.607
  1.688   1.786   1.814   1.868   1.884   1.908   1.943   1.988
  2.037   2.067   2.105   2.184   2.199   2.220   2.272   2.352
  2.396   2.403   2.422   2.540   2.549   2.568   2.599   2.612
  2.631   2.704   2.824   2.878   2.961   3.006   3.951   4.086
  4.184   4.298   4.345   4.457   4.642
 --------------------------------------------------------------
 
          Ground-State Mulliken Net Atomic Charges

     Atom                 Charge (a.u.)    Spin (a.u.)
  --------------------------------------------------------
      1 C                     0.054645      -0.227908
      2 C                    -0.100464       0.614772
      3 C                    -0.208719      -0.056960
      4 C                    -0.060786       0.018449
      5 C                    -0.084592      -0.024483
      6 N                    -0.347098       0.554501
      7 H                     0.148889       0.007596
      8 H                     0.135711      -0.029471
      9 H                     0.159102       0.030645
     10 H                     0.140557       0.006122
     11 H                     0.160964       0.019415
     12 C                    -0.129397       0.076372
     13 H                     0.131189       0.010951
  --------------------------------------------------------
  Sum of atomic charges =     0.000000
  Sum of spin   charges =     1.000000

 -----------------------------------------------------------------
                    Cartesian Multipole Moments
 -----------------------------------------------------------------
    Charge (ESU x 10^10)
                -0.0000
    Dipole Moment (Debye)
         X      -0.3872      Y      -1.5812      Z       0.2973
       Tot       1.6548
    Quadrupole Moments (Debye-Ang)
        XX     -37.2704     XY      -2.0064     YY     -42.9043
        XZ       1.3297     YZ       2.9530     ZZ     -40.7883
    Octopole Moments (Debye-Ang^2)
       XXX      16.4758    XXY       1.7778    XYY      -3.3444
       YYY      -0.7855    XXZ      68.6703    XYZ       4.0578
       YYZ      79.9150    XZZ      -7.0824    YZZ      -1.6125
       ZZZ     218.8846
    Hexadecapole Moments (Debye-Ang^3)
      XXXX    -339.2963   XXXY     -11.7364   XXYY     -95.9671
      XYYY     -21.5275   YYYY    -267.1753   XXXZ      17.9602
      XXYZ      -4.1930   XYYZ      20.3294   YYYZ       4.5111
      XXZZ    -206.2735   XYZZ     -12.0624   YYZZ    -210.6135
      XZZZ      69.9108   YZZZ      -5.7425   ZZZZ    -931.9070
 -----------------------------------------------------------------
 Calculating analytic gradient of the SCF energy
 Gradient of SCF Energy
            1           2           3           4           5           6
    1   0.0170528  -0.0115982   0.0764661   0.0208885  -0.0266709  -0.0288756
    2  -0.0129495   0.0495055  -0.0642707  -0.0063825   0.0265944  -0.0192837
    3   0.0085010  -0.0150531  -0.0054406   0.0116871  -0.0252030   0.0059120
            7           8           9          10          11          12
    1   0.0051657   0.0017262  -0.0184417   0.0039596  -0.0040678  -0.0320416
    2  -0.0169064   0.0039928   0.0171384  -0.0012002   0.0033103   0.0164546
    3  -0.0001078   0.0097822   0.0058933   0.0043004  -0.0009480  -0.0006969
           13
    1  -0.0035630
    2   0.0039970
    3   0.0013735
 Max gradient component =       7.647E-02
 RMS gradient           =       2.250E-02
 Gradient time:  CPU 7.58 s  wall 3.14 s
 Geometry Optimization Parameters
   NAtoms,    NIC,     NZ,  NCons,   NDum,   NFix, NCnnct, MaxDiis
       13      72       0       0       0       0       0       0

 Cartesian Hessian Update
 Hessian Updated using BFGS Update


** GEOMETRY OPTIMIZATION IN DELOCALIZED INTERNAL COORDINATES **
   Searching for a Minimum

   Optimization Cycle:   5

                       Coordinates (Angstroms)
     ATOM                X               Y               Z
      1  C         1.5693282484    0.3070111117   -1.9937020307
      2  C         1.0791951994   -0.9615666560   -2.1444165288
      3  C        -0.3588489341   -1.0628514319   -2.2938384441
      4  C        -1.2046157618    0.4093507531   -0.8750762283
      5  C        -0.6471223524    0.6683507626   -2.2751422404
      6  N         0.6338562280    1.2679183306   -2.1065425828
      7  H         2.6327373463    0.4089805514   -1.7649920214
      8  H         1.7016437832   -1.7850587122   -1.7869848536
      9  H        -0.9570250951   -1.4431480469   -3.1253352679
     10  H        -1.4414056872    1.1030966323   -0.0699780729
     11  H        -1.3175035393    1.1436955494   -3.0039094230
     12  C        -1.3157714598   -0.9056716429   -1.0033750598
     13  H        -1.7417907976   -1.6478897749   -0.3305384530
   Point Group: c1    Number of degrees of freedom:    33


   Energy is   -286.835741856

 Hessian Updated using BFGS Update

 33 Hessian modes will be used to form the next step
  Hessian Eigenvalues:
     0.002813    0.009389    0.018947    0.021463    0.027721    0.028158
     0.028955    0.031259    0.038901    0.107173    0.127937    0.140263
     0.153368    0.157938    0.159979    0.163984    0.186334    0.217945
     0.220194    0.265763    0.295294    0.302935    0.314530    0.315078
     0.345871    0.349862    0.380972    0.449497    0.483444    0.508003
     0.588359    1.470187    7.728566

 Minimum Search - Taking Simple RFO Step
 Searching for Lamda that Minimizes Along All modes
 Value Taken    Lamda =  -0.06746141
 Calculated Step too Large.  Step scaled by  0.440243
 Step Taken.  Stepsize is  0.300000

                             Maximum     Tolerance    Cnvgd?
         Gradient           0.092923      0.000600      NO
         Displacement       0.144201      0.002400      NO
         Energy change     -0.025896      0.000002      NO


 New Cartesian Coordinates Obtained by Inverse Iteration

 Displacement from previous Coordinates is:  0.524415
 ----------------------------------------------------------------
             Standard Nuclear Orientation (Angstroms)
    I     Atom           X                Y                Z
 ----------------------------------------------------------------
    1      C       1.5826620471     0.3120679266    -2.0072077538
    2      C       1.0670723219    -0.9595343539    -2.1431974597
    3      C      -0.3924316501    -0.9832965347    -2.2542209793
    4      C      -1.2553943171     0.4148275366    -0.8631699649
    5      C      -0.5957903729     0.6084239069    -2.2207242586
    6      N       0.6788552291     1.2758229122    -2.0955768574
    7      H       2.6502363049     0.4424130848    -1.8258872577
    8      H       1.6694099920    -1.8199825899    -1.8425103957
    9      H      -0.9594624411    -1.3625815224    -3.1067790327
   10      H      -1.5497056518     1.1315827583    -0.1025087211
   11      H      -1.2279687349     1.0381189182    -3.0049071290
   12      C      -1.3051394744    -0.9060955514    -0.9691416858
   13      H      -1.7296660748    -1.6895490648    -0.3379997109
 ----------------------------------------------------------------
 Nuclear Repulsion Energy =   274.4219427324 hartrees
 There are       25 alpha and       24 beta electrons
 Applying Cartesian multipole field
    Component          Value
    ---------          -----
     (2,0,0)        1.00000E-11
     (0,2,0)        2.00000E-11
     (0,0,2)       -3.00000E-11
 Nucleus-field energy     =    -0.0000000137 hartrees
 Requested basis set is 6-31G(d)
 There are 40 shells and 117 basis functions
 A cutoff of  1.0D-14 yielded    808 shell pairs
 There are      7080 function pairs
 Smallest overlap matrix eigenvalue = 1.09E-03
 Guess MOs from SCF MO coefficient file
 Reading MOs from coefficient file
 Reading MOs from coefficient file
 An unrestricted hybrid HF-DFT SCF calculation will be
 performed using Pulay DIIS extrapolation
 Exchange:     0.2000 Hartree-Fock + 0.0800 Slater + 0.7200 B88
 Correlation:  0.1900 VWN1RPA + 0.8100 LYP
 Using SG-1 standard quadrature grid
 SCF converges when DIIS error is below 1.0E-08
 Geometry optimization detected.  Setting ReadMinima to 0
 Setting SaveMinima to 0
Using Q-Chem read-in guess as SCF_GUESS READ specified.

 using 4 threads for integral computing
 -------------------------------------------------------
 OpenMP Integral computing Module                
 Release: version 1.0, May 2013, Q-Chem Inc. Pittsburgh 
 -------------------------------------------------------
 -------------------------------------------------------
 OpenMP BLAS3 based DFT computing Module                
 Release: version 1.0, May 2013, Q-Chem Inc. Pittsburgh 
 -------------------------------------------------------
 ---------------------------------------
  Cycle       Energy         DIIS Error
 ---------------------------------------
    1    -286.8991614069      4.74E-03
    2    -286.8560027834      7.85E-04
    3    -286.8560272188      8.52E-04
    4    -286.8571428807      2.43E-04
    5    -286.8572370337      9.62E-05
    6    -286.8572574080      2.30E-05
    7    -286.8572605589      1.50E-05
    8    -286.8572616688      4.11E-06
    9    -286.8572621256      2.00E-06
   10    -286.8572622484      9.35E-07
   11    -286.8572622694      2.59E-07
   12    -286.8572622751      1.04E-07
   13    -286.8572622781      4.48E-08
   14    -286.8572622790      2.17E-08
   15    -286.8572622797      1.46E-08
   16    -286.8572622799      6.09E-09 Convergence criterion met
 ---------------------------------------
 <S^2> = 0.7762
 SCF time:  CPU 41.27 s  wall 32.11 s
 SCF   energy in the final basis set = -286.85726228
 Total energy in the final basis set = -286.85726228
 
 --------------------------------------------------------------
 
                    Orbital Energies (a.u.)
 --------------------------------------------------------------
 
 Alpha MOs
 -- Occupied --
-14.329 -10.217 -10.216 -10.204 -10.204 -10.202 -10.194  -0.952
 -0.838  -0.757  -0.670  -0.618  -0.555  -0.528  -0.510  -0.479
 -0.433  -0.410  -0.394  -0.352  -0.331  -0.325  -0.267  -0.256
 -0.203
 -- Virtual --
  0.011   0.027   0.107   0.127   0.137   0.146   0.165   0.169
  0.181   0.192   0.228   0.266   0.287   0.378   0.412   0.438
  0.485   0.501   0.534   0.557   0.570   0.593   0.607   0.622
  0.628   0.632   0.656   0.672   0.717   0.727   0.755   0.781
  0.795   0.827   0.834   0.845   0.860   0.886   0.909   0.920
  0.933   0.997   1.019   1.061   1.097   1.176   1.289   1.378
  1.402   1.432   1.443   1.482   1.526   1.591   1.657   1.697
  1.783   1.825   1.854   1.878   1.926   1.945   1.993   2.035
  2.086   2.143   2.179   2.211   2.221   2.270   2.347   2.389
  2.392   2.428   2.542   2.563   2.574   2.592   2.619   2.633
  2.711   2.850   2.903   2.943   3.014   3.925   4.072   4.188
  4.293   4.356   4.451   4.710
 
 Beta MOs
 -- Occupied --
-14.319 -10.219 -10.217 -10.204 -10.201 -10.195 -10.193  -0.940
 -0.831  -0.740  -0.670  -0.610  -0.551  -0.524  -0.506  -0.472
 -0.424  -0.404  -0.387  -0.339  -0.322  -0.308  -0.262  -0.248
 -- Virtual --
 -0.089   0.016   0.048   0.108   0.130   0.140   0.147   0.167
  0.172   0.185   0.199   0.234   0.270   0.289   0.384   0.416
  0.441   0.489   0.508   0.536   0.563   0.573   0.603   0.615
  0.624   0.631   0.639   0.663   0.676   0.723   0.733   0.764
  0.786   0.800   0.833   0.838   0.849   0.862   0.891   0.913
  0.926   0.945   1.001   1.025   1.066   1.102   1.183   1.293
  1.386   1.412   1.437   1.454   1.489   1.531   1.596   1.664
  1.701   1.792   1.831   1.872   1.887   1.933   1.949   1.996
  2.039   2.090   2.146   2.193   2.221   2.230   2.277   2.360
  2.392   2.399   2.435   2.552   2.572   2.583   2.605   2.626
  2.639   2.716   2.853   2.905   2.947   3.017   3.942   4.080
  4.185   4.298   4.359   4.459   4.711
 --------------------------------------------------------------
 
          Ground-State Mulliken Net Atomic Charges

     Atom                 Charge (a.u.)    Spin (a.u.)
  --------------------------------------------------------
      1 C                     0.058889      -0.226410
      2 C                    -0.113923       0.661048
      3 C                    -0.186389      -0.055327
      4 C                    -0.059103       0.025722
      5 C                    -0.080200      -0.026451
      6 N                    -0.350460       0.529011
      7 H                     0.144412       0.007249
      8 H                     0.133022      -0.030907
      9 H                     0.153841       0.032065
     10 H                     0.139180       0.005106
     11 H                     0.156015       0.018672
     12 C                    -0.127525       0.051265
     13 H                     0.132242       0.008957
  --------------------------------------------------------
  Sum of atomic charges =    -0.000000
  Sum of spin   charges =     1.000000

 -----------------------------------------------------------------
                    Cartesian Multipole Moments
 -----------------------------------------------------------------
    Charge (ESU x 10^10)
                 0.0000
    Dipole Moment (Debye)
         X      -0.4550      Y      -1.7836      Z       0.2599
       Tot       1.8589
    Quadrupole Moments (Debye-Ang)
        XX     -37.3731     XY      -1.8501     YY     -42.8738
        XZ       1.0612     YZ       3.4877     ZZ     -40.6582
    Octopole Moments (Debye-Ang^2)
       XXX      15.5774    XXY       1.5585    XYY      -3.5401
       YYY      -2.4967    XXZ      68.4090    XYZ       3.6003
       YYZ      79.8944    XZZ      -5.8634    YZZ      -3.2618
       ZZZ     216.2938
    Hexadecapole Moments (Debye-Ang^3)
      XXXX    -344.2457   XXXY     -13.2258   XXYY     -95.3877
      XYYY     -23.5467   YYYY    -258.3020   XXXZ      21.0731
      XXYZ      -2.7196   XYYZ      20.5356   YYYZ       8.4603
      XXZZ    -205.5178   XYZZ     -11.6373   YYZZ    -209.5341
      XZZZ      69.9995   YZZZ      -0.2995   ZZZZ    -914.3749
 -----------------------------------------------------------------
 Calculating analytic gradient of the SCF energy
 Gradient of SCF Energy
            1           2           3           4           5           6
    1   0.0007782  -0.0142027   0.0442052   0.0108776  -0.0045361  -0.0085066
    2  -0.0015769   0.0485362  -0.0401080  -0.0086363  -0.0081656  -0.0139786
    3   0.0057638  -0.0157665  -0.0009338   0.0060504  -0.0112457   0.0027295
            7           8           9          10          11          12
    1   0.0026772   0.0016631  -0.0135216   0.0040353   0.0000928  -0.0202445
    2  -0.0111331   0.0016228   0.0167422  -0.0007533  -0.0016923   0.0196321
    3   0.0000455   0.0083107   0.0058449   0.0020750  -0.0006984  -0.0038746
           13
    1  -0.0033180
    2  -0.0004892
    3   0.0016990
 Max gradient component =       4.854E-02
 RMS gradient           =       1.492E-02
 Gradient time:  CPU 7.60 s  wall 5.52 s
 Geometry Optimization Parameters
   NAtoms,    NIC,     NZ,  NCons,   NDum,   NFix, NCnnct, MaxDiis
       13      72       0       0       0       0       0       0

 Cartesian Hessian Update
 Hessian Updated using BFGS Update


** GEOMETRY OPTIMIZATION IN DELOCALIZED INTERNAL COORDINATES **
   Searching for a Minimum

   Optimization Cycle:   6

                       Coordinates (Angstroms)
     ATOM                X               Y               Z
      1  C         1.5826620471    0.3120679266   -2.0072077538
      2  C         1.0670723219   -0.9595343539   -2.1431974597
      3  C        -0.3924316501   -0.9832965347   -2.2542209793
      4  C        -1.2553943171    0.4148275366   -0.8631699649
      5  C        -0.5957903729    0.6084239069   -2.2207242586
      6  N         0.6788552291    1.2758229122   -2.0955768574
      7  H         2.6502363049    0.4424130848   -1.8258872577
      8  H         1.6694099920   -1.8199825899   -1.8425103957
      9  H        -0.9594624411   -1.3625815224   -3.1067790327
     10  H        -1.5497056518    1.1315827583   -0.1025087211
     11  H        -1.2279687349    1.0381189182   -3.0049071290
     12  C        -1.3051394744   -0.9060955514   -0.9691416858
     13  H        -1.7296660748   -1.6895490648   -0.3379997109
   Point Group: c1    Number of degrees of freedom:    33


   Energy is   -286.857262280

 Hessian Updated using BFGS Update

 33 Hessian modes will be used to form the next step
  Hessian Eigenvalues:
     0.002945    0.009254    0.018938    0.023093    0.027997    0.028457
     0.029023    0.030968    0.048068    0.073278    0.130474    0.142476
     0.153316    0.157937    0.160021    0.163469    0.207023    0.214797
     0.264298    0.277302    0.297319    0.308421    0.314881    0.324368
     0.346205    0.350581    0.419277    0.458534    0.483312    0.535938
     0.604404    2.189297    7.749624

 Minimum Search - Taking Simple RFO Step
 Searching for Lamda that Minimizes Along All modes
 Value Taken    Lamda =  -0.04678336
 Calculated Step too Large.  Step scaled by  0.445759
 Step Taken.  Stepsize is  0.300000

                             Maximum     Tolerance    Cnvgd?
         Gradient           0.053941      0.000600      NO
         Displacement       0.129479      0.002400      NO
         Energy change     -0.021520      0.000002      NO


 New Cartesian Coordinates Obtained by Inverse Iteration

 Displacement from previous Coordinates is:  0.819965
 ----------------------------------------------------------------
             Standard Nuclear Orientation (Angstroms)
    I     Atom           X                Y                Z
 ----------------------------------------------------------------
    1      C       1.6127114216     0.2855233320    -2.0843500763
    2      C       1.0802347090    -1.0040905836    -2.1232332959
    3      C      -0.4012996196    -0.9918418715    -2.2277417507
    4      C      -1.3598412121     0.4249744728    -0.8524351183
    5      C      -0.5726373509     0.7358640578    -2.1076428973
    6      N       0.7447442955     1.2589171738    -2.2168465060
    7      H       2.6778750686     0.4613997800    -1.9405181202
    8      H       1.6640736894    -1.8690595127    -1.8039140872
    9      H      -0.8974478648    -1.4643481425    -3.0794600220
   10      H      -1.7547344397     1.0949684749    -0.0985038132
   11      H      -1.1528993833     1.1950808491    -2.9126261471
   12      C      -1.3008747369    -0.9050530103    -0.9663183065
   13      H      -1.7072273989    -1.7201175935    -0.3602410660
 ----------------------------------------------------------------
 Nuclear Repulsion Energy =   270.7905721435 hartrees
 There are       25 alpha and       24 beta electrons
 Applying Cartesian multipole field
    Component          Value
    ---------          -----
     (2,0,0)        1.00000E-11
     (0,2,0)        2.00000E-11
     (0,0,2)       -3.00000E-11
 Nucleus-field energy     =    -0.0000000136 hartrees
 Requested basis set is 6-31G(d)
 There are 40 shells and 117 basis functions
 A cutoff of  1.0D-14 yielded    805 shell pairs
 There are      7077 function pairs
 Smallest overlap matrix eigenvalue = 1.20E-03
 Guess MOs from SCF MO coefficient file
 Reading MOs from coefficient file
 Reading MOs from coefficient file
 An unrestricted hybrid HF-DFT SCF calculation will be
 performed using Pulay DIIS extrapolation
 Exchange:     0.2000 Hartree-Fock + 0.0800 Slater + 0.7200 B88
 Correlation:  0.1900 VWN1RPA + 0.8100 LYP
 Using SG-1 standard quadrature grid
 SCF converges when DIIS error is below 1.0E-08
 Geometry optimization detected.  Setting ReadMinima to 0
 Setting SaveMinima to 0
Using Q-Chem read-in guess as SCF_GUESS READ specified.

 using 4 threads for integral computing
 -------------------------------------------------------
 OpenMP Integral computing Module                
 Release: version 1.0, May 2013, Q-Chem Inc. Pittsburgh 
 -------------------------------------------------------
 -------------------------------------------------------
 OpenMP BLAS3 based DFT computing Module                
 Release: version 1.0, May 2013, Q-Chem Inc. Pittsburgh 
 -------------------------------------------------------
 ---------------------------------------
  Cycle       Energy         DIIS Error
 ---------------------------------------
    1    -286.8158906356      5.96E-03
    2    -286.8523433238      1.13E-03
    3    -286.8523122790      1.29E-03
    4    -286.8550428391      3.57E-04
    5    -286.8552537060      1.39E-04
    6    -286.8553026260      4.36E-05
    7    -286.8553168839      2.67E-05
    8    -286.8553220469      8.71E-06
    9    -286.8553240012      5.54E-06
   10    -286.8553247371      2.23E-06
   11    -286.8553248579      5.87E-07
   12    -286.8553248762      2.25E-07
   13    -286.8553248807      1.07E-07
   14    -286.8553248825      4.23E-08
   15    -286.8553248834      2.70E-08
   16    -286.8553248838      9.72E-09 Convergence criterion met
 ---------------------------------------
 <S^2> = 0.7759
 SCF time:  CPU 41.01 s  wall 31.95 s
 SCF   energy in the final basis set = -286.85532488
[...]
     0.160468    0.163597    0.175852    0.185770    0.253738    0.294716
     0.299111    0.314610    0.315622    0.345892    0.351395    0.404400
     0.438226    0.442666    0.485922    0.550172    0.577846    0.925350
     1.396377    4.174223    6.514589

 Minimum Search - Taking Simple RFO Step
 Searching for Lamda that Minimizes Along All modes
 Value Taken    Lamda =   0.00000000
 Step Taken.  Stepsize is  0.004748

                             Maximum     Tolerance    Cnvgd?
         Gradient           0.000910      0.000600      NO
         Displacement       0.002198      0.002400     YES
         Energy change     -0.000001      0.000002     YES


 New Cartesian Coordinates Obtained by Inverse Iteration

 Displacement from previous Coordinates is:  0.004336
 ----------------------------------------------------------------
             Standard Nuclear Orientation (Angstroms)
    I     Atom           X                Y                Z
 ----------------------------------------------------------------
    1      C       1.5936797696     0.2623691000    -1.9951682913
    2      C       1.0524876239    -1.0284782474    -2.1030365162
    3      C      -0.4305437568    -0.9033924565    -2.2282590132
    4      C      -1.3614598799     0.4486771499    -0.8836934692
    5      C      -0.5952424401     0.6677309201    -2.1881864383
    6      N       0.7260595644     1.2680541529    -2.0374118490
    7      H       2.6527200279     0.4764579676    -1.8576126473
    8      H       1.6143290426    -1.9549688302    -2.0561861348
    9      H      -0.8747691619    -1.4645096130    -3.0606947088
   10      H      -1.7998774057     1.1531548661    -0.1833347676
   11      H      -1.1541547808     1.1469137829    -3.0012590994
   12      C      -1.2365600861    -0.8824864836    -0.9185137473
   13      H      -1.5539913390    -1.6873048825    -0.2604745243
 ----------------------------------------------------------------
 Nuclear Repulsion Energy =   273.0897629930 hartrees
 There are       25 alpha and       24 beta electrons
 Applying Cartesian multipole field
    Component          Value
    ---------          -----
     (2,0,0)        1.00000E-11
     (0,2,0)        2.00000E-11
     (0,0,2)       -3.00000E-11
 Nucleus-field energy     =    -0.0000000132 hartrees
 Requested basis set is 6-31G(d)
 There are 40 shells and 117 basis functions
 A cutoff of  1.0D-14 yielded    806 shell pairs
 There are      7078 function pairs
 Smallest overlap matrix eigenvalue = 9.73E-04
 Guess MOs from SCF MO coefficient file
 Reading MOs from coefficient file
 Reading MOs from coefficient file
 An unrestricted hybrid HF-DFT SCF calculation will be
 performed using Pulay DIIS extrapolation
 Exchange:     0.2000 Hartree-Fock + 0.0800 Slater + 0.7200 B88
 Correlation:  0.1900 VWN1RPA + 0.8100 LYP
 Using SG-1 standard quadrature grid
 SCF converges when DIIS error is below 1.0E-08
 Geometry optimization detected.  Setting ReadMinima to 0
 Setting SaveMinima to 0
Using Q-Chem read-in guess as SCF_GUESS READ specified.

 using 4 threads for integral computing
 -------------------------------------------------------
 OpenMP Integral computing Module                
 Release: version 1.0, May 2013, Q-Chem Inc. Pittsburgh 
 -------------------------------------------------------
 -------------------------------------------------------
 OpenMP BLAS3 based DFT computing Module                
 Release: version 1.0, May 2013, Q-Chem Inc. Pittsburgh 
 -------------------------------------------------------
 ---------------------------------------
  Cycle       Energy         DIIS Error
 ---------------------------------------
    1    -286.8754311937      1.48E-05
    2    -286.8755009031      2.43E-06
    3    -286.8755009146      2.96E-06
    4    -286.8755009302      6.99E-07
    5    -286.8755009313      4.33E-07
    6    -286.8755009318      1.35E-07
    7    -286.8755009319      6.13E-08
    8    -286.8755009320      2.12E-08
    9    -286.8755009320      1.19E-08
   10    -286.8755009320      3.59E-09 Convergence criterion met
 ---------------------------------------
 <S^2> = 0.7769
 SCF time:  CPU 25.67 s  wall 14.55 s
 SCF   energy in the final basis set = -286.87550093
 Total energy in the final basis set = -286.87550093
 
 --------------------------------------------------------------
 
                    Orbital Energies (a.u.)
 --------------------------------------------------------------
 
 Alpha MOs
 -- Occupied --
-14.328 -10.217 -10.216 -10.207 -10.203 -10.200 -10.195  -0.944
 -0.837  -0.752  -0.665  -0.618  -0.554  -0.523  -0.515  -0.481
 -0.428  -0.403  -0.386  -0.355  -0.341  -0.322  -0.270  -0.253
 -0.203
 -- Virtual --
  0.012   0.031   0.114   0.130   0.143   0.147   0.160   0.166
  0.186   0.188   0.216   0.266   0.295   0.362   0.409   0.452
  0.486   0.502   0.531   0.544   0.575   0.592   0.597   0.618
  0.624   0.634   0.655   0.680   0.695   0.747   0.773   0.786
  0.813   0.825   0.839   0.855   0.860   0.876   0.910   0.927
  0.956   0.970   1.018   1.064   1.091   1.170   1.235   1.411
  1.420   1.436   1.471   1.496   1.519   1.572   1.637   1.695
  1.762   1.822   1.883   1.886   1.935   1.948   1.976   2.028
  2.050   2.143   2.175   2.211   2.222   2.265   2.309   2.353
  2.411   2.425   2.522   2.559   2.574   2.606   2.619   2.674
  2.693   2.864   2.906   2.917   2.993   3.909   4.086   4.197
  4.295   4.373   4.449   4.716
 
 Beta MOs
 -- Occupied --
-14.318 -10.219 -10.218 -10.203 -10.199 -10.198 -10.194  -0.932
 -0.831  -0.734  -0.665  -0.610  -0.549  -0.520  -0.512  -0.475
 -0.420  -0.396  -0.381  -0.343  -0.334  -0.301  -0.264  -0.246
 -- Virtual --
 -0.087   0.016   0.054   0.116   0.132   0.147   0.149   0.162
  0.167   0.190   0.193   0.222   0.270   0.296   0.368   0.414
  0.455   0.491   0.509   0.534   0.548   0.579   0.598   0.613
  0.618   0.629   0.634   0.661   0.684   0.707   0.751   0.776
  0.795   0.820   0.831   0.845   0.859   0.863   0.884   0.913
  0.931   0.963   0.976   1.025   1.070   1.095   1.177   1.239
  1.417   1.436   1.441   1.477   1.504   1.523   1.579   1.639
  1.699   1.775   1.829   1.898   1.900   1.939   1.954   1.978
  2.031   2.053   2.148   2.185   2.225   2.234   2.269   2.322
  2.358   2.417   2.432   2.535   2.568   2.585   2.616   2.627
  2.678   2.697   2.867   2.908   2.920   2.996   3.925   4.094
  4.196   4.301   4.375   4.457   4.716
 --------------------------------------------------------------
 
          Ground-State Mulliken Net Atomic Charges

     Atom                 Charge (a.u.)    Spin (a.u.)
  --------------------------------------------------------
      1 C                     0.048301      -0.230673
      2 C                    -0.114883       0.693750
      3 C                    -0.193805      -0.053953
      4 C                    -0.075684       0.032616
      5 C                    -0.061911      -0.027731
      6 N                    -0.351280       0.516407
      7 H                     0.140544       0.007431
      8 H                     0.143393      -0.032175
      9 H                     0.148167       0.025170
     10 H                     0.137405       0.003587
     11 H                     0.151439       0.025239
     12 C                    -0.105014       0.033468
     13 H                     0.133329       0.006865
  --------------------------------------------------------
  Sum of atomic charges =     0.000000
  Sum of spin   charges =     1.000000

 -----------------------------------------------------------------
                    Cartesian Multipole Moments
 -----------------------------------------------------------------
    Charge (ESU x 10^10)
                 0.0000
    Dipole Moment (Debye)
         X      -0.4840      Y      -2.0965      Z       0.0483
       Tot       2.1522
    Quadrupole Moments (Debye-Ang)
        XX     -37.8697     XY      -2.5707     YY     -41.7208
        XZ       0.4751     YZ       4.1342     ZZ     -40.0855
    Octopole Moments (Debye-Ang^2)
       XXX      15.4465    XXY       1.8465    XYY      -3.1327
       YYY      -5.6510    XXZ      68.3830    XYZ       5.1856
       YYZ      75.5919    XZZ      -3.2288    YZZ      -5.7336
       ZZZ     212.3493
    Hexadecapole Moments (Debye-Ang^3)
      XXXX    -351.9935   XXXY     -10.6209   XXYY     -96.1196
      XYYY     -20.6815   YYYY    -256.1158   XXXZ      20.3079
      XXYZ      -1.0201   XYYZ      19.0113   YYYZ      14.7831
      XXZZ    -204.4782   XYZZ     -13.3434   YYZZ    -196.8239
      XZZZ      62.7111   YZZZ       6.9276   ZZZZ    -890.9610
 -----------------------------------------------------------------
 Calculating analytic gradient of the SCF energy
 Gradient of SCF Energy
            1           2           3           4           5           6
    1  -0.0000120  -0.0000267  -0.0001998   0.0000373   0.0000004  -0.0000620
    2   0.0000830  -0.0000047  -0.0000734  -0.0000074  -0.0000154   0.0000139
    3   0.0000319   0.0000028  -0.0001785  -0.0000712   0.0001045   0.0000137
            7           8           9          10          11          12
    1  -0.0000096   0.0000268   0.0000745  -0.0000028   0.0000584   0.0000993
    2   0.0000229   0.0000178   0.0000028  -0.0000263   0.0000118  -0.0000721
    3   0.0000231   0.0000243  -0.0000199   0.0000170  -0.0000040  -0.0000364
           13
    1   0.0000162
    2   0.0000471
    3   0.0000928
 Max gradient component =       1.998E-04
 RMS gradient           =       6.173E-05
 Gradient time:  CPU 7.85 s  wall 5.88 s
 Geometry Optimization Parameters
   NAtoms,    NIC,     NZ,  NCons,   NDum,   NFix, NCnnct, MaxDiis
       13      72       0       0       0       0       0       0

 Cartesian Hessian Update
 Hessian Updated using BFGS Update


** GEOMETRY OPTIMIZATION IN DELOCALIZED INTERNAL COORDINATES **
   Searching for a Minimum

   Optimization Cycle:  22

                       Coordinates (Angstroms)
     ATOM                X               Y               Z
      1  C         1.5936797696    0.2623691000   -1.9951682913
      2  C         1.0524876239   -1.0284782474   -2.1030365162
      3  C        -0.4305437568   -0.9033924565   -2.2282590132
      4  C        -1.3614598799    0.4486771499   -0.8836934692
      5  C        -0.5952424401    0.6677309201   -2.1881864383
      6  N         0.7260595644    1.2680541529   -2.0374118490
      7  H         2.6527200279    0.4764579676   -1.8576126473
      8  H         1.6143290426   -1.9549688302   -2.0561861348
      9  H        -0.8747691619   -1.4645096130   -3.0606947088
     10  H        -1.7998774057    1.1531548661   -0.1833347676
     11  H        -1.1541547808    1.1469137829   -3.0012590994
     12  C        -1.2365600861   -0.8824864836   -0.9185137473
     13  H        -1.5539913390   -1.6873048825   -0.2604745243
   Point Group: c1    Number of degrees of freedom:    33


   Energy is   -286.875500932

 Hessian Updated using BFGS Update

 33 Hessian modes will be used to form the next step
  Hessian Eigenvalues:
     0.009165    0.013937    0.021679    0.029714    0.031873    0.043523
     0.056800    0.113921    0.120789    0.140998    0.152478    0.156556
     0.160353    0.162954    0.170284    0.184435    0.236649    0.277510
     0.297887    0.307383    0.315484    0.318405    0.345913    0.351466
     0.415440    0.442138    0.462633    0.507583    0.550354    0.881761
     1.390832    4.104823    6.031376

 Minimum Search - Taking Simple RFO Step
 Searching for Lamda that Minimizes Along All modes
 Value Taken    Lamda =  -0.00000104
 Step Taken.  Stepsize is  0.005089

                             Maximum     Tolerance    Cnvgd?
         Gradient           0.000512      0.000600     YES
         Displacement       0.002317      0.002400     YES
         Energy change     -0.000001      0.000002     YES


                       Distance Matrix (Angstroms)
             C (  1)   C (  2)   C (  3)   C (  4)   C (  5)   N (  6)
   C (  2)  1.403856
   C (  3)  2.347512  1.493556
   C (  4)  3.162742  3.081546  2.121922
   C (  5)  2.234492  2.366303  1.580241  1.528652
   N (  6)  1.328891  2.320544  2.467658  2.521940  1.459096
   H (  7)  1.089184  2.210387  3.398217  4.130730  3.270340  2.090687
   H (  8)  2.218273  1.084549  2.305846  4.000946  3.431936  3.343240
   H (  9)  3.195418  2.195803  1.097788  2.938790  2.320745  3.328162
   H ( 10)  3.948730  4.071948  3.207207  1.085818  2.388768  3.135468
   H ( 11)  3.056997  3.226206  2.307574  2.239329  1.096853  2.116337
   C ( 12)  3.237304  2.581501  1.538029  1.337464  2.103932  3.119076
   H ( 13)  4.088793  3.259267  2.397672  2.233358  3.190841  4.134040
             H (  7)   H (  8)   H (  9)   H ( 10)   H ( 11)   C ( 12)
   H (  8)  2.651325
   H (  9)  4.202135  2.728589
   H ( 10)  4.804867  4.982450  3.998399
   H ( 11)  4.031096  4.263724  2.626998  2.890968
   C ( 12)  4.225534  3.251474  2.249129  2.236437  2.909138
   H ( 13)  4.992909  3.651640  2.890020  2.852126  3.962899  1.086973

 
 Final energy is   -286.875500931963     


 ******************************
 **  OPTIMIZATION CONVERGED  **
 ******************************

                       Coordinates (Angstroms)
     ATOM                X               Y               Z
      1  C         1.5936797696    0.2623691000   -1.9951682913
      2  C         1.0524876239   -1.0284782474   -2.1030365162
      3  C        -0.4305437568   -0.9033924565   -2.2282590132
      4  C        -1.3614598799    0.4486771499   -0.8836934692
      5  C        -0.5952424401    0.6677309201   -2.1881864383
      6  N         0.7260595644    1.2680541529   -2.0374118490
      7  H         2.6527200279    0.4764579676   -1.8576126473
      8  H         1.6143290426   -1.9549688302   -2.0561861348
      9  H        -0.8747691619   -1.4645096130   -3.0606947088
     10  H        -1.7998774057    1.1531548661   -0.1833347676
     11  H        -1.1541547808    1.1469137829   -3.0012590994
     12  C        -1.2365600861   -0.8824864836   -0.9185137473
     13  H        -1.5539913390   -1.6873048825   -0.2604745243

Z-matrix Print:
$molecule
0 2
N 
C  1 1.328891
H  2 1.089184 1 119.346037
C  2 1.403856 1 116.214345 3 178.516183 0
H  4 1.084549 2 125.624479 1 -177.983788 0
C  1 1.459096 2 106.448281 3 -178.346848 0
H  6 1.096853 1 110.995447 2 -130.829041 0
C  4 1.493556 2 108.193141 1 -0.591225 0
H  8 1.097788 4 114.997074 2 129.901007 0
C  6 1.528652 1 115.130306 2 94.718894 0
H  10 1.085818 6 131.287230 1 68.604477 0
C  10 1.337464 6 94.220697 1 -109.162053 0
H  12 1.086973 10 133.939726 6 179.070740 0
$end

 
 --------------------------------------------------------------
 
                    Orbital Energies (a.u.)
 --------------------------------------------------------------
 
 Alpha MOs
 -- Occupied --
-14.328 -10.217 -10.216 -10.207 -10.203 -10.200 -10.195  -0.944
 -0.837  -0.752  -0.665  -0.618  -0.554  -0.523  -0.515  -0.481
 -0.428  -0.403  -0.386  -0.355  -0.341  -0.322  -0.270  -0.253
 -0.203
 -- Virtual --
  0.012   0.031   0.114   0.130   0.143   0.147   0.160   0.166
  0.186   0.188   0.216   0.266   0.295   0.362   0.409   0.452
  0.486   0.502   0.531   0.544   0.575   0.592   0.597   0.618
  0.624   0.634   0.655   0.680   0.695   0.747   0.773   0.786
  0.813   0.825   0.839   0.855   0.860   0.876   0.910   0.927
  0.956   0.970   1.018   1.064   1.091   1.170   1.235   1.411
  1.420   1.436   1.471   1.496   1.519   1.572   1.637   1.695
  1.762   1.822   1.883   1.886   1.935   1.948   1.976   2.028
  2.050   2.143   2.175   2.211   2.222   2.265   2.309   2.353
  2.411   2.425   2.522   2.559   2.574   2.606   2.619   2.674
  2.693   2.864   2.906   2.917   2.993   3.909   4.086   4.197
  4.295   4.373   4.449   4.716
 
 Beta MOs
 -- Occupied --
-14.318 -10.219 -10.218 -10.203 -10.199 -10.198 -10.194  -0.932
 -0.831  -0.734  -0.665  -0.610  -0.549  -0.520  -0.512  -0.475
 -0.420  -0.396  -0.381  -0.343  -0.334  -0.301  -0.264  -0.246
 -- Virtual --
 -0.087   0.016   0.054   0.116   0.132   0.147   0.149   0.162
  0.167   0.190   0.193   0.222   0.270   0.296   0.368   0.414
  0.455   0.491   0.509   0.534   0.548   0.579   0.598   0.613
  0.618   0.629   0.634   0.661   0.684   0.707   0.751   0.776
  0.795   0.820   0.831   0.845   0.859   0.863   0.884   0.913
  0.931   0.963   0.976   1.025   1.070   1.095   1.177   1.239
  1.417   1.436   1.441   1.477   1.504   1.523   1.579   1.639
  1.699   1.775   1.829   1.898   1.900   1.939   1.954   1.978
  2.031   2.053   2.148   2.185   2.225   2.234   2.269   2.322
  2.358   2.417   2.432   2.535   2.568   2.585   2.616   2.627
  2.678   2.697   2.867   2.908   2.920   2.996   3.925   4.094
  4.196   4.301   4.375   4.457   4.716
 --------------------------------------------------------------
 
          Ground-State Mulliken Net Atomic Charges

     Atom                 Charge (a.u.)    Spin (a.u.)
  --------------------------------------------------------
      1 C                     0.048301      -0.230673
      2 C                    -0.114883       0.693750
      3 C                    -0.193805      -0.053953
      4 C                    -0.075684       0.032616
      5 C                    -0.061911      -0.027731
      6 N                    -0.351280       0.516407
      7 H                     0.140544       0.007431
      8 H                     0.143393      -0.032175
      9 H                     0.148167       0.025170
     10 H                     0.137405       0.003587
     11 H                     0.151439       0.025239
     12 C                    -0.105014       0.033468
     13 H                     0.133329       0.006865
  --------------------------------------------------------
  Sum of atomic charges =     0.000000
  Sum of spin   charges =     1.000000

 -----------------------------------------------------------------
                    Cartesian Multipole Moments
 -----------------------------------------------------------------
    Charge (ESU x 10^10)
                 0.0000
    Dipole Moment (Debye)
         X      -0.4840      Y      -2.0965      Z       0.0483
       Tot       2.1522
    Quadrupole Moments (Debye-Ang)
        XX     -37.8697     XY      -2.5707     YY     -41.7208
        XZ       0.4751     YZ       4.1342     ZZ     -40.0855
    Octopole Moments (Debye-Ang^2)
       XXX      15.4465    XXY       1.8465    XYY      -3.1327
       YYY      -5.6510    XXZ      68.3830    XYZ       5.1856
       YYZ      75.5919    XZZ      -3.2288    YZZ      -5.7336
       ZZZ     212.3493
    Hexadecapole Moments (Debye-Ang^3)
      XXXX    -351.9935   XXXY     -10.6209   XXYY     -96.1196
      XYYY     -20.6815   YYYY    -256.1158   XXXZ      20.3079
      XXYZ      -1.0201   XYYZ      19.0113   YYYZ      14.7831
      XXZZ    -204.4782   XYZZ     -13.3434   YYZZ    -196.8239
      XZZZ      62.7111   YZZZ       6.9276   ZZZZ    -890.9610
 -----------------------------------------------------------------
Archival summary:
1\1\c8-66\OPT\ProcedureUnspecified\6-31G*\166(2)\hpark21\TueMar118:35:252022TueMar118:35:252022\0\\#,OPT,ProcedureUnspecified,6-31G*,\\0,2\N\C,1,1.32889\H,2,1.08918,1,119.346\C,2,1.40386,1,116.214,3,178.516,0\H,4,1.08455,2,125.624,1,-177.984,0\C,1,1.4591,2,106.448,3,-178.347,0\H,6,1.09685,1,110.995,2,-130.829,0\C,4,1.49356,2,108.193,1,-0.591225,0\H,8,1.09779,4,114.997,2,129.901,0\C,6,1.52865,1,115.13,2,94.7189,0\H,10,1.08582,6,131.287,1,68.6045,0\C,10,1.33746,6,94.2207,1,-109.162,0\H,12,1.08697,10,133.94,6,179.071,0\\\@

 Total job time:  689.31s(wall), 981.99s(cpu) 
 Tue Mar  1 18:35:25 2022

        *************************************************************
        *                                                           *
        *  Thank you very much for using Q-Chem.  Have a nice day.  *
        *                                                           *
        *************************************************************


