13   
From optimize.out: Frame 1 / 22, Energy=    -286.6022567870
C        0.0664340000   -0.1558080000   -0.0000000000
C       -0.1240790000    0.1872180000   -0.0000000000
C       -0.1744450000    0.5808780000   -0.0000000000
C       -0.0922650000    0.0845800000   -0.0000000000
C       -0.1165900000   -0.6244820000   -0.0000000000
N       -0.3413570000    0.9880710000   -0.0000000000
H        0.1431440000    0.0278710000   -0.0000000000
H        0.1459130000    0.0194730000   -0.0000000000
H        0.1659510000   -0.0230070000   -0.0000000000
H        0.1707960000   -0.0071470000    0.0000000000
H        0.1741970000    0.0208470000   -0.0000000000
C       -0.1476890000   -0.0828470000   -0.0000000000
H        0.1299900000   -0.0156460000   -0.0000000000
13   
From optimize.out: Frame 2 / 22, Energy=    -286.6914074597
C        0.0282790000   -0.1534340000   -0.0000000000
C       -0.1034130000    0.2617600000   -0.0000000000
C       -0.2161200000    0.3416730000   -0.0000000000
C       -0.0556520000    0.1162250000   -0.0000000000
C       -0.0411100000   -0.1663660000   -0.0000000000
N       -0.3551870000    0.5789950000   -0.0000000000
H        0.1294690000    0.0084530000   -0.0000000000
H        0.1604730000   -0.0022590000   -0.0000000000
H        0.1674730000   -0.0004010000   -0.0000000000
H        0.1652590000    0.0070610000    0.0000000000
H        0.1493800000    0.0333860000   -0.0000000000
C       -0.1508220000   -0.0240540000   -0.0000000000
H        0.1219720000   -0.0010380000   -0.0000000000
13   
From optimize.out: Frame 3 / 22, Energy=    -286.7681551986
C        0.0436130000   -0.2394180000   -0.0000000000
C       -0.0821640000    0.4792940000   -0.0000000000
C       -0.2118370000   -0.0666880000   -0.0000000000
C       -0.0503860000   -0.0026630000   -0.0000000000
C       -0.1028540000   -0.0150640000   -0.0000000000
N       -0.3486440000    0.6719700000   -0.0000000000
H        0.1390580000    0.0084130000   -0.0000000000
H        0.1481620000   -0.0234160000   -0.0000000000
H        0.1704780000    0.0265620000   -0.0000000000
H        0.1537780000    0.0066430000    0.0000000000
H        0.1602040000    0.0140610000   -0.0000000000
C       -0.1502650000    0.1242240000   -0.0000000000
H        0.1308570000    0.0160830000   -0.0000000000
13   
From optimize.out: Frame 4 / 22, Energy=    -286.8098455963
C        0.0568530000   -0.2453380000   -0.0000000000
C       -0.0841470000    0.5627360000   -0.0000000000
C       -0.2018720000   -0.0555910000   -0.0000000000
C       -0.0415710000    0.0183870000   -0.0000000000
C       -0.1066700000   -0.0265220000   -0.0000000000
N       -0.3593940000    0.6381810000   -0.0000000000
H        0.1405780000    0.0085010000   -0.0000000000
H        0.1363990000   -0.0271370000   -0.0000000000
H        0.1683970000    0.0284280000   -0.0000000000
H        0.1479430000    0.0052240000   -0.0000000000
H        0.1578040000    0.0111530000   -0.0000000000
C       -0.1473360000    0.0713270000   -0.0000000000
H        0.1330160000    0.0106510000   -0.0000000000
13   
From optimize.out: Frame 5 / 22, Energy=    -286.8357418562
C        0.0546450000   -0.2279080000   -0.0000000000
C       -0.1004640000    0.6147720000   -0.0000000000
C       -0.2087190000   -0.0569600000   -0.0000000000
C       -0.0607860000    0.0184490000   -0.0000000000
C       -0.0845920000   -0.0244830000   -0.0000000000
N       -0.3470980000    0.5545010000   -0.0000000000
H        0.1488890000    0.0075960000   -0.0000000000
H        0.1357110000   -0.0294710000   -0.0000000000
H        0.1591020000    0.0306450000   -0.0000000000
H        0.1405570000    0.0061220000   -0.0000000000
H        0.1609640000    0.0194150000   -0.0000000000
C       -0.1293970000    0.0763720000   -0.0000000000
H        0.1311890000    0.0109510000   -0.0000000000
13   
From optimize.out: Frame 6 / 22, Energy=    -286.8572622799
C        0.0588890000   -0.2264100000   -0.0000000000
C       -0.1139230000    0.6610480000   -0.0000000000
C       -0.1863890000   -0.0553270000   -0.0000000000
C       -0.0591030000    0.0257220000   -0.0000000000
C       -0.0802000000   -0.0264510000   -0.0000000000
N       -0.3504600000    0.5290110000   -0.0000000000
H        0.1444120000    0.0072490000   -0.0000000000
H        0.1330220000   -0.0309070000   -0.0000000000
H        0.1538410000    0.0320650000   -0.0000000000
H        0.1391800000    0.0051060000   -0.0000000000
H        0.1560150000    0.0186720000   -0.0000000000
C       -0.1275250000    0.0512650000   -0.0000000000
H        0.1322420000    0.0089570000   -0.0000000000
13   
From optimize.out: Frame 8 / 22, Energy=    -286.8682778923
C        0.0548240000   -0.2303680000   -0.0000000000
C       -0.1105780000    0.7182350000   -0.0000000000
C       -0.2120960000   -0.0520290000   -0.0000000000
C       -0.0794130000    0.0327850000   -0.0000000000
C       -0.0644790000   -0.0281860000   -0.0000000000
N       -0.3527690000    0.5048370000   -0.0000000000
H        0.1423190000    0.0074640000   -0.0000000000
H        0.1450890000   -0.0334860000   -0.0000000000
H        0.1499540000    0.0266130000   -0.0000000000
H        0.1364670000    0.0041650000   -0.0000000000
H        0.1554490000    0.0198910000   -0.0000000000
C       -0.0971430000    0.0249700000   -0.0000000000
H        0.1323770000    0.0051090000   -0.0000000000
13   
From optimize.out: Frame 9 / 22, Energy=    -286.8684049640
C        0.0463430000   -0.2356770000   -0.0000000000
C       -0.1238090000    0.7142480000   -0.0000000000
C       -0.1748640000   -0.0527490000   -0.0000000000
C       -0.0801250000    0.0323410000   -0.0000000000
C       -0.0698330000   -0.0276570000   -0.0000000000
N       -0.3466620000    0.5017420000   -0.0000000000
H        0.1390160000    0.0077890000   -0.0000000000
H        0.1433660000   -0.0329290000   -0.0000000000
H        0.1451810000    0.0303590000   -0.0000000000
H        0.1367050000    0.0042180000   -0.0000000000
H        0.1550770000    0.0192240000   -0.0000000000
C       -0.1036240000    0.0329410000   -0.0000000000
H        0.1332300000    0.0061500000   -0.0000000000
13   
From optimize.out: Frame 10 / 22, Energy=    -286.8743192905
C        0.0492670000   -0.2300590000   -0.0000000000
C       -0.1179160000    0.7016470000   -0.0000000000
C       -0.1947730000   -0.0536190000   -0.0000000000
C       -0.0778920000    0.0345870000   -0.0000000000
C       -0.0562220000   -0.0287200000   -0.0000000000
N       -0.3532860000    0.5094610000   -0.0000000000
H        0.1421670000    0.0074390000   -0.0000000000
H        0.1434110000   -0.0325930000   -0.0000000000
H        0.1480600000    0.0266220000   -0.0000000000
H        0.1388750000    0.0042460000   -0.0000000000
H        0.1525960000    0.0231570000   -0.0000000000
C       -0.1069520000    0.0312420000   -0.0000000000
H        0.1326660000    0.0065890000   -0.0000000000
13   
From optimize.out: Frame 12 / 22, Energy=    -286.8750028583
C        0.0457050000   -0.2317140000   -0.0000000000
C       -0.1153860000    0.6914010000   -0.0000000000
C       -0.1943760000   -0.0528020000   -0.0000000000
C       -0.0788060000    0.0336660000   -0.0000000000
C       -0.0604630000   -0.0293230000   -0.0000000000
N       -0.3481530000    0.5177080000   -0.0000000000
H        0.1401170000    0.0074770000   -0.0000000000
H        0.1442160000   -0.0320970000   -0.0000000000
H        0.1481370000    0.0263410000   -0.0000000000
H        0.1370600000    0.0041440000   -0.0000000000
H        0.1515330000    0.0260060000   -0.0000000000
C       -0.1036180000    0.0325550000   -0.0000000000
H        0.1340330000    0.0066380000   -0.0000000000
13   
From optimize.out: Frame 14 / 22, Energy=    -286.8753686936
C        0.0492190000   -0.2306200000   -0.0000000000
C       -0.1157570000    0.6963650000   -0.0000000000
C       -0.1926990000   -0.0541090000   -0.0000000000
C       -0.0755830000    0.0309780000   -0.0000000000
C       -0.0628520000   -0.0276900000   -0.0000000000
N       -0.3515880000    0.5149870000   -0.0000000000
H        0.1406530000    0.0074410000   -0.0000000000
H        0.1435240000   -0.0323110000   -0.0000000000
H        0.1478330000    0.0256860000   -0.0000000000
H        0.1379150000    0.0036640000   -0.0000000000
H        0.1520720000    0.0243310000   -0.0000000000
C       -0.1055850000    0.0344380000   -0.0000000000
H        0.1328480000    0.0068410000   -0.0000000000
13   
From optimize.out: Frame 16 / 22, Energy=    -286.8754480708
C        0.0473570000   -0.2304800000   -0.0000000000
C       -0.1142690000    0.6926050000   -0.0000000000
C       -0.1944210000   -0.0532670000   -0.0000000000
C       -0.0776290000    0.0347720000   -0.0000000000
C       -0.0609570000   -0.0285250000   -0.0000000000
N       -0.3504170000    0.5162740000   -0.0000000000
H        0.1402870000    0.0074230000   -0.0000000000
H        0.1437350000   -0.0321330000   -0.0000000000
H        0.1478040000    0.0257320000   -0.0000000000
H        0.1370170000    0.0037780000   -0.0000000000
H        0.1515260000    0.0251460000   -0.0000000000
C       -0.1036290000    0.0319440000   -0.0000000000
H        0.1335970000    0.0067290000   -0.0000000000
13   
From optimize.out: Frame 18 / 22, Energy=    -286.8754938175
C        0.0482960000   -0.2307700000   -0.0000000000
C       -0.1149930000    0.6936910000   -0.0000000000
C       -0.1937020000   -0.0537680000   -0.0000000000
C       -0.0756510000    0.0330020000   -0.0000000000
C       -0.0619630000   -0.0279520000   -0.0000000000
N       -0.3512430000    0.5165820000   -0.0000000000
H        0.1405390000    0.0074370000   -0.0000000000
H        0.1434580000   -0.0321840000   -0.0000000000
H        0.1481930000    0.0252890000   -0.0000000000
H        0.1374470000    0.0036420000   -0.0000000000
H        0.1514320000    0.0250240000   -0.0000000000
C       -0.1051160000    0.0331880000   -0.0000000000
H        0.1333050000    0.0068200000   -0.0000000000
13   
From optimize.out: Frame 19 / 22, Energy=    -286.8754966574
C        0.0481910000   -0.2305090000   -0.0000000000
C       -0.1151100000    0.6933450000   -0.0000000000
C       -0.1937680000   -0.0538290000   -0.0000000000
C       -0.0758980000    0.0330000000   -0.0000000000
C       -0.0615940000   -0.0279470000   -0.0000000000
N       -0.3510960000    0.5163110000   -0.0000000000
H        0.1405270000    0.0074220000   -0.0000000000
H        0.1434150000   -0.0321650000   -0.0000000000
H        0.1481550000    0.0252690000   -0.0000000000
H        0.1373880000    0.0036280000   -0.0000000000
H        0.1514430000    0.0253620000   -0.0000000000
C       -0.1049890000    0.0332520000   -0.0000000000
H        0.1333370000    0.0068620000   -0.0000000000
13   
From optimize.out: Frame 20 / 22, Energy=    -286.8754995826
C        0.0482840000   -0.2305600000   -0.0000000000
C       -0.1149670000    0.6936550000   -0.0000000000
C       -0.1938300000   -0.0538810000   -0.0000000000
C       -0.0757670000    0.0328770000   -0.0000000000
C       -0.0618100000   -0.0278340000   -0.0000000000
N       -0.3511660000    0.5162420000   -0.0000000000
H        0.1405220000    0.0074260000   -0.0000000000
H        0.1434050000   -0.0321750000   -0.0000000000
H        0.1481510000    0.0252060000   -0.0000000000
H        0.1373980000    0.0036060000   -0.0000000000
H        0.1514270000    0.0252540000   -0.0000000000
C       -0.1049890000    0.0333270000   -0.0000000000
H        0.1333400000    0.0068570000   -0.0000000000
13   
From optimize.out: Frame 21 / 22, Energy=    -286.8755003982
C        0.0482820000   -0.2306660000   -0.0000000000
C       -0.1149040000    0.6936340000   -0.0000000000
C       -0.1938130000   -0.0539110000   -0.0000000000
C       -0.0756750000    0.0327580000   -0.0000000000
C       -0.0618930000   -0.0277780000   -0.0000000000
N       -0.3512520000    0.5164580000   -0.0000000000
H        0.1405410000    0.0074300000   -0.0000000000
H        0.1434000000   -0.0321720000   -0.0000000000
H        0.1481700000    0.0251770000   -0.0000000000
H        0.1374040000    0.0035920000   -0.0000000000
H        0.1514270000    0.0252360000   -0.0000000000
C       -0.1050140000    0.0333810000   -0.0000000000
H        0.1333280000    0.0068600000   -0.0000000000
