13   
From optimize.out: Frame 1 / 58, Energy=    -286.8375707301
C        0.0527810000    0.5391000000   -0.0000000000
C       -0.1527800000    0.0636990000   -0.0000000000
C       -0.1429230000    0.0996850000   -0.0000000000
C       -0.1899140000   -0.0014970000    0.0000000000
C        0.0501990000    0.5257960000   -0.0000000000
N       -0.4123750000   -0.1662000000   -0.0000000000
H        0.1535390000   -0.0268630000   -0.0000000000
H        0.1466400000   -0.0050620000   -0.0000000000
H        0.1504860000   -0.0065440000   -0.0000000000
H        0.2008990000   -0.0008150000    0.0000000000
H        0.1569280000   -0.0262630000   -0.0000000000
C       -0.1999730000    0.0051870000    0.0000000000
H        0.1864930000   -0.0002230000    0.0000000000
13   
From optimize.out: Frame 2 / 58, Energy=    -286.8375806352
C        0.0527880000    0.5392520000   -0.0000000000
C       -0.1529360000    0.0648330000   -0.0000000000
C       -0.1426770000    0.0984670000   -0.0000000000
C       -0.1900760000   -0.0014980000    0.0000000000
C        0.0502060000    0.5258210000   -0.0000000000
N       -0.4124970000   -0.1663000000   -0.0000000000
H        0.1537010000   -0.0268730000   -0.0000000000
H        0.1464940000   -0.0051100000   -0.0000000000
H        0.1504970000   -0.0064850000   -0.0000000000
H        0.2009620000   -0.0008240000    0.0000000000
H        0.1569530000   -0.0262580000   -0.0000000000
C       -0.2000060000    0.0051990000    0.0000000000
H        0.1865910000   -0.0002230000    0.0000000000
13   
From optimize.out: Frame 3 / 58, Energy=    -286.8376010728
C        0.0526670000    0.5393360000   -0.0000000000
C       -0.1531050000    0.0667670000   -0.0000000000
C       -0.1423540000    0.0964600000   -0.0000000000
C       -0.1903120000   -0.0015080000    0.0000000000
C        0.0501790000    0.5258830000   -0.0000000000
N       -0.4125180000   -0.1663920000   -0.0000000000
H        0.1538550000   -0.0268820000   -0.0000000000
H        0.1464020000   -0.0051910000   -0.0000000000
H        0.1504780000   -0.0063920000   -0.0000000000
H        0.2010780000   -0.0008610000    0.0000000000
H        0.1570450000   -0.0262530000   -0.0000000000
C       -0.2000780000    0.0052610000    0.0000000000
H        0.1866630000   -0.0002260000    0.0000000000
13   
From optimize.out: Frame 4 / 58, Energy=    -286.8376390868
C        0.0525810000    0.5387690000   -0.0000000000
C       -0.1533220000    0.0696600000   -0.0000000000
C       -0.1422600000    0.0936180000   -0.0000000000
C       -0.1904590000   -0.0015410000    0.0000000000
C        0.0502540000    0.5264350000   -0.0000000000
N       -0.4126780000   -0.1664920000   -0.0000000000
H        0.1541110000   -0.0268590000   -0.0000000000
H        0.1463630000   -0.0053130000   -0.0000000000
H        0.1503960000   -0.0062650000   -0.0000000000
H        0.2012790000   -0.0009590000    0.0000000000
H        0.1574810000   -0.0262590000   -0.0000000000
C       -0.2004000000    0.0054400000    0.0000000000
H        0.1866550000   -0.0002340000    0.0000000000
13   
From optimize.out: Frame 5 / 58, Energy=    -286.8376962516
C        0.0523920000    0.5373670000   -0.0000000000
C       -0.1533310000    0.0728270000   -0.0000000000
C       -0.1424200000    0.0906410000   -0.0000000000
C       -0.1904000000   -0.0015940000    0.0000000000
C        0.0502330000    0.5275320000   -0.0000000000
N       -0.4127000000   -0.1664720000   -0.0000000000
H        0.1542860000   -0.0268010000   -0.0000000000
H        0.1464300000   -0.0054470000   -0.0000000000
H        0.1503230000   -0.0061380000   -0.0000000000
H        0.2015370000   -0.0011270000    0.0000000000
H        0.1581250000   -0.0262830000   -0.0000000000
C       -0.2010560000    0.0057430000    0.0000000000
H        0.1865810000   -0.0002480000    0.0000000000
13   
From optimize.out: Frame 6 / 58, Energy=    -286.8377650647
C        0.0521650000    0.5357090000   -0.0000000000
C       -0.1531150000    0.0752430000   -0.0000000000
C       -0.1428150000    0.0884840000   -0.0000000000
C       -0.1901820000   -0.0016440000    0.0000000000
C        0.0501360000    0.5287000000   -0.0000000000
N       -0.4126510000   -0.1663510000   -0.0000000000
H        0.1544110000   -0.0267290000   -0.0000000000
H        0.1465620000   -0.0055510000   -0.0000000000
H        0.1502480000   -0.0060490000   -0.0000000000
H        0.2017790000   -0.0013090000    0.0000000000
H        0.1588400000   -0.0263090000   -0.0000000000
C       -0.2018260000    0.0060680000    0.0000000000
H        0.1864480000   -0.0002620000    0.0000000000
13   
From optimize.out: Frame 7 / 58, Energy=    -286.8378527202
C        0.0518890000    0.5339480000   -0.0000000000
C       -0.1526920000    0.0768020000   -0.0000000000
C       -0.1433530000    0.0872310000   -0.0000000000
C       -0.1898310000   -0.0017140000    0.0000000000
C        0.0499480000    0.5297840000   -0.0000000000
N       -0.4125040000   -0.1660980000   -0.0000000000
H        0.1544740000   -0.0266490000   -0.0000000000
H        0.1467730000   -0.0056170000   -0.0000000000
H        0.1501620000   -0.0060020000   -0.0000000000
H        0.2020340000   -0.0014730000    0.0000000000
H        0.1595930000   -0.0263330000   -0.0000000000
C       -0.2027320000    0.0064010000    0.0000000000
H        0.1862400000   -0.0002770000    0.0000000000
13   
From optimize.out: Frame 8 / 58, Energy=    -286.8379609814
C        0.0516160000    0.5323380000   -0.0000000000
C       -0.1521100000    0.0768470000   -0.0000000000
C       -0.1440110000    0.0875200000   -0.0000000000
C       -0.1892320000   -0.0018100000    0.0000000000
C        0.0498060000    0.5305250000   -0.0000000000
N       -0.4123840000   -0.1656900000   -0.0000000000
H        0.1544840000   -0.0265710000    0.0000000000
H        0.1470940000   -0.0056180000   -0.0000000000
H        0.1500330000   -0.0060280000   -0.0000000000
H        0.2023140000   -0.0016200000    0.0000000000
H        0.1604080000   -0.0263460000   -0.0000000000
C       -0.2039290000    0.0067460000    0.0000000000
H        0.1859090000   -0.0002940000    0.0000000000
13   
From optimize.out: Frame 9 / 58, Energy=    -286.8380581044
C        0.0513170000    0.5312340000   -0.0000000000
C       -0.1515360000    0.0760860000   -0.0000000000
C       -0.1444180000    0.0885520000   -0.0000000000
C       -0.1878970000   -0.0019150000    0.0000000000
C        0.0496550000    0.5307480000   -0.0000000000
N       -0.4123080000   -0.1652020000   -0.0000000000
H        0.1545250000   -0.0265140000    0.0000000000
H        0.1474220000   -0.0055850000   -0.0000000000
H        0.1499550000   -0.0060840000   -0.0000000000
H        0.2025760000   -0.0017760000    0.0000000000
H        0.1611780000   -0.0263370000   -0.0000000000
C       -0.2060160000    0.0071040000    0.0000000000
H        0.1855450000   -0.0003120000    0.0000000000
13   
From optimize.out: Frame 10 / 58, Energy=    -286.8381408491
C        0.0509850000    0.5306990000   -0.0000000000
C       -0.1510290000    0.0751350000   -0.0000000000
C       -0.1445030000    0.0896930000   -0.0000000000
C       -0.1855960000   -0.0020050000    0.0000000000
C        0.0495090000    0.5305060000   -0.0000000000
N       -0.4123040000   -0.1647200000   -0.0000000000
H        0.1546610000   -0.0264840000    0.0000000000
H        0.1477140000   -0.0055460000   -0.0000000000
H        0.1499570000   -0.0061390000   -0.0000000000
H        0.2027640000   -0.0019420000    0.0000000000
H        0.1619010000   -0.0263070000   -0.0000000000
C       -0.2092580000    0.0074380000    0.0000000000
H        0.1852000000   -0.0003280000    0.0000000000
13   
From optimize.out: Frame 11 / 58, Energy=    -286.8382356948
C        0.0505750000    0.5310510000   -0.0000000000
C       -0.1504530000    0.0727890000   -0.0000000000
C       -0.1444010000    0.0921690000   -0.0000000000
C       -0.1822060000   -0.0021580000    0.0000000000
C        0.0497150000    0.5293910000   -0.0000000000
N       -0.4125050000   -0.1641530000   -0.0000000000
H        0.1548720000   -0.0264870000    0.0000000000
H        0.1480750000   -0.0054450000   -0.0000000000
H        0.1499640000   -0.0062540000   -0.0000000000
H        0.2030290000   -0.0020570000    0.0000000000
H        0.1625980000   -0.0262460000   -0.0000000000
C       -0.2140480000    0.0077450000    0.0000000000
H        0.1847860000   -0.0003430000    0.0000000000
13   
From optimize.out: Frame 12 / 58, Energy=    -286.8383539862
C        0.0501450000    0.5320500000   -0.0000000000
C       -0.1498130000    0.0702300000   -0.0000000000
C       -0.1440650000    0.0947740000   -0.0000000000
C       -0.1780870000   -0.0023970000    0.0000000000
C        0.0502530000    0.5277750000   -0.0000000000
N       -0.4128680000   -0.1635800000   -0.0000000000
H        0.1551540000   -0.0265200000    0.0000000000
H        0.1484450000   -0.0053390000   -0.0000000000
H        0.1501090000   -0.0063710000   -0.0000000000
H        0.2035740000   -0.0020560000    0.0000000000
H        0.1631280000   -0.0261740000   -0.0000000000
C       -0.2202760000    0.0079630000    0.0000000000
H        0.1843020000   -0.0003560000    0.0000000000
13   
From optimize.out: Frame 13 / 58, Energy=    -286.8385200959
C        0.0500000000    0.5342460000   -0.0000000000
C       -0.1493310000    0.0665280000   -0.0000000000
C       -0.1437260000    0.0985060000   -0.0000000000
C       -0.1740660000   -0.0026790000    0.0000000000
C        0.0517880000    0.5251280000   -0.0000000000
N       -0.4138620000   -0.1630580000   -0.0000000000
H        0.1555650000   -0.0265980000    0.0000000000
H        0.1488390000   -0.0051820000   -0.0000000000
H        0.1502210000   -0.0065400000   -0.0000000000
H        0.2046690000   -0.0019020000    0.0000000000
H        0.1634470000   -0.0260670000   -0.0000000000
C       -0.2273220000    0.0079760000    0.0000000000
H        0.1837780000   -0.0003590000    0.0000000000
13   
From optimize.out: Frame 14 / 58, Energy=    -286.8387348059
C        0.0500010000    0.5364680000   -0.0000000000
C       -0.1489240000    0.0648190000   -0.0000000000
C       -0.1432470000    0.1002070000   -0.0000000000
C       -0.1704290000   -0.0029310000    0.0000000000
C        0.0534250000    0.5227210000   -0.0000000000
N       -0.4148540000   -0.1626970000   -0.0000000000
H        0.1560510000   -0.0266860000    0.0000000000
H        0.1491190000   -0.0051160000   -0.0000000000
H        0.1505860000   -0.0066100000   -0.0000000000
H        0.2061340000   -0.0016810000    0.0000000000
H        0.1635170000   -0.0259800000   -0.0000000000
C       -0.2346060000    0.0078410000    0.0000000000
H        0.1832280000   -0.0003550000    0.0000000000
13   
From optimize.out: Frame 15 / 58, Energy=    -286.8390390319
C        0.0504660000    0.5394360000   -0.0000000000
C       -0.1490030000    0.0647750000   -0.0000000000
C       -0.1426740000    0.1001300000   -0.0000000000
C       -0.1688610000   -0.0030730000    0.0000000000
C        0.0556530000    0.5201700000   -0.0000000000
N       -0.4164570000   -0.1627350000   -0.0000000000
H        0.1569100000   -0.0267990000    0.0000000000
H        0.1491290000   -0.0051150000   -0.0000000000
H        0.1508450000   -0.0065930000   -0.0000000000
H        0.2080090000   -0.0013940000    0.0000000000
H        0.1634920000   -0.0258870000   -0.0000000000
C       -0.2402750000    0.0074210000    0.0000000000
H        0.1827650000   -0.0003370000    0.0000000000
13   
From optimize.out: Frame 16 / 58, Energy=    -286.8394054075
C        0.0511470000    0.5412700000   -0.0000000000
C       -0.1487910000    0.0677610000   -0.0000000000
C       -0.1420560000    0.0968430000   -0.0000000000
C       -0.1686280000   -0.0030910000    0.0000000000
C        0.0575810000    0.5192970000   -0.0000000000
N       -0.4178800000   -0.1630570000   -0.0000000000
H        0.1576870000   -0.0268790000    0.0000000000
H        0.1489800000   -0.0052430000   -0.0000000000
H        0.1511540000   -0.0064230000   -0.0000000000
H        0.2101330000   -0.0010740000    0.0000000000
H        0.1633600000   -0.0258560000   -0.0000000000
C       -0.2448960000    0.0067560000    0.0000000000
H        0.1822090000   -0.0003070000    0.0000000000
13   
From optimize.out: Frame 17 / 58, Energy=    -286.8397166524
C        0.0520780000    0.5427500000   -0.0000000000
C       -0.1488230000    0.0695790000   -0.0000000000
C       -0.1419800000    0.0949790000   -0.0000000000
C       -0.1688340000   -0.0030390000    0.0000000000
C        0.0595770000    0.5184940000   -0.0000000000
N       -0.4190890000   -0.1633530000   -0.0000000000
H        0.1582380000   -0.0269360000    0.0000000000
H        0.1490440000   -0.0053170000   -0.0000000000
H        0.1512590000   -0.0063320000   -0.0000000000
H        0.2121310000   -0.0007670000    0.0000000000
H        0.1631190000   -0.0258310000   -0.0000000000
C       -0.2483810000    0.0060470000    0.0000000000
H        0.1816600000   -0.0002740000    0.0000000000
13   
From optimize.out: Frame 18 / 58, Energy=    -286.8400363089
C        0.0532730000    0.5424260000   -0.0000000000
C       -0.1485180000    0.0720120000   -0.0000000000
C       -0.1423420000    0.0924670000   -0.0000000000
C       -0.1686470000   -0.0029290000    0.0000000000
C        0.0610670000    0.5195420000   -0.0000000000
N       -0.4198400000   -0.1636760000   -0.0000000000
H        0.1585330000   -0.0269240000    0.0000000000
H        0.1491230000   -0.0054230000   -0.0000000000
H        0.1514070000   -0.0062110000   -0.0000000000
H        0.2140800000   -0.0004650000    0.0000000000
H        0.1629500000   -0.0258750000   -0.0000000000
C       -0.2521250000    0.0052960000    0.0000000000
H        0.1810390000   -0.0002390000    0.0000000000
13   
From optimize.out: Frame 19 / 58, Energy=    -286.8403355952
C        0.0549630000    0.5401640000   -0.0000000000
C       -0.1483880000    0.0750120000   -0.0000000000
C       -0.1434300000    0.0893190000   -0.0000000000
C       -0.1696320000   -0.0026930000    0.0000000000
C        0.0624570000    0.5227300000   -0.0000000000
N       -0.4208380000   -0.1641850000   -0.0000000000
H        0.1588490000   -0.0268170000    0.0000000000
H        0.1491510000   -0.0055360000   -0.0000000000
H        0.1509460000   -0.0060770000   -0.0000000000
H        0.2154080000   -0.0002440000    0.0000000000
H        0.1632310000   -0.0259770000   -0.0000000000
C       -0.2533300000    0.0045070000    0.0000000000
H        0.1806150000   -0.0002020000    0.0000000000
13   
From optimize.out: Frame 20 / 58, Energy=    -286.8405812881
C        0.0555510000    0.5395450000   -0.0000000000
C       -0.1476530000    0.0770930000   -0.0000000000
C       -0.1436050000    0.0875830000   -0.0000000000
C       -0.1673920000   -0.0026300000    0.0000000000
C        0.0627360000    0.5232660000   -0.0000000000
N       -0.4199050000   -0.1641680000   -0.0000000000
H        0.1584730000   -0.0268100000    0.0000000000
H        0.1496600000   -0.0056550000   -0.0000000000
H        0.1517770000   -0.0059940000   -0.0000000000
H        0.2175240000    0.0000690000    0.0000000000
H        0.1624140000   -0.0260500000   -0.0000000000
C       -0.2593260000    0.0039240000    0.0000000000
H        0.1797460000   -0.0001750000    0.0000000000
13   
From optimize.out: Frame 21 / 58, Energy=    -286.8408694192
C        0.0571160000    0.5347120000   -0.0000000000
C       -0.1472120000    0.0809980000   -0.0000000000
C       -0.1449610000    0.0837980000   -0.0000000000
C       -0.1671110000   -0.0023880000    0.0000000000
C        0.0629480000    0.5283320000   -0.0000000000
N       -0.4194190000   -0.1642970000   -0.0000000000
H        0.1581030000   -0.0266070000    0.0000000000
H        0.1500650000   -0.0058250000   -0.0000000000
H        0.1517360000   -0.0058470000   -0.0000000000
H        0.2186580000    0.0002670000    0.0000000000
H        0.1623550000   -0.0262560000   -0.0000000000
C       -0.2613270000    0.0032580000    0.0000000000
H        0.1790480000   -0.0001440000    0.0000000000
13   
From optimize.out: Frame 22 / 58, Energy=    -286.8411465463
C        0.0590000000    0.5291340000   -0.0000000000
C       -0.1473590000    0.0859760000   -0.0000000000
C       -0.1464590000    0.0788610000   -0.0000000000
C       -0.1674730000   -0.0021260000    0.0000000000
C        0.0631840000    0.5341120000   -0.0000000000
N       -0.4190940000   -0.1643800000   -0.0000000000
H        0.1579760000   -0.0263610000    0.0000000000
H        0.1504090000   -0.0060310000   -0.0000000000
H        0.1514410000   -0.0056600000   -0.0000000000
H        0.2194310000    0.0004070000    0.0000000000
H        0.1625670000   -0.0264810000   -0.0000000000
C       -0.2620460000    0.0026660000    0.0000000000
H        0.1784230000   -0.0001160000    0.0000000000
13   
From optimize.out: Frame 23 / 58, Energy=    -286.8413733332
C        0.0603650000    0.5255970000   -0.0000000000
C       -0.1473380000    0.0902280000   -0.0000000000
C       -0.1471780000    0.0746510000   -0.0000000000
C       -0.1662960000   -0.0018840000    0.0000000000
C        0.0630540000    0.5378180000   -0.0000000000
N       -0.4182620000   -0.1644420000   -0.0000000000
H        0.1578570000   -0.0262150000    0.0000000000
H        0.1507180000   -0.0062180000   -0.0000000000
H        0.1515160000   -0.0054890000   -0.0000000000
H        0.2206180000    0.0005620000    0.0000000000
H        0.1624170000   -0.0266390000   -0.0000000000
C       -0.2652460000    0.0021230000    0.0000000000
H        0.1777760000   -0.0000910000    0.0000000000
13   
From optimize.out: Frame 24 / 58, Energy=    -286.8416384257
C        0.0624710000    0.5195670000   -0.0000000000
C       -0.1479510000    0.0956490000   -0.0000000000
C       -0.1488280000    0.0687820000   -0.0000000000
C       -0.1642480000   -0.0015900000    0.0000000000
C        0.0632900000    0.5442620000   -0.0000000000
N       -0.4177160000   -0.1643740000   -0.0000000000
H        0.1580340000   -0.0259440000    0.0000000000
H        0.1509450000   -0.0064340000   -0.0000000000
H        0.1509900000   -0.0052620000   -0.0000000000
H        0.2212810000    0.0006410000    0.0000000000
H        0.1632450000   -0.0268530000   -0.0000000000
C       -0.2686920000    0.0016250000    0.0000000000
H        0.1771800000   -0.0000670000    0.0000000000
13   
From optimize.out: Frame 25 / 58, Energy=    -286.8418400612
C        0.0629680000    0.5210160000   -0.0000000000
C       -0.1484990000    0.0967760000   -0.0000000000
C       -0.1484680000    0.0679540000   -0.0000000000
C       -0.1610650000   -0.0013940000    0.0000000000
C        0.0630350000    0.5427770000   -0.0000000000
N       -0.4162820000   -0.1645270000   -0.0000000000
H        0.1581200000   -0.0260040000    0.0000000000
H        0.1512980000   -0.0065000000   -0.0000000000
H        0.1515520000   -0.0052280000   -0.0000000000
H        0.2226510000    0.0007800000    0.0000000000
H        0.1625130000   -0.0268380000   -0.0000000000
C       -0.2744190000    0.0012350000    0.0000000000
H        0.1765940000   -0.0000490000    0.0000000000
13   
From optimize.out: Frame 26 / 58, Energy=    -286.8420787298
C        0.0634730000    0.5238850000   -0.0000000000
C       -0.1496970000    0.0962570000   -0.0000000000
C       -0.1482100000    0.0685400000   -0.0000000000
C       -0.1569760000   -0.0011920000    0.0000000000
C        0.0635150000    0.5402990000   -0.0000000000
N       -0.4155020000   -0.1649480000   -0.0000000000
H        0.1587410000   -0.0261040000    0.0000000000
H        0.1515340000   -0.0064790000   -0.0000000000
H        0.1517650000   -0.0052640000   -0.0000000000
H        0.2238580000    0.0008750000    0.0000000000
H        0.1623480000   -0.0267480000   -0.0000000000
C       -0.2810270000    0.0009130000    0.0000000000
H        0.1761780000   -0.0000330000    0.0000000000
13   
From optimize.out: Frame 27 / 58, Energy=    -286.8423211063
C        0.0639390000    0.5282610000   -0.0000000000
C       -0.1509890000    0.0919300000   -0.0000000000
C       -0.1484060000    0.0723660000   -0.0000000000
C       -0.1521880000   -0.0010290000    0.0000000000
C        0.0645240000    0.5367700000   -0.0000000000
N       -0.4150140000   -0.1653430000   -0.0000000000
H        0.1595980000   -0.0262530000    0.0000000000
H        0.1515190000   -0.0062920000   -0.0000000000
H        0.1517990000   -0.0054310000   -0.0000000000
H        0.2248350000    0.0009320000    0.0000000000
H        0.1626190000   -0.0265870000   -0.0000000000
C       -0.2881720000    0.0006980000    0.0000000000
H        0.1759370000   -0.0000230000    0.0000000000
13   
From optimize.out: Frame 28 / 58, Energy=    -286.8425052100
C        0.0638140000    0.5328890000   -0.0000000000
C       -0.1510920000    0.0846780000   -0.0000000000
C       -0.1485760000    0.0791680000   -0.0000000000
C       -0.1470060000   -0.0009010000    0.0000000000
C        0.0648830000    0.5329120000   -0.0000000000
N       -0.4142010000   -0.1656950000   -0.0000000000
H        0.1598950000   -0.0264300000    0.0000000000
H        0.1516540000   -0.0059890000   -0.0000000000
H        0.1519250000   -0.0057180000   -0.0000000000
H        0.2257330000    0.0009810000    0.0000000000
H        0.1626670000   -0.0264230000   -0.0000000000
C       -0.2953890000    0.0005410000    0.0000000000
H        0.1756950000   -0.0000150000    0.0000000000
13   
From optimize.out: Frame 29 / 58, Energy=    -286.8426789696
C        0.0650970000    0.5394820000    0.0000000000
C       -0.1535690000    0.0757690000   -0.0000000000
C       -0.1489220000    0.0880500000   -0.0000000000
C       -0.1417520000   -0.0007820000    0.0000000000
C        0.0670480000    0.5271020000   -0.0000000000
N       -0.4158120000   -0.1666420000   -0.0000000000
H        0.1619700000   -0.0266060000    0.0000000000
H        0.1514330000   -0.0055850000   -0.0000000000
H        0.1515400000   -0.0061030000   -0.0000000000
H        0.2268080000    0.0010280000    0.0000000000
H        0.1639470000   -0.0261160000   -0.0000000000
C       -0.3033640000    0.0004100000    0.0000000000
H        0.1755760000   -0.0000090000    0.0000000000
13   
From optimize.out: Frame 30 / 58, Energy=    -286.8428529327
C        0.0644300000    0.5473020000    0.0000000000
C       -0.1539680000    0.0641890000   -0.0000000000
C       -0.1490260000    0.0993440000   -0.0000000000
C       -0.1355080000   -0.0006810000    0.0000000000
C        0.0674010000    0.5188450000   -0.0000000000
N       -0.4136560000   -0.1659570000   -0.0000000000
H        0.1620620000   -0.0269130000    0.0000000000
H        0.1514870000   -0.0051280000   -0.0000000000
H        0.1522440000   -0.0065630000   -0.0000000000
H        0.2274890000    0.0010760000    0.0000000000
H        0.1630020000   -0.0258190000   -0.0000000000
C       -0.3112230000    0.0003070000    0.0000000000
H        0.1752660000   -0.0000030000    0.0000000000
13   
From optimize.out: Frame 31 / 58, Energy=    -286.8429638864
C        0.0637450000    0.5500920000    0.0000000000
C       -0.1524690000    0.0554440000   -0.0000000000
C       -0.1492780000    0.1081610000   -0.0000000000
C       -0.1296470000   -0.0006020000    0.0000000000
C        0.0669940000    0.5158810000   -0.0000000000
N       -0.4127460000   -0.1658920000   -0.0000000000
H        0.1616320000   -0.0270340000    0.0000000000
H        0.1518230000   -0.0047670000   -0.0000000000
H        0.1523470000   -0.0069340000   -0.0000000000
H        0.2279570000    0.0011040000    0.0000000000
H        0.1628050000   -0.0256910000   -0.0000000000
C       -0.3181580000    0.0002380000    0.0000000000
H        0.1749950000   -0.0000000000    0.0000000000
13   
From optimize.out: Frame 32 / 58, Energy=    -286.8430582619
C        0.0646720000    0.5502160000    0.0000000000
C       -0.1526380000    0.0510770000   -0.0000000000
C       -0.1504270000    0.1124860000   -0.0000000000
C       -0.1234400000   -0.0005370000    0.0000000000
C        0.0669180000    0.5152990000   -0.0000000000
N       -0.4116580000   -0.1654970000   -0.0000000000
H        0.1617240000   -0.0270040000    0.0000000000
H        0.1517160000   -0.0046080000   -0.0000000000
H        0.1527800000   -0.0070890000   -0.0000000000
H        0.2280470000    0.0011290000    0.0000000000
H        0.1628180000   -0.0256650000   -0.0000000000
C       -0.3251300000    0.0001900000    0.0000000000
H        0.1746180000    0.0000020000    0.0000000000
13   
From optimize.out: Frame 33 / 58, Energy=    -286.8431811425
C        0.0656420000    0.5481400000    0.0000000000
C       -0.1532100000    0.0539670000   -0.0000000000
C       -0.1507970000    0.1100640000   -0.0000000000
C       -0.1172500000   -0.0004720000    0.0000000000
C        0.0672540000    0.5171690000   -0.0000000000
N       -0.4118010000   -0.1658730000   -0.0000000000
H        0.1620400000   -0.0268800000    0.0000000000
H        0.1520900000   -0.0047290000   -0.0000000000
H        0.1528100000   -0.0069950000   -0.0000000000
H        0.2282990000    0.0011680000    0.0000000000
H        0.1629990000   -0.0257020000   -0.0000000000
C       -0.3322690000    0.0001380000    0.0000000000
H        0.1741940000    0.0000050000    0.0000000000
13   
From optimize.out: Frame 34 / 58, Energy=    -286.8433166249
C        0.0687380000    0.5392840000    0.0000000000
C       -0.1558750000    0.0721720000   -0.0000000000
C       -0.1516320000    0.0920030000   -0.0000000000
C       -0.1128860000   -0.0004070000    0.0000000000
C        0.0681610000    0.5261880000   -0.0000000000
N       -0.4126960000   -0.1663770000   -0.0000000000
H        0.1630860000   -0.0264440000    0.0000000000
H        0.1520610000   -0.0054880000   -0.0000000000
H        0.1526570000   -0.0062340000   -0.0000000000
H        0.2284140000    0.0011990000    0.0000000000
H        0.1636370000   -0.0260020000   -0.0000000000
C       -0.3375390000    0.0000970000    0.0000000000
H        0.1738730000    0.0000070000    0.0000000000
13   
From optimize.out: Frame 35 / 58, Energy=    -286.8433861830
C        0.0680290000    0.5426840000    0.0000000000
C       -0.1561810000    0.0707280000   -0.0000000000
C       -0.1511100000    0.0932010000   -0.0000000000
C       -0.1095520000   -0.0003460000    0.0000000000
C        0.0685390000    0.5229220000   -0.0000000000
N       -0.4116180000   -0.1662370000   -0.0000000000
H        0.1631010000   -0.0265920000    0.0000000000
H        0.1524470000   -0.0054280000   -0.0000000000
H        0.1527040000   -0.0063060000   -0.0000000000
H        0.2285870000    0.0012240000    0.0000000000
H        0.1627580000   -0.0259130000   -0.0000000000
C       -0.3415010000    0.0000540000    0.0000000000
H        0.1737950000    0.0000090000    0.0000000000
13   
From optimize.out: Frame 37 / 58, Energy=    -286.8434155805
C        0.0703710000    0.5274080000    0.0000000000
C       -0.1542550000    0.0834850000   -0.0000000000
C       -0.1533470000    0.0795830000   -0.0000000000
C       -0.1005040000   -0.0003030000    0.0000000000
C        0.0681870000    0.5411060000   -0.0000000000
N       -0.4134430000   -0.1682620000   -0.0000000000
H        0.1623200000   -0.0260630000    0.0000000000
H        0.1535170000   -0.0059650000   -0.0000000000
H        0.1518830000   -0.0058060000   -0.0000000000
H        0.2271340000    0.0013850000    0.0000000000
H        0.1647060000   -0.0265840000   -0.0000000000
C       -0.3495290000    0.0000030000    0.0000000000
H        0.1729610000    0.0000130000    0.0000000000
13   
From optimize.out: Frame 39 / 58, Energy=    -286.8435218663
C        0.0703430000    0.5392860000    0.0000000000
C       -0.1568870000    0.0756010000   -0.0000000000
C       -0.1525720000    0.0873760000   -0.0000000000
C       -0.1041210000   -0.0002880000    0.0000000000
C        0.0696430000    0.5280000000   -0.0000000000
N       -0.4120600000   -0.1671490000   -0.0000000000
H        0.1635590000   -0.0264010000    0.0000000000
H        0.1527320000   -0.0056530000   -0.0000000000
H        0.1527100000   -0.0060620000   -0.0000000000
H        0.2300010000    0.0013670000    0.0000000000
H        0.1634340000   -0.0260910000   -0.0000000000
C       -0.3515130000    0.0000010000    0.0000000000
H        0.1747330000    0.0000140000    0.0000000000
13   
From optimize.out: Frame 41 / 58, Energy=    -286.8435994361
C        0.0710330000    0.5348080000    0.0000000000
C       -0.1557860000    0.0771400000   -0.0000000000
C       -0.1535100000    0.0860530000   -0.0000000000
C       -0.1041620000   -0.0002630000    0.0000000000
C        0.0697940000    0.5327800000   -0.0000000000
N       -0.4131580000   -0.1676390000   -0.0000000000
H        0.1631370000   -0.0262680000    0.0000000000
H        0.1531590000   -0.0057130000   -0.0000000000
H        0.1523580000   -0.0060450000   -0.0000000000
H        0.2294270000    0.0014100000    0.0000000000
H        0.1640770000   -0.0262540000   -0.0000000000
C       -0.3501620000   -0.0000230000    0.0000000000
H        0.1737930000    0.0000150000    0.0000000000
13   
From optimize.out: Frame 42 / 58, Energy=    -286.8436007147
C        0.0711600000    0.5382810000    0.0000000000
C       -0.1568590000    0.0764410000   -0.0000000000
C       -0.1528270000    0.0867710000   -0.0000000000
C       -0.1040420000   -0.0002780000    0.0000000000
C        0.0703300000    0.5287310000   -0.0000000000
N       -0.4131570000   -0.1671530000   -0.0000000000
H        0.1636270000   -0.0263680000    0.0000000000
H        0.1524580000   -0.0056820000   -0.0000000000
H        0.1525830000   -0.0060510000   -0.0000000000
H        0.2302180000    0.0013890000    0.0000000000
H        0.1635860000   -0.0260870000   -0.0000000000
C       -0.3494850000   -0.0000080000    0.0000000000
H        0.1724070000    0.0000140000    0.0000000000
13   