13   
From optimize.out: Frame 1 / 58, Energy=    -286.8375707301
C        2.1448657396    0.3683439442   -0.4546442710
C        1.4750962977   -0.9137759582   -0.6377605780
C        0.2354950361   -0.6024355752   -1.1121260746
C       -1.8007320468    0.3074743493    1.8601662331
C        0.2135051796    0.8573614930   -1.1984842567
N        1.3677856472    1.4182030469   -0.7937685490
H        3.1556884129    0.5225250850   -0.0904554491
H        1.8917151188   -1.8905675826   -0.4260961439
H       -0.5786237254   -1.2689341581   -1.3665670360
H       -0.8775796714    0.8359328520    1.7768855070
H       -0.6153539915    1.4700546155   -1.5411362974
C       -2.8431615208   -0.2907823860    1.9488435563
H       -3.7687004759   -0.8133997258    2.0351433594
13   
From optimize.out: Frame 2 / 58, Energy=    -286.8375806352
C        2.1448967972    0.3695916052   -0.4535486695
C        1.4771415654   -0.9133941335   -0.6399491208
C        0.2368219030   -0.6045574368   -1.1134494399
C       -1.8002867552    0.3068793926    1.8606045152
C        0.2116737044    0.8549026664   -1.1965384962
N        1.3650029823    1.4178517435   -0.7919591342
H        3.1559881457    0.5251415862   -0.0886557271
H        1.8959701307   -1.8893417025   -0.4318307148
H       -0.5752583391   -1.2721988890   -1.3694883513
H       -0.8747284443    0.8312355107    1.7771930395
H       -0.6181878883    1.4664324815   -1.5377401685
C       -2.8460434457   -0.2858192123    1.9501359124
H       -3.7729903559   -0.8067236120    2.0352263553
13   
From optimize.out: Frame 3 / 58, Energy=    -286.8376010728
C        2.1437101308    0.3737513431   -0.4515489484
C        1.4849959616   -0.9132938147   -0.6468876093
C        0.2425191150   -0.6116856931   -1.1181545530
C       -1.7986377523    0.3041774945    1.8618629049
C        0.2055963399    0.8474307705   -1.1895847813
N        1.3547919010    1.4176746745   -0.7833021227
H        3.1540670588    0.5344982711   -0.0846649228
H        1.9122673658   -1.8870987416   -0.4493969049
H       -0.5629727798   -1.2839480647   -1.3802365513
H       -0.8648536513    0.8138731414    1.7783090945
H       -0.6286417448    1.4551065409   -1.5255198558
C       -2.8550894096   -0.2693655268    1.9535371102
H       -3.7877525352   -0.7811203952    2.0355871400
13   
From optimize.out: Frame 4 / 58, Energy=    -286.8376390868
C        2.1395971516    0.3826585349   -0.4453835747
C        1.5045403463   -0.9132922943   -0.6641502114
C        0.2564284849   -0.6277711513   -1.1299269938
C       -1.7949571291    0.2975660209    1.8639010708
C        0.1911681473    0.8305854676   -1.1741518286
N        1.3301781844    1.4162775344   -0.7599931059
H        3.1471449106    0.5557210926   -0.0746367082
H        1.9521179896   -1.8818706441   -0.4898517418
H       -0.5341833155   -1.3110239068   -1.4066463128
H       -0.8433408991    0.7730390375    1.7793236864
H       -0.6542737979    1.4286623121   -1.4979869935
C       -2.8734751699   -0.2328440991    1.9604210942
H       -3.8209449031   -0.7177079042    2.0390816193
13   
From optimize.out: Frame 5 / 58, Energy=    -286.8376962516
C        2.1312996677    0.3944853349   -0.4348294766
C        1.5325740449   -0.9127221823   -0.6898302120
C        0.2771877507   -0.6503445622   -1.1491420606
C       -1.7896894608    0.2877233306    1.8650748047
C        0.1706547621    0.8057252750   -1.1525287680
N        1.2931174267    1.4127156125   -0.7221351468
H        3.1335095173    0.5852004914   -0.0574209926
H        2.0090240191   -1.8723327978   -0.5466727697
H       -0.4915262158   -1.3485936668   -1.4484544791
H       -0.8151471752    0.7135816856    1.7771728740
H       -0.6911083209    1.3887538940   -1.4595582113
C       -2.8954074765   -0.1818867291    1.9698328302
H       -3.8644885392   -0.6223056859    2.0484916079
13   
From optimize.out: Frame 6 / 58, Energy=    -286.8377650647
C        2.1206275249    0.4047586543   -0.4214742061
C        1.5599013188   -0.9112437534   -0.7158915398
C        0.2983142053   -0.6716828129   -1.1708213074
C       -1.7845265408    0.2783624815    1.8641624802
C        0.1501733603    0.7800888239   -1.1320273156
N        1.2545539263    1.4064740209   -0.6809895889
H        3.1162186996    0.6125243429   -0.0357981982
H        2.0645231338   -1.8604109957   -0.6018267558
H       -0.4479943986   -1.3834091010   -1.4944615922
H       -0.7905881097    0.6553404406    1.7705329189
H       -0.7275273929    1.3471011610   -1.4234117567
C       -2.9123594304   -0.1326002136    1.9791958432
H       -3.9013162967   -0.5253030485    2.0628110185
13   
From optimize.out: Frame 7 / 58, Energy=    -286.8378527202
C        2.1073161040    0.4131211295   -0.4051465994
C        1.5863016668   -0.9089190836   -0.7420749601
C        0.3198444898   -0.6915550974   -1.1952249905
C       -1.7792362028    0.2702536667    1.8609946622
C        0.1297782987    0.7536842018   -1.1128855167
N        1.2142755510    1.3971976562   -0.6365339929
H        3.0948371375    0.6372160124   -0.0092170037
H        2.1181881492   -1.8464132520   -0.6546360433
H       -0.4036148853   -1.4149296281   -1.5451324442
H       -0.7695278960    0.6001749407    1.7590920707
H       -0.7633348281    1.3038125467   -1.3900988985
C       -2.9242987799   -0.0854241408    1.9883417319
H       -3.9305288050   -0.4282189519    2.0825219845
13   
From optimize.out: Frame 8 / 58, Energy=    -286.8379609814
C        2.0905822658    0.4185619411   -0.3846679585
C        1.6115711563   -0.9060638573   -0.7683971780
C        0.3418739638   -0.7094265271   -1.2232604142
C       -1.7731657004    0.2653383132    1.8550254847
C        0.1093625951    0.7268214062   -1.0958392391
N        1.1716923075    1.3839658948   -0.5880476401
H        3.0681561330    0.6580142554    0.0241487718
H        2.1692894231   -1.8312454713   -0.7038284290
H       -0.3586922651   -1.4419852818   -1.6017799203
H       -0.7518355871    0.5529408213    1.7418430664
H       -0.7985942139    1.2592253576   -1.3609764373
C       -2.9301519919   -0.0423175734    1.9965078162
H       -3.9500880863   -0.3338292787    2.1092720774
13   
From optimize.out: Frame 9 / 58, Energy=    -286.8380581044
C        2.0706588322    0.4207651487   -0.3600331933
C        1.6348270715   -0.9025182782   -0.7943366569
C        0.3637684687   -0.7253496477   -1.2545900241
C       -1.7660035264    0.2651697596    1.8468371446
C        0.0892221474    0.6992312379   -1.0810650796
N        1.1271658834    1.3667230718   -0.5373563320
H        3.0368304195    0.6739516843    0.0649442904
H        2.2166568481   -1.8147762179   -0.7498637443
H       -0.3137966203   -1.4642627483   -1.6633892252
H       -0.7368633081    0.5168738035    1.7196719167
H       -0.8323796840    1.2134738508   -1.3363470617
C       -2.9305101128   -0.0028023046    2.0043599602
H       -3.9595764191   -0.2464793599    2.1411680052
13   
From optimize.out: Frame 10 / 58, Energy=    -286.8381408491
C        2.0484527376    0.4198234550   -0.3323892522
C        1.6560201502   -0.8982285693   -0.8192604304
C        0.3853760505   -0.7394375533   -1.2882472557
C       -1.7582250342    0.2700221118    1.8377613391
C        0.0693743718    0.6706344293   -1.0683783505
N        1.0813190783    1.3456035774   -0.4865181416
H        3.0021460557    0.6846805887    0.1118456948
H        2.2609196674   -1.7966301766   -0.7940969983
H       -0.2684779039   -1.4821433592   -1.7286572614
H       -0.7242252352    0.4918455716    1.6945404327
H       -0.8644854647    1.1667665704   -1.3156547594
C       -2.9271219106    0.0350849030    2.0134565808
H       -3.9610725628   -0.1680215488    2.1755984024
13   
From optimize.out: Frame 11 / 58, Energy=    -286.8382356948
C        2.0236543142    0.4137537180   -0.3014702915
C        1.6739629659   -0.8947068163   -0.8419633596
C        0.4062497769   -0.7504160301   -1.3243950650
C       -1.7493183904    0.2843210494    1.8281429971
C        0.0508010579    0.6429527153   -1.0598315931
N        1.0352355901    1.3202040552   -0.4362773872
H        2.9633899410    0.6871165668    0.1654518185
H        2.2991637665   -1.7799404385   -0.8328506689
H       -0.2246665612   -1.4933572337   -1.7976235118
H       -0.7144556140    0.4899694714    1.6665784144
H       -0.8932671954    1.1223807935   -1.3024799462
C       -2.9183124529    0.0663416311    2.0232701697
H       -3.9524371985   -0.1086194821    2.2134484238
13   
From optimize.out: Frame 12 / 58, Energy=    -286.8383539862
C        1.9978937171    0.4033350496   -0.2696167332
C        1.6880432796   -0.8923084998   -0.8615725566
C        0.4256103122   -0.7587201845   -1.3612970390
C       -1.7402607525    0.3075321257    1.8198077845
C        0.0347964011    0.6170361302   -1.0554381971
N        0.9912453853    1.2925705424   -0.3896887129
H        2.9230585422    0.6815701202    0.2220936062
H        2.3305133767   -1.7654127433   -0.8658051611
H       -0.1833551236   -1.4988967171   -1.8671114697
H       -0.7078280933    0.5108136374    1.6387457607
H       -0.9168232645    1.0823738054   -1.2967708122
C       -2.9059925098    0.0909470394    2.0348953708
H       -3.9369012706   -0.0708403057    2.2517581597
13   
From optimize.out: Frame 13 / 58, Energy=    -286.8385200959
C        1.9748039164    0.3881666070   -0.2402908562
C        1.6940973010   -0.8942164114   -0.8730086390
C        0.4398909585   -0.7619686402   -1.3941989532
C       -1.7319969781    0.3420313172    1.8142184217
C        0.0253031262    0.6001108918   -1.0598906278
N        0.9579019889    1.2678737239   -0.3561209264
H        2.8864090496    0.6657398530    0.2758975808
H        2.3450330205   -1.7612136395   -0.8816819871
H       -0.1538406772   -1.4957135907   -1.9271811158
H       -0.7073000464    0.5675871983    1.6138969527
H       -0.9287797944    1.0586065703   -1.3062089017
C       -2.8888789916    0.0978577367    2.0469708520
H       -3.9126428731   -0.0748616164    2.2875982001
13   
From optimize.out: Frame 14 / 58, Energy=    -286.8387348059
C        1.9511538614    0.3721840732   -0.2110380882
C        1.6997989016   -0.8957823891   -0.8842084494
C        0.4551897748   -0.7654782352   -1.4286363065
C       -1.7257893864    0.3778153392    1.8113246164
C        0.0172035022    0.5817584463   -1.0657359684
N        0.9241632602    1.2425641271   -0.3248902369
H        2.8486619672    0.6476616155    0.3309411467
H        2.3601946381   -1.7550913278   -0.8993418315
H       -0.1205821850   -1.4921028179   -1.9898496192
H       -0.7097964683    0.6250006825    1.5902842957
H       -0.9381659846    1.0344103699   -1.3178018353
C       -2.8728807317    0.1078197275    2.0642371177
H       -3.8891511494   -0.0807596112    2.3247151590
13   
From optimize.out: Frame 15 / 58, Energy=    -286.8390390319
C        1.9311308997    0.3550333478   -0.1843395475
C        1.7020816023   -0.8995060981   -0.8909832757
C        0.4694828110   -0.7672953923   -1.4615319923
C       -1.7238252544    0.4170111406    1.8140787632
C        0.0133365710    0.5668057620   -1.0785291612
N        0.8974974844    1.2196262571   -0.3053261875
H        2.8152577990    0.6257503594    0.3839579347
H        2.3682500619   -1.7527620298   -0.9107869585
H       -0.0899188807   -1.4849362005   -2.0482717387
H       -0.7191911758    0.6923570272    1.5715444481
H       -0.9400567148    1.0184998953   -1.3397429251
C       -2.8584639355    0.1145860040    2.0880882551
H       -3.8655812681   -0.1051700729    2.3618423855
13   
From optimize.out: Frame 16 / 58, Energy=    -286.8394054075
C        1.9093653954    0.3362773683   -0.1577148192
C        1.7097941074   -0.9013611755   -0.9035619301
C        0.4907810834   -0.7713798442   -1.5005431399
C       -1.7287440171    0.4569012506    1.8251076418
C        0.0086947826    0.5437385322   -1.0908136224
N        0.8658540350    1.1908533291   -0.2832894396
H        2.7776907812    0.6016888337    0.4404212857
H        2.3895608343   -1.7409978487   -0.9384840267
H       -0.0419610841   -1.4793501143   -2.1198568460
H       -0.7338785889    0.7484033153    1.5584279658
H       -0.9428396534    0.9921858587   -1.3605108564
C       -2.8533163015    0.1387913013    2.1247231940
H       -3.8510013741   -0.1157508064    2.4060945930
13   
From optimize.out: Frame 17 / 58, Energy=    -286.8397166524
C        1.8908514996    0.3178184775   -0.1362254214
C        1.7132821219   -0.9069754244   -0.9096660725
C        0.5081153894   -0.7724169695   -1.5324753138
C       -1.7365662917    0.4965811577    1.8361527802
C        0.0094742683    0.5304169315   -1.1087395182
N        0.8448056587    1.1693138285   -0.2724438129
H        2.7439307138    0.5759825594    0.4879910660
H        2.4002410284   -1.7394981595   -0.9502998041
H       -0.0047130552   -1.4703800393   -2.1781125424
H       -0.7552826431    0.8135169005    1.5464926280
H       -0.9370090174    0.9808854643   -1.3913552393
C       -2.8466583241    0.1496456541    2.1582134999
H       -3.8304713485   -0.1448903805    2.4504677505
13   
From optimize.out: Frame 18 / 58, Energy=    -286.8400363089
C        1.8701891619    0.2975563279   -0.1154614847
C        1.7219397613   -0.9106832523   -0.9206910575
C        0.5309424260   -0.7742795277   -1.5687641961
C       -1.7493682458    0.5353663947    1.8514122989
C        0.0088970181    0.5121951816   -1.1253609420
N        0.8194335886    1.1422289156   -0.2576792800
H        2.7053679613    0.5477201152    0.5364461110
H        2.4222913302   -1.7308244423   -0.9719393730
H        0.0461416369   -1.4613823051   -2.2462137314
H       -0.7805753051    0.8681605805    1.5367614114
H       -0.9334586198    0.9620095328   -1.4201643406
C       -2.8464624334    0.1707357135    2.1982240942
H       -3.8153382801   -0.1588032343    2.5034304900
13   
From optimize.out: Frame 19 / 58, Energy=    -286.8403355952
C        1.8554763839    0.2781256915   -0.1007531225
C        1.7295602505   -0.9167777974   -0.9279136549
C        0.5522645248   -0.7743261290   -1.5988526014
C       -1.7684862048    0.5721298675    1.8706766505
C        0.0118244564    0.5007010337   -1.1479705422
N        0.8053184646    1.1193029997   -0.2546430182
H        2.6734467538    0.5195438885    0.5759775883
H        2.4392145601   -1.7283960960   -0.9854763395
H        0.0916737276   -1.4503355752   -2.3036282016
H       -0.8136186772    0.9227165340    1.5325018375
H       -0.9242024919    0.9533969137   -1.4577497749
C       -2.8509759081    0.1862009133    2.2398365587
H       -3.8014958395   -0.1822822444    2.5579946203
13   
From optimize.out: Frame 20 / 58, Energy=    -286.8405812881
C        1.8275099015    0.2555774257   -0.0794249571
C        1.7436710650   -0.9167239074   -0.9452512120
C        0.5801687447   -0.7754213180   -1.6395432349
C       -1.7814286548    0.6063251124    1.8826007079
C        0.0103983503    0.4773079965   -1.1592730005
N        0.7684943657    1.0865352604   -0.2288754087
H        2.6246703628    0.4879493092    0.6236501615
H        2.4725118403   -1.7112076198   -1.0132021421
H        0.1548286732   -1.4385999781   -2.3786513283
H       -0.8383826339    0.9622963896    1.5172088879
H       -0.9242118609    0.9256070317   -1.4780764784
C       -2.8510285815    0.2116317322    2.2785779100
H       -3.7872015723   -0.1712774342    2.6202600948
13   
From optimize.out: Frame 21 / 58, Energy=    -286.8408694192
C        1.8071154902    0.2338835628   -0.0657011360
C        1.7576761910   -0.9195549482   -0.9581948834
C        0.6079771549   -0.7743392268   -1.6748497212
C       -1.8034726907    0.6390337937    1.9012294051
C        0.0135570943    0.4622828906   -1.1801914122
N        0.7462769506    1.0574808802   -0.2182252147
H        2.5832826028    0.4565264121    0.6613784964
H        2.4998441233   -1.7030346092   -1.0294469330
H        0.2125922709   -1.4239507660   -2.4437739968
H       -0.8746885676    1.0037501835    1.5093556190
H       -0.9168739719    0.9095414333   -1.5124347231
C       -2.8569509047    0.2285253615    2.3222772772
H       -3.7763357431   -0.1701449675    2.6885772227
13   
From optimize.out: Frame 22 / 58, Energy=    -286.8411465463
C        1.7875153118    0.2127663206   -0.0524401275
C        1.7714995464   -0.9220676442   -0.9690287865
C        0.6360819776   -0.7710111829   -1.7087301695
C       -1.8263686625    0.6682111931    1.9181702610
C        0.0186355978    0.4513507026   -1.2056199048
N        0.7272940295    1.0300732933   -0.2133937781
H        2.5419478965    0.4254199003    0.6979929375
H        2.5228018431   -1.6988476163   -1.0373280904
H        0.2660878217   -1.4064848833   -2.5032798889
H       -0.9136794280    1.0423370111    1.4987206345
H       -0.9077176688    0.8979572475   -1.5518065784
C       -2.8603508266    0.2379665303    2.3656792167
H       -3.7637474383   -0.1676708722    2.7610642746
13   
From optimize.out: Frame 23 / 58, Energy=    -286.8413733332
C        1.7642827288    0.1882726305   -0.0384869869
C        1.7924752062   -0.9190261272   -0.9882140630
C        0.6720715449   -0.7663417509   -1.7499867540
C       -1.8508217271    0.6946659563    1.9373710609
C        0.0212951892    0.4303628487   -1.2268011099
N        0.6959650722    0.9916301544   -0.1996781550
H        2.4956365747    0.3892532824    0.7368051472
H        2.5595952390   -1.6807435895   -1.0592691035
H        0.3353214244   -1.3838476512   -2.5734994275
H       -0.9506591261    1.0650238804    1.4881453310
H       -0.9050100787    0.8699359060   -1.5825044610
C       -2.8691454227    0.2599987501    2.4149827459
H       -3.7610066247   -0.1391842899    2.8411357757
13   
From optimize.out: Frame 24 / 58, Energy=    -286.8416384257
C        1.7477977375    0.1625430469   -0.0300087263
C        1.8257419264   -0.9094585179   -1.0157812601
C        0.7156909636   -0.7589514369   -1.7937575496
C       -1.8826249743    0.7111767581    1.9655751252
C        0.0213203286    0.4026353899   -1.2478427198
N        0.6658665411    0.9409258838   -0.1876741880
H        2.4561449231    0.3533758124    0.7679116242
H        2.6131819422   -1.6504967538   -1.0941106743
H        0.4119269895   -1.3545379875   -2.6465067053
H       -0.9878360883    1.0586777588    1.4883477066
H       -0.9108325517    0.8275065572   -1.6066857920
C       -2.8933824305    0.2927881939    2.4722413400
H       -3.7829953070   -0.0761847049    2.9282918195
13   
From optimize.out: Frame 25 / 58, Energy=    -286.8418400612
C        1.7241887840    0.1346649787   -0.0179863817
C        1.8539586278   -0.8991269039   -1.0409182724
C        0.7576900766   -0.7502092391   -1.8379074962
C       -1.9081651034    0.7299681212    1.9858660153
C        0.0232215193    0.3724584748   -1.2644828557
N        0.6252822827    0.8913416759   -0.1707590161
H        2.4103367630    0.3138237450    0.8018011347
H        2.6615192567   -1.6174974203   -1.1251229887
H        0.4873278523   -1.3230100465   -2.7170526142
H       -1.0216674299    1.0581900474    1.4792176426
H       -0.9139840738    0.7838867733   -1.6269589667
C       -2.9083000440    0.3256285686    2.5241975570
H       -3.7914085110   -0.0201187752    3.0101062420
13   
From optimize.out: Frame 26 / 58, Energy=    -286.8420787298
C        1.7084851199    0.1071086292   -0.0101739600
C        1.8885538050   -0.8835439930   -1.0694557014
C        0.8025259222   -0.7377989624   -1.8807040412
C       -1.9366734038    0.7382648017    2.0097059615
C        0.0237552097    0.3381992854   -1.2796438436
N        0.5869312125    0.8337560478   -0.1559181060
H        2.3751003426    0.2771441410    0.8281391326
H        2.7166826190   -1.5761677353   -1.1623543958
H        0.5589709097   -1.2847809938   -2.7833634810
H       -1.0530675946    1.0327738472    1.4765849209
H       -0.9225707616    0.7299559819   -1.6412209307
C       -2.9330586638    0.3655725378    2.5775988261
H       -3.8156347167    0.0595164124    3.0908056187
13   
From optimize.out: Frame 27 / 58, Energy=    -286.8423211063
C        1.7015024460    0.0824061417   -0.0066428960
C        1.9236426449   -0.8636703879   -1.0985225542
C        0.8421218588   -0.7241337309   -1.9167650735
C       -1.9627679864    0.7347413133    2.0334037095
C        0.0205955775    0.3019362619   -1.2868438594
N        0.5552242993    0.7738528270   -0.1417624084
H        2.3545548108    0.2470861755    0.8443027785
H        2.7730632095   -1.5265655984   -1.2055128901
H        0.6207499423   -1.2456187617   -2.8393211701
H       -1.0757284593    0.9830500757    1.4816120052
H       -0.9371884665    0.6701731247   -1.6427530831
C       -2.9643875866    0.4124204861    2.6232173003
H       -3.8513822900    0.1543220731    3.1555881414
13   
From optimize.out: Frame 28 / 58, Energy=    -286.8425052100
C        1.6962687361    0.0586318416   -0.0064787018
C        1.9555892807   -0.8429336060   -1.1263382607
C        0.8761053625   -0.7115336442   -1.9465556514
C       -1.9869352891    0.7280498947    2.0553464778
C        0.0163806646    0.2656590182   -1.2888412029
N        0.5258112047    0.7150494875   -0.1253014305
H        2.3392649559    0.2179171585    0.8536510001
H        2.8272280002   -1.4725179741   -1.2498922741
H        0.6786546279   -1.2082436173   -2.8876025002
H       -1.0961504401    0.9279028681    1.4892854938
H       -0.9517108181    0.6118315949   -1.6385089376
C       -2.9949138569    0.4617319370    2.6624205066
H       -3.8855924283    0.2484550411    3.2088154810
13   
From optimize.out: Frame 29 / 58, Energy=    -286.8426789696
C        1.6914797338    0.0333396622    0.0002021394
C        1.9862744840   -0.8216609227   -1.1445013158
C        0.9129117334   -0.6934741161   -1.9760968443
C       -2.0122792983    0.7153147183    2.0697509221
C        0.0122454799    0.2339172059   -1.3041984026
N        0.4970771956    0.6525618498   -0.1204986958
H        2.3182278400    0.1913838930    0.8735489639
H        2.8738517656   -1.4247385022   -1.2771437957
H        0.7294439289   -1.1635457383   -2.9326504217
H       -1.1256780470    0.8664008603    1.4806775651
H       -0.9640907747    0.5608560341   -1.6517684855
C       -3.0161394850    0.5070047455    2.7064468502
H       -3.9033245561    0.3426403103    3.2762315207
13   
From optimize.out: Frame 30 / 58, Energy=    -286.8428529327
C        1.6787255445    0.0063846202    0.0034898150
C        2.0126736467   -0.7988097527   -1.1664325708
C        0.9440992347   -0.6779174236   -2.0050288384
C       -2.0335136857    0.7086045671    2.0850998322
C        0.0088445644    0.1972463151   -1.3051150519
N        0.4645897838    0.5925594843   -0.1073968139
H        2.2921366528    0.1564450661    0.8874633366
H        2.9218090184   -1.3663088255   -1.3105112408
H        0.7874835326   -1.1209840803   -2.9792114965
H       -1.1511426274    0.8136002958    1.4793371811
H       -0.9744892156    0.5019949386   -1.6523759841
C       -3.0339882473    0.5545191617    2.7421970458
H       -3.9172282017    0.4326656334    3.3284847857
13   
From optimize.out: Frame 31 / 58, Energy=    -286.8429638864
C        1.6711124577   -0.0160402155    0.0017636467
C        2.0351857176   -0.7773408746   -1.1854885212
C        0.9688870630   -0.6645587149   -2.0241525382
C       -2.0535508993    0.6972387412    2.0987781017
C        0.0040931518    0.1657256018   -1.3054881778
N        0.4387156033    0.5380621894   -0.0929980489
H        2.2759258331    0.1251691174    0.8929479763
H        2.9629423824   -1.3108037544   -1.3414682489
H        0.8374684042   -1.0828039363   -3.0129744268
H       -1.1752529705    0.7566694015    1.4810089471
H       -0.9842764753    0.4515825266   -1.6527515808
C       -3.0507904552    0.5983867065    2.7711580862
H       -3.9304598126    0.5187132113    3.3696647847
13   
From optimize.out: Frame 32 / 58, Energy=    -286.8430582619
C        1.6567221755   -0.0388191500    0.0059471936
C        2.0524617382   -0.7543537219   -1.1972346127
C        0.9909553645   -0.6502631566   -2.0446234589
C       -2.0681334956    0.6845406162    2.1060336701
C       -0.0026667939    0.1357213505   -1.3101128137
N        0.4129489904    0.4867391546   -0.0862367855
H        2.2477004536    0.0922146352    0.9072085751
H        2.9979309083   -1.2549898926   -1.3592206697
H        0.8890862124   -1.0453765368   -3.0468195220
H       -1.1988252506    0.7013404544    1.4733922834
H       -0.9956297426    0.4051201931   -1.6578382273
C       -3.0557451812    0.6385655512    2.7976737196
H       -3.9268053788    0.5995605028    3.4118306481
13   
From optimize.out: Frame 33 / 58, Energy=    -286.8431811425
C        1.6367766803   -0.0625175115    0.0118937958
C        2.0714246502   -0.7308366784   -1.2046373625
C        1.0180511347   -0.6336449395   -2.0644209520
C       -2.0863912859    0.6726247238    2.1112348185
C       -0.0070046740    0.1050605015   -1.3262765459
N        0.3804681889    0.4314152510   -0.0845678921
H        2.2076342700    0.0558173431    0.9270092434
H        3.0334997725   -1.2000341796   -1.3668085938
H        0.9416379433   -1.0033632782   -3.0789416610
H       -1.2336364009    0.6488943789    1.4564407324
H       -1.0002276347    0.3599098870   -1.6822949049
C       -3.0541479578    0.6766646226    2.8315212884
H       -3.9080846866    0.6800098792    3.4698480338
13   
From optimize.out: Frame 34 / 58, Energy=    -286.8433166249
C        1.6071143233   -0.0839939100    0.0231013837
C        2.0859270305   -0.7083170632   -1.2025469832
C        1.0476175111   -0.6155700264   -2.0866848581
C       -2.1038717949    0.6604417888    2.1133892100
C       -0.0110806712    0.0735186894   -1.3567227319
N        0.3445866956    0.3762463308   -0.0964370949
H        2.1496440088    0.0204980507    0.9565659334
H        3.0630800651   -1.1492079112   -1.3551134172
H        1.0015956805   -0.9601274077   -3.1120864184
H       -1.2755310018    0.6004709006    1.4295626941
H       -1.0005007148    0.3211880363   -1.7275709112
C       -3.0408262438    0.7100442939    2.8716126536
H       -3.8677548881    0.7548082279    3.5429305401
13   
From optimize.out: Frame 35 / 58, Energy=    -286.8433861830
C        1.5822811850   -0.1073226173    0.0279436769
C        2.1011490989   -0.6877553191   -1.2055772445
C        1.0765171461   -0.5970703641   -2.1036279141
C       -2.1233304349    0.6512920011    2.1163120376
C       -0.0116202760    0.0431905577   -1.3739477218
N        0.3084179882    0.3216465733   -0.1004125333
H        2.1059316753   -0.0138665830    0.9736161040
H        3.0914799079   -1.0997588374   -1.3516127942
H        1.0520444179   -0.9144640143   -3.1382807626
H       -1.3175115766    0.5567521193    1.4090157842
H       -0.9989044859    0.2785884057   -1.7600997572
C       -3.0321038913    0.7426233807    2.9046071964
H       -3.8343507545    0.8261446974    3.6020639290
13   
From optimize.out: Frame 37 / 58, Energy=    -286.8434155805
C        1.5515865658   -0.1429547755    0.0318068653
C        2.1142607937   -0.6630777880   -1.2080045792
C        1.1023923047   -0.5740230102   -2.1163257060
C       -2.1287191218    0.6599033997    2.1227173505
C       -0.0295470004   -0.0035737890   -1.3913695018
N        0.2665940137    0.2397806441   -0.0932587086
H        2.0588512734   -0.0666831233    0.9921148294
H        3.1262613399   -1.0303181943   -1.3442686965
H        1.1069982218   -0.8539296082   -3.1647706211
H       -1.3387957935    0.5606228167    1.4050112118
H       -1.0122778883    0.2206611190   -1.7992375221
C       -3.0200281785    0.7741643859    2.9217942359
H       -3.7975765304    0.8794279230    3.6437908425
13   
From optimize.out: Frame 39 / 58, Energy=    -286.8435218663
C        1.5461717848   -0.1453140581    0.0388180233
C        2.1130794784   -0.6582131097   -1.2057244818
C        1.1045790170   -0.5694901007   -2.1230834889
C       -2.1266790551    0.6523328920    2.1170825425
C       -0.0264726651   -0.0059775895   -1.3916724064
N        0.2610416975    0.2402025891   -0.1014333150
H        2.0489572843   -0.0665620683    0.9957303641
H        3.1226847906   -1.0266163572   -1.3372602325
H        1.1093275920   -0.8487636117   -3.1659894755
H       -1.3354859935    0.5426791399    1.3927238595
H       -1.0116212438    0.2160241842   -1.7925954026
C       -3.0133700760    0.7762699730    2.9235437214
H       -3.7922126109    0.8934281171    3.6498602920
13   
From optimize.out: Frame 41 / 58, Energy=    -286.8435994361
C        1.5346199274   -0.1623427558    0.0383545475
C        2.1188400348   -0.6463594831   -1.2069158889
C        1.1150550746   -0.5596313796   -2.1269675119
C       -2.1298557218    0.6559980427    2.1215967681
C       -0.0326761776   -0.0267302525   -1.3991933718
N        0.2441126163    0.2026469789   -0.0998727828
H        2.0312435270   -0.0920101977    1.0015941444
H        3.1380896088   -0.9931708468   -1.3379963421
H        1.1341733713   -0.8219432167   -3.1772075731
H       -1.3457497179    0.5413745903    1.3944330974
H       -1.0160931258    0.1896518086   -1.8085782966
C       -3.0118845253    0.7950591380    2.9347968229
H       -3.7798748917    0.9174575737    3.6659563871
13   
From optimize.out: Frame 42 / 58, Energy=    -286.8436007147
C        1.5425023157   -0.1543088661    0.0392417260
C        2.1135078603   -0.6542289052   -1.2061918554
C        1.1077879754   -0.5662964251   -2.1245299223
C       -2.1276057191    0.6608589384    2.1227133073
C       -0.0285732973   -0.0167777302   -1.3945110782
N        0.2555204018    0.2232038323   -0.1019952511
H        2.0449984481   -0.0780562565    0.9983362197
H        3.1263039763   -1.0122504153   -1.3403308895
H        1.1190627442   -0.8382172415   -3.1722356660
H       -1.3354080202    0.5561006219    1.3993910769
H       -1.0125879440    0.2032093304   -1.7980867031
C       -3.0147906267    0.7854880417    2.9286333536
H       -3.7907181146    0.8912750752    3.6495656821
13   