13   
From qcts2.out: Frame 3 / 3, Energy=    -286.8546796440
C        1.6953754700    0.2668787997   -0.3493249784
C        1.1322120701   -0.9502514332   -0.1272191673
C       -0.3152892577   -1.0128350170    0.1852734258
C       -1.1759193266    0.1336710086   -0.3967712000
C       -0.3433016567    1.3553510938   -0.2240724854
N        0.9808859317    1.4389325301   -0.2656992772
H        2.7556409388    0.3796664583   -0.5584927660
H        1.7058589088   -1.8681599870   -0.2087914140
H       -0.7675629862   -2.0050054394    0.1717519128
H       -2.0546757458    0.0524429272   -1.0314368968
H       -0.8851716388    2.2939473598   -0.1154390027
C       -1.0283469844   -0.0266657163    1.0371570259
H       -1.6997057237   -0.0579725844    1.8830648227
