13   
From optimize.out: Frame 1 / 1, Energy=    -286.8365048672
C        0.0964040000    0.0066460000   -0.0000000000
C       -0.1921260000    0.0365820000    0.0000000000
C       -0.1071160000    0.1076320000   -0.0000000000
C       -0.0713910000    0.9523650000    0.0000000000
C       -0.0997980000   -0.0433080000   -0.0000000000
N       -0.3371250000    0.0125590000   -0.0000000000
H        0.1437450000    0.0039500000    0.0000000000
H        0.1486510000    0.0014410000    0.0000000000
H        0.1495460000    0.0085690000   -0.0000000000
H        0.1394520000   -0.0394060000    0.0000000000
H        0.1418960000    0.0054070000   -0.0000000000
C       -0.1617670000   -0.0527970000    0.0000000000
H        0.1496290000    0.0003610000    0.0000000000
