13   
Frame   0 IRC: Energy =  -286.8734900000 ; +0.0000 kcal/mol
C       -0.0920010000   -0.0309940000   -0.0000000000
C        0.0089590000   -0.0611660000   -0.0000000000
C       -0.2713140000    1.0344550000   -0.0000000000
C       -0.1469780000    0.0472990000    0.0000000000
C        0.0239480000   -0.0897470000   -0.0000000000
N       -0.2029040000    0.0251750000   -0.0000000000
H        0.1373300000   -0.0001210000   -0.0000000000
H        0.1247270000    0.0034850000   -0.0000000000
H        0.1389080000   -0.0261550000   -0.0000000000
H        0.1388620000    0.0006590000    0.0000000000
H        0.1293950000    0.0035920000   -0.0000000000
C       -0.1274640000    0.0933320000    0.0000000000
H        0.1385320000    0.0001850000    0.0000000000
13   
Frame   1 IRC: Energy =  -286.8734550000 ; +0.0220 kcal/mol
C       -0.0914170000   -0.0303630000   -0.0000000000
C        0.0078390000   -0.0610880000   -0.0000000000
C       -0.2710830000    1.0337100000   -0.0000000000
C       -0.1465800000    0.0496690000    0.0000000000
C        0.0237540000   -0.0898460000   -0.0000000000
N       -0.2027570000    0.0243260000   -0.0000000000
H        0.1373350000   -0.0001400000   -0.0000000000
H        0.1246030000    0.0035150000   -0.0000000000
H        0.1389790000   -0.0258980000   -0.0000000000
H        0.1389130000    0.0005510000    0.0000000000
H        0.1293660000    0.0035830000   -0.0000000000
C       -0.1276360000    0.0917610000    0.0000000000
H        0.1386840000    0.0002210000    0.0000000000
13   
Frame   2 IRC: Energy =  -286.8734520000 ; +0.0238 kcal/mol
C       -0.0914140000   -0.0303730000   -0.0000000000
C        0.0079130000   -0.0610750000   -0.0000000000
C       -0.2712360000    1.0336050000   -0.0000000000
C       -0.1463670000    0.0497010000    0.0000000000
C        0.0237340000   -0.0898470000   -0.0000000000
N       -0.2027310000    0.0243170000   -0.0000000000
H        0.1373250000   -0.0001410000   -0.0000000000
H        0.1245950000    0.0035180000   -0.0000000000
H        0.1389740000   -0.0258670000   -0.0000000000
H        0.1389290000    0.0005520000    0.0000000000
H        0.1293850000    0.0035860000   -0.0000000000
C       -0.1277820000    0.0918080000    0.0000000000
H        0.1386740000    0.0002160000    0.0000000000
13   
Frame   3 IRC: Energy =  -286.8734070000 ; +0.0521 kcal/mol
C       -0.0910420000   -0.0299380000   -0.0000000000
C        0.0070610000   -0.0610730000   -0.0000000000
C       -0.2709570000    1.0333670000   -0.0000000000
C       -0.1462340000    0.0513260000    0.0000000000
C        0.0236250000   -0.0899680000   -0.0000000000
N       -0.2026150000    0.0237950000   -0.0000000000
H        0.1373340000   -0.0001540000   -0.0000000000
H        0.1245080000    0.0035320000   -0.0000000000
H        0.1390100000   -0.0257550000   -0.0000000000
H        0.1389540000    0.0004730000    0.0000000000
H        0.1293440000    0.0035720000   -0.0000000000
C       -0.1277870000    0.0905750000    0.0000000000
H        0.1387980000    0.0002480000    0.0000000000
13   
Frame   4 IRC: Energy =  -286.8733980000 ; +0.0577 kcal/mol
C       -0.0910450000   -0.0299460000   -0.0000000000
C        0.0071620000   -0.0610530000   -0.0000000000
C       -0.2711730000    1.0332080000   -0.0000000000
C       -0.1458750000    0.0514150000    0.0000000000
C        0.0236110000   -0.0899720000   -0.0000000000
N       -0.2025810000    0.0237760000   -0.0000000000
H        0.1373250000   -0.0001560000   -0.0000000000
H        0.1244930000    0.0035380000   -0.0000000000
H        0.1390020000   -0.0257080000   -0.0000000000
H        0.1389780000    0.0004710000    0.0000000000
H        0.1293710000    0.0035750000   -0.0000000000
C       -0.1280490000    0.0906100000    0.0000000000
H        0.1387810000    0.0002410000    0.0000000000
13   
Frame   5 IRC: Energy =  -286.8733440000 ; +0.0916 kcal/mol
C       -0.0907260000   -0.0295500000   -0.0000000000
C        0.0063250000   -0.0610800000   -0.0000000000
C       -0.2708350000    1.0331500000   -0.0000000000
C       -0.1459010000    0.0528930000    0.0000000000
C        0.0235270000   -0.0901120000   -0.0000000000
N       -0.2024650000    0.0233350000   -0.0000000000
H        0.1373330000   -0.0001660000   -0.0000000000
H        0.1244150000    0.0035460000   -0.0000000000
H        0.1390290000   -0.0256460000   -0.0000000000
H        0.1389920000    0.0003960000    0.0000000000
H        0.1293220000    0.0035590000   -0.0000000000
C       -0.1279260000    0.0894000000    0.0000000000
H        0.1389100000    0.0002760000    0.0000000000
13   
Frame   6 IRC: Energy =  -286.8733240000 ; +0.1042 kcal/mol
C       -0.0907260000   -0.0295480000   -0.0000000000
C        0.0064490000   -0.0610600000   -0.0000000000
C       -0.2711140000    1.0329450000   -0.0000000000
C       -0.1453680000    0.0530550000    0.0000000000
C        0.0235070000   -0.0901250000   -0.0000000000
N       -0.2024230000    0.0233010000   -0.0000000000
H        0.1373280000   -0.0001690000   -0.0000000000
H        0.1243930000    0.0035540000   -0.0000000000
H        0.1390180000   -0.0255830000   -0.0000000000
H        0.1390260000    0.0003910000    0.0000000000
H        0.1293550000    0.0035610000   -0.0000000000
C       -0.1283350000    0.0894100000    0.0000000000
H        0.1388890000    0.0002660000    0.0000000000
13   
Frame   7 IRC: Energy =  -286.8732560000 ; +0.1468 kcal/mol
C       -0.0904240000   -0.0291480000   -0.0000000000
C        0.0055380000   -0.0611070000   -0.0000000000
C       -0.2707040000    1.0330040000   -0.0000000000
C       -0.1455470000    0.0545680000    0.0000000000
C        0.0234500000   -0.0902920000   -0.0000000000
N       -0.2022960000    0.0228800000   -0.0000000000
H        0.1373350000   -0.0001800000   -0.0000000000
H        0.1243140000    0.0035590000   -0.0000000000
H        0.1390390000   -0.0255500000   -0.0000000000
H        0.1390330000    0.0003110000    0.0000000000
H        0.1292970000    0.0035430000   -0.0000000000
C       -0.1280680000    0.0881060000    0.0000000000
H        0.1390340000    0.0003050000    0.0000000000
13   
Frame   8 IRC: Energy =  -286.8732190000 ; +0.1701 kcal/mol
C       -0.0904160000   -0.0291270000   -0.0000000000
C        0.0056870000   -0.0610920000   -0.0000000000
C       -0.2710520000    1.0327570000   -0.0000000000
C       -0.1447890000    0.0548310000    0.0000000000
C        0.0234080000   -0.0903190000   -0.0000000000
N       -0.2022400000    0.0228230000   -0.0000000000
H        0.1373330000   -0.0001840000   -0.0000000000
H        0.1242840000    0.0035710000   -0.0000000000
H        0.1390230000   -0.0254710000   -0.0000000000
H        0.1390820000    0.0003010000    0.0000000000
H        0.1293370000    0.0035430000   -0.0000000000
C       -0.1286710000    0.0880720000    0.0000000000
H        0.1390130000    0.0002920000    0.0000000000
13   
Frame   9 IRC: Energy =  -286.8731300000 ; +0.2259 kcal/mol
C       -0.0901160000   -0.0286990000   -0.0000000000
C        0.0046310000   -0.0611590000   -0.0000000000
C       -0.2705580000    1.0329180000   -0.0000000000
C       -0.1451420000    0.0564980000    0.0000000000
C        0.0233950000   -0.0905260000   -0.0000000000
N       -0.2020940000    0.0223950000   -0.0000000000
H        0.1373370000   -0.0001950000   -0.0000000000
H        0.1241980000    0.0035710000   -0.0000000000
H        0.1390400000   -0.0254610000   -0.0000000000
H        0.1390800000    0.0002110000    0.0000000000
H        0.1292690000    0.0035220000   -0.0000000000
C       -0.1282220000    0.0865860000    0.0000000000
H        0.1391800000    0.0003390000    0.0000000000
13   
Frame  10 IRC: Energy =  -286.8730620000 ; +0.2686 kcal/mol
C       -0.0900870000   -0.0286400000   -0.0000000000
C        0.0048080000   -0.0611640000   -0.0000000000
C       -0.2709830000    1.0326340000   -0.0000000000
C       -0.1440850000    0.0569270000    0.0000000000
C        0.0233080000   -0.0905810000   -0.0000000000
N       -0.2020150000    0.0223010000   -0.0000000000
H        0.1373420000   -0.0002010000   -0.0000000000
H        0.1241580000    0.0035890000   -0.0000000000
H        0.1390190000   -0.0253660000   -0.0000000000
H        0.1391520000    0.0001920000    0.0000000000
H        0.1293150000    0.0035190000   -0.0000000000
C       -0.1290980000    0.0864670000    0.0000000000
H        0.1391660000    0.0003230000    0.0000000000
13   
Frame  11 IRC: Energy =  -286.8729360000 ; +0.3476 kcal/mol
C       -0.0897800000   -0.0281620000   -0.0000000000
C        0.0035140000   -0.0612540000   -0.0000000000
C       -0.2703870000    1.0329040000   -0.0000000000
C       -0.1446480000    0.0588820000    0.0000000000
C        0.0233800000   -0.0908510000   -0.0000000000
N       -0.2018370000    0.0218420000   -0.0000000000
H        0.1373410000   -0.0002140000   -0.0000000000
H        0.1240540000    0.0035840000   -0.0000000000
H        0.1390290000   -0.0253770000   -0.0000000000
H        0.1391400000    0.0000830000    0.0000000000
H        0.1292380000    0.0034950000   -0.0000000000
C       -0.1284100000    0.0846900000    0.0000000000
H        0.1393660000    0.0003790000    0.0000000000
13   
Frame  12 IRC: Energy =  -286.8728130000 ; +0.4248 kcal/mol
C       -0.0897190000   -0.0280410000   -0.0000000000
C        0.0037350000   -0.0612990000   -0.0000000000
C       -0.2709120000    1.0326010000   -0.0000000000
C       -0.1431770000    0.0595620000    0.0000000000
C        0.0232070000   -0.0909560000   -0.0000000000
N       -0.2017250000    0.0216930000   -0.0000000000
H        0.1373530000   -0.0002220000   -0.0000000000
H        0.1240050000    0.0036100000   -0.0000000000
H        0.1389970000   -0.0252690000   -0.0000000000
H        0.1392450000    0.0000480000    0.0000000000
H        0.1292890000    0.0034860000   -0.0000000000
C       -0.1296680000    0.0844290000    0.0000000000
H        0.1393700000    0.0003580000    0.0000000000
13   
Frame  13 IRC: Energy =  -286.8726360000 ; +0.5359 kcal/mol
C       -0.0894060000   -0.0275000000   -0.0000000000
C        0.0021000000   -0.0614200000   -0.0000000000
C       -0.2701850000    1.0330080000   -0.0000000000
C       -0.1440410000    0.0618960000    0.0000000000
C        0.0234320000   -0.0913130000   -0.0000000000
N       -0.2015090000    0.0212010000   -0.0000000000
H        0.1373440000   -0.0002370000   -0.0000000000
H        0.1238750000    0.0035950000   -0.0000000000
H        0.1389950000   -0.0253100000   -0.0000000000
H        0.1392210000   -0.0000860000    0.0000000000
H        0.1292060000    0.0034570000   -0.0000000000
C       -0.1286390000    0.0822820000    0.0000000000
H        0.1396080000    0.0004260000    0.0000000000
13   
Frame  14 IRC: Energy =  -286.8724200000 ; +0.6714 kcal/mol
C       -0.0893220000   -0.0272890000   -0.0000000000
C        0.0024110000   -0.0615400000   -0.0000000000
C       -0.2708630000    1.0327260000   -0.0000000000
C       -0.1420140000    0.0629220000    0.0000000000
C        0.0231430000   -0.0915020000   -0.0000000000
N       -0.2013590000    0.0209850000   -0.0000000000
H        0.1373630000   -0.0002490000   -0.0000000000
H        0.1238250000    0.0036330000   -0.0000000000
H        0.1389460000   -0.0251990000   -0.0000000000
H        0.1393760000   -0.0001450000    0.0000000000
H        0.1292630000    0.0034400000   -0.0000000000
C       -0.1304170000    0.0818230000    0.0000000000
H        0.1396480000    0.0003960000    0.0000000000
13   
Frame  15 IRC: Energy =  -286.8722330000 ; +0.7888 kcal/mol
C       -0.0889090000   -0.0267580000   -0.0000000000
C        0.0005020000   -0.0616910000   -0.0000000000
C       -0.2699080000    1.0332420000   -0.0000000000
C       -0.1434750000    0.0652980000    0.0000000000
C        0.0235030000   -0.0919030000   -0.0000000000
N       -0.2010880000    0.0205240000   -0.0000000000
H        0.1373190000   -0.0002630000   -0.0000000000
H        0.1236810000    0.0036060000   -0.0000000000
H        0.1389400000   -0.0252830000   -0.0000000000
H        0.1393000000   -0.0002810000    0.0000000000
H        0.1291770000    0.0034160000   -0.0000000000
C       -0.1289160000    0.0796180000    0.0000000000
H        0.1398750000    0.0004750000    0.0000000000
13   
Frame  16 IRC: Energy =  -286.8719400000 ; +0.9726 kcal/mol
C       -0.0891770000   -0.0265400000   -0.0000000000
C        0.0008860000   -0.0618130000   -0.0000000000
C       -0.2708350000    1.0331210000   -0.0000000000
C       -0.1410610000    0.0664010000    0.0000000000
C        0.0233940000   -0.0921220000   -0.0000000000
N       -0.2010840000    0.0203400000   -0.0000000000
H        0.1374000000   -0.0002760000   -0.0000000000
H        0.1236390000    0.0036410000   -0.0000000000
H        0.1388710000   -0.0252030000   -0.0000000000
H        0.1395380000   -0.0003650000    0.0000000000
H        0.1292340000    0.0033850000   -0.0000000000
C       -0.1307970000    0.0789970000    0.0000000000
H        0.1399920000    0.0004340000    0.0000000000
13   
Frame  17 IRC: Energy =  -286.8717110000 ; +1.1163 kcal/mol
C       -0.0884320000   -0.0259970000   -0.0000000000
C       -0.0007940000   -0.0620750000   -0.0000000000
C       -0.2699450000    1.0335190000   -0.0000000000
C       -0.1423210000    0.0688200000    0.0000000000
C        0.0235210000   -0.0925910000   -0.0000000000
N       -0.2006460000    0.0198740000   -0.0000000000
H        0.1372880000   -0.0002920000   -0.0000000000
H        0.1235100000    0.0036280000   -0.0000000000
H        0.1388550000   -0.0252820000   -0.0000000000
H        0.1394420000   -0.0004930000    0.0000000000
H        0.1291750000    0.0033700000   -0.0000000000
C       -0.1298170000    0.0770120000    0.0000000000
H        0.1401640000    0.0005050000    0.0000000000
13   
Frame  18 IRC: Energy =  -286.8713140000 ; +1.3655 kcal/mol
C       -0.0889900000   -0.0256900000   -0.0000000000
C       -0.0008170000   -0.0622280000   -0.0000000000
C       -0.2708270000    1.0337160000   -0.0000000000
C       -0.1401440000    0.0703350000    0.0000000000
C        0.0238210000   -0.0929140000   -0.0000000000
N       -0.2007560000    0.0196640000   -0.0000000000
H        0.1374120000   -0.0003050000   -0.0000000000
H        0.1234490000    0.0036450000   -0.0000000000
H        0.1387630000   -0.0252750000   -0.0000000000
H        0.1397160000   -0.0006240000    0.0000000000
H        0.1292150000    0.0033230000   -0.0000000000
C       -0.1312250000    0.0758870000    0.0000000000
H        0.1403830000    0.0004670000    0.0000000000
13   
Frame  19 IRC: Energy =  -286.8710110000 ; +1.5556 kcal/mol
C       -0.0880470000   -0.0251160000   -0.0000000000
C       -0.0022950000   -0.0626050000   -0.0000000000
C       -0.2701280000    1.0340790000   -0.0000000000
C       -0.1410930000    0.0729410000    0.0000000000
C        0.0238010000   -0.0934710000   -0.0000000000
N       -0.2002020000    0.0191890000   -0.0000000000
H        0.1372570000   -0.0003240000   -0.0000000000
H        0.1233310000    0.0036440000   -0.0000000000
H        0.1387310000   -0.0253640000   -0.0000000000
H        0.1396470000   -0.0007600000    0.0000000000
H        0.1291810000    0.0033100000   -0.0000000000
C       -0.1307390000    0.0739430000    0.0000000000
H        0.1405570000    0.0005330000    0.0000000000
13   
Frame  20 IRC: Energy =  -286.8704620000 ; +1.9001 kcal/mol
C       -0.0888750000   -0.0246920000   -0.0000000000
C       -0.0026880000   -0.0628580000   -0.0000000000
C       -0.2709740000    1.0346240000   -0.0000000000
C       -0.1391370000    0.0749160000    0.0000000000
C        0.0245550000   -0.0939550000   -0.0000000000
N       -0.2003850000    0.0189490000   -0.0000000000
H        0.1374000000   -0.0003400000   -0.0000000000
H        0.1232650000    0.0036460000   -0.0000000000
H        0.1386150000   -0.0254550000   -0.0000000000
H        0.1399560000   -0.0009440000    0.0000000000
H        0.1292150000    0.0032480000   -0.0000000000
C       -0.1318250000    0.0723820000    0.0000000000
H        0.1408780000    0.0004800000    0.0000000000
13   
Frame  21 IRC: Energy =  -286.8700420000 ; +2.1637 kcal/mol
C       -0.0880080000   -0.0241020000   -0.0000000000
C       -0.0039480000   -0.0633640000   -0.0000000000
C       -0.2703960000    1.0352110000   -0.0000000000
C       -0.1398830000    0.0774590000    0.0000000000
C        0.0241150000   -0.0946440000   -0.0000000000
N       -0.1995070000    0.0185690000   -0.0000000000
H        0.1372090000   -0.0003570000   -0.0000000000
H        0.1231710000    0.0036410000   -0.0000000000
H        0.1385600000   -0.0254800000   -0.0000000000
H        0.1399060000   -0.0010850000    0.0000000000
H        0.1292190000    0.0032200000   -0.0000000000
C       -0.1315590000    0.0703990000    0.0000000000
H        0.1411210000    0.0005330000    0.0000000000
13   
Frame  22 IRC: Energy =  -286.8682200000 ; +3.3070 kcal/mol
C       -0.0886190000   -0.0219710000   -0.0000000000
C       -0.0067940000   -0.0652510000   -0.0000000000
C       -0.2723260000    1.0380900000   -0.0000000000
C       -0.1376600000    0.0860420000    0.0000000000
C        0.0286310000   -0.0969390000   -0.0000000000
N       -0.2000100000    0.0172650000   -0.0000000000
H        0.1372030000   -0.0004240000   -0.0000000000
H        0.1229500000    0.0035980000   -0.0000000000
H        0.1382230000   -0.0266080000   -0.0000000000
H        0.1407910000   -0.0018280000    0.0000000000
H        0.1292100000    0.0030710000   -0.0000000000
C       -0.1336470000    0.0644980000    0.0000000000
H        0.1420490000    0.0004580000    0.0000000000
13   
Frame  23 IRC: Energy =  -286.8658020000 ; +4.8243 kcal/mol
C       -0.0893390000   -0.0187020000   -0.0000000000
C       -0.0097120000   -0.0681460000   -0.0000000000
C       -0.2758190000    1.0424650000   -0.0000000000
C       -0.1374810000    0.0974030000    0.0000000000
C        0.0345010000   -0.0999160000   -0.0000000000
N       -0.1996070000    0.0153280000   -0.0000000000
H        0.1373100000   -0.0004960000   -0.0000000000
H        0.1229610000    0.0034830000   -0.0000000000
H        0.1382450000   -0.0284380000   -0.0000000000
H        0.1420430000   -0.0026980000    0.0000000000
H        0.1293400000    0.0029270000   -0.0000000000
C       -0.1354430000    0.0562950000    0.0000000000
H        0.1430020000    0.0004960000    0.0000000000
13   
Frame  24 IRC: Energy =  -286.8626960000 ; +6.7733 kcal/mol
C       -0.0838890000   -0.0127610000   -0.0000000000
C       -0.0146460000   -0.0719880000   -0.0000000000
C       -0.2862350000    1.0445060000   -0.0000000000
C       -0.1363970000    0.1307380000    0.0000000000
C        0.0422920000   -0.1044940000   -0.0000000000
N       -0.2001200000    0.0105840000   -0.0000000000
H        0.1376830000   -0.0005970000   -0.0000000000
H        0.1236320000    0.0035230000   -0.0000000000
H        0.1392940000   -0.0335460000   -0.0000000000
H        0.1430340000   -0.0043380000    0.0000000000
H        0.1298790000    0.0031490000   -0.0000000000
C       -0.1372240000    0.0333700000    0.0000000000
H        0.1426990000    0.0018560000    0.0000000000
13   
Frame  25 IRC: Energy =  -286.8580070000 ; +9.7157 kcal/mol
C       -0.0745640000   -0.0032680000   -0.0000000000
C       -0.0187840000   -0.0735010000   -0.0000000000
C       -0.2998970000    1.0323280000   -0.0000000000
C       -0.1356790000    0.2060340000    0.0000000000
C        0.0475090000   -0.1102440000   -0.0000000000
N       -0.2014400000    0.0034150000   -0.0000000000
H        0.1378430000   -0.0006830000   -0.0000000000
H        0.1247350000    0.0036730000   -0.0000000000
H        0.1411050000   -0.0393570000   -0.0000000000
H        0.1434860000   -0.0076030000    0.0000000000
H        0.1304160000    0.0037830000   -0.0000000000
C       -0.1365480000   -0.0197250000    0.0000000000
H        0.1418190000    0.0051480000    0.0000000000
13   
Frame  26 IRC: Energy =  -286.8517730000 ; +13.6276 kcal/mol
C       -0.0662050000    0.0106350000   -0.0000000000
C       -0.0196770000   -0.0679910000   -0.0000000000
C       -0.3090060000    0.9818400000   -0.0000000000
C       -0.1367940000    0.3483400000    0.0000000000
C        0.0456960000   -0.1177330000   -0.0000000000
N       -0.2028960000   -0.0039740000   -0.0000000000
H        0.1375240000   -0.0005980000   -0.0000000000
H        0.1263900000    0.0038360000   -0.0000000000
H        0.1433930000   -0.0423820000   -0.0000000000
H        0.1429480000   -0.0135200000    0.0000000000
H        0.1306810000    0.0049710000   -0.0000000000
C       -0.1330390000   -0.1136830000    0.0000000000
H        0.1409860000    0.0102610000    0.0000000000
13   
Frame  27 IRC: Energy =  -286.8460690000 ; +17.2070 kcal/mol
C       -0.0623690000    0.0280430000   -0.0000000000
C       -0.0180380000   -0.0528700000   -0.0000000000
C       -0.3029350000    0.8536150000   -0.0000000000
C       -0.1384550000    0.5501050000    0.0000000000
C        0.0348960000   -0.1243160000   -0.0000000000
N       -0.2049620000   -0.0072110000   -0.0000000000
H        0.1364720000    0.0000060000   -0.0000000000
H        0.1287380000    0.0038650000   -0.0000000000
H        0.1459610000   -0.0389740000   -0.0000000000
H        0.1410740000   -0.0219260000    0.0000000000
H        0.1305900000    0.0067010000   -0.0000000000
C       -0.1315490000   -0.2112040000    0.0000000000
H        0.1405780000    0.0141640000    0.0000000000
13   
Frame  28 IRC: Energy =  -286.8438090000 ; +18.6251 kcal/mol (Transition State)
C       -0.0638260000    0.0424710000   -0.0000000000
C       -0.0167290000   -0.0325090000   -0.0000000000
C       -0.2784530000    0.6413440000   -0.0000000000
C       -0.1337880000    0.7382690000    0.0000000000
C        0.0164470000   -0.1238790000   -0.0000000000
N       -0.2076450000   -0.0030370000   -0.0000000000
H        0.1349350000    0.0013390000   -0.0000000000
H        0.1315510000    0.0036020000   -0.0000000000
H        0.1473270000   -0.0280910000   -0.0000000000
H        0.1387820000   -0.0302380000    0.0000000000
H        0.1304300000    0.0083110000   -0.0000000000
C       -0.1395610000   -0.2302150000    0.0000000000
H        0.1405310000    0.0126320000    0.0000000000
13   
Frame  29 IRC: Energy =  -286.8457060000 ; +17.4347 kcal/mol
C       -0.0677640000    0.0469960000   -0.0000000000
C       -0.0181830000   -0.0134030000   -0.0000000000
C       -0.2463090000    0.4254420000   -0.0000000000
C       -0.1192250000    0.8625410000    0.0000000000
C       -0.0087940000   -0.1189320000   -0.0000000000
N       -0.2092120000    0.0054780000   -0.0000000000
H        0.1336660000    0.0029320000   -0.0000000000
H        0.1342130000    0.0031080000   -0.0000000000
H        0.1459660000   -0.0149640000   -0.0000000000
H        0.1376030000   -0.0362490000    0.0000000000
H        0.1305310000    0.0091730000   -0.0000000000
C       -0.1527230000   -0.1800180000    0.0000000000
H        0.1402310000    0.0078950000    0.0000000000
13   
Frame  30 IRC: Energy =  -286.8496860000 ; +14.9372 kcal/mol
C       -0.0713260000    0.0429840000   -0.0000000000
C       -0.0256150000    0.0038100000   -0.0000000000
C       -0.2134720000    0.2781990000   -0.0000000000
C       -0.0990240000    0.9374470000    0.0000000000
C       -0.0400530000   -0.1167090000   -0.0000000000
N       -0.2088910000    0.0137910000   -0.0000000000
H        0.1328870000    0.0040830000   -0.0000000000
H        0.1364540000    0.0026210000   -0.0000000000
H        0.1424500000   -0.0051150000   -0.0000000000
H        0.1373280000   -0.0401020000    0.0000000000
H        0.1308810000    0.0094990000   -0.0000000000
C       -0.1610330000   -0.1348680000    0.0000000000
H        0.1394130000    0.0043590000    0.0000000000
13   
Frame  31 IRC: Energy =  -286.8534010000 ; +12.6060 kcal/mol
C       -0.0731640000    0.0355220000   -0.0000000000
C       -0.0395010000    0.0204630000   -0.0000000000
C       -0.1813660000    0.1949220000   -0.0000000000
C       -0.0779080000    0.9854330000    0.0000000000
C       -0.0720450000   -0.1180640000   -0.0000000000
N       -0.2077870000    0.0204530000   -0.0000000000
H        0.1324040000    0.0046350000   -0.0000000000
H        0.1381870000    0.0022380000   -0.0000000000
H        0.1381950000    0.0008230000   -0.0000000000
H        0.1376000000   -0.0426070000    0.0000000000
H        0.1312830000    0.0096380000   -0.0000000000
C       -0.1643900000   -0.1161710000    0.0000000000
H        0.1384900000    0.0027140000    0.0000000000
13   
Frame  32 IRC: Energy =  -286.8555100000 ; +11.2826 kcal/mol
C       -0.0737410000    0.0283230000   -0.0000000000
C       -0.0553730000    0.0351390000   -0.0000000000
C       -0.1529440000    0.1519180000   -0.0000000000
C       -0.0620440000    1.0156280000    0.0000000000
C       -0.0972200000   -0.1212460000   -0.0000000000
N       -0.2068190000    0.0252470000   -0.0000000000
H        0.1320160000    0.0048010000   -0.0000000000
H        0.1393510000    0.0019760000   -0.0000000000
H        0.1351220000    0.0039450000   -0.0000000000
H        0.1382010000   -0.0440710000    0.0000000000
H        0.1316850000    0.0098360000   -0.0000000000
C       -0.1664780000   -0.1136330000    0.0000000000
H        0.1382430000    0.0021380000    0.0000000000
13   
Frame  33 IRC: Energy =  -286.8567280000 ; +10.5183 kcal/mol
C       -0.0741060000    0.0251620000   -0.0000000000
C       -0.0635730000    0.0426090000   -0.0000000000
C       -0.1400400000    0.1453760000   -0.0000000000
C       -0.0570250000    1.0243890000    0.0000000000
C       -0.1007090000   -0.1248940000   -0.0000000000
N       -0.2065230000    0.0263340000   -0.0000000000
H        0.1317390000    0.0046270000   -0.0000000000
H        0.1393350000    0.0019030000   -0.0000000000
H        0.1345060000    0.0045110000   -0.0000000000
H        0.1383790000   -0.0442740000    0.0000000000
H        0.1320660000    0.0102080000   -0.0000000000
C       -0.1728260000   -0.1178520000    0.0000000000
H        0.1387770000    0.0019010000    0.0000000000
13   
Frame  34 IRC: Energy =  -286.8569760000 ; +10.3627 kcal/mol
C       -0.0734530000    0.0239600000   -0.0000000000
C       -0.0676010000    0.0416160000   -0.0000000000
C       -0.1358270000    0.1394350000   -0.0000000000
C       -0.0574130000    1.0309070000    0.0000000000
C       -0.1040580000   -0.1250180000   -0.0000000000
N       -0.2057580000    0.0263010000   -0.0000000000
H        0.1317120000    0.0046680000   -0.0000000000
H        0.1392880000    0.0019850000   -0.0000000000
H        0.1345920000    0.0046180000   -0.0000000000
H        0.1385080000   -0.0445030000    0.0000000000
H        0.1319580000    0.0101790000   -0.0000000000
C       -0.1708560000   -0.1160770000    0.0000000000
H        0.1389090000    0.0019300000    0.0000000000
13   
Frame  35 IRC: Energy =  -286.8575880000 ; +9.9787 kcal/mol
C       -0.0722520000    0.0222140000   -0.0000000000
C       -0.0765140000    0.0444300000   -0.0000000000
C       -0.1230260000    0.1371820000   -0.0000000000
C       -0.0576200000    1.0346130000    0.0000000000
C       -0.1087770000   -0.1267700000   -0.0000000000
N       -0.2044700000    0.0265160000   -0.0000000000
H        0.1318860000    0.0045470000   -0.0000000000
H        0.1388480000    0.0022520000   -0.0000000000
H        0.1350130000    0.0044770000   -0.0000000000
H        0.1381470000   -0.0443690000    0.0000000000
H        0.1321890000    0.0105970000   -0.0000000000
C       -0.1728420000   -0.1176900000    0.0000000000
H        0.1394180000    0.0020030000    0.0000000000
13   
Frame  36 IRC: Energy =  -286.8576530000 ; +9.9379 kcal/mol
C       -0.0719240000    0.0218220000   -0.0000000000
C       -0.0783410000    0.0442100000   -0.0000000000
C       -0.1224940000    0.1341690000   -0.0000000000
C       -0.0577300000    1.0378230000    0.0000000000
C       -0.1091330000   -0.1270550000   -0.0000000000
N       -0.2041910000    0.0266250000   -0.0000000000
H        0.1318580000    0.0046160000   -0.0000000000
H        0.1388160000    0.0022450000   -0.0000000000
H        0.1348670000    0.0044230000   -0.0000000000
H        0.1381580000   -0.0444640000    0.0000000000
H        0.1320940000    0.0106220000   -0.0000000000
C       -0.1713740000   -0.1170480000    0.0000000000
H        0.1393930000    0.0020120000    0.0000000000
13   
Frame  37 IRC: Energy =  -286.8578280000 ; +9.8281 kcal/mol
C       -0.0712740000    0.0209680000   -0.0000000000
C       -0.0844330000    0.0475930000   -0.0000000000
C       -0.1161140000    0.1290460000   -0.0000000000
C       -0.0579080000    1.0425570000    0.0000000000
C       -0.1120420000   -0.1285560000   -0.0000000000
N       -0.2033360000    0.0273380000   -0.0000000000
H        0.1318240000    0.0046280000   -0.0000000000
H        0.1386780000    0.0023430000   -0.0000000000
H        0.1347920000    0.0042220000   -0.0000000000
H        0.1382580000   -0.0444630000    0.0000000000
H        0.1321100000    0.0110090000   -0.0000000000
C       -0.1699700000   -0.1188020000    0.0000000000
H        0.1394150000    0.0021180000    0.0000000000
13   
Frame  38 IRC: Energy =  -286.8578520000 ; +9.8130 kcal/mol
C       -0.0717430000    0.0213120000   -0.0000000000
C       -0.0842430000    0.0484430000   -0.0000000000
C       -0.1156180000    0.1299580000   -0.0000000000
C       -0.0578850000    1.0408660000    0.0000000000
C       -0.1119050000   -0.1285990000   -0.0000000000
N       -0.2033850000    0.0274110000   -0.0000000000
H        0.1318970000    0.0046290000   -0.0000000000
H        0.1386470000    0.0023560000   -0.0000000000
H        0.1349560000    0.0041940000   -0.0000000000
H        0.1381980000   -0.0443580000    0.0000000000
H        0.1321420000    0.0111160000   -0.0000000000
C       -0.1705410000   -0.1194800000    0.0000000000
H        0.1394780000    0.0021520000    0.0000000000
13   