13   
Frame   0 IRC: Energy =  -286.8734900000 ; +0.0000 kcal/mol
C        1.5192584318    0.3412276347   -0.2825837968
C        0.6229295998   -0.8943602707   -0.0663378296
C       -0.4105324038   -0.5257739640   -1.1356944108
C       -0.9929659704    0.5160844396    0.8185099267
C       -0.5930349016    0.8948047147   -0.6172779820
N        0.8462185625    1.3819185069   -0.5924417704
H        2.6008888934    0.3566521624   -0.1667305751
H        1.1023308562   -1.8724290725   -0.0800316544
H       -1.2342361998   -1.1816393832   -1.4113826804
H       -1.7117138502    1.0528918285    1.4270845980
H       -1.2440695778    1.5890037187   -1.1443219302
C       -0.2592522142   -0.5602814427    1.1550791943
H       -0.2458212257   -1.0980988721    2.0961289112
13   
Frame   1 IRC: Energy =  -286.8734550000 ; +0.0220 kcal/mol
C        1.5199665462    0.3432917218   -0.2833619028
C        0.6248199058   -0.8931634594   -0.0655100365
C       -0.4099190596   -0.5270776367   -1.1345863199
C       -0.9909664837    0.5181544165    0.8190373666
C       -0.5920558778    0.8950546956   -0.6174936214
N        0.8460674710    1.3830952746   -0.5947603630
H        2.6017500402    0.3604208294   -0.1702256184
H        1.1067023181   -1.8701577053   -0.0780074423
H       -1.2346526969   -1.1843992983   -1.4023272995
H       -1.7055095673    1.0583598003    1.4291710733
H       -1.2448550152    1.5874364354   -1.1449144685
C       -0.2612259265   -0.5616425343    1.1537730901
H       -0.2601216544   -1.1093725395    2.0892055423
13   
Frame   2 IRC: Energy =  -286.8734520000 ; +0.0238 kcal/mol
C        1.5199171637    0.3434156115   -0.2834227558
C        0.6249372317   -0.8932081401   -0.0655516029
C       -0.4095858121   -0.5268593056   -1.1343506392
C       -0.9907301190    0.5181568237    0.8189800098
C       -0.5920736858    0.8950458396   -0.6175629325
N        0.8460655594    1.3831286253   -0.5948827726
H        2.6018343452    0.3606174315   -0.1704050158
H        1.1069094541   -1.8699859453   -0.0778855580
H       -1.2348881617   -1.1847208251   -1.4019271782
H       -1.7052404359    1.0586943320    1.4293376521
H       -1.2448764594    1.5873445836   -1.1449292711
C       -0.2614029763   -0.5617101590    1.1538472385
H       -0.2608661040   -1.1099188720    2.0887528257
13   
Frame   3 IRC: Energy =  -286.8734070000 ; +0.0521 kcal/mol
C        1.5202783901    0.3447880577   -0.2839098243
C        0.6260420964   -0.8924054943   -0.0648236803
C       -0.4093879942   -0.5280022463   -1.1337697486
C       -0.9894581203    0.5196836520    0.8195453195
C       -0.5915519741    0.8951319723   -0.6175809424
N        0.8458314565    1.3838467324   -0.5964376402
H        2.6022445962    0.3631019497   -0.1727637747
H        1.1096877927   -1.8685600153   -0.0763246616
H       -1.2344212309   -1.1865570979   -1.3970428775
H       -1.7005407699    1.0627550648    1.4311194615
H       -1.2456876057    1.5861312402   -1.1452097582
C       -0.2627126773   -0.5625845590    1.1529187359
H       -0.2703239593   -1.1173292563    2.0842793909
13   
Frame   4 IRC: Energy =  -286.8733980000 ; +0.0577 kcal/mol
C        1.5202459519    0.3449923611   -0.2840063965
C        0.6262361245   -0.8924179954   -0.0648551294
C       -0.4088754953   -0.5277250139   -1.1334009728
C       -0.9890549304    0.5197615599    0.8195054062
C       -0.5915740442    0.8951015683   -0.6176754550
N        0.8457798978    1.3839494155   -0.5966956438
H        2.6023534721    0.3634935023   -0.1731323560
H        1.1100997913   -1.8682683475   -0.0760504336
H       -1.2346882171   -1.1871320560   -1.3963922614
H       -1.6998761679    1.0634689076    1.4314884012
H       -1.2457895610    1.5859293200   -1.1452321782
C       -0.2630479350   -0.5627493542    1.1530604903
H       -0.2718088866   -1.1184038677    2.0833865290
13   
Frame   5 IRC: Energy =  -286.8733440000 ; +0.0916 kcal/mol
C        1.5204960766    0.3461893453   -0.2844205423
C        0.6271244260   -0.8917215966   -0.0641136406
C       -0.4088747097   -0.5289081017   -1.1330028434
C       -0.9880119495    0.5211881923    0.8201354943
C       -0.5911695688    0.8951486175   -0.6176215124
N        0.8455261226    1.3845319654   -0.5980567479
H        2.6026331841    0.3656297386   -0.1751742203
H        1.1124228182   -1.8670721150   -0.0745774547
H       -1.2338791124   -1.1886906664   -1.3927020344
H       -1.6955242945    1.0671512136    1.4332040889
H       -1.2466357622    1.5848017771   -1.1454101274
C       -0.2641468672   -0.5634535303    1.1521518234
H       -0.2799603633   -1.1247948399    2.0795877168
13   
Frame   6 IRC: Energy =  -286.8733240000 ; +0.1042 kcal/mol
C        1.5204814197    0.3465019100   -0.2845638285
C        0.6273987906   -0.8916728559   -0.0641139300
C       -0.4081817700   -0.5286026365   -1.1324909696
C       -0.9873990655    0.5213739031    0.8201146455
C       -0.5912009400    0.8950980087   -0.6177319775
N        0.8454122369    1.3847058958   -0.5984839849
H        2.6027621341    0.3662612632   -0.1757739216
H        1.1130813517   -1.8666443295   -0.0740973934
H       -1.2341274066   -1.1895644173   -1.3917859929
H       -1.6943516230    1.0683535811    1.4338497528
H       -1.2468516228    1.5844547804   -1.1454330478
C       -0.2646641877   -0.5637392384    1.1523563840
H       -0.2823593173   -1.1265258647    2.0781542640
13   
Frame   7 IRC: Energy =  -286.8732560000 ; +0.1468 kcal/mol
C        1.5206701584    0.3476660629   -0.2849653982
C        0.6282215922   -0.8910188002   -0.0633100369
C       -0.4083215642   -0.5298933188   -1.1321822225
C       -0.9864504005    0.5228454065    0.8208645712
C       -0.5908340701    0.8951233856   -0.6176326958
N        0.8451382560    1.3852424621   -0.5998235587
H        2.6029824450    0.3683125080   -0.1777329606
H        1.1152477169   -1.8655039832   -0.0725718426
H       -1.2330476546   -1.1910484050   -1.3886010100
H       -1.6899355995    1.0719969769    1.4356163294
H       -1.2477755227    1.5833167965   -1.1455530925
C       -0.2656890528   -0.5643453549    1.1513703412
H       -0.2902063041   -1.1326937364    2.0745215760
13   
Frame   8 IRC: Energy =  -286.8732190000 ; +0.1701 kcal/mol
C        1.5206741085    0.3481256096   -0.2851742030
C        0.6285859288   -0.8908663786   -0.0632533941
C       -0.4074288732   -0.5295910100   -1.1314984687
C       -0.9855613166    0.5231914251    0.8208714527
C       -0.5908813703    0.8950538031   -0.6177517334
N        0.8449420672    1.3854970622   -0.6004786186
H        2.6031294183    0.3692566292   -0.1786281169
H        1.1162188488   -1.8649105128   -0.0718010549
H       -1.2332180899   -1.1923041078   -1.3873815471
H       -1.6880796765    1.0738505711    1.4366495035
H       -1.2481539949    1.5827720668   -1.1455664564
C       -0.2664279908   -0.5647901135    1.1516406876
H       -0.2937990593   -1.1352850444    2.0723719492
13   
Frame   9 IRC: Energy =  -286.8731300000 ; +0.2259 kcal/mol
C        1.5208183603    0.3493348371   -0.2855993942
C        0.6294264133   -0.8902372562   -0.0623459900
C       -0.4076848583   -0.5310334766   -1.1312270332
C       -0.9846346104    0.5248107414    0.8218097618
C       -0.5905171795    0.8950558396   -0.6176155875
N        0.8446362582    1.3860369040   -0.6019082940
H        2.6033169480    0.3713691632   -0.1806310598
H        1.1183723360   -1.8637230196   -0.0701134633
H       -1.2318524222   -1.1938461109   -1.3844164322
H       -1.6833130006    1.0776690803    1.4385674597
H       -1.2492069674    1.5815574611   -1.1456418918
C       -0.2674545750   -0.5653168618    1.1505193056
H       -0.3019067022   -1.1416773016    2.0686026188
13   
Frame  10 IRC: Energy =  -286.8730620000 ; +0.2686 kcal/mol
C        1.5208384409    0.3500142376   -0.2859121780
C        0.6299024011   -0.8899052233   -0.0621862230
C       -0.4065590766   -0.5307920693   -1.1303145460
C       -0.9833590046    0.5254270604    0.8218755507
C       -0.5905866473    0.8949693012   -0.6177326251
N        0.8443266080    1.3863900841   -0.6029043431
H        2.6034827479    0.3727602002   -0.1819355290
H        1.1197754128   -1.8629060971   -0.0688958297
H       -1.2318411600   -1.1956390267   -1.3828086351
H       -1.6804512009    1.0804575304    1.4401828432
H       -1.2498350983    1.5807215564   -1.1456300499
C       -0.2684812382   -0.5659875248    1.1508577288
H       -0.3072121849   -1.1455100293    2.0654038361
13   
Frame  11 IRC: Energy =  -286.8729360000 ; +0.3476 kcal/mol
C        1.5209438218    0.3513475969   -0.2864050986
C        0.6308490690   -0.8893003929   -0.0611186834
C       -0.4069095577   -0.5324326244   -1.1300197816
C       -0.9823720716    0.5273298230    0.8231127432
C       -0.5902005003    0.8949359506   -0.6175623163
N        0.8439631321    1.3869811918   -0.6045628329
H        2.6036497959    0.3750858893   -0.1841060926
H        1.1220368336   -1.8615561346   -0.0668931464
H       -1.2301159260   -1.1974085723   -1.3798782908
H       -1.6749772685    1.0847013307    1.4424040502
H       -1.2511006255    1.5793465214   -1.1456623144
C       -0.2695874036   -0.5664344642    1.1495522542
H       -0.3161792993   -1.1525961152    2.0611395094
13   
Frame  12 IRC: Energy =  -286.8728130000 ; +0.4248 kcal/mol
C        1.5209649599    0.3523399042   -0.2868837727
C        0.6314460930   -0.8886710241   -0.0607947058
C       -0.4055136937   -0.5323286813   -1.1287874057
C       -0.9805392207    0.5283564093    0.8232942607
C       -0.5903100343    0.8948393664   -0.6176587154
N        0.8435055681    1.3874403360   -0.6060639058
H        2.6038307162    0.3770884308   -0.1859393763
H        1.1240002295   -1.8604542198   -0.0650057313
H       -1.2297647357   -1.1999570916   -1.3778288596
H       -1.6707046602    1.0887762428    1.4448817581
H       -1.2520947651    1.5780975204   -1.1455996098
C       -0.2709792382   -0.5673812457    1.1499638174
H       -0.3238412188   -1.1581459474    2.0564222462
13   
Frame  13 IRC: Energy =  -286.8726360000 ; +0.5359 kcal/mol
C        1.5210310587    0.3538146615   -0.2874761770
C        0.6325626130   -0.8881455229   -0.0595293011
C       -0.4059902837   -0.5341849270   -1.1284405215
C       -0.9794762328    0.5306416952    0.8249474471
C       -0.5898859461    0.8947629181   -0.6174530005
N        0.8430727295    1.3880998505   -0.6080377429
H        2.6039672682    0.3796640035   -0.1882756225
H        1.1263441923   -1.8588716124   -0.0626081125
H       -1.2276140424   -1.2020367552   -1.3749435551
H       -1.6643987932    1.0934768077    1.4474721524
H       -1.2536114345    1.5765393750   -1.1455894978
C       -0.2721602630   -0.5676804909    1.1484529286
H       -0.3338408660   -1.1660800032    2.0514810028
13   
Frame  14 IRC: Energy =  -286.8724200000 ; +0.6714 kcal/mol
C        1.5210331408    0.3551929551   -0.2882049180
C        0.6332595857   -0.8870516985   -0.0589728101
C       -0.4043016093   -0.5342984453   -1.1267485409
C       -0.9768676440    0.5322517546    0.8253496001
C       -0.5900639077    0.8946653090   -0.6174977310
N        0.8424294683    1.3886563331   -0.6102636242
H        2.6041438217    0.3824367212   -0.1907051097
H        1.1289559421   -1.8574405930   -0.0597892933
H       -1.2267208857   -1.2056127925   -1.3724872118
H       -1.6583228179    1.0991651485    1.4511576290
H       -1.2550883831    1.5747490236   -1.1454526325
C       -0.2739647040   -0.5688888036    1.1489669744
H       -0.3444920070   -1.1738249123    2.0446476681
13   
Frame  15 IRC: Energy =  -286.8722330000 ; +0.7888 kcal/mol
C        1.5208975255    0.3565754863   -0.2887937631
C        0.6343698166   -0.8868670784   -0.0577334702
C       -0.4051617537   -0.5361741405   -1.1266332828
C       -0.9763855622    0.5346841169    0.8272115086
C       -0.5895857285    0.8945801478   -0.6172712677
N        0.8421707313    1.3890915470   -0.6119861786
H        2.6042591588    0.3845618368   -0.1925484274
H        1.1306933504   -1.8559690917   -0.0576867339
H       -1.2244937475   -1.2072362391   -1.3702990784
H       -1.6527917085    1.1028685085    1.4532434195
H       -1.2564501774    1.5734525860   -1.1454406051
C       -0.2747088002   -0.5690287187    1.1474486824
H       -0.3528131045   -1.1805389609    2.0404891968
13   
Frame  16 IRC: Energy =  -286.8719400000 ; +0.9726 kcal/mol
C        1.5212952307    0.3577370141   -0.2895653314
C        0.6350191946   -0.8855174938   -0.0570157310
C       -0.4034103832   -0.5363881784   -1.1246003576
C       -0.9729548755    0.5361278463    0.8278702342
C       -0.5898819730    0.8945029902   -0.6172474642
N        0.8411899721    1.3900100544   -0.6147841802
H        2.6042594242    0.3876474493   -0.1951147542
H        1.1334719996   -1.8544098318   -0.0543641005
H       -1.2232335593   -1.2114064421   -1.3679595247
H       -1.6460356101    1.1093083698    1.4577088819
H       -1.2581315698    1.5714102157   -1.1452889328
C       -0.2768573918   -0.5696833497    1.1478224046
H       -0.3647304584   -1.1893386441    2.0325388559
13   
Frame  17 IRC: Energy =  -286.8717110000 ; +1.1163 kcal/mol
C        1.5206382641    0.3594997930   -0.2903937476
C        0.6360945466   -0.8851952749   -0.0558586965
C       -0.4040702408   -0.5381006695   -1.1242482240
C       -0.9726133567    0.5392180578    0.8296767484
C       -0.5894436403    0.8944304930   -0.6170217700
N        0.8411750831    1.3899614838   -0.6165345144
H        2.6044858513    0.3897851178   -0.1968320535
H        1.1350995470   -1.8529493880   -0.0520958050
H       -1.2210114731   -1.2133328076   -1.3660820266
H       -1.6404410304    1.1129967642    1.4600037434
H       -1.2595158774    1.5700531805   -1.1452605813
C       -0.2772828912   -0.5704018964    1.1468930485
H       -0.3731147823   -1.1959648538    2.0277538786
13   
Frame  18 IRC: Energy =  -286.8713140000 ; +1.3655 kcal/mol
C        1.5213911852    0.3604993239   -0.2912696633
C        0.6368791096   -0.8837622435   -0.0548061904
C       -0.4026941903   -0.5387064222   -1.1219778659
C       -0.9686446164    0.5408720830    0.8310934581
C       -0.5897211106    0.8943462896   -0.6168982111
N        0.8398904952    1.3912503189   -0.6200203431
H        2.6042911911    0.3932109438   -0.1994769763
H        1.1379514892   -1.8511096044   -0.0482613621
H       -1.2190754149   -1.2180250282   -1.3638533012
H       -1.6327963174    1.1200455751    1.4651658072
H       -1.2614136215    1.5677657922   -1.1451883601
C       -0.2796252339   -0.5703194384    1.1469233549
H       -0.3864329654   -1.2060675897    2.0185696533
13   
Frame  19 IRC: Energy =  -286.8710110000 ; +1.5556 kcal/mol
C        1.5203916585    0.3625851905   -0.2923724131
C        0.6379396702   -0.8832110860   -0.0536285210
C       -0.4031618557   -0.5403922661   -1.1212077309
C       -0.9680268772    0.5445993018    0.8329380223
C       -0.5893687548    0.8943394707   -0.6165914453
N        0.8399524125    1.3908613203   -0.6220673077
H        2.6045644501    0.3955531942   -0.2011717828
H        1.1396016933   -1.8495225534   -0.0456424459
H       -1.2166929029   -1.2205151049   -1.3621827934
H       -1.6268320064    1.1241446110    1.4680380332
H       -1.2628770469    1.5662187210   -1.1452058816
C       -0.2798689149   -0.5713596369    1.1464084885
H       -0.3956215259   -1.2133011620    2.0126857778
13   
Frame  20 IRC: Energy =  -286.8704620000 ; +1.9001 kcal/mol
C        1.5213688121    0.3635538784   -0.2934952657
C        0.6388584383   -0.8815870110   -0.0521968814
C       -0.4022699899   -0.5413311510   -1.1184668242
C       -0.9634291656    0.5467993686    0.8354062726
C       -0.5895913729    0.8942660732   -0.6164121693
N        0.8384584312    1.3925236362   -0.6265000900
H        2.6041362088    0.3994513773   -0.2038520109
H        1.1426041583   -1.8474090951   -0.0411619571
H       -1.2139697606   -1.2261169834   -1.3601740086
H       -1.6181075016    1.1319984402    1.4741879684
H       -1.2649690583    1.5635933122   -1.1453762281
C       -0.2822735470   -0.5705798371    1.1465160483
H       -0.4108156528   -1.2251620086    2.0015251461
13   
Frame  21 IRC: Energy =  -286.8700420000 ; +2.1637 kcal/mol
C        1.5200038455    0.3661967900   -0.2950962984
C        0.6394684929   -0.8811325307   -0.0504219240
C       -0.4026167371   -0.5429971318   -1.1176961721
C       -0.9624862523    0.5514159211    0.8372850855
C       -0.5895178850    0.8946989679   -0.6152960260
N        0.8387174328    1.3921096537   -0.6292435649
H        2.6045608425    0.4021212802   -0.2054300126
H        1.1445394243   -1.8459107004   -0.0381823060
H       -1.2114210301   -1.2296257043   -1.3587663290
H       -1.6114947239    1.1365730646    1.4777764614
H       -1.2663873217    1.5616337997   -1.1456364956
C       -0.2821949743   -0.5714924899    1.1466215356
H       -0.4211711135   -1.2335909202    1.9940860461
13   
Frame  22 IRC: Energy =  -286.8682200000 ; +3.3070 kcal/mol
C        1.5206245600    0.3684887389   -0.2998302512
C        0.6429629573   -0.8763264868   -0.0470443665
C       -0.4048757778   -0.5483098846   -1.1070425092
C       -0.9514522292    0.5634612772    0.8485836630
C       -0.5896416510    0.8938520086   -0.6142108727
N        0.8350350738    1.3925868195   -0.6397747959
H        2.6033096295    0.4121565191   -0.2093938554
H        1.1507100053   -1.8392015050   -0.0284993398
H       -1.2029106067   -1.2453461236   -1.3581138049
H       -1.5933705404    1.1556775955    1.4950831267
H       -1.2688460225    1.5547147401   -1.1487869196
C       -0.2838768193   -0.5673995641    1.1482435807
H       -0.4576685791   -1.2643541349    1.9607863448
13   
Frame  23 IRC: Energy =  -286.8658020000 ; +4.8243 kcal/mol
C        1.5220262673    0.3703432814   -0.3048918209
C        0.6457172219   -0.8731744428   -0.0419826245
C       -0.4122888798   -0.5558017891   -1.0932690729
C       -0.9440748261    0.5800544500    0.8620087310
C       -0.5905181849    0.8940283208   -0.6099011678
N        0.8335201517    1.3907289775   -0.6490841090
H        2.6056306353    0.4232555465   -0.2109546337
H        1.1590501578   -1.8338922551   -0.0226696691
H       -1.1964453258   -1.2643559108   -1.3624485428
H       -1.5805627520    1.1753066812    1.5144914250
H       -1.2689097965    1.5471252884   -1.1544585397
C       -0.2829380738   -0.5598549956    1.1515621486
H       -0.4902065950   -1.2937631524    1.9215978758
13   
Frame  24 IRC: Energy =  -286.8626960000 ; +6.7733 kcal/mol
C        1.5265612929    0.3722942566   -0.3099410807
C        0.6551393089   -0.8710209870   -0.0373134149
C       -0.4310181381   -0.5647734324   -1.0569610461
C       -0.9403665218    0.5969267199    0.8722096482
C       -0.5914281130    0.8959932731   -0.6040491689
N        0.8325270105    1.3888020126   -0.6555358416
H        2.6110173791    0.4320084751   -0.2098940577
H        1.1691566231   -1.8342759295   -0.0212493529
H       -1.1896319093   -1.2796355514   -1.3712213644
H       -1.5732697682    1.1910168441    1.5297202865
H       -1.2677254928    1.5412907843   -1.1607154914
C       -0.2905327446   -0.5573825623    1.1422070543
H       -0.5104289268   -1.3112439031    1.8827438296
13   
Frame  25 IRC: Energy =  -286.8580070000 ; +9.7157 kcal/mol
C        1.5315895707    0.3740923488   -0.3142506015
C        0.6708906119   -0.8683408211   -0.0353221955
C       -0.4537704401   -0.5758111058   -1.0083035928
C       -0.9381247069    0.6126642003    0.8777500978
C       -0.5922125105    0.8988360937   -0.5990537737
N        0.8315617253    1.3869060636   -0.6591011901
H        2.6156270068    0.4377772752   -0.2081105254
H        1.1772293185   -1.8365839752   -0.0214440312
H       -1.1814899915   -1.2880179325   -1.3789128106
H       -1.5694141465    1.2025706671    1.5399787069
H       -1.2668357315    1.5377381669   -1.1659255102
C       -0.3031467391   -0.5612032904    1.1200109311
H       -0.5219039670   -1.3206276904    1.8526844953
13   
Frame  26 IRC: Energy =  -286.8517730000 ; +13.6276 kcal/mol
C        1.5362486279    0.3753825828   -0.3178566456
C        0.6893715630   -0.8653491363   -0.0359266980
C       -0.4756808959   -0.5882308928   -0.9553303264
C       -0.9369826960    0.6290422056    0.8796944712
C       -0.5930578453    0.9023612325   -0.5948378394
N        0.8304248123    1.3854015262   -0.6608978366
H        2.6189244450    0.4417051223   -0.2063573712
H        1.1830682876   -1.8388311716   -0.0220638328
H       -1.1728362012   -1.2917901959   -1.3838741275
H       -1.5673661580    1.2113488203    1.5469001131
H       -1.2663407228    1.5354839412   -1.1701512788
C       -0.3168311327   -0.5699589242    1.0902476266
H       -0.5289420838   -1.3265651100    1.8304537454
13   
Frame  27 IRC: Energy =  -286.8460690000 ; +17.2070 kcal/mol
C        1.5405174301    0.3761997824   -0.3210626283
C        0.7080496020   -0.8624108098   -0.0388224357
C       -0.4949577403   -0.6010558789   -0.9009437414
C       -0.9364953143    0.6470132295    0.8791295494
C       -0.5938687665    0.9064629154   -0.5911161360
N        0.8290226753    1.3846140400   -0.6617688019
H        2.6212906981    0.4447294445   -0.2048749864
H        1.1874731527   -1.8405624320   -0.0227112745
H       -1.1642494394   -1.2932119180   -1.3859373496
H       -1.5662570111    1.2183961528    1.5517829324
H       -1.2660782545    1.5337454096   -1.1737697386
C       -0.3305194141   -0.5827518832    1.0570921161
H       -0.5339276179   -1.3311680521    1.8130024945
13   
Frame  28 IRC: Energy =  -286.8438090000 ; +18.6251 kcal/mol (Transition State)
C        1.5442933434    0.3770202631   -0.3244117033
C        0.7257373424   -0.8598073899   -0.0435358690
C       -0.5117520120   -0.6134642496   -0.8462445748
C       -0.9355072304    0.6660463741    0.8780564058
C       -0.5942517669    0.9106095437   -0.5879106127
N        0.8275188337    1.3846217251   -0.6621459570
H        2.6232156812    0.4474908914   -0.2037760878
H        1.1914642493   -1.8420396178   -0.0233151286
H       -1.1555343730   -1.2934921530   -1.3848585443
H       -1.5655208368    1.2243074988    1.5552450848
H       -1.2658715025    1.5320221343   -1.1772179662
C       -0.3456571796   -0.5980237416    1.0226518128
H       -0.5381345486   -1.3352912786    1.7974631402
13   
Frame  29 IRC: Energy =  -286.8457060000 ; +17.4347 kcal/mol
C        1.5475738377    0.3783137399   -0.3280741525
C        0.7426562617   -0.8574706095   -0.0491844860
C       -0.5275763547   -0.6257219737   -0.7913134965
C       -0.9330062988    0.6840153392    0.8769466148
C       -0.5945670571    0.9146238585   -0.5850345133
N        0.8262528685    1.3847384018   -0.6623018707
H        2.6252266147    0.4502760567   -0.2028501928
H        1.1955937284   -1.8435478309   -0.0239044207
H       -1.1464961992   -1.2933312576   -1.3824462594
H       -1.5651679498    1.2302649630    1.5586921358
H       -1.2656316766    1.5302852635   -1.1807380624
C       -0.3627152465   -0.6133495225    0.9885769341
H       -0.5421425282   -1.3390964283    1.7816317699
13   
Frame  30 IRC: Energy =  -286.8496860000 ; +14.9372 kcal/mol
C        1.5504773376    0.3800138315   -0.3323539128
C        0.7583081973   -0.8558698646   -0.0557267904
C       -0.5425221674   -0.6375987342   -0.7381479771
C       -0.9276585397    0.7007845420    0.8784013900
C       -0.5941107342    0.9178800610   -0.5826266857
N        0.8250647183    1.3857793375   -0.6625495255
H        2.6273234512    0.4535329334   -0.2025512657
H        1.2007501825   -1.8452617472   -0.0246142987
H       -1.1361590094   -1.2923552382   -1.3758970912
H       -1.5649428604    1.2361616065    1.5616202309
H       -1.2651796986    1.5280917625   -1.1847341832
C       -0.3845412896   -0.6279984251    0.9555518439
H       -0.5468095876   -1.3431600650    1.7636282655
13   
Frame  31 IRC: Energy =  -286.8534010000 ; +12.6060 kcal/mol
C        1.5531004881    0.3818075570   -0.3373857096
C        0.7731356550   -0.8549795306   -0.0616484562
C       -0.5571847428   -0.6487841233   -0.6910173021
C       -0.9180279525    0.7168763355    0.8845653799
C       -0.5929804911    0.9206185286   -0.5796605534
N        0.8238125506    1.3871125560   -0.6637411024
H        2.6295393480    0.4581969973   -0.2034918405
H        1.2084675091   -1.8472079628   -0.0255493473
H       -1.1242847649   -1.2918528166   -1.3636647414
H       -1.5650741996    1.2435116689    1.5650279221
H       -1.2640877855    1.5243365795   -1.1895628481
C       -0.4114124805   -0.6397481562    0.9267133551
H       -0.5550031339   -1.3498876333    1.7394152438
13   
Frame  32 IRC: Energy =  -286.8555100000 ; +11.2826 kcal/mol
C        1.5546792639    0.3833762277   -0.3429018606
C        0.7839634453   -0.8552199150   -0.0658630407
C       -0.5668497454   -0.6558059858   -0.6553807098
C       -0.9045601042    0.7326098676    0.8945743149
C       -0.5914112914    0.9228146687   -0.5756431039
N        0.8226069035    1.3878644607   -0.6666201923
H        2.6313736005    0.4646619291   -0.2067079992
H        1.2189061089   -1.8480906031   -0.0261759088
H       -1.1134742662   -1.2948983373   -1.3467854747
H       -1.5655574412    1.2534568719    1.5695456137
H       -1.2624652242    1.5182740099   -1.1945496048
C       -0.4374949621   -0.6458240357    0.9057936672
H       -0.5697162873   -1.3632191586    1.7107142990
13   
Frame  33 IRC: Energy =  -286.8567280000 ; +10.5183 kcal/mol
C        1.5549315927    0.3841303778   -0.3478939462
C        0.7861522692   -0.8555720314   -0.0651895062
C       -0.5652811972   -0.6530545518   -0.6483599578
C       -0.8904302494    0.7463196215    0.9106956010
C       -0.5879982441    0.9240609450   -0.5711737709
N        0.8222527369    1.3879919911   -0.6732698787
H        2.6315743065    0.4736144846   -0.2151944315
H        1.2326924319   -1.8458868838   -0.0253932868
H       -1.1079500921   -1.3060773119   -1.3247208790
H       -1.5636752799    1.2671132439    1.5737025538
H       -1.2612739896    1.5089966362   -1.1983020529
C       -0.4525720523   -0.6421854944    0.9076932682
H       -0.5984222325   -1.3894510270    1.6774062869
13   
Frame  34 IRC: Energy =  -286.8569760000 ; +10.3627 kcal/mol
C        1.5550334552    0.3851014907   -0.3480734587
C        0.7884297299   -0.8544130085   -0.0622826574
C       -0.5656583978   -0.6532246964   -0.6431280539
C       -0.8890619835    0.7484424076    0.9099559682
C       -0.5872129944    0.9253470211   -0.5704549572
N        0.8230980965    1.3881898007   -0.6751815956
H        2.6316577092    0.4752024641   -0.2183292726
H        1.2342281202   -1.8431650295   -0.0243263067
H       -1.1082159265   -1.3085833247   -1.3200770471
H       -1.5624599286    1.2708693094    1.5745581644
H       -1.2616652231    1.5070922475   -1.1975815039
C       -0.4502439115   -0.6451453461    0.9037680236
H       -0.6079287455   -1.3957133357    1.6711526967
13   
Frame  35 IRC: Energy =  -286.8575880000 ; +9.9787 kcal/mol
C        1.5577105808    0.3903407671   -0.3490757843
C        0.7910495630   -0.8508134759   -0.0537079715
C       -0.5623589788   -0.6513771970   -0.6369163631
C       -0.8823979655    0.7484702336    0.9171227581
C       -0.5846744150    0.9243175231   -0.5688255975
N        0.8241171894    1.3905406917   -0.6835076796
H        2.6352436021    0.4813811791   -0.2322698746
H        1.2451758128   -1.8379367645   -0.0204811752
H       -1.1084040332   -1.3171982025   -1.2991018272
H       -1.5515817060    1.2821295514    1.5746472681
H       -1.2643297344    1.5029610830   -1.1958855859
C       -0.4537394815   -0.6442874417    0.9081529729
H       -0.6458104338   -1.4185279474    1.6398488598
13   
Frame  36 IRC: Energy =  -286.8576530000 ; +9.9379 kcal/mol
C        1.5569793191    0.3903509243   -0.3492692879
C        0.7928748623   -0.8509734044   -0.0530519360
C       -0.5618932904   -0.6518125095   -0.6362201527
C       -0.8827846677    0.7509005270    0.9154168776
C       -0.5847850734    0.9253463349   -0.5682003855
N        0.8240060570    1.3898674428   -0.6838008134
H        2.6355725184    0.4820231545   -0.2335700926
H        1.2457486593   -1.8366435738   -0.0195986525
H       -1.1082324409   -1.3176692019   -1.2975860759
H       -1.5509637091    1.2834900583    1.5759012374
H       -1.2643290145    1.5021029716   -1.1949449394
C       -0.4534478396   -0.6467445144    0.9056752190
H       -0.6487453806   -1.4202382094    1.6392490019
13   
Frame  37 IRC: Energy =  -286.8578280000 ; +9.8281 kcal/mol
C        1.5579729392    0.3920566669   -0.3497497868
C        0.7970838722   -0.8499450000   -0.0494730349
C       -0.5587669506   -0.6524172210   -0.6346466311
C       -0.8840951633    0.7513406252    0.9150383942
C       -0.5832377617    0.9257413740   -0.5675567330
N        0.8243258181    1.3895189113   -0.6860858611
H        2.6365610373    0.4857625898   -0.2432870624
H        1.2534166907   -1.8337338219   -0.0145020675
H       -1.1074925127   -1.3212424239   -1.2891490135
H       -1.5425366558    1.2914416865    1.5814242151
H       -1.2663922514    1.5004277900   -1.1915681691
C       -0.4581686242   -0.6502753381    0.9020244523
H       -0.6686704379   -1.4286758389    1.6275312979
13   
Frame  38 IRC: Energy =  -286.8578520000 ; +9.8130 kcal/mol
C        1.5580402782    0.3921776380   -0.3496477142
C        0.7964183927   -0.8502006541   -0.0492569134
C       -0.5582926402   -0.6523380870   -0.6347069572
C       -0.8845923687    0.7499024402    0.9156317146
C       -0.5835452594    0.9252706301   -0.5673102546
N        0.8240971486    1.3903310499   -0.6864081985
H        2.6372524483    0.4859991718   -0.2441487963
H        1.2543084364   -1.8336208041   -0.0139777211
H       -1.1074110971   -1.3217897388   -1.2892555300
H       -1.5405047342    1.2920890734    1.5816867604
H       -1.2664492607    1.5005525677   -1.1916715734
C       -0.4589042791   -0.6490923410    0.9033003683
H       -0.6704170646   -1.4292809460    1.6257648155
13   