13   
Frame   0 IRC: Energy =  -286.8734900000 ; +0.0000 kcal/mol
C        1.5192584318    0.3412276347   -0.2825837968
C        0.6229295998   -0.8943602707   -0.0663378296
C       -0.4105324038   -0.5257739640   -1.1356944108
C       -0.9929659704    0.5160844396    0.8185099267
C       -0.5930349016    0.8948047147   -0.6172779820
N        0.8462185625    1.3819185069   -0.5924417704
H        2.6008888934    0.3566521624   -0.1667305751
H        1.1023308562   -1.8724290725   -0.0800316544
H       -1.2342361998   -1.1816393832   -1.4113826804
H       -1.7117138502    1.0528918285    1.4270845980
H       -1.2440695778    1.5890037187   -1.1443219302
C       -0.2592522142   -0.5602814427    1.1550791943
H       -0.2458212257   -1.0980988721    2.0961289112
13   
Frame   1 IRC: Energy =  -286.8721488118 ; +0.8416 kcal/mol
C        1.5210117989    0.3569092302   -0.2890154593
C        0.6345564036   -0.8864792997   -0.0575272408
C       -0.4046585291   -0.5362356404   -1.1260491586
C       -0.9753998165    0.5350989464    0.8274007814
C       -0.5896708490    0.8945579780   -0.6172644282
N        0.8418889279    1.3893554635   -0.6127901337
H        2.6042592350    0.3854484316   -0.1932858149
H        1.1314917449   -1.8555210666   -0.0567320354
H       -1.2241316553   -1.2084344713   -1.3696268501
H       -1.6508504661    1.1047188860    1.4545264892
H       -1.2569332950    1.5728657479   -1.1453970248
C       -0.2753261591   -0.5692168150    1.1475560647
H       -0.3562373402   -1.1830673904    2.0382048104
13   
Frame   2 IRC: Energy =  -286.8682415246 ; +3.2935 kcal/mol
C        1.5206172271    0.3684616624   -0.2997743256
C        0.6429216747   -0.8763832641   -0.0470842680
C       -0.4048490901   -0.5482471212   -1.1071683686
C       -0.9515825820    0.5633189767    0.8484501847
C       -0.5896401888    0.8938620144   -0.6142236924
N        0.8350785762    1.3925811824   -0.6396503828
H        2.6033244110    0.4120379656   -0.2093470277
H        1.1506371077   -1.8392807655   -0.0286137317
H       -1.2030111464   -1.2451604070   -1.3581215136
H       -1.5935846545    1.1554518999    1.4948786705
H       -1.2688169761    1.5547964800   -1.1487497014
C       -0.2838569504   -0.5674479168    1.1482244183
H       -0.4572374082   -1.2639907069    1.9611797382
13   
Frame   3 IRC: Energy =  -286.8601154072 ; +8.3927 kcal/mol
C        1.5293286073    0.3732838373   -0.3123128270
C        0.6638080440   -0.8695459568   -0.0362175466
C       -0.4435398754   -0.5708480198   -1.0301823998
C       -0.9391327382    0.6055878477    0.8752588366
C       -0.5918598064    0.8975578204   -0.6012999514
N        0.8319957654    1.3877585764   -0.6574980324
H        2.6135542893    0.4351833362   -0.2089124901
H        1.1735994338   -1.8355461633   -0.0213564942
H       -1.1851510020   -1.2842487978   -1.3754543545
H       -1.5711478254    1.1973754946    1.5353660118
H       -1.2672358124    1.5393356001   -1.1635828271
C       -0.2974748608   -0.5594853013    1.1299914102
H       -0.5167442191   -1.3164082737    1.8662006645
13   
Frame   4 IRC: Energy =  -286.8458724215 ; +17.3303 kcal/mol (Transition State)
C        1.5408458653    0.3762711492   -0.3213539363
C        0.7095881108   -0.8621843600   -0.0392324179
C       -0.4964185338   -0.6021351795   -0.8961859177
C       -0.9364093692    0.6486687638    0.8790362056
C       -0.5939020805    0.9068235960   -0.5908373143
N        0.8288918686    1.3846147084   -0.6618016075
H        2.6214581363    0.4449696397   -0.2047794023
H        1.1878203049   -1.8406909201   -0.0227637987
H       -1.1634913885   -1.2932362933   -1.3858435133
H       -1.5661929774    1.2189103314    1.5520840761
H       -1.2660602708    1.5335955162   -1.1740696711
C       -0.3318361219   -0.5840802546    1.0540964417
H       -0.5342935437   -1.3315266971    1.8116508558
13   
Frame   5 IRC: Energy =  -286.8481302842 ; +15.9135 kcal/mol
C        1.5493424078    0.3793492940   -0.3306810257
C        0.7521901161   -0.8564955692   -0.0531695125
C       -0.5366800979   -0.6329563061   -0.7589294941
C       -0.9297488898    0.6942297396    0.8778327426
C       -0.5942891032    0.9166072656   -0.5835678654
N        0.8255291464    1.3853724530   -0.6624527214
H        2.6265038327    0.4522598745   -0.2026681114
H        1.1987346104   -1.8445918059   -0.0243368192
H       -1.1401996449   -1.2927367480   -1.3784570521
H       -1.5650308441    1.2338567067    1.5604756872
H       -1.2653563693    1.5289491656   -1.1831721661
C       -0.3760098525   -0.6222724128    0.9684608022
H       -0.5449853117   -1.3415716570    1.7706655358
13   
Frame   6 IRC: Energy =  -286.8558175397 ; +11.0896 kcal/mol
C        1.5547429758    0.3835666473   -0.3441623407
C        0.7845161139   -0.8553088229   -0.0656929762
C       -0.5664536938   -0.6551112606   -0.6536080003
C       -0.9009923769    0.7360715213    0.8986448700
C       -0.5905495117    0.9231293481   -0.5745146166
N        0.8225174779    1.3878966616   -0.6682992094
H        2.6314242779    0.4669224107   -0.2088507867
H        1.2223870959   -1.8475341735   -0.0259783001
H       -1.1120794361   -1.2977209802   -1.3412142595
H       -1.5650822036    1.2569050469    1.5705952231
H       -1.2621644426    1.5159315131   -1.1954970817
C       -0.4413018623   -0.6449053197    0.9062733082
H       -0.5769644146   -1.3698425921    1.7023041697
13   
Frame   7 IRC: Energy =  -286.8578947400 ; +9.7862 kcal/mol
C        1.5583363042    0.3933414114   -0.3495810529
C        0.7969326389   -0.8495949461   -0.0478918311
C       -0.5574992503   -0.6531115861   -0.6344656585
C       -0.8872835724    0.7484857614    0.9148152647
C       -0.5842772827    0.9247870715   -0.5666212265
N        0.8231337863    1.3907949805   -0.6866182653
H        2.6379178929    0.4870484841   -0.2477845249
H        1.2572234341   -1.8320696514   -0.0111885997
H       -1.1062504561   -1.3234924758   -1.2885385458
H       -1.5332088392    1.2963572427    1.5849821902
H       -1.2667412618    1.4999229533   -1.1914595561
C       -0.4602677556   -0.6497126193    0.9034700222
H       -0.6780156383   -1.4327566262    1.6208817836
13   
Frame   8 IRC: Energy =  -286.8588185823 ; +9.2065 kcal/mol
C        1.5492202097    0.4029331921   -0.3383099376
C        0.7997410776   -0.8471064251   -0.0467333324
C       -0.5497726037   -0.6638897903   -0.6437438625
C       -0.9400570962    0.7242432264    0.8963589460
C       -0.5979355120    0.9146566800   -0.5724197054
N        0.8061946684    1.3959305624   -0.6733121180
H        2.6291233073    0.5032146837   -0.2442142779
H        1.2710055848   -1.8237434691    0.0045121990
H       -1.0884738507   -1.3375936398   -1.3018205196
H       -1.4093034685    1.3581482893    1.6366786260
H       -1.2747523711    1.4862664411   -1.2074499635
C       -0.4881894837   -0.6601824318    0.8916370800
H       -0.7068004620   -1.4528773190    1.5988168660
13   
Frame   9 IRC: Energy =  -286.8599225562 ; +8.5137 kcal/mol
C        1.5332413331    0.4141751924   -0.3209286348
C        0.7942318873   -0.8451717187   -0.0474405198
C       -0.5516491963   -0.6749452093   -0.6549188071
C       -0.9773201592    0.7093750213    0.8839626372
C       -0.6157837560    0.9024391884   -0.5816215737
N        0.7829069199    1.4006602437   -0.6598110100
H        2.6102785654    0.5262151770   -0.2120309784
H        1.2751093541   -1.8165581453    0.0134600379
H       -1.0726121348   -1.3522252410   -1.3231557376
H       -1.2497649120    1.4070856287    1.6677301705
H       -1.2889861639    1.4682183278   -1.2262689941
C       -0.5149971072   -0.6713561741    0.8779190585
H       -0.7246546303   -1.4679122909    1.5831043514
13   
Frame  10 IRC: Energy =  -286.8602917680 ; +8.2820 kcal/mol
C        1.5165408880    0.4236472297   -0.3061042956
C        0.7854880467   -0.8433872844   -0.0438944335
C       -0.5580410750   -0.6829907635   -0.6629171117
C       -0.9846718698    0.7065657501    0.8811113531
C       -0.6310384912    0.8926968072   -0.5894862516
N        0.7627133630    1.4038763884   -0.6567708465
H        2.5901454308    0.5487085279   -0.1776660104
H        1.2750052430   -1.8096669870    0.0218846419
H       -1.0564846712   -1.3644481130   -1.3446515964
H       -1.1061426852    1.4339283286    1.6784818414
H       -1.3089772932    1.4516506252   -1.2351377615
C       -0.5364109292   -0.6811960569    0.8661071548
H       -0.7481259568   -1.4793844523    1.5690433160
