
Running Job 1 of 1 irc_transition.in
qchem irc_transition.in_41464.0 ./irc_transition.d/ 1
/home/leeping/opt/qchem/5.0.2-openmp/exe/qcprog.exe_s irc_transition.in_41464.0 ./irc_transition.d/
Check license passed

                  Welcome to Q-Chem
     A Quantum Leap Into The Future Of Chemistry


 Q-Chem 5.0, Q-Chem, Inc., Pleasanton, CA (2017)

 Yihan Shao,  Zhengting Gan,  E. Epifanovsky,  A. T. B. Gilbert,  M. Wormit,  
 J. Kussmann,  A. W. Lange,  A. Behn,  Jia Deng,  Xintian Feng,  D. Ghosh,  
 M. Goldey,  P. R. Horn,  L. D. Jacobson,  I. Kaliman,  T. Kus,  A. Landau,  
 Jie Liu,  E. I. Proynov,  R. M. Richard,  R. P. Steele,  E. J. Sundstrom,  
 H. L. Woodcock III,  P. M. Zimmerman,  D. Zuev,  B. Albrecht,  E. Alguire,  
 S. A. Baeppler,  D. Barton,  Z. Benda,  Y. A. Bernard,  E. J. Berquist,  
 K. B. Bravaya,  H. Burton,  D. Casanova,  Chun-Min Chang,  Yunqing Chen,  
 A. Chien,  K. D. Closser,  M. P. Coons,  S. Dasgupta,  A. L. Dempwolff,  
 M. Diedenhofen,  Hainam Do,  R. G. Edgar,  Po-Tung Fang,  S. Fatehi,  
 Qingguo Feng,  J. Fosso-Tande,  Qinghui Ge,  A. Ghysels,  G. Gidofalvi,  
 J. Gomes,  J. Gonthier,  A. Gunina,  M. W. D. Hanson-Heine,  
 P. H. P. Harbach,  A. W. Hauser,  J. E. Herr,  E. G. Hohenstein,  
 Z. C. Holden,  Kerwin Hui,  T.-C. Jagau,  Hyunjun Ji,  B. Kaduk,  
 K. Khistyaev,  Jaehoon Kim,  P. Klunzinger,  K. Koh,  D. Kosenkov,  
 L. Koulias,  T. Kowalczyk,  C. M. Krauter,  A. Kunitsa,  Ka Un Lao,  
 A. Laurent,  K. V. Lawler,  Joonho Lee,  D. Lefrancois,  S. Lehtola,  
 D. S. Levine,  Yi-Pei Li,  You-Sheng Lin,  Fenglai Liu,  E. Livshits,  
 A. Luenser,  P. Manohar,  E. Mansoor,  S. F. Manzer,  Shan-Ping Mao,  
 Yuezhi Mao,  N. Mardirossian,  A. V. Marenich,  T. Markovich,  
 L. A. Martinez-Martinez,  S. A. Maurer,  N. J. Mayhall,  S. C. McKenzie,  
 J.-M. Mewes,  A. F. Morrison,  J. W. Mullinax,  K. Nanda,  
 T. S. Nguyen-Beck,  R. Olivares-Amaya,  J. A. Parkhill,  T. M. Perrine,  
 F. Plasser,  S. Prager,  A. Prociuk,  E. Ramos,  D. R. Rehn,  F. Rob,  
 M. Schneider,  N. Sergueev,  S. M. Sharada,  S. Sharma,  D. W. Small,  
 T. Stauch,  T. Stein,  Yu-Chuan Su,  A. J. W. Thom,  A. Tkatchenko,  
 T. Tsuchimochi,  L. Vogt,  O. Vydrov,  M. A. Watson,  J. Wenzel,  
 M. de Wergifosse,  T. A. Wesolowski,  A. White,  J. Witte,  A. Yamada,  
 Jun Yang,  K. Yao,  S. Yeganeh,  S. R. Yost,  Zhi-Qiang You,  A. Zech,  
 Igor Ying Zhang,  Xing Zhang,  Yan Zhao,  Ying Zhu,  B. R. Brooks,  
 G. K. L. Chan,  C. J. Cramer,  M. S. Gordon,  W. J. Hehre,  A. Klamt,  
 M. W. Schmidt,  C. D. Sherrill,  D. G. Truhlar,  A. Aspuru-Guzik,  R. Baer,  
 A. T. Bell,  N. A. Besley,  Jeng-Da Chai,  R. A. DiStasio Jr.,  A. Dreuw,  
 B. D. Dunietz,  T. R. Furlani,  Chao-Ping Hsu,  Yousung Jung,  Jing Kong,  
 D. S. Lambrecht,  WanZhen Liang,  C. Ochsenfeld,  V. A. Rassolov,  
 L. V. Slipchenko,  J. E. Subotnik,  T. Van Voorhis,  J. M. Herbert,  
 A. I. Krylov,  P. M. W. Gill,  M. Head-Gordon

 Contributors to earlier versions of Q-Chem not listed above: 
 R. D. Adamson,  B. Austin,  J. Baker,  G. J. O. Beran,  K. Brandhorst,  
 S. T. Brown,  E. F. C. Byrd,  A. K. Chakraborty,  C.-L. Cheng,  
 Siu Hung Chien,  D. M. Chipman,  D. L. Crittenden,  H. Dachsel,  
 R. J. Doerksen,  A. D. Dutoi,  L. Fusti-Molnar,  W. A. Goddard III,  
 A. Golubeva-Zadorozhnaya,  S. R. Gwaltney,  G. Hawkins,  A. Heyden,  
 S. Hirata,  G. Kedziora,  F. J. Keil,  C. Kelley,  Jihan Kim,  R. A. King,  
 R. Z. Khaliullin,  P. P. Korambath,  W. Kurlancheek,  A. M. Lee,  M. S. Lee,  
 S. V. Levchenko,  Ching Yeh Lin,  D. Liotard,  R. C. Lochan,  I. Lotan,  
 P. E. Maslen,  N. Nair,  D. P. O'Neill,  D. Neuhauser,  E. Neuscamman,  
 C. M. Oana,  R. Olson,  B. Peters,  R. Peverati,  P. A. Pieniazek,  
 Y. M. Rhee,  J. Ritchie,  M. A. Rohrdanz,  E. Rosta,  N. J. Russ,  
 H. F. Schaefer III,  N. E. Schultz,  N. Shenvi,  A. C. Simmonett,  A. Sodt,  
 D. Stuck,  K. S. Thanthiriwatte,  V. Vanovschi,  Tao Wang,  A. Warshel,  
 C. F. Williams,  Q. Wu,  X. Xu,  W. Zhang

 Please cite Q-Chem as follows:
 Y. Shao et al., Mol. Phys. 113, 184-215 (2015)
 DOI: 10.1080/00268976.2014.952696

 Q-Chem 5.0.2 for Intel X86 EM64T Linux

 Parts of Q-Chem use Armadillo 5.200.1 (Boston Tea Smuggler).
 http://arma.sourceforge.net/

 Q-Chem begins on Fri Mar  4 01:26:43 2022  

Host: 
0

     Scratch files written to ./irc_transition.d//
 Dec517 15110_ 26548  26544 5633   
Processing $rem in /home/leeping/opt/qchem/5.0.2-openmp/config/preferences.
 MEM_STATIC 2000
 MEM_TOTAL  8000
 SYMMETRY   OFF
 SYM_IGNORE TRUE 

Checking the input file for inconsistencies... 	...done.

--------------------------------------------------------------
User input:
--------------------------------------------------------------
$molecule
0 2
C        1.5426129769    0.3719417922   -0.3260656385
C        0.7227708783   -0.8635018056   -0.0428592573
C       -0.5145468740   -0.6172926186   -0.8458735333
C       -0.9367405703    0.6657883509    0.8761559384
C       -0.5953921241    0.9073334168   -0.5902897490
N        0.8268745532    1.3796940261   -0.6655428452
H        2.6216236178    0.4414800959   -0.2056790384
H        1.1874525981   -1.8461919043   -0.0209127559
H       -1.1591154597   -1.2976074902   -1.3831832202
H       -1.5660812044    1.2259459068    1.5524036839
H       -1.2664163006    1.5283940883   -1.1806456000
C       -0.3482220496   -0.5986462361    1.0229731633
H       -0.5413967984   -1.3343043483    1.7991395179
$end

$rem
method                b3lyp
basis                 6-31+g(d,p)
unrestricted          true
symmetry              off
sym_ignore            true
incdft                false
incfock               0
scf_convergence       8
thresh                14
jobtype               sp
scf_guess             core
scf_guess_mix         5
scf_algorithm         diis
max_scf_cycles        100
$end

--------------------------------------------------------------
 ----------------------------------------------------------------
             Standard Nuclear Orientation (Angstroms)
    I     Atom           X                Y                Z
 ----------------------------------------------------------------
    1      C       1.5426129769     0.3719417922    -0.3260656385
    2      C       0.7227708783    -0.8635018056    -0.0428592573
    3      C      -0.5145468740    -0.6172926186    -0.8458735333
    4      C      -0.9367405703     0.6657883509     0.8761559384
    5      C      -0.5953921241     0.9073334168    -0.5902897490
    6      N       0.8268745532     1.3796940261    -0.6655428452
    7      H       2.6216236178     0.4414800959    -0.2056790384
    8      H       1.1874525981    -1.8461919043    -0.0209127559
    9      H      -1.1591154597    -1.2976074902    -1.3831832202
   10      H      -1.5660812044     1.2259459068     1.5524036839
   11      H      -1.2664163006     1.5283940883    -1.1806456000
   12      C      -0.3482220496    -0.5986462361     1.0229731633
   13      H      -0.5413967984    -1.3343043483     1.7991395179
 ----------------------------------------------------------------
 Nuclear Repulsion Energy =   280.5568928835 hartrees
 There are       25 alpha and       24 beta electrons
 Requested basis set is 6-31+G(d,p)
 There are 53 shells and 163 basis functions

 Total QAlloc Memory Limit   8000 MB
 Mega-Array Size      1956 MB
 MEM_STATIC part      2000 MB

                       Distance Matrix (Angstroms)
             C (  1)   C (  2)   C (  3)   C (  4)   C (  5)   N (  6)
   C (  2)  1.509526
   C (  3)  2.341088  1.495462
   C (  4)  2.771079  2.436657  2.188591
   C (  5)  2.219803  2.274443  1.548013  1.524902
   N (  6)  1.281831  2.330343  2.412444  2.448844  1.500543
   H (  7)  1.087930  2.309790  3.371411  3.725941  3.273245  2.076739
   H (  8)  2.267019  1.087240  2.255561  3.409835  3.329358  3.309366
   H (  9)  3.347272  2.350832  1.080277  3.001498  2.410027  3.409854
   H ( 10)  3.731213  3.485613  3.202341  1.080350  2.373792  3.266368
   H ( 11)  3.155683  3.312490  2.298119  2.254597  1.088352  2.160858
   C ( 12)  2.517380  1.534006  1.876326  1.402392  2.220740  2.854079
   H ( 13)  3.430870  2.283141  2.740606  2.237983  3.276771  3.913133
             H (  7)   H (  8)   H (  9)   H ( 10)   H ( 11)   C ( 12)
   H (  8)  2.706368
   H (  9)  4.324920  2.768232
   H ( 10)  4.609025  4.415349  3.892507
   H ( 11)  4.153167  4.330622  2.835281  2.766014
   C ( 12)  3.378081  2.237044  2.633569  2.256682  3.197392
   H ( 13)  4.144563  2.561941  3.241929  2.768707  4.195213  1.086712

 
 A cutoff of  1.0D-14 yielded   1404 shell pairs
 There are     13506 function pairs
 
 -------------------------------------------------------
 OpenMP Integral Computing Module                       
 Release: version 1.0, May 2013, Q-Chem Inc. Pittsburgh 
 -------------------------------------------------------
 Integral Job Info:
 Integral job number is                      11
 Integral operator is                         1
 short-range coefficients                     0
 long-range coefficients              100000000
 Omega coefficients                           0
 if combine SR and LR in K                    0
 Integral screening is                        0
 Integral computing path is                   2
 max size of driver memory is            800000
 size of driver memory is                593474
 size of scratch memory is              2361544
 max col of scratch BK array               1296
 max len of scratch array in speh3          155
 max len of scratch index in speh4           18
 max int batch size is                      520
 min int batch size is                       52
 fixed nKL is                                52
 max L of basis functions is                  2
 order of int derivative is                   0
 number of shells is                         53
 number of basis is                         163
 number of cartesian basis is               163
 number of contracted shell pairs          1404
 number of primitive shell pairs           4827
 maxK2 (contraction) of shell pair           36
 max number of K2 of shell pair               1
 max number of CS2 of shell pair            126
 max number of PS2 of shell pair            696
 mem total for path MDJ                  535308
 -------------------------------------------------------
 Smallest overlap matrix eigenvalue = 2.30E-05

 Scale SEOQF with 1.000000e-01/1.000000e-01/1.000000e-01

 Standard Electronic Orientation quadrupole field applied
 Nucleus-field energy     =     0.0000000014 hartrees
 Guess MOs from core Hamiltonian diagonalization
 Mixing HOMO and LUMO in initial guess
 Adding  50% of the LUMO to the HOMO
 An unrestricted hybrid HF-DFT SCF calculation will be
 performed using Pulay DIIS extrapolation
 Exchange:     0.2000 Hartree-Fock + 0.0800 Slater + 0.7200 B88
 Correlation:  0.1900 VWN1RPA + 0.8100 LYP
 Using SG-1 standard quadrature grid
 SCF converges when DIIS error is below 1.0E-08
 using 4 threads for integral computing
 -------------------------------------------------------
 OpenMP Integral computing Module                
 Release: version 1.0, May 2013, Q-Chem Inc. Pittsburgh 
 -------------------------------------------------------
 -------------------------------------------------------
 OpenMP BLAS3 based DFT computing Module                
 Release: version 1.0, May 2013, Q-Chem Inc. Pittsburgh 
 -------------------------------------------------------
 ---------------------------------------
  Cycle       Energy         DIIS Error
 ---------------------------------------
    1    -236.0488184506      9.84E-02
    2    -213.7330293361      7.17E-02
    3    -256.0809232934      7.15E-02
    4    -276.2983861486      5.21E-02
    5    -273.1146813218      5.31E-02
    6    -282.9224839390      2.78E-02
    7    -285.3618698423      1.88E-02
    8    -286.0411655130      1.28E-02
    9    -286.7662522439      3.40E-03
   10    -286.8010660080      3.31E-03
   11    -286.8392728955      6.10E-04
   12    -286.8422058548      4.48E-04
   13    -286.8434245296      1.45E-04
   14    -286.8437083040      7.67E-05
   15    -286.8437689115      3.40E-05
   16    -286.8437984125      7.95E-06
   17    -286.8438057177      4.67E-06
   18    -286.8438080067      2.63E-06
   19    -286.8438090549      4.67E-07
   20    -286.8438092371      1.93E-07
   21    -286.8438092956      7.90E-08
   22    -286.8438093125      3.99E-08
   23    -286.8438093162      1.17E-08
   24    -286.8438093168      5.79E-09 Convergence criterion met
 ---------------------------------------
 <S^2> = 0.7809
 SCF time:  CPU 119.91 s  wall 31.24 s
 SCF   energy in the final basis set = -286.84380932
 Total energy in the final basis set = -286.84380932
 
 --------------------------------------------------------------
 
                    Orbital Energies (a.u.)
 --------------------------------------------------------------
 
 Alpha MOs
 -- Occupied --
-14.334 -10.234 -10.231 -10.228 -10.225 -10.222 -10.199  -0.969
 -0.850  -0.750  -0.690  -0.601  -0.587  -0.546  -0.524  -0.474
 -0.436  -0.418  -0.409  -0.387  -0.351  -0.307  -0.286  -0.266
 -0.152
 -- Virtual --
 -0.025  -0.009   0.000   0.020   0.026   0.031   0.048   0.048
  0.068   0.071   0.074   0.091   0.103   0.106   0.109   0.115
  0.123   0.129   0.143   0.154   0.167   0.177   0.183   0.185
  0.190   0.199   0.208   0.211   0.228   0.233   0.241   0.246
  0.259   0.268   0.281   0.289   0.301   0.318   0.330   0.353
  0.373   0.385   0.414   0.459   0.617   0.655   0.691   0.698
  0.699   0.715   0.725   0.739   0.752   0.758   0.787   0.795
  0.799   0.816   0.863   0.899   0.913   0.934   0.972   0.986
  1.009   1.015   1.036   1.063   1.088   1.117   1.133   1.162
  1.187   1.255   1.289   1.299   1.383   1.419   1.436   1.517
  1.530   1.610   1.616   1.712   1.717   1.775   1.801   1.832
  1.887   1.916   1.945   1.991   1.999   2.077   2.115   2.137
  2.150   2.221   2.231   2.262   2.278   2.359   2.370   2.379
  2.403   2.420   2.472   2.488   2.500   2.517   2.524   2.554
  2.579   2.595   2.627   2.648   2.684   2.745   2.760   2.774
  2.825   2.875   2.956   3.059   3.110   3.294   3.311   3.337
  3.476   3.626   3.692   4.154   4.388   4.473   4.575   4.639
  4.713   4.851
 
 Beta MOs
 -- Occupied --
-14.334 -10.236 -10.232 -10.228 -10.225 -10.214 -10.189  -0.965
 -0.844  -0.743  -0.680  -0.597  -0.577  -0.544  -0.516  -0.469
 -0.432  -0.413  -0.407  -0.385  -0.346  -0.291  -0.277  -0.262
 -- Virtual --
 -0.043  -0.019  -0.001   0.002   0.020   0.027   0.035   0.048
  0.049   0.070   0.072   0.078   0.093   0.103   0.106   0.110
  0.116   0.128   0.130   0.144   0.155   0.167   0.177   0.184
  0.190   0.191   0.202   0.210   0.216   0.232   0.235   0.243
  0.247   0.261   0.272   0.281   0.291   0.304   0.322   0.332
  0.357   0.376   0.388   0.420   0.462   0.620   0.661   0.692
  0.703   0.708   0.734   0.742   0.745   0.753   0.768   0.791
  0.797   0.804   0.819   0.864   0.903   0.914   0.936   0.974
  0.988   1.010   1.020   1.039   1.067   1.091   1.122   1.140
  1.168   1.192   1.259   1.297   1.300   1.386   1.422   1.445
  1.521   1.537   1.618   1.621   1.719   1.722   1.781   1.806
  1.850   1.891   1.925   1.946   1.999   2.002   2.082   2.125
  2.138   2.158   2.229   2.235   2.270   2.285   2.362   2.374
  2.383   2.408   2.427   2.476   2.497   2.502   2.524   2.530
  2.558   2.589   2.601   2.631   2.655   2.690   2.749   2.763
  2.779   2.827   2.877   2.959   3.062   3.111   3.295   3.312
  3.338   3.477   3.629   3.695   4.154   4.394   4.479   4.588
  4.645   4.716   4.855
 --------------------------------------------------------------
 
          Ground-State Mulliken Net Atomic Charges

     Atom                 Charge (a.u.)    Spin (a.u.)
  --------------------------------------------------------
      1 C                    -0.063826       0.042471
      2 C                    -0.016729      -0.032509
      3 C                    -0.278453       0.641344
      4 C                    -0.133788       0.738269
      5 C                     0.016447      -0.123879
      6 N                    -0.207645      -0.003037
      7 H                     0.134935       0.001339
      8 H                     0.131551       0.003602
      9 H                     0.147327      -0.028091
     10 H                     0.138782      -0.030238
     11 H                     0.130430       0.008311
     12 C                    -0.139561      -0.230215
     13 H                     0.140531       0.012632
  --------------------------------------------------------
  Sum of atomic charges =    -0.000000
  Sum of spin   charges =     1.000000

 -----------------------------------------------------------------
                    Cartesian Multipole Moments
 -----------------------------------------------------------------
    Charge (ESU x 10^10)
                 0.0000
    Dipole Moment (Debye)
         X      -0.6801      Y      -2.7587      Z       0.7698
       Tot       2.9437
    Quadrupole Moments (Debye-Ang)
        XX     -39.2105     XY      -3.9204     YY     -44.0738
        XZ       1.4078     YZ       0.7703     ZZ     -42.0852
    Octopole Moments (Debye-Ang^2)
       XXX      -0.6433    XXY      -6.5919    XYY     -10.9261
       YYY     -33.0766    XXZ       2.3329    XYZ       1.1497
       YYZ       6.3918    XZZ      -9.6166    YZZ      -9.5423
       ZZZ      12.0805
    Hexadecapole Moments (Debye-Ang^3)
      XXXX    -254.8480   XXXY      -6.5538   XXYY     -87.9881
      XYYY     -22.4865   YYYY    -271.6273   XXXZ      28.4067
      XXYZ      10.9735   XYYZ      14.3636   YYYZ      23.2971
      XXZZ     -76.7023   XYZZ      -4.4032   YYZZ     -75.0865
      XZZZ      26.8080   YZZZ      14.9860   ZZZZ    -203.8863
 -----------------------------------------------------------------
Archival summary:
1\1\c8-66\SP\ProcedureUnspecified\6-31+G**\166(2)\hpark21\FriMar401:27:152022FriMar401:27:152022\0\\#,ProcedureUnspecified,6-31+G**,\\0,2\N\C,1,1.28183\H,2,1.08793,1,122.198\C,1,1.50054,2,105.574,3,-174.639,0\H,4,1.08835,1,112.182,2,-159.442,0\C,2,1.50953,1,112.946,3,176.688,0\H,6,1.08724,2,120.757,1,162.615,0\C,6,1.49546,2,102.35,1,24.7378,0\H,8,1.08028,6,131.077,2,145.329,0\C,4,1.5249,1,108.075,2,68.3721,0\H,10,1.08035,4,130.559,1,107.616,0\C,10,1.40239,4,98.6012,1,-80.5031,0\H,12,1.08671,10,127.628,4,-161.489,0\\\@

 Total job time:  32.04s(wall), 121.60s(cpu) 
 Fri Mar  4 01:27:15 2022

        *************************************************************
        *                                                           *
        *  Thank you very much for using Q-Chem.  Have a nice day.  *
        *                                                           *
        *************************************************************


