
Running Job 1 of 1 qcts1.in
qchem qcts1.in_31999.0 ./qcts1.d/ 1
/home/leeping/opt/qchem/5.0.2-openmp/exe/qcprog.exe_s qcts1.in_31999.0 ./qcts1.d/
Check license passed

                  Welcome to Q-Chem
     A Quantum Leap Into The Future Of Chemistry


 Q-Chem 5.0, Q-Chem, Inc., Pleasanton, CA (2017)

 Yihan Shao,  Zhengting Gan,  E. Epifanovsky,  A. T. B. Gilbert,  M. Wormit,  
 J. Kussmann,  A. W. Lange,  A. Behn,  Jia Deng,  Xintian Feng,  D. Ghosh,  
 M. Goldey,  P. R. Horn,  L. D. Jacobson,  I. Kaliman,  T. Kus,  A. Landau,  
 Jie Liu,  E. I. Proynov,  R. M. Richard,  R. P. Steele,  E. J. Sundstrom,  
 H. L. Woodcock III,  P. M. Zimmerman,  D. Zuev,  B. Albrecht,  E. Alguire,  
 S. A. Baeppler,  D. Barton,  Z. Benda,  Y. A. Bernard,  E. J. Berquist,  
 K. B. Bravaya,  H. Burton,  D. Casanova,  Chun-Min Chang,  Yunqing Chen,  
 A. Chien,  K. D. Closser,  M. P. Coons,  S. Dasgupta,  A. L. Dempwolff,  
 M. Diedenhofen,  Hainam Do,  R. G. Edgar,  Po-Tung Fang,  S. Fatehi,  
 Qingguo Feng,  J. Fosso-Tande,  Qinghui Ge,  A. Ghysels,  G. Gidofalvi,  
 J. Gomes,  J. Gonthier,  A. Gunina,  M. W. D. Hanson-Heine,  
 P. H. P. Harbach,  A. W. Hauser,  J. E. Herr,  E. G. Hohenstein,  
 Z. C. Holden,  Kerwin Hui,  T.-C. Jagau,  Hyunjun Ji,  B. Kaduk,  
 K. Khistyaev,  Jaehoon Kim,  P. Klunzinger,  K. Koh,  D. Kosenkov,  
 L. Koulias,  T. Kowalczyk,  C. M. Krauter,  A. Kunitsa,  Ka Un Lao,  
 A. Laurent,  K. V. Lawler,  Joonho Lee,  D. Lefrancois,  S. Lehtola,  
 D. S. Levine,  Yi-Pei Li,  You-Sheng Lin,  Fenglai Liu,  E. Livshits,  
 A. Luenser,  P. Manohar,  E. Mansoor,  S. F. Manzer,  Shan-Ping Mao,  
 Yuezhi Mao,  N. Mardirossian,  A. V. Marenich,  T. Markovich,  
 L. A. Martinez-Martinez,  S. A. Maurer,  N. J. Mayhall,  S. C. McKenzie,  
 J.-M. Mewes,  A. F. Morrison,  J. W. Mullinax,  K. Nanda,  
 T. S. Nguyen-Beck,  R. Olivares-Amaya,  J. A. Parkhill,  T. M. Perrine,  
 F. Plasser,  S. Prager,  A. Prociuk,  E. Ramos,  D. R. Rehn,  F. Rob,  
 M. Schneider,  N. Sergueev,  S. M. Sharada,  S. Sharma,  D. W. Small,  
 T. Stauch,  T. Stein,  Yu-Chuan Su,  A. J. W. Thom,  A. Tkatchenko,  
 T. Tsuchimochi,  L. Vogt,  O. Vydrov,  M. A. Watson,  J. Wenzel,  
 M. de Wergifosse,  T. A. Wesolowski,  A. White,  J. Witte,  A. Yamada,  
 Jun Yang,  K. Yao,  S. Yeganeh,  S. R. Yost,  Zhi-Qiang You,  A. Zech,  
 Igor Ying Zhang,  Xing Zhang,  Yan Zhao,  Ying Zhu,  B. R. Brooks,  
 G. K. L. Chan,  C. J. Cramer,  M. S. Gordon,  W. J. Hehre,  A. Klamt,  
 M. W. Schmidt,  C. D. Sherrill,  D. G. Truhlar,  A. Aspuru-Guzik,  R. Baer,  
 A. T. Bell,  N. A. Besley,  Jeng-Da Chai,  R. A. DiStasio Jr.,  A. Dreuw,  
 B. D. Dunietz,  T. R. Furlani,  Chao-Ping Hsu,  Yousung Jung,  Jing Kong,  
 D. S. Lambrecht,  WanZhen Liang,  C. Ochsenfeld,  V. A. Rassolov,  
 L. V. Slipchenko,  J. E. Subotnik,  T. Van Voorhis,  J. M. Herbert,  
 A. I. Krylov,  P. M. W. Gill,  M. Head-Gordon

 Contributors to earlier versions of Q-Chem not listed above: 
 R. D. Adamson,  B. Austin,  J. Baker,  G. J. O. Beran,  K. Brandhorst,  
 S. T. Brown,  E. F. C. Byrd,  A. K. Chakraborty,  C.-L. Cheng,  
 Siu Hung Chien,  D. M. Chipman,  D. L. Crittenden,  H. Dachsel,  
 R. J. Doerksen,  A. D. Dutoi,  L. Fusti-Molnar,  W. A. Goddard III,  
 A. Golubeva-Zadorozhnaya,  S. R. Gwaltney,  G. Hawkins,  A. Heyden,  
 S. Hirata,  G. Kedziora,  F. J. Keil,  C. Kelley,  Jihan Kim,  R. A. King,  
 R. Z. Khaliullin,  P. P. Korambath,  W. Kurlancheek,  A. M. Lee,  M. S. Lee,  
 S. V. Levchenko,  Ching Yeh Lin,  D. Liotard,  R. C. Lochan,  I. Lotan,  
 P. E. Maslen,  N. Nair,  D. P. O'Neill,  D. Neuhauser,  E. Neuscamman,  
 C. M. Oana,  R. Olson,  B. Peters,  R. Peverati,  P. A. Pieniazek,  
 Y. M. Rhee,  J. Ritchie,  M. A. Rohrdanz,  E. Rosta,  N. J. Russ,  
 H. F. Schaefer III,  N. E. Schultz,  N. Shenvi,  A. C. Simmonett,  A. Sodt,  
 D. Stuck,  K. S. Thanthiriwatte,  V. Vanovschi,  Tao Wang,  A. Warshel,  
 C. F. Williams,  Q. Wu,  X. Xu,  W. Zhang

 Please cite Q-Chem as follows:
 Y. Shao et al., Mol. Phys. 113, 184-215 (2015)
 DOI: 10.1080/00268976.2014.952696

 Q-Chem 5.0.2 for Intel X86 EM64T Linux

 Parts of Q-Chem use Armadillo 5.200.1 (Boston Tea Smuggler).
 http://arma.sourceforge.net/

 Q-Chem begins on Thu Mar  3 21:50:55 2022  

Host: 
0

     Scratch files written to ./qcts1.d//
 Dec517 15110_ 26548  26544 5633   
Processing $rem in /home/leeping/opt/qchem/5.0.2-openmp/config/preferences.
 MEM_STATIC 2000
 MEM_TOTAL  8000
 SYMMETRY   OFF
 SYM_IGNORE TRUE 

Checking the input file for inconsistencies... 	...done.

--------------------------------------------------------------
User input:
--------------------------------------------------------------
$molecule
0 2
C        1.5451528657    0.3797937727   -0.3050659797
C        0.7522862274   -0.8823811146   -0.1146952840
C       -0.4455080314   -0.6042477319   -0.9495608666
C       -0.9984135178    0.6186366485    0.8530114589
C       -0.5791482387    0.8913142417   -0.5990489747
N        0.8197136826    1.3989916924   -0.6000288805
H        2.6252187558    0.4693063692   -0.1986661371
H        1.2742182675   -1.8459320248   -0.1102364264
H       -1.2311938869   -1.3051776769   -1.1925597491
H       -1.5121278306    1.2742606474    1.5493300633
H       -1.2374517861    1.5100043176   -1.2088740211
C       -0.4141490716   -0.5995102572    1.0479652850
H       -0.6251741927   -1.3420256101    1.8180501774
$end

$rem
method                b3lyp
basis                 6-31g(d)
unrestricted          true
symmetry              off
sym_ignore            true
incdft                false
incfock               0
scf_convergence       6
thresh                14
jobtype               sp
scf_guess             read
scf_algorithm         diis
max_scf_cycles        100
stability_analysis    true
max_cis_cycles        100
cis_n_roots           4
$end

--------------------------------------------------------------
 ----------------------------------------------------------------
             Standard Nuclear Orientation (Angstroms)
    I     Atom           X                Y                Z
 ----------------------------------------------------------------
    1      C       1.5451528657     0.3797937727    -0.3050659797
    2      C       0.7522862274    -0.8823811146    -0.1146952840
    3      C      -0.4455080314    -0.6042477319    -0.9495608666
    4      C      -0.9984135178     0.6186366485     0.8530114589
    5      C      -0.5791482387     0.8913142417    -0.5990489747
    6      N       0.8197136826     1.3989916924    -0.6000288805
    7      H       2.6252187558     0.4693063692    -0.1986661371
    8      H       1.2742182675    -1.8459320248    -0.1102364264
    9      H      -1.2311938869    -1.3051776769    -1.1925597491
   10      H      -1.5121278306     1.2742606474     1.5493300633
   11      H      -1.2374517861     1.5100043176    -1.2088740211
   12      C      -0.4141490716    -0.5995102572     1.0479652850
   13      H      -0.6251741927    -1.3420256101     1.8180501774
 ----------------------------------------------------------------
 Nuclear Repulsion Energy =   278.8185654906 hartrees
 There are       25 alpha and       24 beta electrons
 Requested basis set is 6-31G(d)
 There are 40 shells and 117 basis functions

 Total QAlloc Memory Limit   8000 MB
 Mega-Array Size      1956 MB
 MEM_STATIC part      2000 MB

                       Distance Matrix (Angstroms)
             C (  1)   C (  2)   C (  3)   C (  4)   C (  5)   N (  6)
   C (  2)  1.502652
   C (  3)  2.312237  1.486294
   C (  4)  2.804981  2.500892  2.247313
   C (  5)  2.204707  2.270091  1.541890  1.535779
   N (  6)  1.285313  2.333400  2.394979  2.454764  1.488137
   H (  7)  1.088979  2.311274  3.338521  3.776114  3.256741  2.070086
   H (  8)  2.250604  1.095839  2.281163  3.488094  3.341620  3.313005
   H (  9)  3.366731  2.296681  1.080580  2.817731  2.366853  3.445264
   H ( 10)  3.685895  3.542267  3.303169  1.085636  2.373317  3.173765
   H ( 11)  3.136420  3.298453  2.272549  2.258993  1.089967  2.148243
   C ( 12)  2.574606  1.671038  1.997778  1.365011  2.227653  2.869201
   H ( 13)  3.490359  2.417473  2.869890  2.216936  3.291245  3.930392
             H (  7)   H (  8)   H (  9)   H ( 10)   H ( 11)   C ( 12)
   H (  8)  2.682042
   H (  9)  4.359878  2.782253
   H ( 10)  4.563012  4.500388  3.774968
   H ( 11)  4.125990  4.333336  2.815236  2.781854
   C ( 12)  3.454593  2.396995  2.487063  2.228888  3.197062
   H ( 13)  4.232390  2.753162  3.071220  2.775581  4.203716  1.090363

 
 A cutoff of  1.0D-14 yielded    813 shell pairs
 There are      7085 function pairs
 Smallest overlap matrix eigenvalue = 1.31E-03

 Scale SEOQF with 1.000000e-01/1.000000e-01/1.000000e-01

 Standard Electronic Orientation quadrupole field applied
 Nucleus-field energy     =     0.0000000014 hartrees
 Guess MOs from SCF MO coefficient file
 Reading MOs from coefficient file
 Reading MOs from coefficient file
 An unrestricted hybrid HF-DFT SCF calculation will be
 performed using Pulay DIIS extrapolation
 Exchange:     0.2000 Hartree-Fock + 0.0800 Slater + 0.7200 B88
 Correlation:  0.1900 VWN1RPA + 0.8100 LYP
 Using SG-1 standard quadrature grid
 SCF converges when DIIS error is below 1.0E-06
Using Q-Chem read-in guess as SCF_GUESS READ specified.

 -------------------------------------------------------
 OpenMP BLAS3 based DFT computing Module                
 -------------------------------------------------------
 ---------------------------------------
  Cycle       Energy         DIIS Error
 ---------------------------------------
    1    -286.8167257202      1.95E-09
    2    -286.8167257202      2.37E-09 Convergence criterion met
 ---------------------------------------
 <S^2> = 0.7820
 SCF time:  CPU 3.18 s  wall 3.67 s
 SCF   energy in the final basis set = -286.81672572
 Total energy in the final basis set = -286.81672572
 
 Direct TDDFT/TDA calculation will be performed
 Exchange:     0.2000 Hartree-Fock + 0.0800 Slater + 0.7200 B88
 Correlation:  0.1900 VWN1RPA + 0.8100 LYP
 Using SG-1 standard quadrature grid
 CIS energy converged when residual is below 10e- 6
 ---------------------------------------------------
 Iter    Rts Conv    Rts Left    Ttl Dev     Max Dev
 ---------------------------------------------------
   1         0           4      0.005383    0.001945
   2         0           4      0.001847    0.000666
   3         0           4      0.001557    0.000698
   4         0           4      0.000791    0.000342
   5         0           4      0.000363    0.000178
   6         0           4      0.000116    0.000065
   7         1           3      0.000031    0.000019
   8         2           2      0.000007    0.000004
   9         4           0      0.000002    0.000001    Roots Converged
 ---------------------------------------------------
 
 ---------------------------------------------------
         TDDFT/TDA Excitation Energies              
 ---------------------------------------------------

 Excited state   1: excitation energy (eV) =    2.2112
 Total energy for state  1:                  -286.73546705 au
    <S**2>     :  0.8215
    Trans. Mom.: -0.0894 X  -0.3030 Y  -0.2399 Z
    Strength   :     0.0085261629
    S(  1) --> V(  1) amplitude =  0.9669 alpha

 Excited state   2: excitation energy (eV) =    3.1129
 Total energy for state  2:                  -286.70232834 au
    <S**2>     :  0.8630
    Trans. Mom.: -0.2921 X  -0.0177 Y   0.2146 Z
    Strength   :     0.0100419515
    S(  1) --> V(  2) amplitude =  0.9615 alpha

 Excited state   3: excitation energy (eV) =    4.2919
 Total energy for state  3:                  -286.65900034 au
    <S**2>     :  2.4059
    Trans. Mom.:  0.0157 X   0.1241 Y   0.1486 Z
    Strength   :     0.0039662436
    D( 22) --> V(  2) amplitude = -0.1732 alpha
    D( 23) --> V(  1) amplitude = -0.2767 alpha
    D( 24) --> V(  1) amplitude =  0.4893 alpha
    D( 22) --> S(  1) amplitude = -0.1555 beta
    D( 22) --> V(  2) amplitude =  0.1759 beta
    D( 23) --> S(  1) amplitude = -0.1592 beta
    D( 24) --> S(  1) amplitude =  0.6139 beta
    D( 24) --> V(  1) amplitude = -0.3495 beta

 Excited state   4: excitation energy (eV) =    4.4094
 Total energy for state  4:                  -286.65468226 au
    <S**2>     :  2.5516
    Trans. Mom.:  0.0218 X   0.0126 Y  -0.0027 Z
    Strength   :     0.0000692744
    D( 23) --> V(  1) amplitude =  0.4701 alpha
    D( 23) --> V(  2) amplitude =  0.3074 alpha
    D( 24) --> V(  1) amplitude =  0.2291 alpha
    D( 24) --> V(  2) amplitude =  0.1521 alpha
    D( 22) --> S(  1) amplitude =  0.1662 beta
    D( 23) --> S(  1) amplitude =  0.5228 beta
    D( 23) --> V(  1) amplitude = -0.3261 beta
    D( 23) --> V(  2) amplitude = -0.2427 beta
    D( 24) --> S(  1) amplitude =  0.2129 beta
 
 ---------------------------------------------------

 Stability analysis will be performed
 ---------------------------------------------------
 Iter    Rts Conv    Rts Left    Ttl Dev     Max Dev
 ---------------------------------------------------
   1         0           8      0.005916    0.000896
   2         0           8      0.002591    0.000589
   3         0           8      0.001662    0.000519
   4         1           7      0.001210    0.000437
   5         2           6      0.000457    0.000212
   6         2           6      0.000144    0.000077
   7         3           5      0.000039    0.000022
   8         6           2      0.000010    0.000006
   9         7           1      0.000004    0.000002
  10         8           0      0.000003    0.000000    Roots Converged
 UKS-> UKS   stable,    smallest eigenvalue:      0.0677703
 UKS->CUKS   stable,    smallest eigenvalue:      0.0795965
 ---------------------------------------------------
  SETman timing summary (seconds)
  CPU time                80.35s
  System time              0.00s
  Wall time               80.95s
 
 --------------------------------------------------------------
 
                    Orbital Energies (a.u.)
 --------------------------------------------------------------
 
 Alpha MOs
 -- Occupied --
-14.319 -10.226 -10.220 -10.219 -10.219 -10.199 -10.196  -0.953
 -0.826  -0.738  -0.687  -0.590  -0.571  -0.530  -0.517  -0.467
 -0.419  -0.409  -0.396  -0.374  -0.340  -0.301  -0.270  -0.254
 -0.148
 -- Virtual --
 -0.018   0.013   0.104   0.127   0.139   0.147   0.156   0.162
  0.172   0.203   0.218   0.266   0.284   0.305   0.359   0.368
  0.490   0.494   0.533   0.541   0.570   0.584   0.606   0.613
  0.624   0.644   0.666   0.684   0.698   0.744   0.766   0.791
  0.803   0.825   0.839   0.851   0.866   0.881   0.888   0.925
  0.967   0.996   1.088   1.121   1.149   1.237   1.261   1.355
  1.400   1.411   1.489   1.524   1.578   1.583   1.632   1.677
  1.779   1.792   1.836   1.917   1.962   1.975   2.010   2.050
  2.055   2.147   2.160   2.190   2.255   2.281   2.322   2.372
  2.416   2.445   2.504   2.521   2.588   2.594   2.638   2.651
  2.716   2.782   2.846   2.891   2.949   3.931   4.147   4.269
  4.304   4.414   4.500   4.656
 
 Beta MOs
 -- Occupied --
-14.319 -10.228 -10.220 -10.220 -10.219 -10.189 -10.187  -0.949
 -0.820  -0.732  -0.677  -0.585  -0.561  -0.528  -0.511  -0.460
 -0.414  -0.405  -0.393  -0.372  -0.332  -0.285  -0.264  -0.249
 -- Virtual --
 -0.031  -0.002   0.021   0.106   0.128   0.145   0.154   0.158
  0.165   0.174   0.208   0.223   0.273   0.289   0.309   0.363
  0.372   0.492   0.516   0.536   0.545   0.575   0.593   0.611
  0.620   0.631   0.653   0.677   0.689   0.706   0.754   0.770
  0.792   0.807   0.826   0.843   0.855   0.868   0.883   0.892
  0.927   0.971   1.002   1.096   1.124   1.158   1.239   1.266
  1.363   1.402   1.417   1.496   1.532   1.588   1.590   1.636
  1.682   1.784   1.798   1.840   1.935   1.969   1.979   2.019
  2.055   2.070   2.152   2.168   2.207   2.260   2.297   2.331
  2.381   2.425   2.460   2.508   2.528   2.592   2.598   2.646
  2.656   2.722   2.788   2.850   2.892   2.950   3.932   4.148
  4.277   4.325   4.416   4.507   4.659
 --------------------------------------------------------------
 
          Ground-State Mulliken Net Atomic Charges

     Atom                 Charge (a.u.)    Spin (a.u.)
  --------------------------------------------------------
      1 C                     0.102104       0.034291
      2 C                    -0.211126       0.004013
      3 C                    -0.128089       0.804985
      4 C                    -0.071916       0.437715
      5 C                    -0.096552      -0.060297
      6 N                    -0.338097      -0.003554
      7 H                     0.147114      -0.000748
      8 H                     0.141455       0.004617
      9 H                     0.150954      -0.035054
     10 H                     0.150657      -0.013086
     11 H                     0.142421       0.009082
     12 C                    -0.138744      -0.198116
     13 H                     0.149819       0.016154
  --------------------------------------------------------
  Sum of atomic charges =    -0.000000
  Sum of spin   charges =     1.000000

 -----------------------------------------------------------------
                    Cartesian Multipole Moments
 -----------------------------------------------------------------
    Charge (ESU x 10^10)
                -0.0000
    Dipole Moment (Debye)
         X      -0.6698      Y      -2.2287      Z       1.1278
       Tot       2.5861
    Quadrupole Moments (Debye-Ang)
        XX     -37.8156     XY      -3.3080     YY     -42.2402
        XZ       0.4856     YZ       0.6943     ZZ     -41.2453
    Octopole Moments (Debye-Ang^2)
       XXX      -0.9119    XXY      -6.3452    XYY     -10.1572
       YYY     -28.5964    XXZ       2.6763    XYZ       1.0889
       YYZ       7.3877    XZZ      -8.0622    YZZ      -6.3254
       ZZZ      14.8484
    Hexadecapole Moments (Debye-Ang^3)
      XXXX    -245.8729   XXXY      -3.7739   XXYY     -82.3715
      XYYY     -18.5265   YYYY    -252.1266   XXXZ      27.8752
      XXYZ       9.3366   XYYZ      11.8516   YYYZ      21.5026
      XXZZ     -73.8794   XYZZ      -3.7918   YYZZ     -68.7665
      XZZZ      24.7934   YZZZ      12.8192   ZZZZ    -191.6081
 -----------------------------------------------------------------
Archival summary:
1\1\c8-66\SP\ProcedureUnspecified\6-31G*\166(2)\hpark21\ThuMar321:52:202022ThuMar321:52:202022\0\\#,ProcedureUnspecified,6-31G*,\\0,2\N\C,1,1.28531\H,2,1.08898,1,121.133\C,1,1.48814,2,105.063,3,-177.762,0\H,4,1.08997,1,111.945,2,-156.64,0\C,2,1.50265,1,113.411,3,179.162,0\H,6,1.09584,2,119.194,1,164.827,0\C,6,1.48629,2,101.354,1,25.7508,0\H,8,1.08058,6,126.22,2,172.219,0\C,4,1.53578,1,108.531,2,71.7794,0\H,10,1.08564,4,128.931,1,93.0694,0\C,10,1.36501,4,100.174,1,-80.505,0\H,12,1.09036,10,128.737,4,-162.193,0\\\@

 Total job time:  85.12s(wall), 83.69s(cpu) 
 Thu Mar  3 21:52:20 2022

        *************************************************************
        *                                                           *
        *  Thank you very much for using Q-Chem.  Have a nice day.  *
        *                                                           *
        *************************************************************


