
Running Job 1 of 1 qcts1.in
qchem qcts1.in_32049.0 ./qcts1.d/ 1
/home/leeping/opt/qchem/5.0.2-openmp/exe/qcprog.exe_s qcts1.in_32049.0 ./qcts1.d/
Check license passed

                  Welcome to Q-Chem
     A Quantum Leap Into The Future Of Chemistry


 Q-Chem 5.0, Q-Chem, Inc., Pleasanton, CA (2017)

 Yihan Shao,  Zhengting Gan,  E. Epifanovsky,  A. T. B. Gilbert,  M. Wormit,  
 J. Kussmann,  A. W. Lange,  A. Behn,  Jia Deng,  Xintian Feng,  D. Ghosh,  
 M. Goldey,  P. R. Horn,  L. D. Jacobson,  I. Kaliman,  T. Kus,  A. Landau,  
 Jie Liu,  E. I. Proynov,  R. M. Richard,  R. P. Steele,  E. J. Sundstrom,  
 H. L. Woodcock III,  P. M. Zimmerman,  D. Zuev,  B. Albrecht,  E. Alguire,  
 S. A. Baeppler,  D. Barton,  Z. Benda,  Y. A. Bernard,  E. J. Berquist,  
 K. B. Bravaya,  H. Burton,  D. Casanova,  Chun-Min Chang,  Yunqing Chen,  
 A. Chien,  K. D. Closser,  M. P. Coons,  S. Dasgupta,  A. L. Dempwolff,  
 M. Diedenhofen,  Hainam Do,  R. G. Edgar,  Po-Tung Fang,  S. Fatehi,  
 Qingguo Feng,  J. Fosso-Tande,  Qinghui Ge,  A. Ghysels,  G. Gidofalvi,  
 J. Gomes,  J. Gonthier,  A. Gunina,  M. W. D. Hanson-Heine,  
 P. H. P. Harbach,  A. W. Hauser,  J. E. Herr,  E. G. Hohenstein,  
 Z. C. Holden,  Kerwin Hui,  T.-C. Jagau,  Hyunjun Ji,  B. Kaduk,  
 K. Khistyaev,  Jaehoon Kim,  P. Klunzinger,  K. Koh,  D. Kosenkov,  
 L. Koulias,  T. Kowalczyk,  C. M. Krauter,  A. Kunitsa,  Ka Un Lao,  
 A. Laurent,  K. V. Lawler,  Joonho Lee,  D. Lefrancois,  S. Lehtola,  
 D. S. Levine,  Yi-Pei Li,  You-Sheng Lin,  Fenglai Liu,  E. Livshits,  
 A. Luenser,  P. Manohar,  E. Mansoor,  S. F. Manzer,  Shan-Ping Mao,  
 Yuezhi Mao,  N. Mardirossian,  A. V. Marenich,  T. Markovich,  
 L. A. Martinez-Martinez,  S. A. Maurer,  N. J. Mayhall,  S. C. McKenzie,  
 J.-M. Mewes,  A. F. Morrison,  J. W. Mullinax,  K. Nanda,  
 T. S. Nguyen-Beck,  R. Olivares-Amaya,  J. A. Parkhill,  T. M. Perrine,  
 F. Plasser,  S. Prager,  A. Prociuk,  E. Ramos,  D. R. Rehn,  F. Rob,  
 M. Schneider,  N. Sergueev,  S. M. Sharada,  S. Sharma,  D. W. Small,  
 T. Stauch,  T. Stein,  Yu-Chuan Su,  A. J. W. Thom,  A. Tkatchenko,  
 T. Tsuchimochi,  L. Vogt,  O. Vydrov,  M. A. Watson,  J. Wenzel,  
 M. de Wergifosse,  T. A. Wesolowski,  A. White,  J. Witte,  A. Yamada,  
 Jun Yang,  K. Yao,  S. Yeganeh,  S. R. Yost,  Zhi-Qiang You,  A. Zech,  
 Igor Ying Zhang,  Xing Zhang,  Yan Zhao,  Ying Zhu,  B. R. Brooks,  
 G. K. L. Chan,  C. J. Cramer,  M. S. Gordon,  W. J. Hehre,  A. Klamt,  
 M. W. Schmidt,  C. D. Sherrill,  D. G. Truhlar,  A. Aspuru-Guzik,  R. Baer,  
 A. T. Bell,  N. A. Besley,  Jeng-Da Chai,  R. A. DiStasio Jr.,  A. Dreuw,  
 B. D. Dunietz,  T. R. Furlani,  Chao-Ping Hsu,  Yousung Jung,  Jing Kong,  
 D. S. Lambrecht,  WanZhen Liang,  C. Ochsenfeld,  V. A. Rassolov,  
 L. V. Slipchenko,  J. E. Subotnik,  T. Van Voorhis,  J. M. Herbert,  
 A. I. Krylov,  P. M. W. Gill,  M. Head-Gordon

 Contributors to earlier versions of Q-Chem not listed above: 
 R. D. Adamson,  B. Austin,  J. Baker,  G. J. O. Beran,  K. Brandhorst,  
 S. T. Brown,  E. F. C. Byrd,  A. K. Chakraborty,  C.-L. Cheng,  
 Siu Hung Chien,  D. M. Chipman,  D. L. Crittenden,  H. Dachsel,  
 R. J. Doerksen,  A. D. Dutoi,  L. Fusti-Molnar,  W. A. Goddard III,  
 A. Golubeva-Zadorozhnaya,  S. R. Gwaltney,  G. Hawkins,  A. Heyden,  
 S. Hirata,  G. Kedziora,  F. J. Keil,  C. Kelley,  Jihan Kim,  R. A. King,  
 R. Z. Khaliullin,  P. P. Korambath,  W. Kurlancheek,  A. M. Lee,  M. S. Lee,  
 S. V. Levchenko,  Ching Yeh Lin,  D. Liotard,  R. C. Lochan,  I. Lotan,  
 P. E. Maslen,  N. Nair,  D. P. O'Neill,  D. Neuhauser,  E. Neuscamman,  
 C. M. Oana,  R. Olson,  B. Peters,  R. Peverati,  P. A. Pieniazek,  
 Y. M. Rhee,  J. Ritchie,  M. A. Rohrdanz,  E. Rosta,  N. J. Russ,  
 H. F. Schaefer III,  N. E. Schultz,  N. Shenvi,  A. C. Simmonett,  A. Sodt,  
 D. Stuck,  K. S. Thanthiriwatte,  V. Vanovschi,  Tao Wang,  A. Warshel,  
 C. F. Williams,  Q. Wu,  X. Xu,  W. Zhang

 Please cite Q-Chem as follows:
 Y. Shao et al., Mol. Phys. 113, 184-215 (2015)
 DOI: 10.1080/00268976.2014.952696

 Q-Chem 5.0.2 for Intel X86 EM64T Linux

 Parts of Q-Chem use Armadillo 5.200.1 (Boston Tea Smuggler).
 http://arma.sourceforge.net/

 Q-Chem begins on Thu Mar  3 21:52:26 2022  

Host: 
0

     Scratch files written to ./qcts1.d//
 Dec517 15110_ 26548  26544 5633   
Processing $rem in /home/leeping/opt/qchem/5.0.2-openmp/config/preferences.
 MEM_STATIC 2000
 MEM_TOTAL  8000
 SYMMETRY   OFF
 SYM_IGNORE TRUE 

Checking the input file for inconsistencies... 	...done.

--------------------------------------------------------------
User input:
--------------------------------------------------------------
$molecule
0 2
C        1.5451528657    0.3797937727   -0.3050659797
C        0.7522862274   -0.8823811146   -0.1146952840
C       -0.4455080314   -0.6042477319   -0.9495608666
C       -0.9984135178    0.6186366485    0.8530114589
C       -0.5791482387    0.8913142417   -0.5990489747
N        0.8197136826    1.3989916924   -0.6000288805
H        2.6252187558    0.4693063692   -0.1986661371
H        1.2742182675   -1.8459320248   -0.1102364264
H       -1.2311938869   -1.3051776769   -1.1925597491
H       -1.5121278306    1.2742606474    1.5493300633
H       -1.2374517861    1.5100043176   -1.2088740211
C       -0.4141490716   -0.5995102572    1.0479652850
H       -0.6251741927   -1.3420256101    1.8180501774
$end

$rem
method                b3lyp
basis                 6-31g(d)
unrestricted          true
symmetry              off
sym_ignore            true
incdft                false
incfock               0
scf_convergence       8
thresh                14
jobtype               freq
scf_guess             read
scf_algorithm         diis
max_scf_cycles        100
$end

--------------------------------------------------------------
 ----------------------------------------------------------------
             Standard Nuclear Orientation (Angstroms)
    I     Atom           X                Y                Z
 ----------------------------------------------------------------
    1      C       1.5451528657     0.3797937727    -0.3050659797
    2      C       0.7522862274    -0.8823811146    -0.1146952840
    3      C      -0.4455080314    -0.6042477319    -0.9495608666
    4      C      -0.9984135178     0.6186366485     0.8530114589
    5      C      -0.5791482387     0.8913142417    -0.5990489747
    6      N       0.8197136826     1.3989916924    -0.6000288805
    7      H       2.6252187558     0.4693063692    -0.1986661371
    8      H       1.2742182675    -1.8459320248    -0.1102364264
    9      H      -1.2311938869    -1.3051776769    -1.1925597491
   10      H      -1.5121278306     1.2742606474     1.5493300633
   11      H      -1.2374517861     1.5100043176    -1.2088740211
   12      C      -0.4141490716    -0.5995102572     1.0479652850
   13      H      -0.6251741927    -1.3420256101     1.8180501774
 ----------------------------------------------------------------
 Nuclear Repulsion Energy =   278.8185654906 hartrees
 There are       25 alpha and       24 beta electrons
 Requested basis set is 6-31G(d)
 There are 40 shells and 117 basis functions

 Total QAlloc Memory Limit   8000 MB
 Mega-Array Size      1956 MB
 MEM_STATIC part      2000 MB

                       Distance Matrix (Angstroms)
             C (  1)   C (  2)   C (  3)   C (  4)   C (  5)   N (  6)
   C (  2)  1.502652
   C (  3)  2.312237  1.486294
   C (  4)  2.804981  2.500892  2.247313
   C (  5)  2.204707  2.270091  1.541890  1.535779
   N (  6)  1.285313  2.333400  2.394979  2.454764  1.488137
   H (  7)  1.088979  2.311274  3.338521  3.776114  3.256741  2.070086
   H (  8)  2.250604  1.095839  2.281163  3.488094  3.341620  3.313005
   H (  9)  3.366731  2.296681  1.080580  2.817731  2.366853  3.445264
   H ( 10)  3.685895  3.542267  3.303169  1.085636  2.373317  3.173765
   H ( 11)  3.136420  3.298453  2.272549  2.258993  1.089967  2.148243
   C ( 12)  2.574606  1.671038  1.997778  1.365011  2.227653  2.869201
   H ( 13)  3.490359  2.417473  2.869890  2.216936  3.291245  3.930392
             H (  7)   H (  8)   H (  9)   H ( 10)   H ( 11)   C ( 12)
   H (  8)  2.682042
   H (  9)  4.359878  2.782253
   H ( 10)  4.563012  4.500388  3.774968
   H ( 11)  4.125990  4.333336  2.815236  2.781854
   C ( 12)  3.454593  2.396995  2.487063  2.228888  3.197062
   H ( 13)  4.232390  2.753162  3.071220  2.775581  4.203716  1.090363

 
 A cutoff of  1.0D-14 yielded    813 shell pairs
 There are      7085 function pairs
 Smallest overlap matrix eigenvalue = 1.31E-03
 Guess MOs from SCF MO coefficient file
 Reading MOs from coefficient file
 Reading MOs from coefficient file
 An unrestricted hybrid HF-DFT SCF calculation will be
 performed using Pulay DIIS extrapolation
 Exchange:     0.2000 Hartree-Fock + 0.0800 Slater + 0.7200 B88
 Correlation:  0.1900 VWN1RPA + 0.8100 LYP
 Using SG-1 standard quadrature grid
 SCF converges when DIIS error is below 1.0E-08
Using Q-Chem read-in guess as SCF_GUESS READ specified.

 -------------------------------------------------------
 OpenMP BLAS3 based DFT computing Module                
 -------------------------------------------------------
 ---------------------------------------
  Cycle       Energy         DIIS Error
 ---------------------------------------
    1    -286.8167257202      7.01E-10
    2    -286.8167257202      9.89E-10 Convergence criterion met
 ---------------------------------------
 <S^2> = 0.7820
 SCF time:  CPU 3.27 s  wall 3.42 s
 SCF   energy in the final basis set = -286.81672572
 Total energy in the final basis set = -286.81672572
 
 --------------------------------------------------------------
 
                    Orbital Energies (a.u.)
 --------------------------------------------------------------
 
 Alpha MOs
 -- Occupied --
-14.319 -10.226 -10.220 -10.219 -10.219 -10.199 -10.196  -0.953
 -0.826  -0.738  -0.687  -0.590  -0.571  -0.530  -0.517  -0.467
 -0.419  -0.409  -0.396  -0.374  -0.340  -0.301  -0.270  -0.254
 -0.148
 -- Virtual --
 -0.018   0.013   0.104   0.127   0.139   0.147   0.156   0.162
  0.172   0.203   0.218   0.266   0.284   0.305   0.359   0.368
  0.490   0.494   0.533   0.541   0.570   0.584   0.606   0.613
  0.624   0.644   0.666   0.684   0.698   0.744   0.766   0.791
  0.803   0.825   0.839   0.851   0.866   0.881   0.888   0.925
  0.967   0.996   1.088   1.121   1.149   1.237   1.261   1.355
  1.400   1.411   1.489   1.524   1.578   1.583   1.632   1.677
  1.779   1.792   1.836   1.917   1.962   1.975   2.010   2.050
  2.055   2.147   2.160   2.190   2.255   2.281   2.322   2.372
  2.416   2.445   2.504   2.521   2.588   2.594   2.638   2.651
  2.716   2.782   2.846   2.891   2.949   3.931   4.147   4.269
  4.304   4.414   4.500   4.656
 
 Beta MOs
 -- Occupied --
-14.319 -10.228 -10.220 -10.220 -10.219 -10.189 -10.187  -0.949
 -0.820  -0.732  -0.677  -0.585  -0.561  -0.528  -0.511  -0.460
 -0.414  -0.405  -0.393  -0.372  -0.332  -0.285  -0.264  -0.249
 -- Virtual --
 -0.031  -0.002   0.021   0.106   0.128   0.145   0.154   0.158
  0.165   0.174   0.208   0.223   0.273   0.289   0.309   0.363
  0.372   0.492   0.516   0.536   0.545   0.575   0.593   0.611
  0.620   0.631   0.653   0.677   0.689   0.706   0.754   0.770
  0.792   0.807   0.826   0.843   0.855   0.868   0.883   0.892
  0.927   0.971   1.002   1.096   1.124   1.158   1.239   1.266
  1.363   1.402   1.417   1.496   1.532   1.588   1.590   1.636
  1.682   1.784   1.798   1.840   1.935   1.969   1.979   2.019
  2.055   2.070   2.152   2.168   2.207   2.260   2.297   2.331
  2.381   2.425   2.460   2.508   2.528   2.592   2.598   2.646
  2.656   2.722   2.788   2.850   2.892   2.950   3.932   4.148
  4.277   4.325   4.416   4.507   4.659
 --------------------------------------------------------------
 
          Ground-State Mulliken Net Atomic Charges

     Atom                 Charge (a.u.)    Spin (a.u.)
  --------------------------------------------------------
      1 C                     0.102104       0.034289
      2 C                    -0.211126       0.004013
      3 C                    -0.128089       0.804985
      4 C                    -0.071916       0.437714
      5 C                    -0.096552      -0.060296
      6 N                    -0.338097      -0.003553
      7 H                     0.147114      -0.000748
      8 H                     0.141455       0.004617
      9 H                     0.150954      -0.035054
     10 H                     0.150657      -0.013086
     11 H                     0.142421       0.009082
     12 C                    -0.138743      -0.198115
     13 H                     0.149819       0.016153
  --------------------------------------------------------
  Sum of atomic charges =    -0.000000
  Sum of spin   charges =     1.000000

 -----------------------------------------------------------------
                    Cartesian Multipole Moments
 -----------------------------------------------------------------
    Charge (ESU x 10^10)
                -0.0000
    Dipole Moment (Debye)
         X      -0.6698      Y      -2.2287      Z       1.1278
       Tot       2.5861
    Quadrupole Moments (Debye-Ang)
        XX     -37.8156     XY      -3.3080     YY     -42.2402
        XZ       0.4856     YZ       0.6943     ZZ     -41.2453
    Octopole Moments (Debye-Ang^2)
       XXX      -0.9119    XXY      -6.3452    XYY     -10.1572
       YYY     -28.5964    XXZ       2.6763    XYZ       1.0889
       YYZ       7.3877    XZZ      -8.0622    YZZ      -6.3254
       ZZZ      14.8484
    Hexadecapole Moments (Debye-Ang^3)
      XXXX    -245.8729   XXXY      -3.7739   XXYY     -82.3715
      XYYY     -18.5265   YYYY    -252.1266   XXXZ      27.8752
      XXYZ       9.3366   XYYZ      11.8516   YYYZ      21.5026
      XXZZ     -73.8794   XYZZ      -3.7918   YYZZ     -68.7665
      XZZZ      24.7934   YZZZ      12.8192   ZZZZ    -191.6081
 -----------------------------------------------------------------
 Calculating MO derivatives via CPSCF
   1         3          39      0.267465    0.058753
   2         3          39      0.029888    0.006175
   3         3          39      0.003744    0.000681
   4         3          39      0.000475    0.000081
   5        31          11      0.000032    0.000008
   6        42           0      0.000000    0.000000    Roots Converged
 Time for AOints: 5.7 s (CPU) 5.7 s (wall)
 ------------------------------------------------------------------------------
                     AOints        : Timing summary (seconds)
 ------------------------------------------------------------------------------
     job step          cpu (% of tot)      sys (% of tot)     wall (% of tot)
 ------------------------------------------------------------------------------
  cpscf_lag         0.5513E+02 (29.0)   0.3300E-04 (45.8)   0.5529E+02 (29.1)
  iterzp            0.1289E+03 (67.9)   0.3800E-04 (52.8)   0.1290E+03 (67.8)
  make_fx           0.0000E+00 ( 0.0)   0.0000E+00 ( 0.0)   0.0000E+00 ( 0.0)
  AOints            0.5714E+01 ( 3.0)   0.0000E+00 ( 0.0)   0.5728E+01 ( 3.0)
 ------------------------------------------------------------------------------
   Grand Totals     0.1899E+03          0.7200E-04          0.1902E+03
 ------------------------------------------------------------------------------
 Calculating analytic Hessian of the SCF energy
 Polarizability Matrix (a.u.)
            1           2           3
    1 -61.4869251   5.5843447   4.1141819
    2   5.5843447 -61.8821806   2.0345089
    3   4.1141819   2.0345089 -54.6437196
 
 Direct stationary perturbation theory relativistic correction:
 
 rels  =       0.069239972952
 relv  =      -0.340628313272
 rel2e =       0.158419306561
 E_rel =      -0.112969033758
 
 Hessian of the SCF Energy
            1           2           3           4           5           6
    1   0.8184301  -0.1086393   0.0971369  -0.1267166  -0.0498299   0.0126116
    2  -0.1086393   0.6026690  -0.1053489  -0.0223789  -0.1460365  -0.0041306
    3   0.0971369  -0.1053489   0.1948434   0.0034160   0.0105785  -0.0606549
    4  -0.1267166  -0.0223789   0.0034160   0.4192350  -0.1248287   0.0947079
    5  -0.0498299  -0.1460365   0.0105785  -0.1248287   0.6494493  -0.0437901
    6   0.0126116  -0.0041306  -0.0606549   0.0947079  -0.0437901   0.2049223
    7  -0.0362461  -0.0327797  -0.0210229  -0.1416564   0.0220249  -0.0931918
    8  -0.0120741  -0.0064957  -0.0196380   0.0380157  -0.0725163   0.0109919
    9  -0.0229757   0.0117910  -0.0009577  -0.1632220  -0.0053473  -0.0737512
   10  -0.0050164   0.0027276   0.0053781  -0.0005602   0.0184037   0.0063518
   11  -0.0040995  -0.0066875   0.0049584  -0.0123162  -0.0129908  -0.0122927
   12  -0.0006758   0.0076517  -0.0001622   0.0079295  -0.0129708   0.0131935
   13  -0.0659079   0.0240640  -0.0091178  -0.0245361   0.0217200   0.0045388
   14   0.0255147   0.0081774   0.0004973   0.0133806  -0.0387994   0.0035529
   15  -0.0090784  -0.0096139   0.0016743  -0.0043013   0.0148206  -0.0166618
   16  -0.2484652   0.2119617  -0.0712529   0.0325334   0.0163724  -0.0159817
   17   0.1774656  -0.3870576   0.0899771  -0.0056775  -0.0603209   0.0194198
   18  -0.0600524   0.0944194  -0.0830240  -0.0026591   0.0202725   0.0189030
   19  -0.3283803  -0.0332969  -0.0260316  -0.0036964   0.0030724  -0.0021132
   20  -0.0395129  -0.0593449   0.0023168  -0.0187871   0.0039353  -0.0019734
   21  -0.0275963   0.0032339  -0.0397989   0.0017684  -0.0004254   0.0074808
   22   0.0150828  -0.0134993  -0.0011824  -0.1117245   0.1105185  -0.0012053
   23   0.0156983  -0.0109000  -0.0007607   0.1087555  -0.2646132   0.0025075
   24  -0.0022127   0.0017703  -0.0026071  -0.0020883  -0.0014454  -0.0409295
   25  -0.0033052  -0.0002506  -0.0028448  -0.0082810  -0.0146140   0.0026277
   26   0.0009493  -0.0038526   0.0028377   0.0094033   0.0089203   0.0042868
   27   0.0020125  -0.0003601  -0.0003125  -0.0013015  -0.0064977  -0.0035112
   28  -0.0006237   0.0016679  -0.0002962  -0.0033317   0.0035452   0.0045692
   29  -0.0011940   0.0005615   0.0000242  -0.0028301  -0.0014126   0.0022909
   30   0.0000357   0.0002045  -0.0003961  -0.0030270   0.0033109   0.0007997
   31  -0.0061207  -0.0031482  -0.0008454   0.0000642  -0.0003539  -0.0009928
   32  -0.0033632  -0.0008981   0.0003767   0.0002783  -0.0062482  -0.0006931
   33   0.0007251   0.0002720   0.0007227   0.0010195  -0.0033429   0.0003055
   34  -0.0135509  -0.0286444   0.0253649  -0.0283310   0.0054014  -0.0197477
   35  -0.0010216   0.0126629   0.0155116   0.0104039  -0.0659673   0.0294701
   36   0.0097078   0.0058563  -0.0081476   0.0585585   0.0151195  -0.0401249
   37   0.0008201   0.0022160   0.0012981  -0.0029987  -0.0114318   0.0078256
   38   0.0001067  -0.0027978  -0.0013308   0.0065811   0.0066003  -0.0096402
   39   0.0003617  -0.0057456  -0.0011794   0.0091993   0.0097176  -0.0099712
            7           8           9          10          11          12
    1  -0.0362461  -0.0120741  -0.0229757  -0.0050164  -0.0040995  -0.0006758
    2  -0.0327797  -0.0064957   0.0117910   0.0027276  -0.0066875   0.0076517
    3  -0.0210229  -0.0196380  -0.0009577   0.0053781   0.0049584  -0.0001622
    4  -0.1416564   0.0380157  -0.1632220  -0.0005602  -0.0123162   0.0079295
    5   0.0220249  -0.0725163  -0.0053473   0.0184037  -0.0129908  -0.0129708
    6  -0.0931918   0.0109919  -0.0737512   0.0063518  -0.0122927   0.0131935
    7   0.4877390   0.1178481   0.2163007  -0.0081444   0.0330985   0.0143391
    8   0.1178481   0.4468331   0.1225472   0.0028256   0.0067607  -0.0283368
    9   0.2163007   0.1225472   0.0950020   0.0620611  -0.1250903  -0.0273057
   10  -0.0081444   0.0028256   0.0620611   0.2931281  -0.2436952  -0.1607985
   11   0.0330985   0.0067607  -0.1250903  -0.2436952   0.5720632   0.0632886
   12   0.0143391  -0.0283368  -0.0273057  -0.1607985   0.0632886   0.4412595
   13  -0.0733951   0.0134900  -0.0096538  -0.0683508   0.0245596   0.0043171
   14   0.0305319  -0.1392776  -0.0235951   0.0114319  -0.0696789   0.0130229
   15  -0.0075414  -0.0328573  -0.0586909   0.0167144   0.0130139  -0.1446798
   16  -0.0227228  -0.0301218   0.0096858  -0.0211077  -0.0193423   0.0300358
   17  -0.0200316  -0.0261425  -0.0006213  -0.0039899  -0.0008183   0.0045755
   18  -0.0103212  -0.0025566   0.0052189   0.0235573   0.0103991  -0.0038572
   19  -0.0003671  -0.0001799   0.0005509   0.0004194   0.0000478  -0.0003637
   20  -0.0020515  -0.0024899  -0.0014075  -0.0001900  -0.0005401   0.0003347
   21   0.0008231   0.0030062  -0.0054151  -0.0004548  -0.0012560  -0.0002961
   22  -0.0052028   0.0170069   0.0026612  -0.0005332   0.0001902   0.0019127
   23  -0.0010831   0.0020314   0.0004754   0.0000888   0.0000342   0.0001482
   24  -0.0027186   0.0203964   0.0030395   0.0034713  -0.0004547  -0.0044430
   25  -0.2108721  -0.1475896  -0.0788315   0.0032050  -0.0014751  -0.0005676
   26  -0.1480900  -0.1825172  -0.0515979  -0.0011541  -0.0005309   0.0019677
   27  -0.0619981  -0.0416433  -0.0127157  -0.0050805   0.0094480  -0.0001703
   28   0.0034619   0.0020632  -0.0166232  -0.0900332   0.0824466   0.1020105
   29   0.0033506   0.0003821  -0.0084564   0.1019336  -0.1633188  -0.1058404
   30   0.0026183  -0.0028574  -0.0117636   0.1097312  -0.1137447  -0.1674336
   31   0.0012415   0.0007990   0.0015723   0.0089317  -0.0078344   0.0059505
   32   0.0160459  -0.0084890   0.0144291  -0.0008777   0.0003930   0.0012353
   33   0.0083910  -0.0046958   0.0090488  -0.0176121   0.0188994  -0.0124903
   34   0.0058520  -0.0024933  -0.0093382  -0.1123416   0.1305725   0.0104456
   35  -0.0199864  -0.0150635   0.0552099   0.1245607  -0.3286891   0.0371891
   36  -0.0447078  -0.0203922   0.0631088  -0.0384327   0.1197765  -0.0967778
   37   0.0003125   0.0004103   0.0078124   0.0004034   0.0178474  -0.0145352
   38   0.0011225  -0.0030157   0.0116632  -0.0120650   0.0040032   0.0177342
   39  -0.0009704  -0.0039645   0.0151819  -0.0048866   0.0130545   0.0031629
           13          14          15          16          17          18
    1  -0.0659079   0.0255147  -0.0090784  -0.2484652   0.1774656  -0.0600524
    2   0.0240640   0.0081774  -0.0096139   0.2119617  -0.3870576   0.0944194
    3  -0.0091178   0.0004973   0.0016743  -0.0712529   0.0899771  -0.0830240
    4  -0.0245361   0.0133806  -0.0043013   0.0325334  -0.0056775  -0.0026591
    5   0.0217200  -0.0387994   0.0148206   0.0163724  -0.0603209   0.0202725
    6   0.0045388   0.0035529  -0.0166618  -0.0159817   0.0194198   0.0189030
    7  -0.0733951   0.0305319  -0.0075414  -0.0227228  -0.0200316  -0.0103212
    8   0.0134900  -0.1392776  -0.0328573  -0.0301218  -0.0261425  -0.0025566
    9  -0.0096538  -0.0235951  -0.0586909   0.0096858  -0.0006213   0.0052189
   10  -0.0683508   0.0114319   0.0167144  -0.0211077  -0.0039899   0.0235573
   11   0.0245596  -0.0696789   0.0130139  -0.0193423  -0.0008183   0.0103991
   12   0.0043171   0.0130229  -0.1446798   0.0300358   0.0045755  -0.0038572
   13   0.4700606  -0.1429386   0.1208182  -0.1194508  -0.0021411  -0.0087798
   14  -0.1429386   0.4929856  -0.1288819  -0.0422974  -0.0853215   0.0031256
   15   0.1208182  -0.1288819   0.4406421  -0.0183406   0.0034010  -0.0685563
   16  -0.1194508  -0.0422974  -0.0183406   0.4378087  -0.1692937   0.0770608
   17  -0.0021411  -0.0853215   0.0034010  -0.1692937   0.5608433  -0.1170853
   18  -0.0087798   0.0031256  -0.0685563   0.0770608  -0.1170853   0.1318667
   19  -0.0005111   0.0021101  -0.0030394  -0.0179907   0.0048156  -0.0026724
   20   0.0019069  -0.0038019   0.0040608   0.0333767   0.0041243   0.0016423
   21  -0.0019946   0.0020876   0.0119564  -0.0072095  -0.0013346  -0.0053508
   22  -0.0052468   0.0005847  -0.0028727  -0.0018427  -0.0059142   0.0023970
   23  -0.0016502  -0.0009197  -0.0000718  -0.0005842  -0.0056363   0.0019814
   24  -0.0036697   0.0022634  -0.0016562  -0.0005759   0.0010697   0.0016928
   25   0.0061538   0.0054542   0.0059035  -0.0009139   0.0005880   0.0000057
   26  -0.0164864  -0.0010253  -0.0026787  -0.0034347  -0.0026303  -0.0025893
   27  -0.0004228  -0.0007477  -0.0020196  -0.0007960   0.0008587   0.0006505
   28  -0.0004622   0.0021467  -0.0016145   0.0009979  -0.0004071   0.0001437
   29  -0.0062379   0.0066940   0.0033585   0.0009581   0.0002455   0.0005741
   30   0.0082719  -0.0131192  -0.0027037  -0.0006487  -0.0005151  -0.0006910
   31  -0.1420535   0.0924814  -0.0923439  -0.0222157   0.0168798  -0.0150191
   32   0.0979099  -0.1451693   0.0894159  -0.0095566   0.0098082  -0.0092431
   33  -0.0972241   0.0887090  -0.1374426   0.0012006  -0.0023271   0.0024133
   34   0.0210154  -0.0047914  -0.0068026  -0.0169393   0.0093127  -0.0034380
   35  -0.0196558  -0.0216967   0.0432043   0.0127315  -0.0090764  -0.0015079
   36  -0.0122274   0.0488895  -0.0221352   0.0000533   0.0004069  -0.0003112
   37   0.0026847   0.0063912   0.0024988   0.0003088  -0.0016068  -0.0002224
   38   0.0054597  -0.0021668   0.0028286  -0.0007697   0.0019825   0.0005678
   39   0.0051440   0.0041959   0.0002732  -0.0032311   0.0021745   0.0010454
           19          20          21          22          23          24
    1  -0.3283803  -0.0395129  -0.0275963   0.0150828   0.0156983  -0.0022127
    2  -0.0332969  -0.0593449   0.0032339  -0.0134993  -0.0109000   0.0017703
    3  -0.0260316   0.0023168  -0.0397989  -0.0011824  -0.0007607  -0.0026071
    4  -0.0036964  -0.0187871   0.0017684  -0.1117245   0.1087555  -0.0020883
    5   0.0030724   0.0039353  -0.0004254   0.1105185  -0.2646132  -0.0014454
    6  -0.0021132  -0.0019734   0.0074808  -0.0012053   0.0025075  -0.0409295
    7  -0.0003671  -0.0020515   0.0008231  -0.0052028  -0.0010831  -0.0027186
    8  -0.0001799  -0.0024899   0.0030062   0.0170069   0.0020314   0.0203964
    9   0.0005509  -0.0014075  -0.0054151   0.0026612   0.0004754   0.0030395
   10   0.0004194  -0.0001900  -0.0004548  -0.0005332   0.0000888   0.0034713
   11   0.0000478  -0.0005401  -0.0012560   0.0001902   0.0000342  -0.0004547
   12  -0.0003637   0.0003347  -0.0002961   0.0019127   0.0001482  -0.0044430
   13  -0.0005111   0.0019069  -0.0019946  -0.0052468  -0.0016502  -0.0036697
   14   0.0021101  -0.0038019   0.0020876   0.0005847  -0.0009197   0.0022634
   15  -0.0030394   0.0040608   0.0119564  -0.0028727  -0.0000718  -0.0016562
   16  -0.0179907   0.0333767  -0.0072095  -0.0018427  -0.0005842  -0.0005759
   17   0.0048156   0.0041243  -0.0013346  -0.0059142  -0.0056363   0.0010697
   18  -0.0026724   0.0016423  -0.0053508   0.0023970   0.0019814   0.0016928
   19   0.3520840   0.0244236   0.0332559  -0.0001395  -0.0007408   0.0000442
   20   0.0244236   0.0567015  -0.0046772   0.0008909   0.0001827  -0.0000912
   21   0.0332559  -0.0046772   0.0283427  -0.0000142  -0.0000042  -0.0003079
   22  -0.0001395   0.0008909  -0.0000142   0.1131388  -0.1196271   0.0015020
   23  -0.0007408   0.0001827  -0.0000042  -0.1196271   0.2782868  -0.0040913
   24   0.0000442  -0.0000912  -0.0003079   0.0015020  -0.0040913   0.0408995
   25  -0.0002386  -0.0012524  -0.0002334   0.0002815   0.0003331   0.0003979
   26   0.0002790   0.0007506  -0.0004354  -0.0004038  -0.0000016  -0.0008119
   27   0.0001215   0.0000065   0.0005772   0.0001681   0.0004403  -0.0000191
   28   0.0000060   0.0000907  -0.0002529  -0.0000721   0.0000038   0.0005874
   29   0.0000400   0.0001076  -0.0003358   0.0002390   0.0001875  -0.0006017
   30   0.0000699  -0.0000213   0.0002801  -0.0004085  -0.0000722   0.0008667
   31  -0.0010211   0.0014710   0.0004812   0.0003187   0.0002124  -0.0001618
   32  -0.0002864   0.0007926   0.0004594   0.0010236   0.0003027   0.0011220
   33   0.0003088  -0.0001052   0.0000156   0.0005807  -0.0000681   0.0007860
   34  -0.0000148  -0.0000559   0.0011239  -0.0042932  -0.0017994   0.0062631
   35  -0.0002960  -0.0006720  -0.0006856   0.0094291   0.0009894  -0.0200883
   36  -0.0002426  -0.0004745   0.0017686  -0.0035037  -0.0001219   0.0022402
   37  -0.0001497  -0.0003102   0.0003031   0.0002333   0.0003931  -0.0008389
   38   0.0000114   0.0002540   0.0003673  -0.0004384   0.0000559   0.0009628
   39   0.0001118   0.0003891   0.0007473  -0.0000347  -0.0003625   0.0004381
           25          26          27          28          29          30
    1  -0.0033052   0.0009493   0.0020125  -0.0006237  -0.0011940   0.0000357
    2  -0.0002506  -0.0038526  -0.0003601   0.0016679   0.0005615   0.0002045
    3  -0.0028448   0.0028377  -0.0003125  -0.0002962   0.0000242  -0.0003961
    4  -0.0082810   0.0094033  -0.0013015  -0.0033317  -0.0028301  -0.0030270
    5  -0.0146140   0.0089203  -0.0064977   0.0035452  -0.0014126   0.0033109
    6   0.0026277   0.0042868  -0.0035112   0.0045692   0.0022909   0.0007997
    7  -0.2108721  -0.1480900  -0.0619981   0.0034619   0.0033506   0.0026183
    8  -0.1475896  -0.1825172  -0.0416433   0.0020632   0.0003821  -0.0028574
    9  -0.0788315  -0.0515979  -0.0127157  -0.0166232  -0.0084564  -0.0117636
   10   0.0032050  -0.0011541  -0.0050805  -0.0900332   0.1019336   0.1097312
   11  -0.0014751  -0.0005309   0.0094480   0.0824466  -0.1633188  -0.1137447
   12  -0.0005676   0.0019677  -0.0001703   0.1020105  -0.1058404  -0.1674336
   13   0.0061538  -0.0164864  -0.0004228  -0.0004622  -0.0062379   0.0082719
   14   0.0054542  -0.0010253  -0.0007477   0.0021467   0.0066940  -0.0131192
   15   0.0059035  -0.0026787  -0.0020196  -0.0016145   0.0033585  -0.0027037
   16  -0.0009139  -0.0034347  -0.0007960   0.0009979   0.0009581  -0.0006487
   17   0.0005880  -0.0026303   0.0008587  -0.0004071   0.0002455  -0.0005151
   18   0.0000057  -0.0025893   0.0006505   0.0001437   0.0005741  -0.0006910
   19  -0.0002386   0.0002790   0.0001215   0.0000060   0.0000400   0.0000699
   20  -0.0012524   0.0007506   0.0000065   0.0000907   0.0001076  -0.0000213
   21  -0.0002334  -0.0004354   0.0005772  -0.0002529  -0.0003358   0.0002801
   22   0.0002815  -0.0004038   0.0001681  -0.0000721   0.0002390  -0.0004085
   23   0.0003331  -0.0000016   0.0004403   0.0000038   0.0001875  -0.0000722
   24   0.0003979  -0.0008119  -0.0000191   0.0005874  -0.0006017   0.0008667
   25   0.2155204   0.1563109   0.0695914  -0.0008864  -0.0004697  -0.0000027
   26   0.1563109   0.1798073   0.0492792   0.0006456   0.0004546  -0.0001411
   27   0.0695914   0.0492792   0.0324174   0.0020843   0.0008891   0.0004637
   28  -0.0008864   0.0006456   0.0020843   0.0968143  -0.1046732  -0.1080557
   29  -0.0004697   0.0004546   0.0008891  -0.1046732   0.1545415   0.1180446
   30  -0.0000027  -0.0001411   0.0004637  -0.1080557   0.1180446   0.1686854
   31  -0.0000824   0.0005398  -0.0000448   0.0001574   0.0005949  -0.0006654
   32  -0.0003896  -0.0000801  -0.0001574  -0.0001863  -0.0000060   0.0004442
   33  -0.0004174   0.0003431  -0.0001133   0.0003712  -0.0005968   0.0008176
   34  -0.0007930   0.0017815  -0.0044788  -0.0045714   0.0093526  -0.0076923
   35   0.0033928   0.0006837  -0.0112383   0.0124839   0.0013530   0.0089296
   36   0.0044496  -0.0002625  -0.0144783   0.0178195  -0.0095376   0.0112721
   37   0.0002120  -0.0003403   0.0001447  -0.0014566  -0.0010638  -0.0002267
   38  -0.0000380   0.0000213  -0.0002774   0.0001729   0.0002099  -0.0004627
   39  -0.0000786  -0.0001976  -0.0007689  -0.0007433   0.0001874  -0.0001974
           31          32          33          34          35          36
    1  -0.0061207  -0.0033632   0.0007251  -0.0135509  -0.0010216   0.0097078
    2  -0.0031482  -0.0008981   0.0002720  -0.0286444   0.0126629   0.0058563
    3  -0.0008454   0.0003767   0.0007227   0.0253649   0.0155116  -0.0081476
    4   0.0000642   0.0002783   0.0010195  -0.0283310   0.0104039   0.0585585
    5  -0.0003539  -0.0062482  -0.0033429   0.0054014  -0.0659673   0.0151195
    6  -0.0009928  -0.0006931   0.0003055  -0.0197477   0.0294701  -0.0401249
    7   0.0012415   0.0160459   0.0083910   0.0058520  -0.0199864  -0.0447078
    8   0.0007990  -0.0084890  -0.0046958  -0.0024933  -0.0150635  -0.0203922
    9   0.0015723   0.0144291   0.0090488  -0.0093382   0.0552099   0.0631088
   10   0.0089317  -0.0008777  -0.0176121  -0.1123416   0.1245607  -0.0384327
   11  -0.0078344   0.0003930   0.0188994   0.1305725  -0.3286891   0.1197765
   12   0.0059505   0.0012353  -0.0124903   0.0104456   0.0371891  -0.0967778
   13  -0.1420535   0.0979099  -0.0972241   0.0210154  -0.0196558  -0.0122274
   14   0.0924814  -0.1451693   0.0887090  -0.0047914  -0.0216967   0.0488895
   15  -0.0923439   0.0894159  -0.1374426  -0.0068026   0.0432043  -0.0221352
   16  -0.0222157  -0.0095566   0.0012006  -0.0169393   0.0127315   0.0000533
   17   0.0168798   0.0098082  -0.0023271   0.0093127  -0.0090764   0.0004069
   18  -0.0150191  -0.0092431   0.0024133  -0.0034380  -0.0015079  -0.0003112
   19  -0.0010211  -0.0002864   0.0003088  -0.0000148  -0.0002960  -0.0002426
   20   0.0014710   0.0007926  -0.0001052  -0.0000559  -0.0006720  -0.0004745
   21   0.0004812   0.0004594   0.0000156   0.0011239  -0.0006856   0.0017686
   22   0.0003187   0.0010236   0.0005807  -0.0042932   0.0094291  -0.0035037
   23   0.0002124   0.0003027  -0.0000681  -0.0017994   0.0009894  -0.0001219
   24  -0.0001618   0.0011220   0.0007860   0.0062631  -0.0200883   0.0022402
   25  -0.0000824  -0.0003896  -0.0004174  -0.0007930   0.0033928   0.0044496
   26   0.0005398  -0.0000801   0.0003431   0.0017815   0.0006837  -0.0002625
   27  -0.0000448  -0.0001574  -0.0001133  -0.0044788  -0.0112383  -0.0144783
   28   0.0001574  -0.0001863   0.0003712  -0.0045714   0.0124839   0.0178195
   29   0.0005949  -0.0000060  -0.0005968   0.0093526   0.0013530  -0.0095376
   30  -0.0006654   0.0004442   0.0008176  -0.0076923   0.0089296   0.0112721
   31   0.1623946  -0.1013666   0.0999380  -0.0016327   0.0007124   0.0023059
   32  -0.1013666   0.1492793  -0.0974114   0.0004895   0.0002473  -0.0002165
   33   0.0999380  -0.0974114   0.1425942   0.0030964  -0.0010909  -0.0073228
   34  -0.0016327   0.0004895   0.0030964   0.1998622  -0.0898805  -0.0390672
   35   0.0007124   0.0002473  -0.0010909  -0.0898805   0.6171401  -0.2905468
   36   0.0023059  -0.0002165  -0.0073228  -0.0390672  -0.2905468   0.3080931
   37   0.0000181   0.0002791  -0.0003778  -0.0442617  -0.0428738   0.0452868
   38  -0.0009876   0.0000676   0.0014147  -0.0292452  -0.1919114   0.1315033
   39  -0.0001747   0.0002387   0.0006652   0.0442710   0.1356432  -0.1971851
           37          38          39
    1   0.0008201   0.0001067   0.0003617
    2   0.0022160  -0.0027978  -0.0057456
    3   0.0012981  -0.0013308  -0.0011794
    4  -0.0029987   0.0065811   0.0091993
    5  -0.0114318   0.0066003   0.0097176
    6   0.0078256  -0.0096402  -0.0099712
    7   0.0003125   0.0011225  -0.0009704
    8   0.0004103  -0.0030157  -0.0039645
    9   0.0078124   0.0116632   0.0151819
   10   0.0004034  -0.0120650  -0.0048866
   11   0.0178474   0.0040032   0.0130545
   12  -0.0145352   0.0177342   0.0031629
   13   0.0026847   0.0054597   0.0051440
   14   0.0063912  -0.0021668   0.0041959
   15   0.0024988   0.0028286   0.0002732
   16   0.0003088  -0.0007697  -0.0032311
   17  -0.0016068   0.0019825   0.0021745
   18  -0.0002224   0.0005678   0.0010454
   19  -0.0001497   0.0000114   0.0001118
   20  -0.0003102   0.0002540   0.0003891
   21   0.0003031   0.0003673   0.0007473
   22   0.0002333  -0.0004384  -0.0000347
   23   0.0003931   0.0000559  -0.0003625
   24  -0.0008389   0.0009628   0.0004381
   25   0.0002120  -0.0000380  -0.0000786
   26  -0.0003403   0.0000213  -0.0001976
   27   0.0001447  -0.0002774  -0.0007689
   28  -0.0014566   0.0001729  -0.0007433
   29  -0.0010638   0.0002099   0.0001874
   30  -0.0002267  -0.0004627  -0.0001974
   31   0.0000181  -0.0009876  -0.0001747
   32   0.0002791   0.0000676   0.0002387
   33  -0.0003778   0.0014147   0.0006652
   34  -0.0442617  -0.0292452   0.0442710
   35  -0.0428738  -0.1919114   0.1356432
   36   0.0452868   0.1315033  -0.1971851
   37   0.0438740   0.0300896  -0.0489685
   38   0.0300896   0.1866969  -0.1553309
   39  -0.0489685  -0.1553309   0.1877879
 Gradient time:  CPU 254.45 s  wall 254.98 s
 **********************************************************************
 **                                                                  **
 **                       VIBRATIONAL ANALYSIS                       **
 **                       --------------------                       **
 **                                                                  **
 **        VIBRATIONAL FREQUENCIES (CM**-1) AND NORMAL MODES         **
 **     FORCE CONSTANTS (mDYN/ANGSTROM) AND REDUCED MASSES (AMU)     **
 **                  INFRARED INTENSITIES (KM/MOL)                   **
 **                                                                  **
 **********************************************************************
 

 Mode:                 1                      2                      3
 Frequency:      -737.98                 424.03                 444.50
 Force Cnst:      1.1425                 0.3872                 0.2682
 Red. Mass:       3.5604                 3.6547                 2.3036
 IR Active:          YES                    YES                    YES
 IR Intens:      101.073                  2.432                  1.464
 Raman Active:       YES                    YES                    YES
               X      Y      Z        X      Y      Z        X      Y      Z
 C          0.030  0.005 -0.008   -0.044 -0.034  0.085   -0.081  0.043  0.152
 C          0.136  0.012 -0.029    0.020 -0.066 -0.195   -0.093 -0.005  0.080
 C         -0.088 -0.074  0.334   -0.070 -0.092 -0.035    0.015  0.030 -0.075
 C         -0.043  0.118 -0.007    0.052  0.094 -0.082    0.180  0.023  0.047
 C         -0.008  0.024  0.011   -0.043 -0.069 -0.109   -0.037 -0.023 -0.035
 N         -0.012 -0.003  0.001   -0.094 -0.016  0.264   -0.034 -0.006 -0.121
 H          0.016  0.062  0.074   -0.086  0.058  0.409   -0.100  0.066  0.311
 H          0.093 -0.004 -0.018    0.003 -0.073 -0.155   -0.048  0.019  0.021
 H          0.175 -0.104 -0.355   -0.074 -0.114  0.045    0.220 -0.004 -0.620
 H          0.393  0.238  0.207    0.424  0.303  0.004    0.504  0.159  0.162
 H          0.016 -0.047 -0.090    0.027 -0.066 -0.183   -0.125 -0.039  0.046
 C         -0.055 -0.073 -0.249    0.142  0.152  0.003    0.011 -0.080 -0.027
 H         -0.191 -0.263 -0.460    0.345  0.288  0.184    0.077  0.018  0.085
 TransDip   0.014 -0.212 -0.242    0.033  0.006 -0.037    0.035  0.006 -0.016

 Mode:                 4                      5                      6
 Frequency:       484.38                 525.03                 610.86
 Force Cnst:      0.2633                 0.4322                 0.6947
 Red. Mass:       1.9051                 2.6611                 3.1597
 IR Active:          YES                    YES                    YES
 IR Intens:       12.815                 23.282                  2.838
 Raman Active:       YES                    YES                    YES
               X      Y      Z        X      Y      Z        X      Y      Z
 C         -0.038  0.023  0.109    0.014 -0.059 -0.027   -0.043 -0.007 -0.163
 C         -0.051  0.024  0.075   -0.081  0.022  0.125   -0.076  0.000  0.225
 C         -0.090 -0.011  0.021   -0.059  0.071  0.063    0.086 -0.081 -0.100
 C          0.057 -0.045 -0.064   -0.162 -0.100 -0.085    0.114  0.062 -0.047
 C          0.004  0.050 -0.038   -0.050  0.055 -0.007   -0.012 -0.016  0.026
 N          0.025  0.014 -0.043    0.055 -0.027  0.026   -0.066  0.064  0.185
 H         -0.049 -0.003  0.238    0.035 -0.151 -0.164    0.019 -0.117 -0.691
 H         -0.023  0.038  0.051   -0.159 -0.019  0.087   -0.046  0.016  0.350
 H         -0.390  0.047  0.784    0.203  0.042 -0.651    0.005 -0.082  0.122
 H         -0.055 -0.173 -0.029   -0.030 -0.159  0.076    0.315  0.158  0.009
 H          0.009  0.069 -0.022    0.064  0.102 -0.079    0.005 -0.017  0.004
 C          0.129 -0.047 -0.123    0.228  0.044 -0.050   -0.005 -0.026 -0.125
 H          0.027 -0.096 -0.195    0.440  0.180  0.141   -0.148 -0.030 -0.165
 TransDip  -0.010  0.009  0.114    0.076 -0.048 -0.126    0.023  0.042 -0.025

 Mode:                 7                      8                      9
 Frequency:       651.56                 727.72                 799.36
 Force Cnst:      0.3409                 1.8227                 1.4313
 Red. Mass:       1.3629                 5.8415                 3.8018
 IR Active:          YES                    YES                    YES
 IR Intens:       38.287                  5.169                  5.504
 Raman Active:       YES                    YES                    YES
               X      Y      Z        X      Y      Z        X      Y      Z
 C          0.021  0.016  0.003   -0.016  0.131 -0.089   -0.091 -0.042 -0.028
 C          0.012  0.003  0.002   -0.118 -0.010 -0.012    0.093 -0.132  0.061
 C          0.033  0.036 -0.016   -0.218 -0.140  0.163    0.097  0.250  0.147
 C         -0.124 -0.069 -0.032    0.126 -0.132 -0.174    0.085 -0.045 -0.182
 C          0.003 -0.000  0.001    0.140 -0.029 -0.113    0.028  0.084 -0.074
 N          0.031  0.015 -0.030    0.149  0.297  0.066   -0.179 -0.081  0.025
 H          0.034 -0.015 -0.095   -0.002 -0.060 -0.010   -0.105  0.175 -0.137
 H          0.019  0.006 -0.043    0.050  0.075 -0.181    0.030 -0.170 -0.395
 H         -0.101  0.055  0.342   -0.130 -0.023 -0.393   -0.044  0.460  0.046
 H          0.748  0.297  0.300    0.037  0.001 -0.368    0.091  0.021 -0.236
 H          0.030 -0.009 -0.039    0.085 -0.045 -0.066   -0.035  0.001 -0.101
 C         -0.057 -0.040  0.020   -0.085 -0.170  0.195    0.042 -0.060  0.113
 H          0.175  0.091  0.212   -0.086  0.086  0.446   -0.463 -0.007  0.034
 TransDip   0.179  0.046  0.073   -0.001 -0.023 -0.069   -0.011  0.007 -0.074

 Mode:                10                     11                     12
 Frequency:       850.92                 872.83                 887.45
 Force Cnst:      0.7798                 1.4281                 0.8789
 Red. Mass:       1.8280                 3.1817                 1.8942
 IR Active:          YES                    YES                    YES
 IR Intens:        8.864                  3.833                  4.583
 Raman Active:       YES                    YES                    YES
               X      Y      Z        X      Y      Z        X      Y      Z
 C          0.091  0.029  0.064    0.252  0.064 -0.106   -0.057 -0.034 -0.133
 C          0.057  0.036  0.011   -0.088  0.150  0.054    0.004 -0.049  0.046
 C         -0.062  0.041  0.020   -0.085  0.112 -0.010    0.050  0.023  0.032
 C          0.093  0.013 -0.046    0.015 -0.019  0.037   -0.003 -0.004  0.117
 C         -0.054 -0.016  0.030   -0.025 -0.170 -0.103    0.110  0.033 -0.093
 N         -0.028 -0.080  0.017   -0.035 -0.107  0.067   -0.043  0.034  0.018
 H          0.131  0.074 -0.358    0.182  0.395  0.391   -0.140  0.137  0.525
 H         -0.000  0.004 -0.061   -0.413 -0.018  0.056   -0.007 -0.052  0.207
 H         -0.072  0.045  0.042   -0.135  0.176 -0.004   -0.106  0.208  0.031
 H         -0.209 -0.080 -0.197    0.111  0.130 -0.030   -0.144 -0.235  0.229
 H         -0.015  0.068  0.074    0.023 -0.145 -0.127    0.095 -0.109 -0.224
 C         -0.122 -0.052 -0.098    0.008 -0.035  0.045   -0.069 -0.018 -0.074
 H          0.504  0.400  0.500   -0.201 -0.274 -0.238    0.479  0.148  0.230
 TransDip   0.014  0.093  0.018   -0.017  0.058 -0.016    0.008  0.013  0.067

 Mode:                13                     14                     15
 Frequency:       919.72                 922.88                 941.24
 Force Cnst:      1.1110                 1.1651                 1.2733
 Red. Mass:       2.2293                 2.3219                 2.4394
 IR Active:          YES                    YES                    YES
 IR Intens:       15.770                  7.822                  4.833
 Raman Active:       YES                    YES                    YES
               X      Y      Z        X      Y      Z        X      Y      Z
 C          0.026 -0.010 -0.067    0.047 -0.007 -0.113    0.017  0.116  0.047
 C          0.044  0.065  0.026    0.001 -0.111  0.032   -0.024 -0.147 -0.015
 C         -0.075 -0.107 -0.065    0.064  0.014  0.005   -0.048 -0.012 -0.031
 C          0.002 -0.056 -0.072    0.014  0.020 -0.106   -0.068  0.014 -0.022
 C          0.096  0.171  0.066   -0.175 -0.019  0.165    0.179 -0.102  0.154
 N         -0.097 -0.106 -0.004    0.084  0.070 -0.014   -0.066  0.017 -0.049
 H         -0.043  0.281  0.378   -0.043  0.160  0.705    0.029  0.263 -0.164
 H          0.149  0.123  0.252   -0.147 -0.195 -0.044   -0.039 -0.156  0.293
 H          0.037 -0.227 -0.117    0.056 -0.012  0.094   -0.432  0.502 -0.249
 H          0.172  0.094 -0.087   -0.014  0.090 -0.201   -0.019  0.211 -0.175
 H          0.155  0.534  0.371   -0.308 -0.051  0.279    0.089 -0.205  0.151
 C         -0.013 -0.008  0.044   -0.005  0.006 -0.047    0.048  0.058 -0.054
 H         -0.067  0.025  0.060   -0.068  0.200  0.126    0.059  0.015 -0.093
 TransDip   0.044  0.097  0.070   -0.046  0.010  0.076    0.066  0.021  0.010

 Mode:                16                     17                     18
 Frequency:       973.41                1022.97                1088.08
 Force Cnst:      1.0738                 1.0213                 0.9412
 Red. Mass:       1.9234                 1.6565                 1.3493
 IR Active:          YES                    YES                    YES
 IR Intens:        7.601                  5.619                  0.161
 Raman Active:       YES                    YES                    YES
               X      Y      Z        X      Y      Z        X      Y      Z
 C         -0.115 -0.104 -0.030    0.008 -0.032 -0.005    0.014  0.002  0.019
 C          0.014  0.171 -0.015    0.145 -0.029  0.030    0.028 -0.077 -0.011
 C          0.016  0.070  0.021   -0.098  0.024 -0.067    0.005  0.010 -0.002
 C          0.008 -0.008 -0.047    0.013 -0.003  0.008   -0.014  0.015  0.038
 C          0.054 -0.109  0.072   -0.115 -0.005 -0.049   -0.060  0.074 -0.075
 N          0.007 -0.012  0.006    0.052  0.014  0.014    0.012  0.027 -0.000
 H         -0.125 -0.378  0.206    0.014 -0.095  0.024    0.021  0.100 -0.114
 H          0.247  0.306  0.078    0.493  0.156  0.490   -0.186 -0.191  0.341
 H         -0.045  0.162 -0.005   -0.365  0.368 -0.210    0.036 -0.042  0.041
 H         -0.013  0.361 -0.419    0.062 -0.124  0.164   -0.082  0.405 -0.375
 H         -0.084 -0.164  0.173   -0.111 -0.008 -0.065   -0.079  0.167  0.029
 C         -0.011 -0.015 -0.002   -0.003  0.003  0.032   -0.001 -0.057  0.052
 H          0.334 -0.195 -0.092   -0.220  0.021 -0.004    0.455 -0.413 -0.170
 TransDip  -0.047 -0.053  0.052   -0.069 -0.017  0.027   -0.012 -0.004 -0.003

 Mode:                19                     20                     21
 Frequency:      1128.94                1210.29                1222.99
 Force Cnst:      1.0942                 1.2586                 1.5459
 Red. Mass:       1.4572                 1.4584                 1.7542
 IR Active:          YES                    YES                    YES
 IR Intens:        8.256                  5.844                  0.770
 Raman Active:       YES                    YES                    YES
               X      Y      Z        X      Y      Z        X      Y      Z
 C         -0.005 -0.010  0.022   -0.013 -0.022  0.011    0.043  0.006  0.012
 C         -0.032  0.039 -0.126    0.066 -0.008  0.052   -0.057  0.055 -0.017
 C          0.039  0.041  0.068   -0.025  0.012  0.006    0.117 -0.142  0.036
 C          0.057 -0.067 -0.062   -0.009 -0.026  0.005    0.024  0.033 -0.082
 C          0.010  0.005  0.013    0.053 -0.082 -0.108   -0.053  0.075  0.014
 N         -0.017  0.005 -0.003    0.001  0.041  0.006   -0.013 -0.031  0.000
 H          0.005 -0.076 -0.068   -0.007 -0.049 -0.053    0.055 -0.108  0.009
 H         -0.331 -0.097  0.799   -0.195 -0.150 -0.177   -0.102  0.034 -0.202
 H          0.154 -0.071  0.066   -0.009  0.003 -0.012   -0.409  0.537 -0.183
 H          0.104 -0.262  0.141    0.045 -0.141  0.153    0.048 -0.273  0.221
 H         -0.149 -0.123  0.059   -0.388  0.289  0.752   -0.162 -0.021  0.023
 C         -0.023  0.034  0.004   -0.032  0.084 -0.018   -0.039  0.020  0.060
 H         -0.109  0.077  0.019    0.063 -0.027 -0.114    0.327 -0.300 -0.160
 TransDip   0.011 -0.057  0.071   -0.057 -0.044  0.029   -0.027 -0.005  0.007

 Mode:                22                     23                     24
 Frequency:      1270.54                1277.49                1308.59
 Force Cnst:      1.3960                 1.2508                 1.7061
 Red. Mass:       1.4678                 1.3009                 1.6910
 IR Active:          YES                    YES                    YES
 IR Intens:        9.886                  4.364                 10.411
 Raman Active:       YES                    YES                    YES
               X      Y      Z        X      Y      Z        X      Y      Z
 C         -0.033 -0.033 -0.001   -0.046  0.036 -0.012    0.005  0.027 -0.011
 C          0.013 -0.028  0.034    0.038 -0.005 -0.001   -0.167 -0.061 -0.058
 C         -0.080  0.060 -0.038    0.012  0.021  0.010    0.079  0.028  0.079
 C          0.022  0.044 -0.100    0.020  0.029 -0.038   -0.011  0.020  0.006
 C          0.028 -0.018  0.060   -0.053 -0.112  0.032   -0.027 -0.053 -0.057
 N          0.040 -0.003  0.005   -0.006  0.021 -0.020    0.046 -0.045  0.019
 H         -0.067  0.485 -0.086   -0.040 -0.166  0.069   -0.010  0.372 -0.097
 H          0.141  0.033 -0.054   -0.171 -0.116  0.059    0.633  0.366  0.146
 H          0.186 -0.283  0.049   -0.004  0.048  0.002    0.079  0.056  0.080
 H          0.053 -0.324  0.264    0.009 -0.154  0.122   -0.033 -0.009  0.020
 H         -0.025 -0.265 -0.125    0.704  0.573 -0.071    0.026  0.353  0.304
 C         -0.051  0.039  0.053   -0.014  0.001  0.023    0.008 -0.004 -0.019
 H          0.359 -0.355 -0.229    0.092 -0.110 -0.058    0.021  0.015  0.004
 TransDip  -0.001 -0.077  0.065    0.006 -0.053  0.041    0.040  0.095 -0.002

 Mode:                25                     26                     27
 Frequency:      1341.17                1485.70                1638.11
 Force Cnst:      1.6626                 5.1262                11.6387
 Red. Mass:       1.5688                 3.9417                 7.3616
 IR Active:          YES                    YES                    YES
 IR Intens:       14.689                  6.508                 19.447
 Raman Active:       YES                    YES                    YES
               X      Y      Z        X      Y      Z        X      Y      Z
 C         -0.116 -0.079  0.011   -0.039  0.010 -0.009   -0.272  0.479 -0.131
 C          0.043  0.097 -0.017    0.026  0.051 -0.040    0.065 -0.036  0.010
 C          0.031 -0.055  0.006    0.005  0.006 -0.053   -0.019  0.007  0.004
 C          0.002 -0.032  0.036   -0.132  0.328 -0.083    0.013 -0.043  0.016
 C         -0.027 -0.016 -0.001    0.071 -0.035 -0.022    0.004  0.044 -0.024
 N          0.099 -0.010  0.010    0.007 -0.024  0.013    0.252 -0.361  0.109
 H         -0.180  0.773 -0.201   -0.047 -0.023  0.000   -0.249 -0.435  0.078
 H         -0.325 -0.082 -0.028   -0.221 -0.069  0.209   -0.182 -0.178  0.005
 H         -0.175  0.210 -0.076   -0.002 -0.025  0.062    0.038 -0.051 -0.011
 H          0.007  0.103 -0.089   -0.227 -0.165  0.395    0.036  0.020 -0.033
 H          0.084  0.064 -0.038   -0.258 -0.027  0.345   -0.273 -0.203  0.029
 C          0.014 -0.005 -0.017    0.133 -0.309  0.069   -0.036  0.047 -0.000
 H         -0.167  0.146  0.081   -0.105  0.043  0.441    0.049 -0.061 -0.086
 TransDip  -0.115  0.026 -0.033    0.065 -0.033 -0.038    0.002  0.132 -0.051

 Mode:                28                     29                     30
 Frequency:      3110.71                3153.05                3166.89
 Force Cnst:      6.2189                 6.3818                 6.4497
 Red. Mass:       1.0908                 1.0895                 1.0915
 IR Active:          YES                    YES                    YES
 IR Intens:       15.027                 28.653                 15.050
 Raman Active:       YES                    YES                    YES
               X      Y      Z        X      Y      Z        X      Y      Z
 C         -0.006  0.001 -0.001   -0.003 -0.001 -0.000    0.003 -0.000  0.001
 C          0.040 -0.077  0.002    0.001 -0.000 -0.000   -0.002  0.003  0.000
 C          0.001  0.002 -0.001    0.002  0.001  0.001   -0.000 -0.000 -0.000
 C         -0.000  0.000  0.000    0.003 -0.003 -0.003   -0.005  0.005  0.011
 C         -0.000  0.000  0.000   -0.051  0.050 -0.048   -0.004  0.004 -0.004
 N          0.000  0.000 -0.000   -0.000 -0.000  0.000   -0.000  0.000  0.000
 H          0.083  0.003  0.009    0.043  0.003  0.003   -0.036 -0.002 -0.004
 H         -0.461  0.877 -0.013    0.000  0.000  0.001    0.022 -0.036 -0.004
 H         -0.022 -0.022 -0.006   -0.021 -0.012 -0.006    0.002  0.003  0.000
 H          0.001 -0.002 -0.003   -0.030  0.041  0.038    0.091 -0.111 -0.121
 H         -0.001  0.002 -0.001    0.595 -0.568  0.552    0.049 -0.045  0.044
 C          0.000  0.004 -0.002   -0.001 -0.005  0.004    0.013  0.062 -0.059
 H         -0.005 -0.033  0.031    0.012  0.046 -0.048   -0.176 -0.670  0.684
 TransDip   0.054 -0.112  0.003   -0.110  0.101 -0.085    0.016  0.074 -0.098

 Mode:                31                     32                     33
 Frequency:      3185.84                3222.92                3270.51
 Force Cnst:      6.5412                 6.7212                 6.8814
 Red. Mass:       1.0939                 1.0982                 1.0919
 IR Active:          YES                    YES                    YES
 IR Intens:       20.578                  3.803                  5.094
 Raman Active:       YES                    YES                    YES
               X      Y      Z        X      Y      Z        X      Y      Z
 C         -0.087 -0.007 -0.008   -0.002 -0.000 -0.000    0.002 -0.000  0.001
 C         -0.002  0.008 -0.001   -0.001  0.001  0.000    0.003 -0.003  0.002
 C         -0.000 -0.001  0.000   -0.001 -0.001  0.001   -0.063 -0.055 -0.024
 C         -0.001  0.001  0.001    0.044 -0.055 -0.053   -0.001  0.001  0.001
 C          0.003 -0.002  0.002    0.002 -0.003  0.004   -0.002  0.003  0.000
 N          0.001 -0.002  0.000   -0.000 -0.000  0.000   -0.000  0.000 -0.000
 H          0.983  0.083  0.097    0.019  0.002  0.002   -0.011 -0.002 -0.002
 H          0.033 -0.076  0.001    0.003 -0.006 -0.000   -0.015  0.026 -0.004
 H          0.011  0.011  0.004    0.012  0.009  0.001    0.726  0.639  0.236
 H          0.014 -0.017 -0.018   -0.476  0.588  0.619    0.006 -0.006 -0.006
 H         -0.023  0.021 -0.020   -0.027  0.028 -0.030    0.014 -0.017  0.011
 C          0.001  0.002 -0.002    0.000  0.017 -0.013   -0.000 -0.000  0.001
 H         -0.007 -0.021  0.023   -0.033 -0.130  0.125    0.001  0.004 -0.006
 TransDip  -0.145 -0.009 -0.003    0.045 -0.007 -0.043   -0.051 -0.036 -0.037

 STANDARD THERMODYNAMIC QUANTITIES AT   298.15 K  AND     1.00 ATM

   This Molecule has  1 Imaginary Frequencies
   Zero point vibrational energy:       63.102 kcal/mol

   Atom    1 Element C  Has Mass   12.00000
   Atom    2 Element C  Has Mass   12.00000
   Atom    3 Element C  Has Mass   12.00000
   Atom    4 Element C  Has Mass   12.00000
   Atom    5 Element C  Has Mass   12.00000
   Atom    6 Element N  Has Mass   14.00307
   Atom    7 Element H  Has Mass    1.00783
   Atom    8 Element H  Has Mass    1.00783
   Atom    9 Element H  Has Mass    1.00783
   Atom   10 Element H  Has Mass    1.00783
   Atom   11 Element H  Has Mass    1.00783
   Atom   12 Element C  Has Mass   12.00000
   Atom   13 Element H  Has Mass    1.00783
   Molecular Mass:    92.050050 amu
   Principal axes and moments of inertia in amu*Bohr^2:
                             1           2           3
    Eigenvalues --      381.29065   467.76806   576.84051
          X               0.78973    -0.46006     0.40580
          Y               0.37252     0.88521     0.27860
          Z              -0.48739    -0.06885     0.87046
   Rotational Symmetry Number is   1
   The Molecule is an Asymmetric Top
   Translational Enthalpy:        0.889 kcal/mol
   Rotational Enthalpy:           0.889 kcal/mol
   Vibrational Enthalpy:         64.357 kcal/mol
   gas constant (RT):             0.592 kcal/mol
   Translational Entropy:        39.471  cal/mol.K
   Rotational Entropy:           26.134  cal/mol.K
   Vibrational Entropy:           5.634  cal/mol.K

   Total Enthalpy:               66.727 kcal/mol
   Total Entropy:                71.239  cal/mol.K
Archival summary:
1\1\c8-66\FREQ\ProcedureUnspecified\6-31G*\166(2)\hpark21\ThuMar321:56:452022ThuMar321:56:452022\0\\#,FREQ,ProcedureUnspecified,6-31G*,\\0,2\N\C,1,1.28531\H,2,1.08898,1,121.133\C,1,1.48814,2,105.063,3,-177.762,0\H,4,1.08997,1,111.945,2,-156.64,0\C,2,1.50265,1,113.411,3,179.162,0\H,6,1.09584,2,119.194,1,164.827,0\C,6,1.48629,2,101.354,1,25.7508,0\H,8,1.08058,6,126.22,2,172.219,0\C,4,1.53578,1,108.531,2,71.7794,0\H,10,1.08564,4,128.931,1,93.0694,0\C,10,1.36501,4,100.174,1,-80.505,0\H,12,1.09036,10,128.737,4,-162.193,0\\\@

 Total job time:  258.94s(wall), 257.90s(cpu) 
 Thu Mar  3 21:56:45 2022

        *************************************************************
        *                                                           *
        *  Thank you very much for using Q-Chem.  Have a nice day.  *
        *                                                           *
        *************************************************************


