
Running Job 1 of 1 qcts1.in
qchem qcts1.in_32132.0 ./qcts1.d/ 1
/home/leeping/opt/qchem/5.0.2-openmp/exe/qcprog.exe_s qcts1.in_32132.0 ./qcts1.d/
Check license passed

                  Welcome to Q-Chem
     A Quantum Leap Into The Future Of Chemistry


 Q-Chem 5.0, Q-Chem, Inc., Pleasanton, CA (2017)

 Yihan Shao,  Zhengting Gan,  E. Epifanovsky,  A. T. B. Gilbert,  M. Wormit,  
 J. Kussmann,  A. W. Lange,  A. Behn,  Jia Deng,  Xintian Feng,  D. Ghosh,  
 M. Goldey,  P. R. Horn,  L. D. Jacobson,  I. Kaliman,  T. Kus,  A. Landau,  
 Jie Liu,  E. I. Proynov,  R. M. Richard,  R. P. Steele,  E. J. Sundstrom,  
 H. L. Woodcock III,  P. M. Zimmerman,  D. Zuev,  B. Albrecht,  E. Alguire,  
 S. A. Baeppler,  D. Barton,  Z. Benda,  Y. A. Bernard,  E. J. Berquist,  
 K. B. Bravaya,  H. Burton,  D. Casanova,  Chun-Min Chang,  Yunqing Chen,  
 A. Chien,  K. D. Closser,  M. P. Coons,  S. Dasgupta,  A. L. Dempwolff,  
 M. Diedenhofen,  Hainam Do,  R. G. Edgar,  Po-Tung Fang,  S. Fatehi,  
 Qingguo Feng,  J. Fosso-Tande,  Qinghui Ge,  A. Ghysels,  G. Gidofalvi,  
 J. Gomes,  J. Gonthier,  A. Gunina,  M. W. D. Hanson-Heine,  
 P. H. P. Harbach,  A. W. Hauser,  J. E. Herr,  E. G. Hohenstein,  
 Z. C. Holden,  Kerwin Hui,  T.-C. Jagau,  Hyunjun Ji,  B. Kaduk,  
 K. Khistyaev,  Jaehoon Kim,  P. Klunzinger,  K. Koh,  D. Kosenkov,  
 L. Koulias,  T. Kowalczyk,  C. M. Krauter,  A. Kunitsa,  Ka Un Lao,  
 A. Laurent,  K. V. Lawler,  Joonho Lee,  D. Lefrancois,  S. Lehtola,  
 D. S. Levine,  Yi-Pei Li,  You-Sheng Lin,  Fenglai Liu,  E. Livshits,  
 A. Luenser,  P. Manohar,  E. Mansoor,  S. F. Manzer,  Shan-Ping Mao,  
 Yuezhi Mao,  N. Mardirossian,  A. V. Marenich,  T. Markovich,  
 L. A. Martinez-Martinez,  S. A. Maurer,  N. J. Mayhall,  S. C. McKenzie,  
 J.-M. Mewes,  A. F. Morrison,  J. W. Mullinax,  K. Nanda,  
 T. S. Nguyen-Beck,  R. Olivares-Amaya,  J. A. Parkhill,  T. M. Perrine,  
 F. Plasser,  S. Prager,  A. Prociuk,  E. Ramos,  D. R. Rehn,  F. Rob,  
 M. Schneider,  N. Sergueev,  S. M. Sharada,  S. Sharma,  D. W. Small,  
 T. Stauch,  T. Stein,  Yu-Chuan Su,  A. J. W. Thom,  A. Tkatchenko,  
 T. Tsuchimochi,  L. Vogt,  O. Vydrov,  M. A. Watson,  J. Wenzel,  
 M. de Wergifosse,  T. A. Wesolowski,  A. White,  J. Witte,  A. Yamada,  
 Jun Yang,  K. Yao,  S. Yeganeh,  S. R. Yost,  Zhi-Qiang You,  A. Zech,  
 Igor Ying Zhang,  Xing Zhang,  Yan Zhao,  Ying Zhu,  B. R. Brooks,  
 G. K. L. Chan,  C. J. Cramer,  M. S. Gordon,  W. J. Hehre,  A. Klamt,  
 M. W. Schmidt,  C. D. Sherrill,  D. G. Truhlar,  A. Aspuru-Guzik,  R. Baer,  
 A. T. Bell,  N. A. Besley,  Jeng-Da Chai,  R. A. DiStasio Jr.,  A. Dreuw,  
 B. D. Dunietz,  T. R. Furlani,  Chao-Ping Hsu,  Yousung Jung,  Jing Kong,  
 D. S. Lambrecht,  WanZhen Liang,  C. Ochsenfeld,  V. A. Rassolov,  
 L. V. Slipchenko,  J. E. Subotnik,  T. Van Voorhis,  J. M. Herbert,  
 A. I. Krylov,  P. M. W. Gill,  M. Head-Gordon

 Contributors to earlier versions of Q-Chem not listed above: 
 R. D. Adamson,  B. Austin,  J. Baker,  G. J. O. Beran,  K. Brandhorst,  
 S. T. Brown,  E. F. C. Byrd,  A. K. Chakraborty,  C.-L. Cheng,  
 Siu Hung Chien,  D. M. Chipman,  D. L. Crittenden,  H. Dachsel,  
 R. J. Doerksen,  A. D. Dutoi,  L. Fusti-Molnar,  W. A. Goddard III,  
 A. Golubeva-Zadorozhnaya,  S. R. Gwaltney,  G. Hawkins,  A. Heyden,  
 S. Hirata,  G. Kedziora,  F. J. Keil,  C. Kelley,  Jihan Kim,  R. A. King,  
 R. Z. Khaliullin,  P. P. Korambath,  W. Kurlancheek,  A. M. Lee,  M. S. Lee,  
 S. V. Levchenko,  Ching Yeh Lin,  D. Liotard,  R. C. Lochan,  I. Lotan,  
 P. E. Maslen,  N. Nair,  D. P. O'Neill,  D. Neuhauser,  E. Neuscamman,  
 C. M. Oana,  R. Olson,  B. Peters,  R. Peverati,  P. A. Pieniazek,  
 Y. M. Rhee,  J. Ritchie,  M. A. Rohrdanz,  E. Rosta,  N. J. Russ,  
 H. F. Schaefer III,  N. E. Schultz,  N. Shenvi,  A. C. Simmonett,  A. Sodt,  
 D. Stuck,  K. S. Thanthiriwatte,  V. Vanovschi,  Tao Wang,  A. Warshel,  
 C. F. Williams,  Q. Wu,  X. Xu,  W. Zhang

 Please cite Q-Chem as follows:
 Y. Shao et al., Mol. Phys. 113, 184-215 (2015)
 DOI: 10.1080/00268976.2014.952696

 Q-Chem 5.0.2 for Intel X86 EM64T Linux

 Parts of Q-Chem use Armadillo 5.200.1 (Boston Tea Smuggler).
 http://arma.sourceforge.net/

 Q-Chem begins on Thu Mar  3 21:56:52 2022  

Host: 
0

     Scratch files written to ./qcts1.d//
 Dec517 15110_ 26548  26544 5633   
Processing $rem in /home/leeping/opt/qchem/5.0.2-openmp/config/preferences.
 MEM_STATIC 2000
 MEM_TOTAL  8000
 SYMMETRY   OFF
 SYM_IGNORE TRUE 

Checking the input file for inconsistencies... 	...done.

--------------------------------------------------------------
User input:
--------------------------------------------------------------
$molecule
0 2
C        1.5451528657    0.3797937727   -0.3050659797
C        0.7522862274   -0.8823811146   -0.1146952840
C       -0.4455080314   -0.6042477319   -0.9495608666
C       -0.9984135178    0.6186366485    0.8530114589
C       -0.5791482387    0.8913142417   -0.5990489747
N        0.8197136826    1.3989916924   -0.6000288805
H        2.6252187558    0.4693063692   -0.1986661371
H        1.2742182675   -1.8459320248   -0.1102364264
H       -1.2311938869   -1.3051776769   -1.1925597491
H       -1.5121278306    1.2742606474    1.5493300633
H       -1.2374517861    1.5100043176   -1.2088740211
C       -0.4141490716   -0.5995102572    1.0479652850
H       -0.6251741927   -1.3420256101    1.8180501774
$end

$rem
method                b3lyp
basis                 6-31g(d)
unrestricted          true
symmetry              off
sym_ignore            true
incdft                false
incfock               0
scf_convergence       8
thresh                14
jobtype               ts
scf_guess             read
scf_algorithm         diis
max_scf_cycles        100
geom_opt_max_cycles   500
geom_opt_dmax         100
geom_opt_tol_gradient 10
geom_opt_hessian      read
$end

--------------------------------------------------------------
 ----------------------------------------------------------------
             Standard Nuclear Orientation (Angstroms)
    I     Atom           X                Y                Z
 ----------------------------------------------------------------
    1      C       1.5451528657     0.3797937727    -0.3050659797
    2      C       0.7522862274    -0.8823811146    -0.1146952840
    3      C      -0.4455080314    -0.6042477319    -0.9495608666
    4      C      -0.9984135178     0.6186366485     0.8530114589
    5      C      -0.5791482387     0.8913142417    -0.5990489747
    6      N       0.8197136826     1.3989916924    -0.6000288805
    7      H       2.6252187558     0.4693063692    -0.1986661371
    8      H       1.2742182675    -1.8459320248    -0.1102364264
    9      H      -1.2311938869    -1.3051776769    -1.1925597491
   10      H      -1.5121278306     1.2742606474     1.5493300633
   11      H      -1.2374517861     1.5100043176    -1.2088740211
   12      C      -0.4141490716    -0.5995102572     1.0479652850
   13      H      -0.6251741927    -1.3420256101     1.8180501774
 ----------------------------------------------------------------
 Nuclear Repulsion Energy =   278.8185654906 hartrees
 There are       25 alpha and       24 beta electrons
 Requested basis set is 6-31G(d)
 There are 40 shells and 117 basis functions

 Total QAlloc Memory Limit   8000 MB
 Mega-Array Size      1956 MB
 MEM_STATIC part      2000 MB
 A cutoff of  1.0D-14 yielded    813 shell pairs
 There are      7085 function pairs
 
 -------------------------------------------------------
 OpenMP Integral Computing Module                       
 Release: version 1.0, May 2013, Q-Chem Inc. Pittsburgh 
 -------------------------------------------------------
 Integral Job Info:
 Integral job number is                      11
 Integral operator is                         1
 short-range coefficients                     0
 long-range coefficients              100000000
 Omega coefficients                           0
 if combine SR and LR in K                    0
 Integral screening is                        0
 Integral computing path is                   2
 max size of driver memory is            800000
 size of driver memory is                593474
 size of scratch memory is              2361544
 max col of scratch BK array               1296
 max len of scratch array in speh3          155
 max len of scratch index in speh4           18
 max int batch size is                      520
 min int batch size is                       52
 fixed nKL is                                52
 max L of basis functions is                  2
 order of int derivative is                   0
 number of shells is                         40
 number of basis is                         117
 number of cartesian basis is               117
 number of contracted shell pairs           813
 number of primitive shell pairs           3581
 maxK2 (contraction) of shell pair           36
 max number of K2 of shell pair               1
 max number of CS2 of shell pair             84
 max number of PS2 of shell pair            396
 mem total for path MDJ                  535308
 -------------------------------------------------------
 Smallest overlap matrix eigenvalue = 1.31E-03

 Scale SEOQF with 1.000000e-01/1.000000e-01/1.000000e-01

 Standard Electronic Orientation quadrupole field applied
 Nucleus-field energy     =     0.0000000014 hartrees
 Guess MOs from SCF MO coefficient file
 Reading MOs from coefficient file
 Reading MOs from coefficient file
 An unrestricted hybrid HF-DFT SCF calculation will be
 performed using Pulay DIIS extrapolation
 Exchange:     0.2000 Hartree-Fock + 0.0800 Slater + 0.7200 B88
 Correlation:  0.1900 VWN1RPA + 0.8100 LYP
 Using SG-1 standard quadrature grid
 SCF converges when DIIS error is below 1.0E-08
Using Q-Chem read-in guess as SCF_GUESS READ specified.

 using 4 threads for integral computing
 -------------------------------------------------------
 OpenMP Integral computing Module                
 Release: version 1.0, May 2013, Q-Chem Inc. Pittsburgh 
 -------------------------------------------------------
 -------------------------------------------------------
 OpenMP BLAS3 based DFT computing Module                
 Release: version 1.0, May 2013, Q-Chem Inc. Pittsburgh 
 -------------------------------------------------------
 ---------------------------------------
  Cycle       Energy         DIIS Error
 ---------------------------------------
    1    -286.8167257202      3.97E-10
    2    -286.8167257202      3.01E-10 Convergence criterion met
 ---------------------------------------
 <S^2> = 0.7820
 SCF time:  CPU 5.00 s  wall 1.36 s
 SCF   energy in the final basis set = -286.81672572
 Total energy in the final basis set = -286.81672572
 
 --------------------------------------------------------------
 
                    Orbital Energies (a.u.)
 --------------------------------------------------------------
 
 Alpha MOs
 -- Occupied --
-14.319 -10.226 -10.220 -10.219 -10.219 -10.199 -10.196  -0.953
 -0.826  -0.738  -0.687  -0.590  -0.571  -0.530  -0.517  -0.467
 -0.419  -0.409  -0.396  -0.374  -0.340  -0.301  -0.270  -0.254
 -0.148
 -- Virtual --
 -0.018   0.013   0.104   0.127   0.139   0.147   0.156   0.162
  0.172   0.203   0.218   0.266   0.284   0.305   0.359   0.368
  0.490   0.494   0.533   0.541   0.570   0.584   0.606   0.613
  0.624   0.644   0.666   0.684   0.698   0.744   0.766   0.791
  0.803   0.825   0.839   0.851   0.866   0.881   0.888   0.925
  0.967   0.996   1.088   1.121   1.149   1.237   1.261   1.355
  1.400   1.411   1.489   1.524   1.578   1.583   1.632   1.677
  1.779   1.792   1.836   1.917   1.962   1.975   2.010   2.050
  2.055   2.147   2.160   2.190   2.255   2.281   2.322   2.372
  2.416   2.445   2.504   2.521   2.588   2.594   2.638   2.651
  2.716   2.782   2.846   2.891   2.949   3.931   4.147   4.269
  4.304   4.414   4.500   4.656
 
 Beta MOs
 -- Occupied --
-14.319 -10.228 -10.220 -10.220 -10.219 -10.189 -10.187  -0.949
 -0.820  -0.732  -0.677  -0.585  -0.561  -0.528  -0.511  -0.460
 -0.414  -0.405  -0.393  -0.372  -0.332  -0.285  -0.264  -0.249
 -- Virtual --
 -0.031  -0.002   0.021   0.106   0.128   0.145   0.154   0.158
  0.165   0.174   0.208   0.223   0.273   0.289   0.309   0.363
  0.372   0.492   0.516   0.536   0.545   0.575   0.593   0.611
  0.620   0.631   0.653   0.677   0.689   0.706   0.754   0.770
  0.792   0.807   0.826   0.843   0.855   0.868   0.883   0.892
  0.927   0.971   1.002   1.096   1.124   1.158   1.239   1.266
  1.363   1.402   1.417   1.496   1.532   1.588   1.590   1.636
  1.682   1.784   1.798   1.840   1.935   1.969   1.979   2.019
  2.055   2.070   2.152   2.168   2.207   2.260   2.297   2.331
  2.381   2.425   2.460   2.508   2.528   2.592   2.598   2.646
  2.656   2.722   2.788   2.850   2.892   2.950   3.932   4.148
  4.277   4.325   4.416   4.507   4.659
 --------------------------------------------------------------
 
          Ground-State Mulliken Net Atomic Charges

     Atom                 Charge (a.u.)    Spin (a.u.)
  --------------------------------------------------------
      1 C                     0.102104       0.034288
      2 C                    -0.211126       0.004013
      3 C                    -0.128089       0.804985
      4 C                    -0.071916       0.437713
      5 C                    -0.096552      -0.060296
      6 N                    -0.338097      -0.003553
      7 H                     0.147114      -0.000748
      8 H                     0.141455       0.004617
      9 H                     0.150954      -0.035054
     10 H                     0.150657      -0.013086
     11 H                     0.142421       0.009082
     12 C                    -0.138743      -0.198114
     13 H                     0.149819       0.016153
  --------------------------------------------------------
  Sum of atomic charges =    -0.000000
  Sum of spin   charges =     1.000000

 -----------------------------------------------------------------
                    Cartesian Multipole Moments
 -----------------------------------------------------------------
    Charge (ESU x 10^10)
                -0.0000
    Dipole Moment (Debye)
         X      -0.6698      Y      -2.2287      Z       1.1278
       Tot       2.5861
    Quadrupole Moments (Debye-Ang)
        XX     -37.8156     XY      -3.3080     YY     -42.2402
        XZ       0.4856     YZ       0.6943     ZZ     -41.2453
    Octopole Moments (Debye-Ang^2)
       XXX      -0.9119    XXY      -6.3452    XYY     -10.1572
       YYY     -28.5964    XXZ       2.6763    XYZ       1.0889
       YYZ       7.3877    XZZ      -8.0622    YZZ      -6.3254
       ZZZ      14.8484
    Hexadecapole Moments (Debye-Ang^3)
      XXXX    -245.8729   XXXY      -3.7739   XXYY     -82.3715
      XYYY     -18.5265   YYYY    -252.1266   XXXZ      27.8752
      XXYZ       9.3366   XYYZ      11.8516   YYYZ      21.5026
      XXZZ     -73.8794   XYZZ      -3.7918   YYZZ     -68.7665
      XZZZ      24.7934   YZZZ      12.8192   ZZZZ    -191.6081
 -----------------------------------------------------------------
 Calculating analytic gradient of the SCF energy
 Gradient of SCF Energy
            1           2           3           4           5           6
    1   0.0035098   0.0257853  -0.0018081  -0.0064716   0.0023242  -0.0040919
    2  -0.0052995  -0.0024271  -0.0045148   0.0056661   0.0007362   0.0033549
    3   0.0004963  -0.0281807   0.0277959   0.0046129   0.0033943   0.0009398
            7           8           9          10          11          12
    1   0.0004991   0.0072875   0.0028549   0.0042227   0.0008211  -0.0300949
    2   0.0017567  -0.0027262  -0.0019299   0.0048784  -0.0015233   0.0042223
    3  -0.0018812  -0.0025704   0.0011557   0.0013254  -0.0017041  -0.0047688
           13
    1  -0.0048382
    2  -0.0021937
    3  -0.0006151
 Max gradient component =       3.009E-02
 RMS gradient           =       9.547E-03
 Gradient time:  CPU 7.82 s  wall 1.99 s
 Geometry Optimization Parameters
   NAtoms,    NIC,     NZ,  NCons,   NDum,   NFix, NCnnct, MaxDiis
       13     128       0       0       0       0       0       0

 Cartesian Hessian read from HESS file


** GEOMETRY OPTIMIZATION IN DELOCALIZED INTERNAL COORDINATES **
   Searching for a Transition State

   Optimization Cycle:   1

                       Coordinates (Angstroms)
     ATOM                X               Y               Z
      1  C         1.5451528657    0.3797937727   -0.3050659797
      2  C         0.7522862274   -0.8823811146   -0.1146952840
      3  C        -0.4455080314   -0.6042477319   -0.9495608666
      4  C        -0.9984135178    0.6186366485    0.8530114589
      5  C        -0.5791482387    0.8913142417   -0.5990489747
      6  N         0.8197136826    1.3989916924   -0.6000288805
      7  H         2.6252187558    0.4693063692   -0.1986661371
      8  H         1.2742182675   -1.8459320248   -0.1102364264
      9  H        -1.2311938869   -1.3051776769   -1.1925597491
     10  H        -1.5121278306    1.2742606474    1.5493300633
     11  H        -1.2374517861    1.5100043176   -1.2088740211
     12  C        -0.4141490716   -0.5995102572    1.0479652850
     13  H        -0.6251741927   -1.3420256101    1.8180501774
   Point Group: c1    Number of degrees of freedom:    33


   Energy is   -286.816725720


 Attempting to Generate Delocalized Internal Coordinates

 Transforming Cartesian Hessian to Internal Coordinates
 Hessian Transformation does not Include Derivative of B-matrix

 33 Hessian modes will be used to form the next step
  Hessian Eigenvalues:
    -0.045090    0.004972    0.005810    0.009610    0.015084    0.019512
     0.022817    0.028206    0.033934    0.035695    0.037362    0.041982
     0.049097    0.051933    0.082799    0.087347    0.090621    0.114538
     0.133404    0.149302    0.160817    0.171123    0.202707    0.250129
     0.287721    0.341622    0.352203    0.352595    0.356917    0.364130
     0.376067    0.387388    0.565246

 Transition State Search - Taking P-RFO Step
 Searching for Lamda that Maximizes Along the Lowest mode
 Value Taken    Lamda =   0.00834996
 Searching for Lamda that Minimizes Along All other modes
 Value Taken    Lamda =  -0.01631648
 Calculated Step too Large.  Step scaled by  0.153275
 Step Taken.  Stepsize is  0.100000

                             Maximum     Tolerance    Cnvgd?
         Gradient           0.019399      0.000010      NO
         Displacement       0.040299      0.001200      NO
         Energy change     *********      0.000001      NO


 New Cartesian Coordinates Obtained by Inverse Iteration

 Displacement from previous Coordinates is:  0.082648
 ----------------------------------------------------------------
             Standard Nuclear Orientation (Angstroms)
    I     Atom           X                Y                Z
 ----------------------------------------------------------------
    1      C       1.5430697248     0.3818240775    -0.3031165779
    2      C       0.7481465779    -0.8783988587    -0.1029256235
    3      C      -0.4523928478    -0.6063256581    -0.9404359637
    4      C      -0.9953386068     0.6214128935     0.8492082966
    5      C      -0.5817427645     0.8941373641    -0.6018035377
    6      N       0.8198507944     1.3991847215    -0.6058360999
    7      H       2.6227308658     0.4686247287    -0.1911736834
    8      H       1.2654232897    -1.8429816791    -0.0938024127
    9      H      -1.2365210780    -1.3057464817    -1.1921013035
   10      H      -1.5044760822     1.2704932569     1.5544209000
   11      H      -1.2387036945     1.5118205767    -1.2140858146
   12      C      -0.4032017101    -0.6019094548     1.0328819254
   13      H      -0.6134212254    -1.3491022124     1.7983905604
 ----------------------------------------------------------------
 Nuclear Repulsion Energy =   279.2669736683 hartrees
 There are       25 alpha and       24 beta electrons
 Applying Cartesian multipole field
    Component          Value
    ---------          -----
     (2,0,0)        1.00000E-11
     (0,2,0)        2.00000E-11
     (0,0,2)       -3.00000E-11
 Nucleus-field energy     =     0.0000000014 hartrees
 Requested basis set is 6-31G(d)
 There are 40 shells and 117 basis functions
 A cutoff of  1.0D-14 yielded    813 shell pairs
 There are      7085 function pairs
 Smallest overlap matrix eigenvalue = 1.30E-03
 Guess MOs from SCF MO coefficient file
 Reading MOs from coefficient file
 Reading MOs from coefficient file
 An unrestricted hybrid HF-DFT SCF calculation will be
 performed using Pulay DIIS extrapolation
 Exchange:     0.2000 Hartree-Fock + 0.0800 Slater + 0.7200 B88
 Correlation:  0.1900 VWN1RPA + 0.8100 LYP
 Using SG-1 standard quadrature grid
 SCF converges when DIIS error is below 1.0E-08
 Geometry optimization detected.  Setting ReadMinima to 0
 Setting SaveMinima to 0
Using Q-Chem read-in guess as SCF_GUESS READ specified.

 using 4 threads for integral computing
 -------------------------------------------------------
 OpenMP Integral computing Module                
 Release: version 1.0, May 2013, Q-Chem Inc. Pittsburgh 
 -------------------------------------------------------
 -------------------------------------------------------
 OpenMP BLAS3 based DFT computing Module                
 Release: version 1.0, May 2013, Q-Chem Inc. Pittsburgh 
 -------------------------------------------------------
 ---------------------------------------
  Cycle       Energy         DIIS Error
 ---------------------------------------
    1    -286.8236404741      8.92E-04
    2    -286.8177023252      2.50E-04
    3    -286.8175642362      3.94E-04
    4    -286.8178551084      8.02E-05
    5    -286.8178691303      2.88E-05
    6    -286.8178736173      1.08E-05
    7    -286.8178776393      9.43E-06
    8    -286.8178790346      2.25E-06
    9    -286.8178792744      1.18E-06
   10    -286.8178793335      4.49E-07
   11    -286.8178793448      1.59E-07
   12    -286.8178793508      1.12E-07
   13    -286.8178793525      4.91E-08
   14    -286.8178793528      1.54E-08
   15    -286.8178793528      6.35E-09 Convergence criterion met
 ---------------------------------------
 <S^2> = 0.7858
 SCF time:  CPU 36.05 s  wall 9.58 s
 SCF   energy in the final basis set = -286.81787935
 Total energy in the final basis set = -286.81787935
 
 --------------------------------------------------------------
 
                    Orbital Energies (a.u.)
 --------------------------------------------------------------
 
 Alpha MOs
 -- Occupied --
-14.319 -10.225 -10.220 -10.219 -10.219 -10.201 -10.195  -0.954
 -0.829  -0.739  -0.685  -0.590  -0.572  -0.531  -0.517  -0.466
 -0.420  -0.410  -0.397  -0.375  -0.340  -0.300  -0.270  -0.254
 -0.147
 -- Virtual --
 -0.016   0.013   0.103   0.134   0.139   0.147   0.155   0.162
  0.173   0.204   0.216   0.265   0.286   0.305   0.359   0.368
  0.490   0.494   0.532   0.542   0.570   0.582   0.606   0.613
  0.623   0.644   0.666   0.684   0.699   0.743   0.766   0.791
  0.803   0.826   0.840   0.850   0.865   0.880   0.889   0.926
  0.968   0.992   1.094   1.123   1.147   1.240   1.259   1.355
  1.399   1.411   1.492   1.524   1.577   1.583   1.639   1.692
  1.779   1.790   1.835   1.915   1.965   1.974   2.009   2.050
  2.057   2.156   2.160   2.189   2.254   2.283   2.321   2.379
  2.414   2.447   2.508   2.521   2.590   2.596   2.636   2.650
  2.716   2.784   2.847   2.895   2.949   3.932   4.151   4.270
  4.302   4.421   4.503   4.657
 
 Beta MOs
 -- Occupied --
-14.319 -10.228 -10.220 -10.219 -10.218 -10.190 -10.187  -0.950
 -0.822  -0.732  -0.676  -0.586  -0.563  -0.529  -0.510  -0.459
 -0.415  -0.405  -0.394  -0.373  -0.333  -0.284  -0.263  -0.249
 -- Virtual --
 -0.031  -0.000   0.021   0.105   0.135   0.146   0.153   0.158
  0.165   0.175   0.209   0.221   0.271   0.291   0.310   0.363
  0.372   0.492   0.515   0.536   0.546   0.576   0.592   0.611
  0.620   0.633   0.652   0.676   0.688   0.707   0.753   0.769
  0.792   0.806   0.826   0.844   0.854   0.867   0.882   0.893
  0.928   0.971   0.998   1.101   1.126   1.157   1.243   1.265
  1.363   1.401   1.417   1.499   1.533   1.586   1.591   1.644
  1.697   1.784   1.797   1.839   1.935   1.971   1.978   2.017
  2.057   2.070   2.159   2.169   2.206   2.260   2.297   2.331
  2.388   2.424   2.462   2.511   2.528   2.593   2.602   2.644
  2.655   2.723   2.790   2.851   2.896   2.950   3.933   4.152
  4.278   4.323   4.423   4.509   4.660
 --------------------------------------------------------------
 
          Ground-State Mulliken Net Atomic Charges

     Atom                 Charge (a.u.)    Spin (a.u.)
  --------------------------------------------------------
      1 C                     0.102011       0.035389
      2 C                    -0.209915       0.007824
      3 C                    -0.128310       0.772215
      4 C                    -0.073836       0.484584
      5 C                    -0.097214      -0.062263
      6 N                    -0.338701      -0.002120
      7 H                     0.146921      -0.000540
      8 H                     0.141824       0.004814
      9 H                     0.153552      -0.034540
     10 H                     0.148427      -0.013951
     11 H                     0.142268       0.009493
     12 C                    -0.136489      -0.217971
     13 H                     0.149461       0.017068
  --------------------------------------------------------
  Sum of atomic charges =     0.000000
  Sum of spin   charges =     1.000000

 -----------------------------------------------------------------
                    Cartesian Multipole Moments
 -----------------------------------------------------------------
    Charge (ESU x 10^10)
                -0.0000
    Dipole Moment (Debye)
         X      -0.6571      Y      -2.2785      Z       1.0866
       Tot       2.6084
    Quadrupole Moments (Debye-Ang)
        XX     -37.9029     XY      -3.2493     YY     -42.2572
        XZ       0.6269     YZ       0.6934     ZZ     -41.1889
    Octopole Moments (Debye-Ang^2)
       XXX      -0.8522    XXY      -6.4776    XYY     -10.1321
       YYY     -28.8275    XXZ       2.6468    XYZ       1.0815
       YYZ       7.3710    XZZ      -8.0597    YZZ      -6.4282
       ZZZ      14.6590
    Hexadecapole Moments (Debye-Ang^3)
      XXXX    -245.4865   XXXY      -3.6831   XXYY     -82.4336
      XYYY     -18.4875   YYYY    -252.4227   XXXZ      27.4802
      XXYZ       9.4452   XYYZ      11.8910   YYYZ      21.7529
      XXZZ     -73.4990   XYZZ      -3.8466   YYZZ     -68.6777
      XZZZ      24.3205   YZZZ      13.4017   ZZZZ    -189.4957
 -----------------------------------------------------------------
 Calculating analytic gradient of the SCF energy
 Gradient of SCF Energy
            1           2           3           4           5           6
    1   0.0028058   0.0223290  -0.0013019  -0.0054741   0.0021930  -0.0035585
    2  -0.0045501  -0.0022878  -0.0038213   0.0047856   0.0005442   0.0029708
    3   0.0007965  -0.0246397   0.0233342   0.0039990   0.0030106   0.0010191
            7           8           9          10          11          12
    1   0.0004409   0.0063544   0.0023577   0.0036734   0.0008065  -0.0266315
    2   0.0014996  -0.0022376  -0.0017119   0.0042267  -0.0013744   0.0039460
    3  -0.0016692  -0.0020473   0.0015275   0.0011070  -0.0016538  -0.0041622
           13
    1  -0.0039948
    2  -0.0019897
    3  -0.0006218
 Max gradient component =       2.663E-02
 RMS gradient           =       8.278E-03
 Gradient time:  CPU 7.85 s  wall 2.00 s
 Geometry Optimization Parameters
   NAtoms,    NIC,     NZ,  NCons,   NDum,   NFix, NCnnct, MaxDiis
       13     128       0       0       0       0       0       0

 Cartesian Hessian Update
 Hessian Updated using Powell/Murtagh-Sargent Update
  Mixing factors:     0.866628 Powell
                      0.133372 Murtagh-Sargent


** GEOMETRY OPTIMIZATION IN DELOCALIZED INTERNAL COORDINATES **
   Searching for a Transition State

   Optimization Cycle:   2

                       Coordinates (Angstroms)
     ATOM                X               Y               Z
      1  C         1.5430697248    0.3818240775   -0.3031165779
      2  C         0.7481465779   -0.8783988587   -0.1029256235
      3  C        -0.4523928478   -0.6063256581   -0.9404359637
      4  C        -0.9953386068    0.6214128935    0.8492082966
      5  C        -0.5817427645    0.8941373641   -0.6018035377
      6  N         0.8198507944    1.3991847215   -0.6058360999
      7  H         2.6227308658    0.4686247287   -0.1911736834
      8  H         1.2654232897   -1.8429816791   -0.0938024127
      9  H        -1.2365210780   -1.3057464817   -1.1921013035
     10  H        -1.5044760822    1.2704932569    1.5544209000
     11  H        -1.2387036945    1.5118205767   -1.2140858146
     12  C        -0.4032017101   -0.6019094548    1.0328819254
     13  H        -0.6134212254   -1.3491022124    1.7983905604
   Point Group: c1    Number of degrees of freedom:    33


   Energy is   -286.817879353

 Hessian Updated using Powell/Murtagh-Sargent Update
  Mixing factors:     0.825941 Powell
                      0.174059 Murtagh-Sargent

 33 Hessian modes will be used to form the next step
  Hessian Eigenvalues:
    -0.047799    0.004914    0.005818    0.009872    0.015393    0.019446
     0.022955    0.028296    0.034096    0.035994    0.037308    0.042052
     0.049821    0.053925    0.083636    0.088893    0.091881    0.114619
     0.133437    0.149436    0.160800    0.171291    0.202732    0.250160
     0.287863    0.341647    0.352203    0.352596    0.356921    0.364130
     0.376084    0.387482    0.565290

 Transition State Search - Taking P-RFO Step
 Searching for Lamda that Maximizes Along the Lowest mode
 Value Taken    Lamda =   0.00608470
 Searching for Lamda that Minimizes Along All other modes
 Value Taken    Lamda =  -0.01209299
 Calculated Step too Large.  Step scaled by  0.175667
 Step Taken.  Stepsize is  0.100000

                             Maximum     Tolerance    Cnvgd?
         Gradient           0.016957      0.000010      NO
         Displacement       0.040014      0.001200      NO
         Energy change     -0.001154      0.000001      NO


 New Cartesian Coordinates Obtained by Inverse Iteration

 Displacement from previous Coordinates is:  0.076777
 ----------------------------------------------------------------
             Standard Nuclear Orientation (Angstroms)
    I     Atom           X                Y                Z
 ----------------------------------------------------------------
    1      C       1.5413274438     0.3837465439    -0.3018382195
    2      C       0.7443848159    -0.8745480707    -0.0904395876
    3      C      -0.4581425835    -0.6079907098    -0.9313204453
    4      C      -0.9928204900     0.6238224772     0.8458327211
    5      C      -0.5843306806     0.8967166333    -0.6040882403
    6      N       0.8201221677     1.3991440727    -0.6121533828
    7      H       2.6207374223     0.4677143586    -0.1859075137
    8      H       1.2564904575    -1.8404768067    -0.0775242216
    9      H      -1.2400988227    -1.3054148319    -1.1947372428
   10      H      -1.4974742416     1.2664628100     1.5596334277
   11      H      -1.2405749680     1.5133969532    -1.2181130964
   12      C      -0.3933049439    -0.6043929622     1.0191775636
   13      H      -0.6028923335    -1.3551471936     1.7810989029
 ----------------------------------------------------------------
 Nuclear Repulsion Energy =   279.6853506856 hartrees
 There are       25 alpha and       24 beta electrons
 Applying Cartesian multipole field
    Component          Value
    ---------          -----
     (2,0,0)        1.00000E-11
     (0,2,0)        2.00000E-11
     (0,0,2)       -3.00000E-11
 Nucleus-field energy     =     0.0000000015 hartrees
 Requested basis set is 6-31G(d)
 There are 40 shells and 117 basis functions
 A cutoff of  1.0D-14 yielded    813 shell pairs
 There are      7085 function pairs
 Smallest overlap matrix eigenvalue = 1.28E-03
 Guess MOs from SCF MO coefficient file
 Reading MOs from coefficient file
 Reading MOs from coefficient file
 An unrestricted hybrid HF-DFT SCF calculation will be
 performed using Pulay DIIS extrapolation
 Exchange:     0.2000 Hartree-Fock + 0.0800 Slater + 0.7200 B88
 Correlation:  0.1900 VWN1RPA + 0.8100 LYP
 Using SG-1 standard quadrature grid
 SCF converges when DIIS error is below 1.0E-08
 Geometry optimization detected.  Setting ReadMinima to 0
 Setting SaveMinima to 0
Using Q-Chem read-in guess as SCF_GUESS READ specified.

 using 4 threads for integral computing
 -------------------------------------------------------
 OpenMP Integral computing Module                
 Release: version 1.0, May 2013, Q-Chem Inc. Pittsburgh 
 -------------------------------------------------------
 -------------------------------------------------------
 OpenMP BLAS3 based DFT computing Module                
 Release: version 1.0, May 2013, Q-Chem Inc. Pittsburgh 
 -------------------------------------------------------
 ---------------------------------------
  Cycle       Energy         DIIS Error
 ---------------------------------------
    1    -286.8246504817      8.78E-04
    2    -286.8186852865      2.38E-04
    3    -286.8185707779      3.68E-04
    4    -286.8188245311      7.66E-05
    5    -286.8188372058      2.77E-05
    6    -286.8188412074      1.00E-05
    7    -286.8188446502      8.57E-06
    8    -286.8188456777      2.09E-06
    9    -286.8188458184      1.32E-06
   10    -286.8188458526      4.72E-07
   11    -286.8188458586      1.51E-07
   12    -286.8188458608      8.35E-08
   13    -286.8188458619      3.94E-08
   14    -286.8188458621      1.38E-08
   15    -286.8188458622      6.14E-09 Convergence criterion met
 ---------------------------------------
 <S^2> = 0.7882
 SCF time:  CPU 36.16 s  wall 9.51 s
 SCF   energy in the final basis set = -286.81884586
 Total energy in the final basis set = -286.81884586
 
 --------------------------------------------------------------
 
                    Orbital Energies (a.u.)
 --------------------------------------------------------------
 
 Alpha MOs
 -- Occupied --
-14.319 -10.224 -10.220 -10.219 -10.218 -10.203 -10.193  -0.955
 -0.831  -0.739  -0.684  -0.591  -0.574  -0.532  -0.516  -0.466
 -0.420  -0.410  -0.398  -0.376  -0.341  -0.300  -0.270  -0.254
 -0.146
 -- Virtual --
 -0.013   0.012   0.102   0.138   0.141   0.148   0.155   0.163
  0.173   0.205   0.215   0.264   0.289   0.306   0.359   0.368
  0.489   0.495   0.532   0.544   0.571   0.581   0.605   0.614
  0.623   0.643   0.665   0.683   0.700   0.742   0.766   0.791
  0.802   0.826   0.841   0.850   0.865   0.879   0.889   0.926
  0.969   0.988   1.099   1.125   1.146   1.244   1.258   1.354
  1.399   1.413   1.495   1.524   1.575   1.583   1.645   1.709
  1.779   1.789   1.834   1.914   1.968   1.972   2.008   2.052
  2.059   2.159   2.164   2.190   2.252   2.285   2.321   2.387
  2.413   2.450   2.511   2.521   2.591   2.601   2.634   2.650
  2.716   2.788   2.848   2.899   2.948   3.932   4.155   4.270
  4.301   4.427   4.506   4.658
 
 Beta MOs
 -- Occupied --
-14.319 -10.227 -10.220 -10.218 -10.218 -10.193 -10.185  -0.951
 -0.825  -0.732  -0.674  -0.586  -0.564  -0.530  -0.509  -0.459
 -0.416  -0.405  -0.395  -0.373  -0.334  -0.284  -0.263  -0.249
 -- Virtual --
 -0.031   0.001   0.022   0.104   0.141   0.147   0.153   0.158
  0.165   0.175   0.210   0.220   0.270   0.293   0.310   0.363
  0.372   0.493   0.514   0.536   0.548   0.577   0.591   0.610
  0.620   0.634   0.651   0.676   0.687   0.709   0.752   0.769
  0.792   0.805   0.827   0.845   0.853   0.866   0.881   0.894
  0.928   0.971   0.995   1.107   1.127   1.156   1.246   1.264
  1.362   1.401   1.419   1.502   1.533   1.584   1.591   1.650
  1.713   1.783   1.796   1.838   1.934   1.972   1.977   2.016
  2.059   2.071   2.163   2.171   2.207   2.260   2.298   2.331
  2.395   2.423   2.464   2.514   2.528   2.594   2.607   2.642
  2.655   2.723   2.794   2.851   2.900   2.950   3.933   4.156
  4.278   4.321   4.429   4.512   4.660
 --------------------------------------------------------------
 
          Ground-State Mulliken Net Atomic Charges

     Atom                 Charge (a.u.)    Spin (a.u.)
  --------------------------------------------------------
      1 C                     0.101789       0.036345
      2 C                    -0.208384       0.010042
      3 C                    -0.128522       0.738105
      4 C                    -0.075905       0.527569
      5 C                    -0.097581      -0.063828
      6 N                    -0.339168      -0.001108
      7 H                     0.146768      -0.000304
      8 H                     0.142263       0.005002
      9 H                     0.155879      -0.033874
     10 H                     0.146285      -0.014742
     11 H                     0.142132       0.009797
     12 C                    -0.134589      -0.230684
     13 H                     0.149033       0.017680
  --------------------------------------------------------
  Sum of atomic charges =     0.000000
  Sum of spin   charges =     1.000000

 -----------------------------------------------------------------
                    Cartesian Multipole Moments
 -----------------------------------------------------------------
    Charge (ESU x 10^10)
                 0.0000
    Dipole Moment (Debye)
         X      -0.6420      Y      -2.3236      Z       1.0444
       Tot       2.6272
    Quadrupole Moments (Debye-Ang)
        XX     -37.9824     XY      -3.1968     YY     -42.2743
        XZ       0.7646     YZ       0.6998     ZZ     -41.1282
    Octopole Moments (Debye-Ang^2)
       XXX      -0.7934    XXY      -6.5977    XYY     -10.1004
       YYY     -29.0332    XXZ       2.6024    XYZ       1.0730
       YYZ       7.3427    XZZ      -8.0667    YZZ      -6.5438
       ZZZ      14.4558
    Hexadecapole Moments (Debye-Ang^3)
      XXXX    -245.1802   XXXY      -3.5987   XXYY     -82.5026
      XYYY     -18.4523   YYYY    -252.6344   XXXZ      27.1554
      XXYZ       9.5583   XYYZ      11.9631   YYYZ      22.0545
      XXZZ     -73.1533   XYZZ      -3.8823   YYZZ     -68.6038
      XZZZ      23.9610   YZZZ      14.0249   ZZZZ    -187.5841
 -----------------------------------------------------------------
 Calculating analytic gradient of the SCF energy
 Gradient of SCF Energy
            1           2           3           4           5           6
    1   0.0021205   0.0183237  -0.0005997  -0.0045633   0.0019120  -0.0030187
    2  -0.0038254  -0.0020673  -0.0030504   0.0037149   0.0004057   0.0025669
    3   0.0009053  -0.0200539   0.0187778   0.0034120   0.0026314   0.0009763
            7           8           9          10          11          12
    1   0.0003793   0.0053737   0.0017926   0.0031606   0.0007468  -0.0224803
    2   0.0012173  -0.0018062  -0.0014324   0.0035448  -0.0012150   0.0037012
    3  -0.0014786  -0.0015764   0.0018025   0.0009634  -0.0015305  -0.0042275
           13
    1  -0.0031470
    2  -0.0017541
    3  -0.0006017
 Max gradient component =       2.248E-02
 RMS gradient           =       6.837E-03
 Gradient time:  CPU 7.84 s  wall 2.03 s
 Geometry Optimization Parameters
   NAtoms,    NIC,     NZ,  NCons,   NDum,   NFix, NCnnct, MaxDiis
       13     128       0       0       0       0       0       0

 Cartesian Hessian Update
 Hessian Updated using Powell/Murtagh-Sargent Update
  Mixing factors:     0.826776 Powell
                      0.173224 Murtagh-Sargent


** GEOMETRY OPTIMIZATION IN DELOCALIZED INTERNAL COORDINATES **
   Searching for a Transition State

   Optimization Cycle:   3

                       Coordinates (Angstroms)
     ATOM                X               Y               Z
      1  C         1.5413274438    0.3837465439   -0.3018382195
      2  C         0.7443848159   -0.8745480707   -0.0904395876
      3  C        -0.4581425835   -0.6079907098   -0.9313204453
      4  C        -0.9928204900    0.6238224772    0.8458327211
      5  C        -0.5843306806    0.8967166333   -0.6040882403
      6  N         0.8201221677    1.3991440727   -0.6121533828
      7  H         2.6207374223    0.4677143586   -0.1859075137
      8  H         1.2564904575   -1.8404768067   -0.0775242216
      9  H        -1.2400988227   -1.3054148319   -1.1947372428
     10  H        -1.4974742416    1.2664628100    1.5596334277
     11  H        -1.2405749680    1.5133969532   -1.2181130964
     12  C        -0.3933049439   -0.6043929622    1.0191775636
     13  H        -0.6028923335   -1.3551471936    1.7810989029
   Point Group: c1    Number of degrees of freedom:    33


   Energy is   -286.818845862

 Hessian Updated using Powell/Murtagh-Sargent Update
  Mixing factors:     0.713477 Powell
                      0.286523 Murtagh-Sargent

 33 Hessian modes will be used to form the next step
  Hessian Eigenvalues:
    -0.050672    0.004466    0.005835    0.009811    0.015352    0.020020
     0.023035    0.028452    0.034190    0.036005    0.037588    0.042188
     0.050166    0.059328    0.084897    0.089545    0.095213    0.114751
     0.133497    0.149633    0.160879    0.171379    0.202733    0.250197
     0.288243    0.341650    0.352203    0.352599    0.356946    0.364143
     0.376108    0.387973    0.565319

 Transition State Search - Taking P-RFO Step
 Searching for Lamda that Maximizes Along the Lowest mode
 Value Taken    Lamda =   0.00419223
 Searching for Lamda that Minimizes Along All other modes
 Value Taken    Lamda =  -0.00772637
 Calculated Step too Large.  Step scaled by  0.205387
 Step Taken.  Stepsize is  0.100000

                             Maximum     Tolerance    Cnvgd?
         Gradient           0.014217      0.000010      NO
         Displacement       0.050667      0.001200      NO
         Energy change     -0.000967      0.000001      NO


 New Cartesian Coordinates Obtained by Inverse Iteration

 Displacement from previous Coordinates is:  0.064669
 ----------------------------------------------------------------
             Standard Nuclear Orientation (Angstroms)
    I     Atom           X                Y                Z
 ----------------------------------------------------------------
    1      C       1.5401370046     0.3852744875    -0.3016578646
    2      C       0.7416000891    -0.8712398143    -0.0796036766
    3      C      -0.4635342139    -0.6096834476    -0.9220103643
    4      C      -0.9903060799     0.6262048987     0.8435679904
    5      C      -0.5868103597     0.8985594464    -0.6057200714
    6      N       0.8203307311     1.3986139630    -0.6185455405
    7      H       2.6192164914     0.4670001119    -0.1815810539
    8      H       1.2479871645    -1.8388030693    -0.0639446019
    9      H      -1.2413999772    -1.3048820413    -1.2024119667
   10      H      -1.4918775682     1.2633128741     1.5640052953
   11      H      -1.2430467530     1.5146094472    -1.2203470121
   12      C      -0.3846270593    -0.6064822686     1.0092423378
   13      H      -0.5942462264    -1.3594513136     1.7686271939
 ----------------------------------------------------------------
 Nuclear Repulsion Energy =   280.0144803563 hartrees
 There are       25 alpha and       24 beta electrons
 Applying Cartesian multipole field
    Component          Value
    ---------          -----
     (2,0,0)        1.00000E-11
     (0,2,0)        2.00000E-11
     (0,0,2)       -3.00000E-11
 Nucleus-field energy     =     0.0000000015 hartrees
 Requested basis set is 6-31G(d)
 There are 40 shells and 117 basis functions
 A cutoff of  1.0D-14 yielded    813 shell pairs
 There are      7085 function pairs
 Smallest overlap matrix eigenvalue = 1.27E-03
 Guess MOs from SCF MO coefficient file
 Reading MOs from coefficient file
 Reading MOs from coefficient file
 An unrestricted hybrid HF-DFT SCF calculation will be
 performed using Pulay DIIS extrapolation
 Exchange:     0.2000 Hartree-Fock + 0.0800 Slater + 0.7200 B88
 Correlation:  0.1900 VWN1RPA + 0.8100 LYP
 Using SG-1 standard quadrature grid
 SCF converges when DIIS error is below 1.0E-08
 Geometry optimization detected.  Setting ReadMinima to 0
 Setting SaveMinima to 0
Using Q-Chem read-in guess as SCF_GUESS READ specified.

 using 4 threads for integral computing
 -------------------------------------------------------
 OpenMP Integral computing Module                
 Release: version 1.0, May 2013, Q-Chem Inc. Pittsburgh 
 -------------------------------------------------------
 -------------------------------------------------------
 OpenMP BLAS3 based DFT computing Module                
 Release: version 1.0, May 2013, Q-Chem Inc. Pittsburgh 
 -------------------------------------------------------
 ---------------------------------------
  Cycle       Energy         DIIS Error
 ---------------------------------------
    1    -286.8245061943      7.59E-04
    2    -286.8193772745      2.02E-04
    3    -286.8193013906      3.10E-04
    4    -286.8194822002      6.45E-05
    5    -286.8194914787      2.40E-05
    6    -286.8194945997      8.66E-06
    7    -286.8194972425      7.28E-06
    8    -286.8194978903      1.86E-06
    9    -286.8194979655      1.30E-06
   10    -286.8194979841      3.86E-07
   11    -286.8194979867      1.18E-07
   12    -286.8194979874      6.09E-08
   13    -286.8194979878      2.71E-08
   14    -286.8194979878      1.13E-08
   15    -286.8194979879      5.28E-09 Convergence criterion met
 ---------------------------------------
 <S^2> = 0.7893
 SCF time:  CPU 35.49 s  wall 9.14 s
 SCF   energy in the final basis set = -286.81949799
 Total energy in the final basis set = -286.81949799
 
 --------------------------------------------------------------
 
                    Orbital Energies (a.u.)
 --------------------------------------------------------------
 
 Alpha MOs
 -- Occupied --
-14.318 -10.224 -10.220 -10.219 -10.218 -10.205 -10.192  -0.955
 -0.833  -0.739  -0.683  -0.591  -0.575  -0.533  -0.516  -0.465
 -0.421  -0.410  -0.398  -0.376  -0.342  -0.299  -0.271  -0.254
 -0.146
 -- Virtual --
 -0.010   0.012   0.101   0.138   0.145   0.150   0.155   0.163
  0.173   0.205   0.215   0.264   0.291   0.306   0.360   0.368
  0.489   0.495   0.531   0.544   0.571   0.580   0.605   0.614
  0.623   0.643   0.665   0.683   0.702   0.742   0.766   0.791
  0.802   0.826   0.842   0.849   0.864   0.879   0.890   0.926
  0.969   0.986   1.104   1.125   1.144   1.247   1.257   1.352
  1.398   1.416   1.498   1.524   1.572   1.584   1.650   1.723
  1.778   1.788   1.833   1.912   1.968   1.970   2.007   2.053
  2.062   2.159   2.169   2.193   2.250   2.288   2.320   2.394
  2.412   2.452   2.513   2.521   2.591   2.606   2.632   2.650
  2.717   2.790   2.848   2.903   2.948   3.932   4.158   4.269
  4.301   4.432   4.508   4.659
 
 Beta MOs
 -- Occupied --
-14.318 -10.227 -10.221 -10.218 -10.218 -10.195 -10.184  -0.952
 -0.827  -0.733  -0.673  -0.587  -0.566  -0.531  -0.509  -0.458
 -0.417  -0.406  -0.396  -0.374  -0.335  -0.283  -0.262  -0.249
 -- Virtual --
 -0.030   0.003   0.023   0.103   0.145   0.147   0.153   0.158
  0.166   0.176   0.211   0.220   0.269   0.295   0.311   0.363
  0.373   0.493   0.513   0.535   0.548   0.577   0.591   0.610
  0.620   0.636   0.650   0.676   0.687   0.711   0.751   0.769
  0.792   0.805   0.827   0.846   0.852   0.866   0.881   0.895
  0.929   0.972   0.992   1.111   1.128   1.155   1.250   1.263
  1.361   1.400   1.422   1.505   1.533   1.581   1.592   1.655
  1.728   1.783   1.795   1.837   1.932   1.972   1.975   2.016
  2.061   2.073   2.164   2.173   2.209   2.259   2.299   2.332
  2.401   2.423   2.466   2.516   2.529   2.594   2.611   2.640
  2.656   2.723   2.796   2.851   2.904   2.950   3.934   4.159
  4.278   4.320   4.434   4.514   4.661
 --------------------------------------------------------------
 
          Ground-State Mulliken Net Atomic Charges

     Atom                 Charge (a.u.)    Spin (a.u.)
  --------------------------------------------------------
      1 C                     0.101597       0.037361
      2 C                    -0.206782       0.010901
      3 C                    -0.128720       0.705967
      4 C                    -0.077775       0.564277
      5 C                    -0.097571      -0.065060
      6 N                    -0.339532      -0.000505
      7 H                     0.146610      -0.000045
      8 H                     0.142666       0.005113
      9 H                     0.157768      -0.033304
     10 H                     0.144413      -0.015520
     11 H                     0.141968       0.009993
     12 C                    -0.133368      -0.237105
     13 H                     0.148726       0.017927
  --------------------------------------------------------
  Sum of atomic charges =    -0.000000
  Sum of spin   charges =     1.000000

 -----------------------------------------------------------------
                    Cartesian Multipole Moments
 -----------------------------------------------------------------
    Charge (ESU x 10^10)
                -0.0000
    Dipole Moment (Debye)
         X      -0.6289      Y      -2.3631      Z       1.0020
       Tot       2.6426
    Quadrupole Moments (Debye-Ang)
        XX     -38.0510     XY      -3.1527     YY     -42.2866
        XZ       0.8895     YZ       0.7158     ZZ     -41.0586
    Octopole Moments (Debye-Ang^2)
       XXX      -0.7570    XXY      -6.6858    XYY     -10.0708
       YYY     -29.1956    XXZ       2.5488    XYZ       1.0634
       YYZ       7.2935    XZZ      -8.0951    YZZ      -6.6826
       ZZZ      14.2253
    Hexadecapole Moments (Debye-Ang^3)
      XXXX    -244.9723   XXXY      -3.5171   XXYY     -82.5602
      XYYY     -18.4044   YYYY    -252.7389   XXXZ      26.9452
      XXYZ       9.6673   XYYZ      12.0556   YYYZ      22.3542
      XXZZ     -72.8791   XYZZ      -3.8742   YYZZ     -68.5409
      XZZZ      23.7377   YZZZ      14.6031   ZZZZ    -186.0619
 -----------------------------------------------------------------
 Calculating analytic gradient of the SCF energy
 Gradient of SCF Energy
            1           2           3           4           5           6
    1   0.0015290   0.0144813  -0.0000672  -0.0038127   0.0015550  -0.0024514
    2  -0.0030744  -0.0017166  -0.0024255   0.0027550   0.0003211   0.0021046
    3   0.0008460  -0.0154518   0.0145371   0.0027769   0.0022183   0.0008772
            7           8           9          10          11          12
    1   0.0003092   0.0043592   0.0012430   0.0026861   0.0006632  -0.0180547
    2   0.0009384  -0.0014029  -0.0010995   0.0028893  -0.0010297   0.0032295
    3  -0.0012529  -0.0011930   0.0018853   0.0008358  -0.0013525  -0.0041699
           13
    1  -0.0024401
    2  -0.0014893
    3  -0.0005565
 Max gradient component =       1.805E-02
 RMS gradient           =       5.413E-03
 Gradient time:  CPU 7.87 s  wall 2.00 s
 Geometry Optimization Parameters
   NAtoms,    NIC,     NZ,  NCons,   NDum,   NFix, NCnnct, MaxDiis
       13     128       0       0       0       0       0       0

 Cartesian Hessian Update
 Hessian Updated using Powell/Murtagh-Sargent Update
  Mixing factors:     0.828456 Powell
                      0.171544 Murtagh-Sargent


** GEOMETRY OPTIMIZATION IN DELOCALIZED INTERNAL COORDINATES **
   Searching for a Transition State

   Optimization Cycle:   4

                       Coordinates (Angstroms)
     ATOM                X               Y               Z
      1  C         1.5401370046    0.3852744875   -0.3016578646
      2  C         0.7416000891   -0.8712398143   -0.0796036766
      3  C        -0.4635342139   -0.6096834476   -0.9220103643
      4  C        -0.9903060799    0.6262048987    0.8435679904
      5  C        -0.5868103597    0.8985594464   -0.6057200714
      6  N         0.8203307311    1.3986139630   -0.6185455405
      7  H         2.6192164914    0.4670001119   -0.1815810539
      8  H         1.2479871645   -1.8388030693   -0.0639446019
      9  H        -1.2413999772   -1.3048820413   -1.2024119667
     10  H        -1.4918775682    1.2633128741    1.5640052953
     11  H        -1.2430467530    1.5146094472   -1.2203470121
     12  C        -0.3846270593   -0.6064822686    1.0092423378
     13  H        -0.5942462264   -1.3594513136    1.7686271939
   Point Group: c1    Number of degrees of freedom:    33


   Energy is   -286.819497988

 Hessian Updated using Powell/Murtagh-Sargent Update
  Mixing factors:     0.724318 Powell
                      0.275682 Murtagh-Sargent

 33 Hessian modes will be used to form the next step
  Hessian Eigenvalues:
    -0.051997    0.003652    0.005849    0.009753    0.015291    0.020305
     0.023078    0.028555    0.034185    0.036003    0.037762    0.042258
     0.050246    0.062698    0.085439    0.089719    0.098924    0.114939
     0.133566    0.149814    0.161045    0.171485    0.202730    0.250206
     0.288483    0.341657    0.352203    0.352603    0.356966    0.364153
     0.376137    0.388317    0.565338

 Transition State Search - Taking P-RFO Step
 Searching for Lamda that Maximizes Along the Lowest mode
 Value Taken    Lamda =   0.00281889
 Searching for Lamda that Minimizes Along All other modes
 Value Taken    Lamda =  -0.00480982
 Calculated Step too Large.  Step scaled by  0.220742
 Step Taken.  Stepsize is  0.100000

                             Maximum     Tolerance    Cnvgd?
         Gradient           0.011491      0.000010      NO
         Displacement       0.063033      0.001200      NO
         Energy change     -0.000652      0.000001      NO


 New Cartesian Coordinates Obtained by Inverse Iteration

 Displacement from previous Coordinates is:  0.052512
 ----------------------------------------------------------------
             Standard Nuclear Orientation (Angstroms)
    I     Atom           X                Y                Z
 ----------------------------------------------------------------
    1      C       1.5394159881     0.3861306595    -0.3024526057
    2      C       0.7396766653    -0.8688660491    -0.0714913150
    3      C      -0.4684060666    -0.6112365998    -0.9132815604
    4      C      -0.9876887651     0.6285607066     0.8428061624
    5      C      -0.5890073378     0.8995273103    -0.6065295588
    6      N       0.8203963543     1.3976075758    -0.6243967398
    7      H       2.6181226089     0.4664151627    -0.1784157138
    8      H       1.2403672127    -1.8382156420    -0.0540795336
    9      H      -1.2398240603    -1.3043380765    -1.2152518965
   10      H      -1.4883363387     1.2614164035     1.5671931038
   11      H      -1.2459846387     1.5153243608    -1.2205765435
   12      C      -0.3778523498    -0.6078250432     1.0038882612
   13      H      -0.5874560291    -1.3614674946     1.7622086051
 ----------------------------------------------------------------
 Nuclear Repulsion Energy =   280.2309896510 hartrees
 There are       25 alpha and       24 beta electrons
 Applying Cartesian multipole field
    Component          Value
    ---------          -----
     (2,0,0)        1.00000E-11
     (0,2,0)        2.00000E-11
     (0,0,2)       -3.00000E-11
 Nucleus-field energy     =     0.0000000015 hartrees
 Requested basis set is 6-31G(d)
 There are 40 shells and 117 basis functions
 A cutoff of  1.0D-14 yielded    813 shell pairs
 There are      7085 function pairs
 Smallest overlap matrix eigenvalue = 1.26E-03
 Guess MOs from SCF MO coefficient file
 Reading MOs from coefficient file
 Reading MOs from coefficient file
 An unrestricted hybrid HF-DFT SCF calculation will be
 performed using Pulay DIIS extrapolation
 Exchange:     0.2000 Hartree-Fock + 0.0800 Slater + 0.7200 B88
 Correlation:  0.1900 VWN1RPA + 0.8100 LYP
 Using SG-1 standard quadrature grid
 SCF converges when DIIS error is below 1.0E-08
 Geometry optimization detected.  Setting ReadMinima to 0
 Setting SaveMinima to 0
Using Q-Chem read-in guess as SCF_GUESS READ specified.

 using 4 threads for integral computing
 -------------------------------------------------------
 OpenMP Integral computing Module                
 Release: version 1.0, May 2013, Q-Chem Inc. Pittsburgh 
 -------------------------------------------------------
 -------------------------------------------------------
 OpenMP BLAS3 based DFT computing Module                
 Release: version 1.0, May 2013, Q-Chem Inc. Pittsburgh 
 -------------------------------------------------------
 ---------------------------------------
  Cycle       Energy         DIIS Error
 ---------------------------------------
    1    -286.8235732404      5.67E-04
    2    -286.8198236260      1.50E-04
    3    -286.8197852218      2.28E-04
    4    -286.8198845763      4.68E-05
    5    -286.8198897257      1.82E-05
    6    -286.8198916399      6.67E-06
    7    -286.8198932078      5.50E-06
    8    -286.8198935324      1.50E-06
    9    -286.8198935739      1.11E-06
   10    -286.8198935839      2.77E-07
   11    -286.8198935849      8.57E-08
   12    -286.8198935851      4.32E-08
   13    -286.8198935851      1.51E-08
   14    -286.8198935851      7.01E-09 Convergence criterion met
 ---------------------------------------
 <S^2> = 0.7893
 SCF time:  CPU 33.71 s  wall 8.98 s
 SCF   energy in the final basis set = -286.81989359
 Total energy in the final basis set = -286.81989359
 
 --------------------------------------------------------------
 
                    Orbital Energies (a.u.)
 --------------------------------------------------------------
 
 Alpha MOs
 -- Occupied --
-14.318 -10.223 -10.220 -10.218 -10.218 -10.207 -10.191  -0.956
 -0.834  -0.740  -0.682  -0.591  -0.576  -0.534  -0.516  -0.464
 -0.421  -0.411  -0.398  -0.376  -0.342  -0.298  -0.271  -0.254
 -0.145
 -- Virtual --
 -0.008   0.012   0.100   0.138   0.146   0.152   0.154   0.163
  0.173   0.205   0.215   0.263   0.292   0.307   0.360   0.368
  0.489   0.495   0.530   0.544   0.572   0.580   0.604   0.615
  0.623   0.643   0.665   0.683   0.704   0.742   0.766   0.791
  0.801   0.826   0.843   0.849   0.863   0.879   0.890   0.926
  0.969   0.985   1.108   1.125   1.143   1.250   1.256   1.350
  1.397   1.420   1.501   1.523   1.570   1.586   1.653   1.733
  1.777   1.788   1.832   1.911   1.965   1.970   2.006   2.054
  2.064   2.158   2.171   2.197   2.249   2.290   2.320   2.399
  2.413   2.453   2.514   2.522   2.592   2.610   2.631   2.651
  2.717   2.792   2.848   2.906   2.949   3.933   4.160   4.269
  4.301   4.435   4.510   4.659
 
 Beta MOs
 -- Occupied --
-14.318 -10.226 -10.221 -10.218 -10.217 -10.197 -10.182  -0.952
 -0.829  -0.733  -0.672  -0.587  -0.567  -0.531  -0.508  -0.458
 -0.417  -0.406  -0.396  -0.374  -0.336  -0.283  -0.262  -0.249
 -- Virtual --
 -0.030   0.004   0.024   0.103   0.147   0.147   0.155   0.158
  0.166   0.176   0.211   0.220   0.268   0.297   0.311   0.363
  0.373   0.493   0.513   0.534   0.548   0.578   0.591   0.610
  0.619   0.637   0.650   0.675   0.686   0.713   0.751   0.769
  0.792   0.805   0.827   0.848   0.851   0.865   0.881   0.895
  0.929   0.971   0.991   1.115   1.129   1.153   1.253   1.261
  1.358   1.399   1.425   1.508   1.533   1.578   1.594   1.659
  1.738   1.782   1.795   1.836   1.931   1.971   1.973   2.016
  2.062   2.075   2.164   2.176   2.212   2.259   2.301   2.332
  2.406   2.424   2.466   2.517   2.529   2.594   2.615   2.639
  2.657   2.724   2.798   2.851   2.908   2.950   3.934   4.161
  4.279   4.320   4.438   4.515   4.661
 --------------------------------------------------------------
 
          Ground-State Mulliken Net Atomic Charges

     Atom                 Charge (a.u.)    Spin (a.u.)
  --------------------------------------------------------
      1 C                     0.101469       0.038476
      2 C                    -0.205408       0.010876
      3 C                    -0.128904       0.680139
      4 C                    -0.079126       0.591918
      5 C                    -0.097260      -0.065976
      6 N                    -0.339791      -0.000357
      7 H                     0.146437       0.000206
      8 H                     0.142954       0.005124
      9 H                     0.159033      -0.032964
     10 H                     0.142999      -0.016291
     11 H                     0.141778       0.010071
     12 C                    -0.132751      -0.239083
     13 H                     0.148570       0.017861
  --------------------------------------------------------
  Sum of atomic charges =    -0.000000
  Sum of spin   charges =     1.000000

 -----------------------------------------------------------------
                    Cartesian Multipole Moments
 -----------------------------------------------------------------
    Charge (ESU x 10^10)
                 0.0000
    Dipole Moment (Debye)
         X      -0.6203      Y      -2.3942      Z       0.9630
       Tot       2.6541
    Quadrupole Moments (Debye-Ang)
        XX     -38.1068     XY      -3.1227     YY     -42.2926
        XZ       0.9905     YZ       0.7416     ZZ     -40.9830
    Octopole Moments (Debye-Ang^2)
       XXX      -0.7449    XXY      -6.7288    XYY     -10.0454
       YYY     -29.3039    XXZ       2.4930    XYZ       1.0505
       YYZ       7.2268    XZZ      -8.1421    YZZ      -6.8363
       ZZZ      13.9781
    Hexadecapole Moments (Debye-Ang^3)
      XXXX    -244.8279   XXXY      -3.4502   XXYY     -82.5962
      XYYY     -18.3421   YYYY    -252.7283   XXXZ      26.8436
      XXYZ       9.7619   XYYZ      12.1549   YYYZ      22.6151
      XXZZ     -72.6885   XYZZ      -3.8247   YYZZ     -68.4880
      XZZZ      23.6525   YZZZ      15.0814   ZZZZ    -185.0439
 -----------------------------------------------------------------
 Calculating analytic gradient of the SCF energy
 Gradient of SCF Energy
            1           2           3           4           5           6
    1   0.0010638   0.0114665   0.0002465  -0.0032323   0.0012035  -0.0019309
    2  -0.0023823  -0.0013573  -0.0019771   0.0020235   0.0002638   0.0016465
    3   0.0006772  -0.0117406   0.0111558   0.0021727   0.0017980   0.0007561
            7           8           9          10          11          12
    1   0.0002434   0.0034391   0.0007994   0.0022793   0.0005656  -0.0142086
    2   0.0007022  -0.0010763  -0.0007716   0.0023407  -0.0008469   0.0026655
    3  -0.0010188  -0.0009133   0.0017664   0.0007217  -0.0011491  -0.0037198
           13
    1  -0.0019353
    2  -0.0012305
    3  -0.0005064
 Max gradient component =       1.421E-02
 RMS gradient           =       4.235E-03
 Gradient time:  CPU 7.80 s  wall 1.98 s
 Geometry Optimization Parameters
   NAtoms,    NIC,     NZ,  NCons,   NDum,   NFix, NCnnct, MaxDiis
       13     128       0       0       0       0       0       0

 Cartesian Hessian Update
 Hessian Updated using Powell/Murtagh-Sargent Update
  Mixing factors:     0.905786 Powell
                      0.094214 Murtagh-Sargent


** GEOMETRY OPTIMIZATION IN DELOCALIZED INTERNAL COORDINATES **
   Searching for a Transition State

   Optimization Cycle:   5

                       Coordinates (Angstroms)
     ATOM                X               Y               Z
      1  C         1.5394159881    0.3861306595   -0.3024526057
      2  C         0.7396766653   -0.8688660491   -0.0714913150
      3  C        -0.4684060666   -0.6112365998   -0.9132815604
      4  C        -0.9876887651    0.6285607066    0.8428061624
      5  C        -0.5890073378    0.8995273103   -0.6065295588
      6  N         0.8203963543    1.3976075758   -0.6243967398
      7  H         2.6181226089    0.4664151627   -0.1784157138
      8  H         1.2403672127   -1.8382156420   -0.0540795336
      9  H        -1.2398240603   -1.3043380765   -1.2152518965
     10  H        -1.4883363387    1.2614164035    1.5671931038
     11  H        -1.2459846387    1.5153243608   -1.2205765435
     12  C        -0.3778523498   -0.6078250432    1.0038882612
     13  H        -0.5874560291   -1.3614674946    1.7622086051
   Point Group: c1    Number of degrees of freedom:    33


   Energy is   -286.819893585

 Hessian Updated using Powell/Murtagh-Sargent Update
  Mixing factors:     0.665787 Powell
                      0.334213 Murtagh-Sargent

 33 Hessian modes will be used to form the next step
  Hessian Eigenvalues:
    -0.051748    0.003242    0.005874    0.009790    0.015274    0.020409
     0.023080    0.028650    0.034176    0.036000    0.037900    0.042350
     0.050274    0.063839    0.085655    0.089746    0.100086    0.115055
     0.133601    0.149891    0.161282    0.171551    0.202739    0.250210
     0.288538    0.341664    0.352203    0.352607    0.356977    0.364161
     0.376188    0.388448    0.565363

 Transition State Search - Taking P-RFO Step
 Searching for Lamda that Maximizes Along the Lowest mode
 Value Taken    Lamda =   0.00188193
 Searching for Lamda that Minimizes Along All other modes
 Value Taken    Lamda =  -0.00306451
 Calculated Step too Large.  Step scaled by  0.233044
 Step Taken.  Stepsize is  0.100000

                             Maximum     Tolerance    Cnvgd?
         Gradient           0.009168      0.000010      NO
         Displacement       0.068563      0.001200      NO
         Energy change     -0.000396      0.000001      NO


 New Cartesian Coordinates Obtained by Inverse Iteration

 Displacement from previous Coordinates is:  0.046820
 ----------------------------------------------------------------
             Standard Nuclear Orientation (Angstroms)
    I     Atom           X                Y                Z
 ----------------------------------------------------------------
    1      C       1.5389701332     0.3864244614    -0.3036847904
    2      C       0.7381021074    -0.8671905759    -0.0655257942
    3      C      -0.4730115934    -0.6126119277    -0.9051785514
    4      C      -0.9849022831     0.6310285689     0.8430710555
    5      C      -0.5908848402     0.9000626049    -0.6067302928
    6      N       0.8204441466     1.3963581680    -0.6295623432
    7      H       2.6173155324     0.4657900615    -0.1761139214
    8      H       1.2335546245    -1.8382819155    -0.0468880578
    9      H      -1.2363383439    -1.3040175492    -1.2301886217
   10      H      -1.4867127107     1.2602681629     1.5693760851
   11      H      -1.2489304833     1.5158529102    -1.2195975294
   12      C      -0.3726217499    -0.6086371841     1.0011444950
   13      H      -0.5815612963    -1.3620125114     1.7594989321
 ----------------------------------------------------------------
 Nuclear Repulsion Energy =   280.3787389055 hartrees
 There are       25 alpha and       24 beta electrons
 Applying Cartesian multipole field
    Component          Value
    ---------          -----
     (2,0,0)        1.00000E-11
     (0,2,0)        2.00000E-11
     (0,0,2)       -3.00000E-11
 Nucleus-field energy     =     0.0000000015 hartrees
 Requested basis set is 6-31G(d)
 There are 40 shells and 117 basis functions
 A cutoff of  1.0D-14 yielded    813 shell pairs
 There are      7085 function pairs
 Smallest overlap matrix eigenvalue = 1.25E-03
 Guess MOs from SCF MO coefficient file
 Reading MOs from coefficient file
 Reading MOs from coefficient file
 An unrestricted hybrid HF-DFT SCF calculation will be
 performed using Pulay DIIS extrapolation
 Exchange:     0.2000 Hartree-Fock + 0.0800 Slater + 0.7200 B88
 Correlation:  0.1900 VWN1RPA + 0.8100 LYP
 Using SG-1 standard quadrature grid
 SCF converges when DIIS error is below 1.0E-08
 Geometry optimization detected.  Setting ReadMinima to 0
 Setting SaveMinima to 0
Using Q-Chem read-in guess as SCF_GUESS READ specified.

 using 4 threads for integral computing
 -------------------------------------------------------
 OpenMP Integral computing Module                
 Release: version 1.0, May 2013, Q-Chem Inc. Pittsburgh 
 -------------------------------------------------------
 -------------------------------------------------------
 OpenMP BLAS3 based DFT computing Module                
 Release: version 1.0, May 2013, Q-Chem Inc. Pittsburgh 
 -------------------------------------------------------
 ---------------------------------------
  Cycle       Energy         DIIS Error
 ---------------------------------------
    1    -286.8228967931      4.34E-04
    2    -286.8201009041      1.13E-04
    3    -286.8200807238      1.72E-04
    4    -286.8201380693      3.47E-05
    5    -286.8201411007      1.42E-05
    6    -286.8201423479      5.35E-06
    7    -286.8201433210      4.29E-06
    8    -286.8201435009      1.26E-06
    9    -286.8201435301      9.28E-07
   10    -286.8201435366      2.10E-07
   11    -286.8201435371      6.64E-08
   12    -286.8201435371      3.39E-08
   13    -286.8201435371      8.41E-09 Convergence criterion met
 ---------------------------------------
 <S^2> = 0.7888
 SCF time:  CPU 31.63 s  wall 8.64 s
 SCF   energy in the final basis set = -286.82014354
 Total energy in the final basis set = -286.82014354
 
 --------------------------------------------------------------
 
                    Orbital Energies (a.u.)
 --------------------------------------------------------------
 
 Alpha MOs
 -- Occupied --
-14.318 -10.222 -10.220 -10.218 -10.217 -10.208 -10.190  -0.956
 -0.835  -0.740  -0.681  -0.591  -0.576  -0.534  -0.515  -0.464
 -0.422  -0.411  -0.399  -0.376  -0.342  -0.298  -0.271  -0.254
 -0.144
 -- Virtual --
 -0.007   0.013   0.100   0.138   0.146   0.153   0.154   0.164
  0.174   0.205   0.215   0.263   0.294   0.307   0.360   0.369
  0.488   0.496   0.529   0.544   0.573   0.580   0.604   0.615
  0.623   0.642   0.665   0.683   0.706   0.742   0.766   0.791
  0.802   0.826   0.844   0.849   0.862   0.879   0.891   0.927
  0.969   0.985   1.111   1.125   1.141   1.253   1.255   1.347
  1.396   1.425   1.504   1.522   1.568   1.589   1.656   1.740
  1.776   1.788   1.832   1.909   1.961   1.970   2.007   2.056
  2.065   2.158   2.172   2.201   2.248   2.293   2.320   2.401
  2.415   2.454   2.515   2.522   2.592   2.614   2.630   2.653
  2.718   2.794   2.848   2.909   2.949   3.933   4.161   4.269
  4.301   4.438   4.511   4.659
 
 Beta MOs
 -- Occupied --
-14.318 -10.225 -10.221 -10.217 -10.217 -10.198 -10.181  -0.952
 -0.830  -0.733  -0.671  -0.587  -0.567  -0.532  -0.508  -0.458
 -0.418  -0.406  -0.396  -0.374  -0.336  -0.282  -0.262  -0.248
 -- Virtual --
 -0.029   0.005   0.025   0.102   0.147   0.148   0.156   0.158
  0.166   0.176   0.211   0.220   0.268   0.298   0.312   0.363
  0.373   0.493   0.512   0.533   0.548   0.578   0.591   0.610
  0.619   0.638   0.649   0.675   0.686   0.715   0.750   0.769
  0.792   0.805   0.828   0.849   0.851   0.864   0.881   0.896
  0.929   0.971   0.991   1.117   1.129   1.151   1.256   1.261
  1.355   1.398   1.429   1.511   1.532   1.576   1.597   1.662
  1.746   1.781   1.796   1.836   1.930   1.967   1.973   2.017
  2.063   2.077   2.164   2.177   2.214   2.259   2.302   2.334
  2.408   2.426   2.467   2.518   2.530   2.594   2.618   2.638
  2.658   2.725   2.799   2.851   2.910   2.950   3.934   4.162
  4.279   4.320   4.440   4.516   4.661
 --------------------------------------------------------------
 
          Ground-State Mulliken Net Atomic Charges

     Atom                 Charge (a.u.)    Spin (a.u.)
  --------------------------------------------------------
      1 C                     0.101343       0.039622
      2 C                    -0.204190       0.010566
      3 C                    -0.129061       0.658990
      4 C                    -0.079970       0.613437
      5 C                    -0.096863      -0.066676
      6 N                    -0.339989      -0.000450
      7 H                     0.146251       0.000440
      8 H                     0.143142       0.005072
      9 H                     0.159868      -0.032722
     10 H                     0.141949      -0.017129
     11 H                     0.141577       0.010076
     12 C                    -0.132557      -0.238841
     13 H                     0.148500       0.017616
  --------------------------------------------------------
  Sum of atomic charges =    -0.000000
  Sum of spin   charges =     1.000000

 -----------------------------------------------------------------
                    Cartesian Multipole Moments
 -----------------------------------------------------------------
    Charge (ESU x 10^10)
                 0.0000
    Dipole Moment (Debye)
         X      -0.6153      Y      -2.4192      Z       0.9278
       Tot       2.6631
    Quadrupole Moments (Debye-Ang)
        XX     -38.1532     XY      -3.1051     YY     -42.2951
        XZ       1.0710     YZ       0.7715     ZZ     -40.9067
    Octopole Moments (Debye-Ang^2)
       XXX      -0.7485    XXY      -6.7401    XYY     -10.0237
       YYY     -29.3790    XXZ       2.4438    XYZ       1.0347
       YYZ       7.1518    XZZ      -8.1948    YZZ      -6.9928
       ZZZ      13.7303
    Hexadecapole Moments (Debye-Ang^3)
      XXXX    -244.7056   XXXY      -3.4066   XXYY     -82.6199
      XYYY     -18.2772   YYYY    -252.6678   XXXZ      26.7937
      XXYZ       9.8435   XYYZ      12.2515   YYYZ      22.8287
      XXZZ     -72.5473   XYZZ      -3.7598   YYZZ     -68.4396
      XZZZ      23.6470   YZZZ      15.4686   ZZZZ    -184.3245
 -----------------------------------------------------------------
 Calculating analytic gradient of the SCF energy
 Gradient of SCF Energy
            1           2           3           4           5           6
    1   0.0007167   0.0090187   0.0004410  -0.0027391   0.0009050  -0.0014814
    2  -0.0017952  -0.0010504  -0.0016048   0.0014528   0.0002015   0.0012424
    3   0.0005138  -0.0088628   0.0084193   0.0016400   0.0014264   0.0006294
            7           8           9          10          11          12
    1   0.0001876   0.0026624   0.0004589   0.0019103   0.0004684  -0.0110118
    2   0.0005156  -0.0008188  -0.0005018   0.0018867  -0.0006807   0.0021437
    3  -0.0008033  -0.0007001   0.0015759   0.0006098  -0.0009496  -0.0030533
           13
    1  -0.0015367
    2  -0.0009909
    3  -0.0004455
 Max gradient component =       1.101E-02
 RMS gradient           =       3.274E-03
 Gradient time:  CPU 7.82 s  wall 1.99 s
 Geometry Optimization Parameters
   NAtoms,    NIC,     NZ,  NCons,   NDum,   NFix, NCnnct, MaxDiis
       13     128       0       0       0       0       0       0

 Cartesian Hessian Update
 Hessian Updated using Powell/Murtagh-Sargent Update
  Mixing factors:     0.974782 Powell
                      0.025218 Murtagh-Sargent


** GEOMETRY OPTIMIZATION IN DELOCALIZED INTERNAL COORDINATES **
   Searching for a Transition State

   Optimization Cycle:   6

                       Coordinates (Angstroms)
     ATOM                X               Y               Z
      1  C         1.5389701332    0.3864244614   -0.3036847904
      2  C         0.7381021074   -0.8671905759   -0.0655257942
      3  C        -0.4730115934   -0.6126119277   -0.9051785514
      4  C        -0.9849022831    0.6310285689    0.8430710555
      5  C        -0.5908848402    0.9000626049   -0.6067302928
      6  N         0.8204441466    1.3963581680   -0.6295623432
      7  H         2.6173155324    0.4657900615   -0.1761139214
      8  H         1.2335546245   -1.8382819155   -0.0468880578
      9  H        -1.2363383439   -1.3040175492   -1.2301886217
     10  H        -1.4867127107    1.2602681629    1.5693760851
     11  H        -1.2489304833    1.5158529102   -1.2195975294
     12  C        -0.3726217499   -0.6086371841    1.0011444950
     13  H        -0.5815612963   -1.3620125114    1.7594989321
   Point Group: c1    Number of degrees of freedom:    33


   Energy is   -286.820143537

 Hessian Updated using Powell/Murtagh-Sargent Update
  Mixing factors:     0.754523 Powell
                      0.245477 Murtagh-Sargent

 33 Hessian modes will be used to form the next step
  Hessian Eigenvalues:
    -0.051249    0.003043    0.005914    0.009851    0.015279    0.020433
     0.023076    0.028731    0.034181    0.036000    0.037985    0.042447
     0.050284    0.064117    0.085742    0.089749    0.100156    0.115090
     0.133606    0.149922    0.161457    0.171586    0.202761    0.250252
     0.288538    0.341667    0.352203    0.352607    0.356979    0.364165
     0.376245    0.388468    0.565404

 Transition State Search - Taking P-RFO Step
 Searching for Lamda that Maximizes Along the Lowest mode
 Value Taken    Lamda =   0.00119605
 Searching for Lamda that Minimizes Along All other modes
 Value Taken    Lamda =  -0.00198790
 Calculated Step too Large.  Step scaled by  0.247257
 Step Taken.  Stepsize is  0.100000

                             Maximum     Tolerance    Cnvgd?
         Gradient           0.007211      0.000010      NO
         Displacement       0.070277      0.001200      NO
         Energy change     -0.000250      0.000001      NO


 New Cartesian Coordinates Obtained by Inverse Iteration

 Displacement from previous Coordinates is:  0.044481
 ----------------------------------------------------------------
             Standard Nuclear Orientation (Angstroms)
    I     Atom           X                Y                Z
 ----------------------------------------------------------------
    1      C       1.5386752714     0.3862679494    -0.3051449446
    2      C       0.7365516397    -0.8659968850    -0.0609972345
    3      C      -0.4774156368    -0.6137657813    -0.8977709928
    4      C      -0.9818721253     0.6335843031     0.8440764264
    5      C      -0.5924641872     0.9004244596    -0.6064714096
    6      N       0.8205580365     1.3949936652    -0.6341388618
    7      H       2.6167256464     0.4649404408    -0.1747192827
    8      H       1.2273008881    -1.8387224352    -0.0414464688
    9      H      -1.2314365526    -1.3038832281    -1.2460196763
   10      H      -1.4868918417     1.2593040559     1.5707569619
   11      H      -1.2517201497     1.5164058074    -1.2177964776
   12      C      -0.3685117381    -0.6090656059     0.9999882239
   13      H      -0.5760760076    -1.3614534720     1.7593044018
 ----------------------------------------------------------------
 Nuclear Repulsion Energy =   280.4838543265 hartrees
 There are       25 alpha and       24 beta electrons
 Applying Cartesian multipole field
    Component          Value
    ---------          -----
     (2,0,0)        1.00000E-11
     (0,2,0)        2.00000E-11
     (0,0,2)       -3.00000E-11
 Nucleus-field energy     =     0.0000000015 hartrees
 Requested basis set is 6-31G(d)
 There are 40 shells and 117 basis functions
 A cutoff of  1.0D-14 yielded    813 shell pairs
 There are      7085 function pairs
 Smallest overlap matrix eigenvalue = 1.25E-03
 Guess MOs from SCF MO coefficient file
 Reading MOs from coefficient file
 Reading MOs from coefficient file
 An unrestricted hybrid HF-DFT SCF calculation will be
 performed using Pulay DIIS extrapolation
 Exchange:     0.2000 Hartree-Fock + 0.0800 Slater + 0.7200 B88
 Correlation:  0.1900 VWN1RPA + 0.8100 LYP
 Using SG-1 standard quadrature grid
 SCF converges when DIIS error is below 1.0E-08
 Geometry optimization detected.  Setting ReadMinima to 0
 Setting SaveMinima to 0
Using Q-Chem read-in guess as SCF_GUESS READ specified.

 using 4 threads for integral computing
 -------------------------------------------------------
 OpenMP Integral computing Module                
 Release: version 1.0, May 2013, Q-Chem Inc. Pittsburgh 
 -------------------------------------------------------
[...]
 Step Taken.  Stepsize is  0.083942

                             Maximum     Tolerance    Cnvgd?
         Gradient           0.000516      0.000010      NO
         Displacement       0.054621      0.001200      NO
         Energy change      0.000006      0.000001      NO


 New Cartesian Coordinates Obtained by Inverse Iteration

 Displacement from previous Coordinates is:  0.039683
 ----------------------------------------------------------------
             Standard Nuclear Orientation (Angstroms)
    I     Atom           X                Y                Z
 ----------------------------------------------------------------
    1      C       1.5392164198     0.3763251409    -0.3217286380
    2      C       0.7237835684    -0.8635905406    -0.0442835533
    3      C      -0.5074458727    -0.6176594570    -0.8565405900
    4      C      -0.9455340254     0.6586030135     0.8685878199
    5      C      -0.5961216257     0.9039027850    -0.5944888824
    6      N       0.8252715345     1.3837320719    -0.6599124903
    7      H       2.6182177406     0.4480398879    -0.1942212590
    8      H       1.1915004950    -1.8454845596    -0.0217467856
    9      H      -1.1723415282    -1.3004208282    -1.3646868535
   10      H      -1.5403974969     1.2369562301     1.5616731288
   11      H      -1.2656663429     1.5241724166    -1.1895266998
   12      C      -0.3524882456    -0.6021520101     1.0151251099
   13      H      -0.5445713777    -1.3393908764     1.7913703588
 ----------------------------------------------------------------
 Nuclear Repulsion Energy =   280.6579944231 hartrees
 There are       25 alpha and       24 beta electrons
 Applying Cartesian multipole field
    Component          Value
    ---------          -----
     (2,0,0)        1.00000E-11
     (0,2,0)        2.00000E-11
     (0,0,2)       -3.00000E-11
 Nucleus-field energy     =     0.0000000014 hartrees
 Requested basis set is 6-31G(d)
 There are 40 shells and 117 basis functions
 A cutoff of  1.0D-14 yielded    813 shell pairs
 There are      7085 function pairs
 Smallest overlap matrix eigenvalue = 1.15E-03
 Guess MOs from SCF MO coefficient file
 Reading MOs from coefficient file
 Reading MOs from coefficient file
 An unrestricted hybrid HF-DFT SCF calculation will be
 performed using Pulay DIIS extrapolation
 Exchange:     0.2000 Hartree-Fock + 0.0800 Slater + 0.7200 B88
 Correlation:  0.1900 VWN1RPA + 0.8100 LYP
 Using SG-1 standard quadrature grid
 SCF converges when DIIS error is below 1.0E-08
 Geometry optimization detected.  Setting ReadMinima to 0
 Setting SaveMinima to 0
Using Q-Chem read-in guess as SCF_GUESS READ specified.

 using 4 threads for integral computing
 -------------------------------------------------------
 OpenMP Integral computing Module                
 Release: version 1.0, May 2013, Q-Chem Inc. Pittsburgh 
 -------------------------------------------------------
 -------------------------------------------------------
 OpenMP BLAS3 based DFT computing Module                
 Release: version 1.0, May 2013, Q-Chem Inc. Pittsburgh 
 -------------------------------------------------------
 ---------------------------------------
  Cycle       Energy         DIIS Error
 ---------------------------------------
    1    -286.8200064687      1.69E-04
    2    -286.8207992390      2.55E-05
    3    -286.8208006446      3.08E-05
    4    -286.8208023597      8.99E-06
    5    -286.8208025497      4.47E-06
    6    -286.8208026043      1.59E-06
    7    -286.8208026132      9.29E-07
    8    -286.8208026162      1.59E-07
    9    -286.8208026169      9.50E-08
   10    -286.8208026170      5.69E-08
   11    -286.8208026171      2.36E-08
   12    -286.8208026171      9.85E-09 Convergence criterion met
 ---------------------------------------
 <S^2> = 0.7842
 SCF time:  CPU 28.93 s  wall 7.65 s
 SCF   energy in the final basis set = -286.82080262
 Total energy in the final basis set = -286.82080262
 
 --------------------------------------------------------------
 
                    Orbital Energies (a.u.)
 --------------------------------------------------------------
 
 Alpha MOs
 -- Occupied --
-14.318 -10.221 -10.220 -10.217 -10.214 -10.209 -10.186  -0.956
 -0.837  -0.739  -0.679  -0.591  -0.576  -0.536  -0.515  -0.463
 -0.425  -0.408  -0.397  -0.376  -0.341  -0.295  -0.273  -0.252
 -0.140
 -- Virtual --
 -0.001   0.016   0.095   0.141   0.146   0.154   0.158   0.165
  0.177   0.205   0.218   0.261   0.301   0.310   0.362   0.371
  0.486   0.496   0.517   0.544   0.576   0.585   0.603   0.616
  0.622   0.636   0.665   0.682   0.712   0.754   0.768   0.791
  0.812   0.828   0.848   0.856   0.857   0.879   0.896   0.926
  0.961   1.005   1.103   1.127   1.136   1.252   1.265   1.319
  1.391   1.450   1.498   1.520   1.576   1.636   1.669   1.757
  1.769   1.803   1.832   1.897   1.931   1.975   2.015   2.062
  2.071   2.158   2.182   2.226   2.252   2.303   2.333   2.409
  2.424   2.459   2.516   2.538   2.590   2.628   2.634   2.659
  2.724   2.797   2.849   2.917   2.951   3.936   4.162   4.264
  4.308   4.444   4.515   4.665
 
 Beta MOs
 -- Occupied --
-14.318 -10.224 -10.220 -10.216 -10.214 -10.200 -10.176  -0.952
 -0.832  -0.731  -0.669  -0.586  -0.567  -0.534  -0.507  -0.458
 -0.421  -0.403  -0.395  -0.374  -0.335  -0.279  -0.263  -0.248
 -- Virtual --
 -0.023   0.008   0.030   0.098   0.148   0.149   0.157   0.160
  0.167   0.180   0.210   0.223   0.265   0.305   0.315   0.365
  0.376   0.491   0.507   0.523   0.547   0.581   0.598   0.610
  0.619   0.640   0.648   0.675   0.686   0.719   0.758   0.772
  0.792   0.814   0.829   0.851   0.857   0.863   0.881   0.900
  0.930   0.964   1.013   1.108   1.131   1.147   1.255   1.268
  1.327   1.393   1.453   1.511   1.523   1.584   1.641   1.679
  1.765   1.776   1.810   1.836   1.916   1.939   1.977   2.029
  2.071   2.080   2.162   2.191   2.237   2.263   2.309   2.351
  2.418   2.432   2.471   2.519   2.545   2.593   2.631   2.643
  2.666   2.731   2.802   2.853   2.919   2.952   3.937   4.164
  4.274   4.326   4.447   4.519   4.668
 --------------------------------------------------------------
 
          Ground-State Mulliken Net Atomic Charges

     Atom                 Charge (a.u.)    Spin (a.u.)
  --------------------------------------------------------
      1 C                     0.099596       0.045352
      2 C                    -0.199056       0.005059
      3 C                    -0.133081       0.603202
      4 C                    -0.077617       0.682897
      5 C                    -0.095613      -0.069532
      6 N                    -0.338701      -0.005296
      7 H                     0.144883       0.001449
      8 H                     0.142580       0.003561
      9 H                     0.158476      -0.031246
     10 H                     0.141188      -0.028636
     11 H                     0.139926       0.008221
     12 C                    -0.131381      -0.229373
     13 H                     0.148799       0.014342
  --------------------------------------------------------
  Sum of atomic charges =    -0.000000
  Sum of spin   charges =     1.000000

 -----------------------------------------------------------------
                    Cartesian Multipole Moments
 -----------------------------------------------------------------
    Charge (ESU x 10^10)
                -0.0000
    Dipole Moment (Debye)
         X      -0.6628      Y      -2.4988      Z       0.7624
       Tot       2.6953
    Quadrupole Moments (Debye-Ang)
        XX     -38.2368     XY      -3.2612     YY     -42.3433
        XZ       1.2178     YZ       0.9584     ZZ     -40.4187
    Octopole Moments (Debye-Ang^2)
       XXX      -1.5095    XXY      -6.2888    XYY     -10.0030
       YYY     -29.6303    XXZ       2.4010    XYZ       0.8929
       YYZ       6.4247    XZZ      -8.7132    YZZ      -8.2748
       ZZZ      11.7550
    Hexadecapole Moments (Debye-Ang^3)
      XXXX    -242.1911   XXXY      -4.0894   XXYY     -82.5938
      XYYY     -17.8635   YYYY    -251.6072   XXXZ      26.2165
      XXYZ      10.2996   XYYZ      12.9305   YYYZ      23.4778
      XXZZ     -71.9386   XYZZ      -3.3119   YYZZ     -68.4916
      XZZZ      24.6930   YZZZ      16.8489   ZZZZ    -183.8338
 -----------------------------------------------------------------
 Calculating analytic gradient of the SCF energy
 Gradient of SCF Energy
            1           2           3           4           5           6
    1   0.0000059  -0.0000079  -0.0000022   0.0000030   0.0000167   0.0000184
    2  -0.0000242  -0.0000162  -0.0000151   0.0000244  -0.0000059  -0.0000219
    3  -0.0000031   0.0000189   0.0000122  -0.0000227  -0.0000297  -0.0000330
            7           8           9          10          11          12
    1   0.0000062  -0.0000166  -0.0000079   0.0000081   0.0000222  -0.0000238
    2  -0.0000345  -0.0000144  -0.0000206   0.0000571  -0.0000161   0.0000331
    3  -0.0000010   0.0000481   0.0000264  -0.0000368  -0.0000441   0.0000310
           13
    1  -0.0000221
    2   0.0000542
    3   0.0000341
 Max gradient component =       5.710E-05
 RMS gradient           =       2.568E-05
 Gradient time:  CPU 8.28 s  wall 2.70 s
 Geometry Optimization Parameters
   NAtoms,    NIC,     NZ,  NCons,   NDum,   NFix, NCnnct, MaxDiis
       13     128       0       0       0       0       0       0

 Cartesian Hessian Update
 Hessian Updated using Powell/Murtagh-Sargent Update
  Mixing factors:     0.993855 Powell
                      0.006145 Murtagh-Sargent


** GEOMETRY OPTIMIZATION IN DELOCALIZED INTERNAL COORDINATES **
   Searching for a Transition State

   Optimization Cycle:  22

                       Coordinates (Angstroms)
     ATOM                X               Y               Z
      1  C         1.5392164198    0.3763251409   -0.3217286380
      2  C         0.7237835684   -0.8635905406   -0.0442835533
      3  C        -0.5074458727   -0.6176594570   -0.8565405900
      4  C        -0.9455340254    0.6586030135    0.8685878199
      5  C        -0.5961216257    0.9039027850   -0.5944888824
      6  N         0.8252715345    1.3837320719   -0.6599124903
      7  H         2.6182177406    0.4480398879   -0.1942212590
      8  H         1.1915004950   -1.8454845596   -0.0217467856
      9  H        -1.1723415282   -1.3004208282   -1.3646868535
     10  H        -1.5403974969    1.2369562301    1.5616731288
     11  H        -1.2656663429    1.5241724166   -1.1895266998
     12  C        -0.3524882456   -0.6021520101    1.0151251099
     13  H        -0.5445713777   -1.3393908764    1.7913703588
   Point Group: c1    Number of degrees of freedom:    33


   Energy is   -286.820802617

 Hessian Updated using Powell/Murtagh-Sargent Update
  Mixing factors:     0.988835 Powell
                      0.011165 Murtagh-Sargent

 33 Hessian modes will be used to form the next step
  Hessian Eigenvalues:
    -0.049664    0.000969    0.005582    0.009830    0.015326    0.020769
     0.023064    0.028978    0.034726    0.036210    0.038264    0.042605
     0.050361    0.069618    0.086197    0.090437    0.114220    0.132032
     0.137428    0.152211    0.161448    0.173928    0.204533    0.251432
     0.294397    0.341673    0.352226    0.352608    0.357069    0.364155
     0.376198    0.388726    0.565278

 Transition State Search - Taking P-RFO Step
 Searching for Lamda that Maximizes Along the Lowest mode
 Value Taken    Lamda =   0.00000000
 Searching for Lamda that Minimizes Along All other modes
 Value Taken    Lamda =   0.00000000
 Step Taken.  Stepsize is  0.000854

                             Maximum     Tolerance    Cnvgd?
         Gradient           0.000009      0.000010     YES
         Displacement       0.000401      0.001200     YES
         Energy change     -0.000007      0.000001      NO


                       Distance Matrix (Angstroms)
             C (  1)   C (  2)   C (  3)   C (  4)   C (  5)   N (  6)
   C (  2)  1.509734
   C (  3)  2.337275  1.495383
   C (  4)  2.769570  2.436602  2.190168
   C (  5)  2.216395  2.273523  1.546508  1.524091
   N (  6)  1.280217  2.332329  2.412544  2.449056  1.501624
   H (  7)  1.088873  2.309055  3.368109  3.724812  3.271086  2.075342
   H (  8)  2.268774  1.087834  2.256292  3.410288  3.329078  3.311981
   H (  9)  3.354368  2.351505  1.080029  2.979384  2.405052  3.419334
   H ( 10)  3.711052  3.481079  3.217817  1.081075  2.377313  3.248596
   H ( 11)  3.152458  3.312236  2.296350  2.255555  1.089539  2.161536
   C ( 12)  2.514586  1.532664  1.878133  1.400957  2.217750  2.852473
   H ( 13)  3.427979  2.281389  2.744760  2.237024  3.275263  3.911605
             H (  7)   H (  8)   H (  9)   H ( 10)   H ( 11)   C ( 12)
   H (  8)  2.706571
   H (  9)  4.335371  2.772784
   H ( 10)  4.582536  4.412701  3.890672
   H ( 11)  4.151295  4.330816  2.831557  2.779761
   C ( 12)  3.374984  2.237159  2.612134  2.256582  3.196191
   H ( 13)  4.140135  2.560756  3.218122  2.771641  4.195917  1.087646

 
 Final energy is   -286.820802617132     


 ******************************
 **  OPTIMIZATION CONVERGED  **
 ******************************

                       Coordinates (Angstroms)
     ATOM                X               Y               Z
      1  C         1.5392164198    0.3763251409   -0.3217286380
      2  C         0.7237835684   -0.8635905406   -0.0442835533
      3  C        -0.5074458727   -0.6176594570   -0.8565405900
      4  C        -0.9455340254    0.6586030135    0.8685878199
      5  C        -0.5961216257    0.9039027850   -0.5944888824
      6  N         0.8252715345    1.3837320719   -0.6599124903
      7  H         2.6182177406    0.4480398879   -0.1942212590
      8  H         1.1915004950   -1.8454845596   -0.0217467856
      9  H        -1.1723415282   -1.3004208282   -1.3646868535
     10  H        -1.5403974969    1.2369562301    1.5616731288
     11  H        -1.2656663429    1.5241724166   -1.1895266998
     12  C        -0.3524882456   -0.6021520101    1.0151251099
     13  H        -0.5445713777   -1.3393908764    1.7913703588

Z-matrix Print:
$molecule
0 2
N 
C  1 1.280217
H  2 1.088873 1 122.122142
C  1 1.501624 2 105.362340 3 -174.625818 0
H  4 1.089539 1 112.084926 2 -159.211262 0
C  2 1.509734 1 113.178951 3 176.475297 0
H  6 1.087834 2 120.855990 1 162.744197 0
C  6 1.495383 2 102.111762 1 24.993106 0
H  8 1.080029 6 131.183581 2 148.449415 0
C  4 1.524091 1 108.075145 2 68.593021 0
H  10 1.081075 4 130.956696 1 104.063992 0
C  10 1.400957 4 98.522794 1 -80.537672 0
H  12 1.087646 10 127.581341 4 -161.750905 0
$end

 
 --------------------------------------------------------------
 
                    Orbital Energies (a.u.)
 --------------------------------------------------------------
 
 Alpha MOs
 -- Occupied --
-14.318 -10.221 -10.220 -10.217 -10.214 -10.209 -10.186  -0.956
 -0.837  -0.739  -0.679  -0.591  -0.576  -0.536  -0.515  -0.463
 -0.425  -0.408  -0.397  -0.376  -0.341  -0.295  -0.273  -0.252
 -0.140
 -- Virtual --
 -0.001   0.016   0.095   0.141   0.146   0.154   0.158   0.165
  0.177   0.205   0.218   0.261   0.301   0.310   0.362   0.371
  0.486   0.496   0.517   0.544   0.576   0.585   0.603   0.616
  0.622   0.636   0.665   0.682   0.712   0.754   0.768   0.791
  0.812   0.828   0.848   0.856   0.857   0.879   0.896   0.926
  0.961   1.005   1.103   1.127   1.136   1.252   1.265   1.319
  1.391   1.450   1.498   1.520   1.576   1.636   1.669   1.757
  1.769   1.803   1.832   1.897   1.931   1.975   2.015   2.062
  2.071   2.158   2.182   2.226   2.252   2.303   2.333   2.409
  2.424   2.459   2.516   2.538   2.590   2.628   2.634   2.659
  2.724   2.797   2.849   2.917   2.951   3.936   4.162   4.264
  4.308   4.444   4.515   4.665
 
 Beta MOs
 -- Occupied --
-14.318 -10.224 -10.220 -10.216 -10.214 -10.200 -10.176  -0.952
 -0.832  -0.731  -0.669  -0.586  -0.567  -0.534  -0.507  -0.458
 -0.421  -0.403  -0.395  -0.374  -0.335  -0.279  -0.263  -0.248
 -- Virtual --
 -0.023   0.008   0.030   0.098   0.148   0.149   0.157   0.160
  0.167   0.180   0.210   0.223   0.265   0.305   0.315   0.365
  0.376   0.491   0.507   0.523   0.547   0.581   0.598   0.610
  0.619   0.640   0.648   0.675   0.686   0.719   0.758   0.772
  0.792   0.814   0.829   0.851   0.857   0.863   0.881   0.900
  0.930   0.964   1.013   1.108   1.131   1.147   1.255   1.268
  1.327   1.393   1.453   1.511   1.523   1.584   1.641   1.679
  1.765   1.776   1.810   1.836   1.916   1.939   1.977   2.029
  2.071   2.080   2.162   2.191   2.237   2.263   2.309   2.351
  2.418   2.432   2.471   2.519   2.545   2.593   2.631   2.643
  2.666   2.731   2.802   2.853   2.919   2.952   3.937   4.164
  4.274   4.326   4.447   4.519   4.668
 --------------------------------------------------------------
 
          Ground-State Mulliken Net Atomic Charges

     Atom                 Charge (a.u.)    Spin (a.u.)
  --------------------------------------------------------
      1 C                     0.099596       0.045352
      2 C                    -0.199056       0.005059
      3 C                    -0.133081       0.603202
      4 C                    -0.077617       0.682897
      5 C                    -0.095613      -0.069532
      6 N                    -0.338701      -0.005296
      7 H                     0.144883       0.001449
      8 H                     0.142580       0.003561
      9 H                     0.158476      -0.031246
     10 H                     0.141188      -0.028636
     11 H                     0.139926       0.008221
     12 C                    -0.131381      -0.229373
     13 H                     0.148799       0.014342
  --------------------------------------------------------
  Sum of atomic charges =    -0.000000
  Sum of spin   charges =     1.000000

 -----------------------------------------------------------------
                    Cartesian Multipole Moments
 -----------------------------------------------------------------
    Charge (ESU x 10^10)
                -0.0000
    Dipole Moment (Debye)
         X      -0.6628      Y      -2.4988      Z       0.7624
       Tot       2.6953
    Quadrupole Moments (Debye-Ang)
        XX     -38.2368     XY      -3.2612     YY     -42.3433
        XZ       1.2178     YZ       0.9584     ZZ     -40.4187
    Octopole Moments (Debye-Ang^2)
       XXX      -1.5095    XXY      -6.2888    XYY     -10.0030
       YYY     -29.6303    XXZ       2.4010    XYZ       0.8929
       YYZ       6.4247    XZZ      -8.7132    YZZ      -8.2748
       ZZZ      11.7550
    Hexadecapole Moments (Debye-Ang^3)
      XXXX    -242.1911   XXXY      -4.0894   XXYY     -82.5938
      XYYY     -17.8635   YYYY    -251.6072   XXXZ      26.2165
      XXYZ      10.2996   XYYZ      12.9305   YYYZ      23.4778
      XXZZ     -71.9386   XYZZ      -3.3119   YYZZ     -68.4916
      XZZZ      24.6930   YZZZ      16.8489   ZZZZ    -183.8338
 -----------------------------------------------------------------
Archival summary:
1\1\c8-66\TS\ProcedureUnspecified\6-31G*\166(2)\hpark21\ThuMar322:00:432022ThuMar322:00:432022\0\\#,TS,ProcedureUnspecified,6-31G*,\\0,2\N\C,1,1.28022\H,2,1.08887,1,122.122\C,1,1.50162,2,105.362,3,-174.626,0\H,4,1.08954,1,112.085,2,-159.211,0\C,2,1.50973,1,113.179,3,176.475,0\H,6,1.08783,2,120.856,1,162.744,0\C,6,1.49538,2,102.112,1,24.9931,0\H,8,1.08003,6,131.184,2,148.449,0\C,4,1.52409,1,108.075,2,68.593,0\H,10,1.08107,4,130.957,1,104.064,0\C,10,1.40096,4,98.5228,1,-80.5377,0\H,12,1.08765,10,127.581,4,-161.751,0\\\@

 Total job time:  230.27s(wall), 852.00s(cpu) 
 Thu Mar  3 22:00:43 2022

        *************************************************************
        *                                                           *
        *  Thank you very much for using Q-Chem.  Have a nice day.  *
        *                                                           *
        *************************************************************


