13
image # 1 Energy = -286.85164
C 1.51968   0.34407   -0.26495  
C 0.62247   -0.89392  -0.06471  
C -0.39537  -0.52067  -1.14729  
C -1.00233  0.50919   0.80868   
C -0.58617  0.89541   -0.61987  
N 0.85309   1.38651   -0.57663  
H 2.60046   0.35783   -0.13445  
H 1.10229   -1.87266  -0.07677  
H -1.22131  -1.17425  -1.42320  
H -1.72714  1.04400   1.41253   
H -1.23217  1.59294   -1.15088  
C -0.27221  -0.56591  1.14756   
H -0.26129  -1.10254  2.08998   
13
image # 2 Energy = -286.85044
C 1.52754   0.35087   -0.27600  
C 0.62786   -0.88898  -0.06481  
C -0.39525  -0.53024  -1.12952  
C -1.00664  0.52101   0.81704   
C -0.58261  0.89540   -0.61189  
N 0.85144   1.38787   -0.57072  
H 2.61274   0.37266   -0.15931  
H 1.14163   -1.87545  -0.09981  
H -1.21560  -1.19097  -1.39956  
H -1.71492  1.08142   1.43070   
H -1.22975  1.57863   -1.15596  
C -0.29244  -0.57894  1.13935   
H -0.32761  -1.12527  2.07904   
13
image # 3 Energy = -286.84870
C 1.53339   0.35449   -0.27865  
C 0.64172   -0.90976  -0.05646  
C -0.39432  -0.53355  -1.12424  
C -1.00364  0.52411   0.82673   
C -0.58155  0.89264   -0.60483  
N 0.84835   1.39700   -0.56959  
H 2.62226   0.38775   -0.18678  
H 1.16803   -1.85666  -0.11970  
H -1.21078  -1.20882  -1.37263  
H -1.69549  1.11409   1.44536   
H -1.22770  1.56638   -1.16170  
C -0.30964  -0.58155  1.13907   
H -0.39706  -1.15047  2.06098   
13
image # 4 Energy = -286.84589
C 1.53106   0.36095   -0.27994  
C 0.65914   -0.90122  -0.06362  
C -0.38902  -0.54048  -1.10847  
C -1.00683  0.54030   0.83400   
C -0.57918  0.88828   -0.59745  
N 0.85009   1.39451   -0.56789  
H 2.62895   0.40262   -0.21516  
H 1.19739   -1.85029  -0.13615  
H -1.20746  -1.22683  -1.34472  
H -1.66695  1.13974   1.45604   
H -1.22710  1.55518   -1.16668  
C -0.33259  -0.59213  1.14718   
H -0.46740  -1.17737  2.03931   
13
image # 5 Energy = -286.84132
C 1.53135   0.37968   -0.29008  
C 0.68954   -0.91221  -0.06633  
C -0.39760  -0.55134  -1.08436  
C -1.00832  0.56229   0.83315   
C -0.57081  0.89261   -0.59875  
N 0.84631   1.39367   -0.56723  
H 2.63385   0.41455   -0.23931  
H 1.21780   -1.83837  -0.14191  
H -1.19722  -1.23965  -1.30956  
H -1.64214  1.16835   1.47182   
H -1.22767  1.54385   -1.16759  
C -0.35309  -0.61315  1.13932   
H -0.53525  -1.21010  2.01592   
13
image # 6 Energy = -286.83720
C 1.55218   0.36867   -0.28526  
C 0.69179   -0.89434  -0.06654  
C -0.38670  -0.55899  -1.07189  
C -0.99969  0.57478   0.83701   
C -0.56642  0.88641   -0.59242  
N 0.83041   1.41547   -0.58038  
H 2.63297   0.43394   -0.26839  
H 1.24747   -1.83331  -0.14352  
H -1.19653  -1.26143  -1.25885  
H -1.60287  1.19701   1.48677   
H -1.23044  1.53488   -1.17220  
C -0.37048  -0.62141  1.13506   
H -0.61869  -1.25530  1.97423   
13
image # 7 Energy = -286.82985
C 1.55049   0.38696   -0.29674  
C 0.70847   -0.89129  -0.07245  
C -0.39039  -0.56805  -1.05391  
C -0.99150  0.57672   0.84170   
C -0.55877  0.88160   -0.58402  
N 0.83429   1.40543   -0.57966  
H 2.64028   0.45120   -0.28673  
H 1.27540   -1.83082  -0.14902  
H -1.19421  -1.27984  -1.21801  
H -1.57838  1.23021   1.50792   
H -1.23313  1.52512   -1.17760  
C -0.39887  -0.61371  1.12191   
H -0.68389  -1.29225  1.93966   
13
image # 8 Energy = -286.82182
C 1.55262   0.38605   -0.31027  
C 0.73203   -0.89266  -0.08941  
C -0.39230  -0.57794  -1.02207  
C -1.00010  0.58750   0.85770   
C -0.56571  0.88886   -0.58764  
N 0.83458   1.40752   -0.57743  
H 2.65198   0.46582   -0.29260  
H 1.30152   -1.83672  -0.15749  
H -1.19731  -1.29821  -1.19489  
H -1.56169  1.25892   1.52501   
H -1.22711  1.51108   -1.17818  
C -0.43269  -0.61634  1.11246   
H -0.71904  -1.30815  1.90700   
13
image # 9 Energy = -286.81108
C 1.56366   0.38429   -0.32453  
C 0.76201   -0.89108  -0.11303  
C -0.41271  -0.59788  -0.98267  
C -1.01439  0.60316   0.87277   
C -0.56700  0.88578   -0.57606  
N 0.83401   1.40633   -0.57530  
H 2.65688   0.47733   -0.28542  
H 1.32340   -1.84970  -0.16343  
H -1.19732  -1.30899  -1.18316  
H -1.54835  1.28352   1.54100   
H -1.22685  1.50484   -1.18713  
C -0.46967  -0.60906  1.09284   
H -0.72935  -1.31926  1.87507   
13
image # 10 Energy = -286.80461
C 1.57330   0.38123   -0.33202  
C 0.78127   -0.88889  -0.12652  
C -0.43676  -0.61522  -0.92859  
C -1.02373  0.63447   0.87535   
C -0.57516  0.88403   -0.57269  
N 0.82580   1.39776   -0.57767  
H 2.65619   0.49115   -0.26290  
H 1.33273   -1.85387  -0.15675  
H -1.20903  -1.32728  -1.17099  
H -1.52857  1.31367   1.56473   
H -1.22317  1.49613   -1.19603  
C -0.47245  -0.60392  1.05509   
H -0.72701  -1.34624  1.81862   
13
image # 11 Energy = -286.81596
C 1.57031   0.37696   -0.32864  
C 0.78243   -0.87709  -0.10895  
C -0.47866  -0.64364  -0.84895  
C -1.01917  0.66870   0.86816   
C -0.58439  0.88760   -0.57628  
N 0.81422   1.38941   -0.59109  
H 2.64952   0.50825   -0.22540  
H 1.32343   -1.84611  -0.13370  
H -1.22582  -1.34810  -1.15436  
H -1.49091  1.34520   1.59156   
H -1.22271  1.48952   -1.21235  
C -0.42864  -0.60535  0.99038   
H -0.71615  -1.38808  1.71761   
13
image # 12 Energy = -286.82760
C 1.55888   0.38474   -0.31987  
C 0.78104   -0.86287  -0.06060  
C -0.53457  -0.66237  -0.73022  
C -0.99406  0.70113   0.85531   
C -0.59853  0.89633   -0.58794  
N 0.80653   1.38457   -0.61735  
H 2.63412   0.51665   -0.18371  
H 1.29294   -1.83120  -0.09929  
H -1.23445  -1.36221  -1.15949  
H -1.44395  1.35795   1.60603   
H -1.23057  1.49059   -1.23610  
C -0.37740  -0.63843  0.91530   
H -0.68634  -1.42254  1.60489   
13
image # 13 Energy = -286.83252
C 1.55782   0.39075   -0.32342  
C 0.79983   -0.86135  -0.08050  
C -0.54531  -0.67027  -0.68322  
C -0.98391  0.70723   0.85739   
C -0.59984  0.90010   -0.58973  
N 0.80371   1.38753   -0.62503  
H 2.62900   0.51770   -0.17605  
H 1.28958   -1.83364  -0.08616  
H -1.22690  -1.36311  -1.16008  
H -1.42721  1.36203   1.60998   
H -1.23550  1.49068   -1.24266  
C -0.41088  -0.64251  0.90115   
H -0.67611  -1.43599  1.58468   
13
image # 14 Energy = -286.83444
C 1.54442   0.39745   -0.33416  
C 0.81745   -0.86212  -0.10437  
C -0.55620  -0.67787  -0.62840  
C -0.96966  0.72004   0.86990   
C -0.59947  0.90661   -0.59206  
N 0.79943   1.39739   -0.63964  
H 2.62314   0.51866   -0.16206  
H 1.28265   -1.83673  -0.05846  
H -1.21004  -1.36352  -1.16477  
H -1.39517  1.36633   1.61353   
H -1.24477  1.48835   -1.25135  
C -0.46238  -0.64705  0.87390   
H -0.65394  -1.46069  1.56377   
13
image # 15 Energy = -286.83172
C 1.56668   0.39077   -0.35388  
C 0.86304   -0.88013  -0.21865  
C -0.52760  -0.68010  -0.62381  
C -1.00946  0.69870   0.87084   
C -0.59411  0.90319   -0.57819  
N 0.80720   1.39303   -0.60445  
H 2.63290   0.50856   -0.17399  
H 1.30949   -1.86036  -0.08356  
H -1.20732  -1.35014  -1.16196  
H -1.43978  1.36655   1.61195   
H -1.23274  1.49053   -1.23261  
C -0.56906  -0.62553  0.89488   
H -0.62225  -1.40555  1.63805   
13
image # 16 Energy = -286.83200
C 1.57992   0.37366   -0.35704  
C 0.89103   -0.88832  -0.27016  
C -0.49915  -0.68263  -0.64988  
C -1.03079  0.68656   0.87791   
C -0.57969  0.90070   -0.56433  
N 0.80241   1.40193   -0.58435  
H 2.64955   0.50375   -0.20905  
H 1.33218   -1.86526  -0.11744  
H -1.19812  -1.33869  -1.16812  
H -1.47177  1.36107   1.60352   
H -1.22814  1.49059   -1.22138  
C -0.61582  -0.61662  0.93161   
H -0.65312  -1.37365  1.71172   
13
image # 17 Energy = -286.83564
C 1.58972   0.37680   -0.36912  
C 0.92276   -0.89429  -0.31536  
C -0.47834  -0.67511  -0.64723  
C -1.04464  0.67951   0.88200   
C -0.57461  0.90078   -0.55231  
N 0.80859   1.39951   -0.56507  
H 2.65905   0.49625   -0.24463  
H 1.35836   -1.87538  -0.14821  
H -1.17975  -1.32698  -1.18894  
H -1.49641  1.35944   1.59951   
H -1.22282  1.48324   -1.21090  
C -0.67691  -0.61950  0.96167   
H -0.68447  -1.34589  1.77983   
13
image # 18 Energy = -286.84539
C 1.60213   0.36255   -0.38035  
C 0.95233   -0.89180  -0.36654  
C -0.47478  -0.67740  -0.60814  
C -1.05738  0.68436   0.88409   
C -0.57793  0.89370   -0.54240  
N 0.80396   1.40647   -0.55475  
H 2.66190   0.49393   -0.25492  
H 1.37690   -1.88373  -0.15971  
H -1.16081  -1.31408  -1.19621  
H -1.50104  1.36908   1.60585   
H -1.21756  1.47536   -1.20911  
C -0.73365  -0.62074  0.96473   
H -0.69078  -1.33318  1.79755   
13
image # 19 Energy = -286.85374
C 1.58963   0.35331   -0.39917  
C 0.97936   -0.90797  -0.40493  
C -0.46509  -0.68618  -0.57103  
C -1.07919  0.68901   0.90576   
C -0.57738  0.88472   -0.53201  
N 0.80999   1.40796   -0.54456  
H 2.68034   0.49663   -0.26763  
H 1.39668   -1.87743  -0.18237  
H -1.13478  -1.29817  -1.20214  
H -1.50047  1.37886   1.60847   
H -1.21396  1.46478   -1.21007  
C -0.78446  -0.61286  0.97125   
H -0.71453  -1.32183  1.80851   
13
image # 20 Energy = -286.85945
C 1.61758   0.35835   -0.41382  
C 0.98469   -0.91474  -0.42467  
C -0.45223  -0.70041  -0.53971  
C -1.09041  0.68736   0.91543   
C -0.56884  0.88698   -0.51385  
N 0.80861   1.40265   -0.53676  
H 2.68157   0.49911   -0.29799  
H 1.42703   -1.87630  -0.21727  
H -1.10569  -1.28616  -1.20822  
H -1.50577  1.39485   1.61761   
H -1.21214  1.44922   -1.20910  
C -0.82433  -0.61263  0.98556   
H -0.77115  -1.31176  1.82415   
13
image # 21 Energy = -286.86414
C 1.61800   0.35538   -0.42820  
C 1.00860   -0.89996  -0.43833  
C -0.45408  -0.70518  -0.50907  
C -1.09468  0.69713   0.91803   
C -0.56152  0.88178   -0.49776  
N 0.81230   1.39642   -0.52834  
H 2.69313   0.50541   -0.33038  
H 1.45919   -1.88029  -0.25101  
H -1.07833  -1.28083  -1.20400  
H -1.50650  1.41189   1.63009   
H -1.20627  1.42847   -1.20399  
C -0.86138  -0.61730  0.99247   
H -0.83742  -1.31107  1.83418   
13
image # 22 Energy = -286.86737
C 1.63064   0.35626   -0.43783  
C 1.02556   -0.91126  -0.44290  
C -0.44456  -0.69746  -0.48383  
C -1.09726  0.71036   0.93261   
C -0.55988  0.86856   -0.49057  
N 0.80905   1.40421   -0.52221  
H 2.70419   0.51231   -0.36665  
H 1.48689   -1.87186  -0.28633  
H -1.05626  -1.28255  -1.19856  
H -1.50202  1.42093   1.63546   
H -1.19659  1.40624   -1.19474  
C -0.89636  -0.61325  0.99584   
H -0.91041  -1.31655  1.84605   
13
image # 23 Energy = -286.86928
C 1.63357   0.35878   -0.44632  
C 1.02158   -0.89917  -0.45930  
C -0.42193  -0.71132  -0.45021  
C -1.10077  0.72048   0.95035   
C -0.55601  0.85989   -0.48008  
N 0.81185   1.40197   -0.51821  
H 2.71457   0.52021   -0.39165  
H 1.51222   -1.87310  -0.30859  
H -1.03794  -1.28174  -1.18457  
H -1.49099  1.42983   1.64001   
H -1.19295  1.39149   -1.19356  
C -0.93380  -0.60928  0.99586   
H -0.96510  -1.31828  1.83561   
13
image # 24 Energy = -286.87100
C 1.64235   0.37088   -0.45400  
C 1.04177   -0.90115  -0.44906  
C -0.43172  -0.73225  -0.43750  
C -1.08989  0.70117   0.95351   
C -0.54259  0.86299   -0.45700  
N 0.81845   1.40345   -0.51326  
H 2.72049   0.52923   -0.43126  
H 1.53327   -1.85820  -0.34044  
H -1.01769  -1.28719  -1.16814  
H -1.48447  1.45023   1.65382   
H -1.19220  1.37157   -1.19599  
C -0.95214  -0.59988  1.01100   
H -1.05029  -1.31895  1.82043   
13
image # 25 Energy = -286.87347
C 1.65253   0.37168   -0.46935  
C 1.05761   -0.89898  -0.43681  
C -0.42450  -0.72468  -0.41813  
C -1.09837  0.72819   0.96722   
C -0.53359  0.86099   -0.44555  
N 0.82119   1.40994   -0.50324  
H 2.72532   0.54151   -0.47117  
H 1.56341   -1.84866  -0.37335  
H -1.00667  -1.30670  -1.15470  
H -1.46668  1.46523   1.66366   
H -1.18408  1.34131   -1.18961  
C -0.96442  -0.61485  1.01818   
H -1.14482  -1.33060  1.80817   
13
image # 26 Energy = -286.87460
C 1.65672   0.37192   -0.48379  
C 1.06588   -0.89373  -0.43800  
C -0.41213  -0.72033  -0.39614  
C -1.10357  0.72827   0.97707   
C -0.52870  0.85514   -0.43564  
N 0.82355   1.41129   -0.49579  
H 2.73077   0.55218   -0.49856  
H 1.59006   -1.84520  -0.39656  
H -0.99438  -1.31840  -1.13584  
H -1.45095  1.48177   1.67583   
H -1.17689  1.31756   -1.18479  
C -0.98852  -0.59914  1.01484   
H -1.21333  -1.34414  1.79500   
13
image # 27 Energy = -286.87551
C 1.66256   0.37819   -0.49969  
C 1.07752   -0.89674  -0.44728  
C -0.40425  -0.72711  -0.37799  
C -1.11036  0.73732   0.98550   
C -0.52070  0.84836   -0.42095  
N 0.82455   1.40961   -0.48901  
H 2.73570   0.56263   -0.52388  
H 1.61518   -1.83814  -0.41877  
H -0.97369  -1.32191  -1.10417  
H -1.43347  1.49842   1.68942   
H -1.17148  1.29511   -1.18250  
C -1.02622  -0.59692  1.02246   
H -1.27534  -1.34883  1.76685   
