13   
From qcts1.out: Frame 22 / 22, Energy=    -286.8208026171
C        1.5392164198    0.3763251409   -0.3217286380
C        0.7237835684   -0.8635905406   -0.0442835533
C       -0.5074458727   -0.6176594570   -0.8565405900
C       -0.9455340254    0.6586030135    0.8685878199
C       -0.5961216257    0.9039027850   -0.5944888824
N        0.8252715345    1.3837320719   -0.6599124903
H        2.6182177406    0.4480398879   -0.1942212590
H        1.1915004950   -1.8454845596   -0.0217467856
H       -1.1723415282   -1.3004208282   -1.3646868535
H       -1.5403974969    1.2369562301    1.5616731288
H       -1.2656663429    1.5241724166   -1.1895266998
C       -0.3524882456   -0.6021520101    1.0151251099
H       -0.5445713777   -1.3393908764    1.7913703588
