13   
From optimize.out: Frame 56 / 57, Energy=    -286.8549487881
C        1.4686732685    0.4434648827   -0.3530738584
C        0.8844898150   -0.7852997800    0.2158355540
C       -0.7449175472   -0.8064664611    0.1739773918
C       -1.3117588051    0.4547650255   -0.3303380734
C       -0.5481144770    1.5423396026   -0.5757289614
N        0.8460300516    1.5355555592   -0.6348741906
H        2.5303145794    0.3995219587   -0.6079325517
H        1.4411642486   -1.6994013932    0.0000858207
H       -1.2584586499   -1.7272652578   -0.1086158969
H       -2.3826894973    0.4875523101   -0.5153848406
H       -1.0043020908    2.4797194493   -0.8832408489
C        0.0350901728   -0.7972998302    1.4092860838
H        0.0444789317   -1.5271860652    2.2100043717
13   
From optimize.out: Frame 55 / 57, Energy=    -286.8549464062
C        1.4686003851    0.4436548455   -0.3528816229
C        0.8847987344   -0.7851839067    0.2157642756
C       -0.7453023573   -0.8059692211    0.1745860768
C       -1.3116462294    0.4551557647   -0.3301812857
C       -0.5479483236    1.5426491771   -0.5763017446
N        0.8462362028    1.5360612734   -0.6347619245
H        2.5307239108    0.4002739272   -0.6059176861
H        1.4416908840   -1.6990020421   -0.0007409390
H       -1.2603366502   -1.7264259938   -0.1064564787
H       -2.3826578937    0.4884218750   -0.5146534099
H       -1.0049912232    2.4787353535   -0.8865461252
C        0.0356164117   -0.7984237710    1.4094497178
H        0.0452161486   -1.5299472817    2.2086411464
13   
From optimize.out: Frame 54 / 57, Energy=    -286.8549425328
C        1.4679278293    0.4438354436   -0.3526044036
C        0.8851050263   -0.7858762880    0.2147822367
C       -0.7459377041   -0.8054715851    0.1755410261
C       -1.3118059655    0.4557007167   -0.3300912895
C       -0.5479025463    1.5430347047   -0.5768264070
N        0.8462386255    1.5369163196   -0.6337853425
H        2.5307786363    0.4006566949   -0.6029464186
H        1.4429750645   -1.6989837394   -0.0021453186
H       -1.2626840638   -1.7255511916   -0.1036479746
H       -2.3827106178    0.4896113509   -0.5150009268
H       -1.0056460095    2.4777983456   -0.8901266180
C        0.0370464661   -0.7994513507    1.4093442906
H        0.0466152590   -1.5322194210    2.2075071459
13   
From optimize.out: Frame 53 / 57, Energy=    -286.8549356414
C        1.4672498185    0.4438586556   -0.3518728292
C        0.8853044639   -0.7869423220    0.2132531410
C       -0.7471461846   -0.8048440407    0.1769466516
C       -1.3125900732    0.4566401185   -0.3294532284
C       -0.5482279894    1.5434086955   -0.5778580699
N        0.8461600566    1.5376436118   -0.6331648073
H        2.5309780932    0.4003209816   -0.5991411639
H        1.4447915445   -1.6991985680   -0.0027187225
H       -1.2644982518   -1.7247814819   -0.1015907932
H       -2.3832608460    0.4915935062   -0.5154441352
H       -1.0067023765    2.4770227789   -0.8938266174
C        0.0389098776   -0.8000914658    1.4090947630
H        0.0490318671   -1.5346304697    2.2057758114
13   
From optimize.out: Frame 52 / 57, Energy=    -286.8549100850
C        1.4661736082    0.4448516725   -0.3495803589
C        0.8849017498   -0.7895293364    0.2099739089
C       -0.7508159293   -0.8036258476    0.1819097402
C       -1.3140968280    0.4583959384   -0.3274713714
C       -0.5484496683    1.5429598048   -0.5811566400
N        0.8456936353    1.5380297709   -0.6335683544
H        2.5313756983    0.4025895457   -0.5914288333
H        1.4464730054   -1.7005257592   -0.0051575100
H       -1.2673393698   -1.7231621609   -0.0995639551
H       -2.3842866433    0.4943819487   -0.5163476269
H       -1.0065194738    2.4758749151   -0.9001049575
C        0.0430873655   -0.8017054668    1.4087227867
H        0.0538028500   -1.5385350250    2.2037731717
13   
From optimize.out: Frame 51 / 57, Energy=    -286.8548783919
C        1.4664776474    0.4465141538   -0.3468372390
C        0.8837398122   -0.7884170085    0.2100391841
C       -0.7544078999   -0.8008562605    0.1876392818
C       -1.3157857554    0.4600457452   -0.3256787102
C       -0.5486711421    1.5419814426   -0.5850117289
N        0.8461215050    1.5376269393   -0.6353868189
H        2.5322938598    0.4042117503   -0.5860705199
H        1.4446906367   -1.6994685156   -0.0063569890
H       -1.2691433594   -1.7206077960   -0.0965302300
H       -2.3855970350    0.4945108281   -0.5174297847
H       -1.0048775846    2.4748797134   -0.9068443611
C        0.0447942538   -0.8023553066    1.4107869272
H        0.0603650615   -1.5480656855    2.1976809885
13   
From optimize.out: Frame 50 / 57, Energy=    -286.8548469170
C        1.4673720536    0.4471914450   -0.3452598938
C        0.8839086591   -0.7898324449    0.2091124483
C       -0.7545906430   -0.7976183377    0.1934998656
C       -1.3146872607    0.4597994849   -0.3259007008
C       -0.5492447740    1.5418705387   -0.5883589709
N        0.8446742216    1.5377924331   -0.6354816545
H        2.5337728780    0.4117106505   -0.5823472722
H        1.4408863436   -1.7018989333   -0.0137174045
H       -1.2725519531   -1.7169814508   -0.0861506657
H       -2.3839869942    0.4908062306   -0.5212741302
H       -1.0032041656    2.4755017316   -0.9108754232
C        0.0512948254   -0.8031500748    1.4128301675
H        0.0563568094   -1.5551912728    2.1939236343
13   
From optimize.out: Frame 49 / 57, Energy=    -286.8548126782
C        1.4679078287    0.4487645014   -0.3436611526
C        0.8832604312   -0.7868634636    0.2115630968
C       -0.7553505663   -0.7935955734    0.1985127473
C       -1.3148600136    0.4601966008   -0.3266479757
C       -0.5493634221    1.5414106683   -0.5907805704
N        0.8450538632    1.5379268636   -0.6350326575
H        2.5341908905    0.4133977255   -0.5804892846
H        1.4364101977   -1.6998792669   -0.0175291231
H       -1.2752869256   -1.7131523663   -0.0769709141
H       -2.3836662642    0.4864812843   -0.5255555190
H       -1.0006777969    2.4751769261   -0.9162896990
C        0.0525062780   -0.8027387142    1.4169295748
H        0.0598754994   -1.5671251857    2.1859514771
13   
From optimize.out: Frame 48 / 57, Energy=    -286.8547766722
C        1.4679998426    0.4488143965   -0.3433607476
C        0.8836461778   -0.7860681863    0.2125872618
C       -0.7538854551   -0.7904198693    0.2008479201
C       -1.3143084092    0.4598250261   -0.3284620081
C       -0.5499176878    1.5422255952   -0.5914114784
N        0.8446101797    1.5388819885   -0.6323152782
H        2.5343163406    0.4146098289   -0.5799273724
H        1.4333904141   -1.6998602766   -0.0220189301
H       -1.2774729329   -1.7104400911   -0.0661314756
H       -2.3824649935    0.4823006225   -0.5309591966
H       -0.9999664026    2.4758547032   -0.9188360649
C        0.0551416092   -0.8015669705    1.4196247293
H        0.0589113172   -1.5741567672    2.1803626406
13   
From optimize.out: Frame 47 / 57, Energy=    -286.8547267172
C        1.4665030748    0.4484983415   -0.3434521670
C        0.8842900121   -0.7857487973    0.2132367218
C       -0.7520659414   -0.7870275980    0.2024471452
C       -1.3144798727    0.4598218894   -0.3311157486
C       -0.5505559828    1.5436383926   -0.5905318451
N        0.8443674046    1.5408007253   -0.6262064984
H        2.5329519190    0.4121288671   -0.5793241401
H        1.4320477810   -1.6994476606   -0.0261207028
H       -1.2802059681   -1.7074821215   -0.0539407040
H       -2.3814114038    0.4787108566   -0.5396431137
H       -1.0001283331    2.4761651348   -0.9216844195
C        0.0569863339   -0.7992837683    1.4223253732
H        0.0617009765   -1.5807742616    2.1740100989
13   
From optimize.out: Frame 46 / 57, Energy=    -286.8546861106
C        1.4648629000    0.4475689258   -0.3440777366
C        0.8848702338   -0.7867793911    0.2126995740
C       -0.7507602209   -0.7853476859    0.2023705193
C       -1.3149920005    0.4603580155   -0.3324473115
C       -0.5511078700    1.5452944978   -0.5891558367
N        0.8440068634    1.5424525705   -0.6214479130
H        2.5314387813    0.4095134762   -0.5797509771
H        1.4327055079   -1.7004067999   -0.0258849538
H       -1.2802211816   -1.7070231960   -0.0467982735
H       -2.3809242564    0.4783333664   -0.5454769095
H       -1.0013576013    2.4766608850   -0.9228187860
C        0.0579177579   -0.7970289363    1.4231147941
H        0.0635610865   -1.5835957280    2.1696738102
13   
From optimize.out: Frame 45 / 57, Energy=    -286.8546416099
C        1.4630596440    0.4462152632   -0.3454138046
C        0.8860502957   -0.7880266835    0.2137720973
C       -0.7490748198   -0.7856290370    0.2030024640
C       -1.3152651866    0.4604266881   -0.3310721331
C       -0.5515565426    1.5460331045   -0.5879433795
N        0.8435750282    1.5430843119   -0.6192886780
H        2.5292593039    0.4070873827   -0.5829183706
H        1.4382778091   -1.7002151657   -0.0180050072
H       -1.2833704159   -1.7038079675   -0.0480747007
H       -2.3801951509    0.4814546015   -0.5480405008
H       -1.0040081092    2.4754273521   -0.9241646850
C        0.0570243399   -0.7944299119    1.4241699554
H        0.0662238041   -1.5876199386    2.1639767429
13   
From optimize.out: Frame 44 / 57, Energy=    -286.8545834615
C        1.4620484219    0.4458038340   -0.3479645644
C        0.8857352564   -0.7857438886    0.2169083015
C       -0.7493283257   -0.7862032807    0.2006751206
C       -1.3153956581    0.4635628974   -0.3284592459
C       -0.5507782158    1.5477853076   -0.5876228319
N        0.8439261738    1.5432275909   -0.6238301100
H        2.5271708644    0.4039508171   -0.5899352168
H        1.4417051675   -1.6990843901    0.0008991850
H       -1.2760962766   -1.7079750301   -0.0530177362
H       -2.3810263704    0.4863534026   -0.5414810383
H       -1.0052633621    2.4758952367   -0.9247478929
C        0.0507104746   -0.7918433646    1.4249630950
H        0.0665918501   -1.5957291323    2.1536129342
13   
From optimize.out: Frame 43 / 57, Energy=    -286.8545055827
C        1.4629168116    0.4458556688   -0.3499334402
C        0.8856266864   -0.7807069762    0.2244268679
C       -0.7495740845   -0.7886139834    0.1998164459
C       -1.3143065062    0.4649064404   -0.3236320105
C       -0.5495713970    1.5473212846   -0.5895332837
N        0.8446962690    1.5411384824   -0.6347342469
H        2.5263252221    0.4021400757   -0.5984151241
H        1.4477547686   -1.6932432536    0.0225192342
H       -1.2743481402   -1.7074294444   -0.0677024540
H       -2.3814772020    0.4919264558   -0.5283630350
H       -1.0066715977    2.4744317785   -0.9257596271
C        0.0422616192   -0.7914397695    1.4275117330
H        0.0663675507   -1.6062867590    2.1437989405
13   
From optimize.out: Frame 42 / 57, Energy=    -286.8544242674
C        1.4645796334    0.4473892227   -0.3514748064
C        0.8845561453   -0.7732377171    0.2322933661
C       -0.7507840508   -0.7906105841    0.1982788585
C       -1.3125260399    0.4664326036   -0.3204707677
C       -0.5475582898    1.5465677802   -0.5922482452
N        0.8460044994    1.5389724714   -0.6473373629
H        2.5262892236    0.4008019069   -0.6056376789
H        1.4493802938   -1.6863345218    0.0397343213
H       -1.2698440420   -1.7093774391   -0.0801491625
H       -2.3819774873    0.4949557149   -0.5134564728
H       -1.0061039803    2.4737572900   -0.9260192824
C        0.0334423239   -0.7928792364    1.4302548593
H        0.0645417707   -1.6164374913    2.1362323735
13   
From optimize.out: Frame 41 / 57, Energy=    -286.8543681788
C        1.4661820054    0.4485356741   -0.3520866141
C        0.8838017311   -0.7675871135    0.2385036880
C       -0.7511727141   -0.7919520240    0.1973865821
C       -1.3108833090    0.4665369277   -0.3190679092
C       -0.5462545772    1.5457073950   -0.5950982933
N        0.8469042397    1.5372867503   -0.6567506624
H        2.5269193838    0.3997978216   -0.6093276672
H        1.4504877236   -1.6801654028    0.0472520635
H       -1.2683260939   -1.7096372443   -0.0878854874
H       -2.3820523932    0.4958096586   -0.5029174848
H       -1.0056480621    2.4735167395   -0.9257785290
C        0.0284892713   -0.7947666663    1.4328261335
H        0.0615527946   -1.6230825158    2.1329441803
13   
From optimize.out: Frame 40 / 57, Energy=    -286.8543074834
C        1.4674406804    0.4511871368   -0.3528807335
C        0.8834594122   -0.7602927525    0.2438000110
C       -0.7509807199   -0.7934581345    0.1962004237
C       -1.3089330123    0.4655455991   -0.3189256920
C       -0.5449655545    1.5445395220   -0.5982618215
N        0.8476390523    1.5362377643   -0.6656893267
H        2.5276564700    0.3966359107   -0.6104533086
H        1.4489236921   -1.6738796968    0.0505436750
H       -1.2666815192   -1.7107000431   -0.0928311630
H       -2.3816342125    0.4966231430   -0.4944576289
H       -1.0055316737    2.4733637583   -0.9244248557
C        0.0253248771   -0.7967940577    1.4361375399
H        0.0582825081   -1.6290081496    2.1312428803
13   
From optimize.out: Frame 39 / 57, Energy=    -286.8542525073
C        1.4670072852    0.4518835083   -0.3534158391
C        0.8824384056   -0.7569139088    0.2481272879
C       -0.7513783487   -0.7944450321    0.1953452229
C       -1.3077798186    0.4651070525   -0.3192423912
C       -0.5442150440    1.5438692201   -0.6010628210
N        0.8476335469    1.5355312930   -0.6720162704
H        2.5271818980    0.3920598922   -0.6100563310
H        1.4531678813   -1.6658764053    0.0474922399
H       -1.2643596105   -1.7132455347   -0.0936124468
H       -2.3812857444    0.4996984657   -0.4899549873
H       -1.0053405934    2.4739275539   -0.9232253196
C        0.0226965751   -0.7984094114    1.4395559197
H        0.0542335676   -1.6331866933    2.1320657361
13   
From optimize.out: Frame 38 / 57, Energy=    -286.8541967274
C        1.4655772512    0.4540275487   -0.3542876444
C        0.8845748571   -0.7548574737    0.2509680381
C       -0.7495478188   -0.7957396829    0.1948518059
C       -1.3080571648    0.4632615354   -0.3192313792
C       -0.5456041439    1.5425149581   -0.6037820752
N        0.8453651587    1.5350565431   -0.6777942229
H        2.5261377164    0.3894277796   -0.6084805332
H        1.4535372096   -1.6645713087    0.0479425110
H       -1.2598285061   -1.7164483898   -0.0932238211
H       -2.3810594410    0.5104335241   -0.4901198268
H       -1.0063475602    2.4744406873   -0.9213947336
C        0.0224804831   -0.8005038526    1.4419491348
H        0.0527719586   -1.6370418685    2.1326027463
13   
From optimize.out: Frame 37 / 57, Energy=    -286.8541201534
C        1.4655219068    0.4539359779   -0.3514156421
C        0.8907346238   -0.7559591494    0.2571520712
C       -0.7459188367   -0.7920529290    0.1916395057
C       -1.3107571017    0.4660126215   -0.3233182363
C       -0.5471782528    1.5432284810   -0.6119448991
N        0.8453716022    1.5322330741   -0.6867416542
H        2.5266283425    0.3921043534   -0.6061408683
H        1.4541942587   -1.6681779652    0.0511192644
H       -1.2577000780   -1.7106909641   -0.1019422118
H       -2.3873466071    0.5023793864   -0.4713448339
H       -1.0025498591    2.4801930103   -0.9224430846
C        0.0189197203   -0.8029848739    1.4426341811
H        0.0500802813   -1.6402210230    2.1327464079
13   
From optimize.out: Frame 36 / 57, Energy=    -286.8539828592
C        1.4633287009    0.4532157291   -0.3486259534
C        0.8941711217   -0.7592678072    0.2627268702
C       -0.7452690258   -0.7907012864    0.1931273260
C       -1.3139832653    0.4674391989   -0.3249978238
C       -0.5495453894    1.5420755650   -0.6164093878
N        0.8436999969    1.5295013316   -0.6914747870
H        2.5243935791    0.3977881328   -0.6073249747
H        1.4572466567   -1.6699524581    0.0514328018
H       -1.2516190404   -1.7124064505   -0.1019520178
H       -2.3903792021    0.5134130408   -0.4701052565
H       -0.9995532157    2.4824474186   -0.9242914193
C        0.0144185600   -0.8085688421    1.4432179793
H        0.0530905234   -1.6449835726    2.1346766430
13   
From optimize.out: Frame 35 / 57, Energy=    -286.8535124183
C        1.4642650376    0.4499743552   -0.3436076413
C        0.8974407551   -0.7637956653    0.2720942744
C       -0.7420851155   -0.7879575285    0.1963099532
C       -1.3143426415    0.4702198716   -0.3278067261
C       -0.5499187145    1.5411490825   -0.6205260540
N        0.8444329554    1.5240447297   -0.6942837132
H        2.5215467796    0.4257779789   -0.6232586679
H        1.4491687093   -1.6823309980    0.0654930783
H       -1.2486418819   -1.7081536353   -0.1039564738
H       -2.3916481293    0.5155909373   -0.4655029233
H       -0.9937048843    2.4846844442   -0.9272908433
C        0.0114995976   -0.8165897191    1.4406411914
H        0.0519875324   -1.6526138532    2.1316945456
13   
From optimize.out: Frame 34 / 57, Energy=    -286.8534554834
C        1.4640303964    0.4537251880   -0.3579951992
C        0.9069065152   -0.7658715568    0.2627430828
C       -0.7325708853   -0.7850412930    0.1820401203
C       -1.3196770460    0.4671246703   -0.3241173094
C       -0.5576171114    1.5407155239   -0.6249530306
N        0.8399361123    1.5218005968   -0.7108579132
H        2.5295207797    0.3930946879   -0.5973459913
H        1.4758802203   -1.6742120824    0.0632662150
H       -1.2396526727   -1.7080854985   -0.1090970504
H       -2.4004391809    0.5107682378   -0.4328993396
H       -0.9987824904    2.4904381987   -0.9157648250
C        0.0157832213   -0.8003207619    1.4403208484
H        0.0166821414   -1.6441359107    2.1246603923
13   
From optimize.out: Frame 33 / 57, Energy=    -286.8526961023
C        1.4654785320    0.4518985535   -0.3693749255
C        0.9088517069   -0.7658015631    0.2611229340
C       -0.7183824219   -0.7882798295    0.1832743680
C       -1.3156647571    0.4636719655   -0.3233000770
C       -0.5582981984    1.5408521595   -0.6304191726
N        0.8386787271    1.5142615518   -0.7254324208
H        2.5323209197    0.4044327395   -0.6038255544
H        1.4913518638   -1.6678532757    0.0729682676
H       -1.2292535966   -1.7137486134   -0.0908588673
H       -2.3988648480    0.5071289272   -0.4055426770
H       -0.9935225978    2.4975905819   -0.9059268669
C        0.0197005677   -0.7940606175    1.4357812640
H       -0.0423958972   -1.6500925796    2.1015337278
13   
From optimize.out: Frame 32 / 57, Energy=    -286.8516107029
C        1.4665115557    0.4451498055   -0.3794001999
C        0.9124212693   -0.7724741148    0.2605614128
C       -0.7068353780   -0.7894796180    0.1677209362
C       -1.3075402709    0.4612346861   -0.3223648725
C       -0.5603465393    1.5348904125   -0.6273898446
N        0.8299607082    1.5052401336   -0.7334219858
H        2.5322509021    0.4219377151   -0.6204624970
H        1.5013295775   -1.6744337699    0.0926851486
H       -1.2266928398   -1.7124089598   -0.0958653118
H       -2.3914319601    0.5111679680   -0.3903961566
H       -0.9949597521    2.4957288273   -0.8882032038
C        0.0292545724   -0.7812153966    1.4435907590
H       -0.0839218448   -1.6453376889    2.0929458152
13   
From optimize.out: Frame 31 / 57, Energy=    -286.8499108505
C        1.4684981509    0.4449097104   -0.3915701372
C        0.9086545355   -0.7656723415    0.2553214808
C       -0.6958476408   -0.7951012456    0.1639347987
C       -1.3037773022    0.4555659942   -0.3211958656
C       -0.5605493495    1.5339437844   -0.6282192208
N        0.8279615049    1.5005462101   -0.7431870782
H        2.5368950686    0.4145010283   -0.6164105242
H        1.5128408681   -1.6602332950    0.0972891829
H       -1.2222333766   -1.7184709213   -0.0803697146
H       -2.3888272068    0.5034895566   -0.3696810273
H       -0.9922490731    2.4993987538   -0.8759137847
C        0.0378752208   -0.7702722258    1.4424592811
H       -0.1292413997   -1.6426050086    2.0675426089
13   
From optimize.out: Frame 30 / 57, Energy=    -286.8475713066
C        1.4699586544    0.4398584147   -0.3990027998
C        0.9036245420   -0.7619393878    0.2496190719
C       -0.6889640813   -0.8028932331    0.1549475795
C       -1.2990565016    0.4487243406   -0.3202565261
C       -0.5568669818    1.5291006485   -0.6247920800
N        0.8267816469    1.4914523574   -0.7447785646
H        2.5371164228    0.4258284095   -0.6273835344
H        1.5210964842   -1.6504224386    0.1022700471
H       -1.2210925452   -1.7269461204   -0.0685538439
H       -2.3840648954    0.5027394470   -0.3593567693
H       -0.9852882045    2.4983688899   -0.8619178170
C        0.0450322119   -0.7578788636    1.4490310096
H       -0.1682767526   -1.6359924640    2.0501742269
13   
From optimize.out: Frame 29 / 57, Energy=    -286.8445139966
C        1.4718450036    0.4371992392   -0.4096093781
C        0.8939551284   -0.7531825239    0.2526884524
C       -0.6789038106   -0.8062797307    0.1437650091
C       -1.2943506928    0.4452702503   -0.3225504396
C       -0.5598396964    1.5264327525   -0.6217857258
N        0.8201127315    1.4877242976   -0.7525302087
H        2.5411336264    0.4133275447   -0.6242317415
H        1.5219991670   -1.6388465732    0.1186647082
H       -1.2202717104   -1.7276020543   -0.0621213754
H       -2.3794617952    0.5009330398   -0.3506085133
H       -0.9884191779    2.4979745183   -0.8476222337
C        0.0621036719   -0.7488647125    1.4518077986
H       -0.1899024455   -1.6340860478    2.0241336477
13   
From optimize.out: Frame 28 / 57, Energy=    -286.8407923392
C        1.4729423892    0.4322313987   -0.4148121744
C        0.8835806731   -0.7446585188    0.2478601657
C       -0.6744738575   -0.8146427669    0.1335245580
C       -1.2927638928    0.4375861070   -0.3238562122
C       -0.5553808485    1.5224428527   -0.6173690967
N        0.8224015549    1.4795351030   -0.7508287864
H        2.5413097482    0.4177599442   -0.6305780221
H        1.5241601969   -1.6245810988    0.1223753479
H       -1.2206257881   -1.7366667788   -0.0479260883
H       -2.3773563235    0.4993388069   -0.3470427231
H       -0.9814163616    2.4964708716   -0.8351157121
C        0.0719058160   -0.7366982698    1.4605707898
H       -0.2142833063   -1.6281176509    2.0031979539
13   
From optimize.out: Frame 27 / 57, Energy=    -286.8361954729
C        1.4735640385    0.4276133782   -0.4215652397
C        0.8706460584   -0.7358536211    0.2489898510
C       -0.6680669410   -0.8193778897    0.1198072650
C       -1.2914852791    0.4324708179   -0.3280485444
C       -0.5552113543    1.5201833698   -0.6130154964
N        0.8225127783    1.4757680123   -0.7527443416
H        2.5427205708    0.4108948359   -0.6308252214
H        1.5201166172   -1.6132146665    0.1367591874
H       -1.2203935146   -1.7404491558   -0.0385761851
H       -2.3755489289    0.4988614629   -0.3465798861
H       -0.9820883155    2.4952711055   -0.8215840879
C        0.0882238908   -0.7260609738    1.4691417756
H       -0.2249896205   -1.6261066756    1.9782409236
13   
From optimize.out: Frame 26 / 57, Energy=    -286.8310460273
C        1.4736130669    0.4225264085   -0.4269673007
C        0.8574220727   -0.7288181169    0.2478824529
C       -0.6626809152   -0.8243732437    0.1048778617
C       -1.2919161938    0.4264188599   -0.3328499272
C       -0.5535760068    1.5187973881   -0.6086859074
N        0.8274905375    1.4730692847   -0.7528184273
H        2.5431012761    0.4076426258   -0.6325880459
H        1.5135865382   -1.6041606288    0.1511337348
H       -1.2194707889   -1.7453679841   -0.0279602511
H       -2.3753210275    0.4974839891   -0.3479615344
H       -0.9825642377    2.4943054353   -0.8078826289
C        0.1031321999   -0.7138514230    1.4803443125
H       -0.2328165215   -1.6236725949    1.9534756610
13   
From optimize.out: Frame 25 / 57, Energy=    -286.8255266890
C        1.4734576704    0.4179425769   -0.4337660548
C        0.8443464624   -0.7252345097    0.2462337393
C       -0.6561096364   -0.8279511983    0.0868885974
C       -1.2927807722    0.4206170959   -0.3385607815
C       -0.5527162792    1.5191321569   -0.6047647118
N        0.8345309194    1.4747425796   -0.7548261775
H        2.5440231334    0.4033952572   -0.6330388056
H        1.5025333478   -1.6010010510    0.1724830924
H       -1.2168405320   -1.7488088567   -0.0195807945
H       -2.3756692994    0.4946802422   -0.3490919232
H       -0.9869652347    2.4942857943   -0.7920408589
C        0.1186413151   -0.7003456629    1.4924361801
H       -0.2364510946   -1.6214544246    1.9276284986
13   
From optimize.out: Frame 24 / 57, Energy=    -286.8200209778
C        1.4731735146    0.4143051818   -0.4423303343
C        0.8325906850   -0.7263434562    0.2402540233
C       -0.6487414465   -0.8316750072    0.0654537670
C       -1.2933153119    0.4139122330   -0.3439171275
C       -0.5505102339    1.5209480685   -0.6010433005
N        0.8431991311    1.4808743322   -0.7577761403
H        2.5453285760    0.4022048374   -0.6337295843
H        1.4872399848   -1.6050594537    0.1982108999
H       -1.2118523090   -1.7530260047   -0.0129646051
H       -2.3760182188    0.4887452066   -0.3479701412
H       -0.9923717886    2.4955158769   -0.7733233361
C        0.1316733979   -0.6836842181    1.5055785781
H       -0.2403959807   -1.6167175964    1.9035573010
13   
From optimize.out: Frame 23 / 57, Energy=    -286.8149051891
C        1.4724270274    0.4117486910   -0.4528915571
C        0.8233330594   -0.7325099737    0.2274855365
C       -0.6406736906   -0.8355394991    0.0391037123
C       -1.2921686976    0.4068377526   -0.3483679911
C       -0.5469920927    1.5234113216   -0.5966938187
N        0.8501908387    1.4910559767   -0.7608492827
H        2.5469559656    0.4028337922   -0.6331364619
H        1.4675710532   -1.6173318187    0.2253851756
H       -1.2034693622   -1.7586748544   -0.0102305581
H       -2.3750922889    0.4797949979   -0.3439845275
H       -0.9982468299    2.4971912428   -0.7511422647
C        0.1411805838   -0.6618409867    1.5197778840
H       -0.2450155664   -1.6069766423    1.8855441533
13   
From optimize.out: Frame 22 / 57, Energy=    -286.8104210590
C        1.4710399840    0.4091370664   -0.4631661681
C        0.8173625436   -0.7430326998    0.2064438907
C       -0.6330114910   -0.8398442898    0.0094235461
C       -1.2891032848    0.3993619517   -0.3509755281
C       -0.5425343842    1.5241569678   -0.5910059902
N        0.8541809133    1.5012493217   -0.7610907577
H        2.5482488195    0.4046708789   -0.6298866174
H        1.4484878783   -1.6339008686    0.2444442779
H       -1.1942592771   -1.7649436190   -0.0126805273
H       -2.3723376916    0.4700146395   -0.3383867628
H       -1.0034746891    2.4967708809   -0.7275313620
C        0.1457542241   -0.6335515581    1.5361907158
H       -0.2503535449   -1.5900886716    1.8782212830
13   
From optimize.out: Frame 21 / 57, Energy=    -286.8063839670
C        1.4695348305    0.4061847133   -0.4714482449
C        0.8141244055   -0.7568886611    0.1772671676
C       -0.6258895461   -0.8448379121   -0.0203855488
C       -1.2846747538    0.3915220898   -0.3518004488
C       -0.5377327374    1.5228999649   -0.5845059923
N        0.8559366815    1.5098271399   -0.7571287637
H        2.5493677780    0.4070619185   -0.6229270806
H        1.4327759318   -1.6520162434    0.2497125960
H       -1.1856885585   -1.7712945863   -0.0186950842
H       -2.3681763659    0.4600503801   -0.3319595307
H       -1.0077901210    2.4939416685   -0.7050057353
C        0.1446668466   -0.5997868300    1.5544952849
H       -0.2564543912   -1.5666636419    1.8823813810
13   
From optimize.out: Frame 20 / 57, Energy=    -286.8024316188
C        1.4687525333    0.4032439831   -0.4770186081
C        0.8131199226   -0.7728966878    0.1400185016
C       -0.6190507931   -0.8510335628   -0.0476978392
C       -1.2793447338    0.3835729348   -0.3514302721
C       -0.5330605544    1.5202072287   -0.5774219632
N        0.8562906907    1.5165905863   -0.7483372228
H        2.5509008125    0.4093131815   -0.6124624832
H        1.4213211190   -1.6706633974    0.2382840249
H       -1.1774028011   -1.7784546058   -0.0260990280
H       -2.3630712076    0.4497700218   -0.3253134488
H       -1.0111907527    2.4894438320   -0.6846626858
C        0.1373913188   -0.5619886195    1.5737262837
H       -0.2646555540   -1.5371048948    1.8984147411
13   
From optimize.out: Frame 19 / 57, Energy=    -286.7982516184
C        1.4691044289    0.4003346334   -0.4798905246
C        0.8137488363   -0.7895830148    0.0967975271
C       -0.6125360743   -0.8589133816   -0.0718954606
C       -1.2736250171    0.3756583175   -0.3503070218
C       -0.5286745945    1.5165737148   -0.5692738709
N        0.8557759224    1.5212437957   -0.7348419743
H        2.5530633916    0.4107532060   -0.6002452963
H        1.4140437844   -1.6891722106    0.2109449105
H       -1.1686542811   -1.7875746776   -0.0344956528
H       -2.3575659413    0.4390387166   -0.3189963864
H       -1.0134876300    2.4840893305   -0.6658376010
C        0.1249713896   -0.5214385119    1.5923696134
H       -0.2761642148   -1.5010099180    1.9256717377
13   
From optimize.out: Frame 18 / 57, Energy=    -286.7938030433
C        1.4701829594    0.3968791774   -0.4806035190
C        0.8151931856   -0.8060788552    0.0514948028
C       -0.6065607569   -0.8683552970   -0.0945161237
C       -1.2679527933    0.3675781880   -0.3485088677
C       -0.5246047715    1.5121069606   -0.5594770902
N        0.8545886650    1.5235209426   -0.7176808032
H        2.5554515281    0.4109094676   -0.5878624711
H        1.4100224679   -1.7072569910    0.1728229873
H       -1.1599268897   -1.7985762374   -0.0458254646
H       -2.3521032770    0.4280275283   -0.3132420391
H       -1.0148197424    2.4781439619   -0.6469796620
C        0.1103310280   -0.4788331135    1.6088971423
H       -0.2898016031   -1.4580657324    1.9614811083
13   