13   
From optimize.out: Frame 35 / 36, Energy=    -286.8584590534
C        1.5366063709    0.4306394942   -0.3797269952
C        0.8434483317   -0.7968071007    0.0803704746
C       -0.5858167304   -1.0277566174   -0.3817094348
C       -1.1173886402    0.3114209015    0.1006779158
C       -0.4274396037    1.5421362482   -0.3551205131
N        0.8839183098    1.5727556656   -0.5858436800
H        2.6088040851    0.4182818606   -0.5653988334
H        1.4549523775   -1.6858761573    0.2258393024
H       -1.0688158931   -1.8723541415   -0.8530182914
H       -2.1917641923    0.3765177470    0.2642255122
H       -0.9903480078    2.4599444081   -0.5140737588
C       -0.3511969638   -0.6397158460    1.0056778007
H       -0.5949594442   -1.0891864617    1.9581005007
13   
From optimize.out: Frame 34 / 36, Energy=    -286.8584523575
C        1.5369186616    0.4308658332   -0.3795345933
C        0.8429907117   -0.7965556491    0.0802363127
C       -0.5855776845   -1.0263268818   -0.3821604307
C       -1.1177905703    0.3108938375    0.1020626510
C       -0.4274335955    1.5419248239   -0.3563065586
N        0.8842323345    1.5725066613   -0.5871185809
H        2.6092483899    0.4181208069   -0.5641177331
H        1.4551655103   -1.6852681119    0.2252533005
H       -1.0688665114   -1.8712346980   -0.8525668193
H       -2.1920222781    0.3748908532    0.2671922944
H       -0.9895432355    2.4600367686   -0.5160774387
C       -0.3509391713   -0.6383614773    1.0065317915
H       -0.5963825616   -1.0914927664    1.9566058045
13   
From optimize.out: Frame 33 / 36, Energy=    -286.8584456437
C        1.5361616977    0.4299922746   -0.3782418181
C        0.8435938747   -0.7979059766    0.0807503776
C       -0.5854443585   -1.0293632925   -0.3808204655
C       -1.1160099739    0.3108183018    0.1007078256
C       -0.4264422135    1.5432482168   -0.3511481875
N        0.8840128628    1.5734612429   -0.5827356211
H        2.6072707981    0.4178748954   -0.5701508462
H        1.4578662984   -1.6851841691    0.2257783995
H       -1.0697082314   -1.8726757083   -0.8530645818
H       -2.1907974571    0.3792545004    0.2607828723
H       -0.9923682103    2.4582177810   -0.5152424071
C       -0.3512616899   -0.6400685044    1.0054165574
H       -0.5968733970   -1.0876695620    1.9579678948
13   
From optimize.out: Frame 32 / 36, Energy=    -286.8584272614
C        1.5360185206    0.4301031011   -0.3759946769
C        0.8435466254   -0.7968927824    0.0810430902
C       -0.5857760608   -1.0285802954   -0.3825111983
C       -1.1171080412    0.3117390514    0.1001203244
C       -0.4268159838    1.5441438924   -0.3479296572
N        0.8846745749    1.5743209102   -0.5776556510
H        2.6062343108    0.4127374035   -0.5727943135
H        1.4548603651   -1.6858402521    0.2277442445
H       -1.0686857170   -1.8707079823   -0.8583382129
H       -2.1921833192    0.3740201516    0.2608139236
H       -0.9931409435    2.4575658418   -0.5196848414
C       -0.3528113980   -0.6383140658    1.0045203246
H       -0.5888129333   -1.0842949739    1.9606666440
13   
From optimize.out: Frame 31 / 36, Energy=    -286.8583412803
C        1.5358742310    0.4297591701   -0.3778079932
C        0.8463979844   -0.7990517200    0.0842040729
C       -0.5832178835   -1.0280247235   -0.3860730285
C       -1.1159341715    0.3136221852    0.1022571531
C       -0.4268496936    1.5457832220   -0.3432259348
N        0.8837120619    1.5760958408   -0.5721615921
H        2.6052804480    0.4156547363   -0.5794684010
H        1.4454683647   -1.6950908483    0.2365417527
H       -1.0665911092   -1.8691817702   -0.8628892753
H       -2.1913746750    0.3741954979    0.2599071329
H       -0.9976483131    2.4548397500   -0.5229710433
C       -0.3501482870   -0.6377598889    1.0019254524
H       -0.5849689571   -1.0808414516    1.9597617043
13   
From optimize.out: Frame 30 / 36, Energy=    -286.8582793221
C        1.5361058947    0.4286182392   -0.3773353749
C        0.8467296106   -0.7974978717    0.0853676566
C       -0.5870474718   -1.0280067005   -0.3839264490
C       -1.1193218511    0.3160866778    0.1105913078
C       -0.4260183380    1.5450610506   -0.3432852813
N        0.8858076553    1.5743523113   -0.5697710374
H        2.6066929252    0.4144501526   -0.5718444047
H        1.4599640414   -1.6859060213    0.2237418617
H       -1.0712954648   -1.8722486607   -0.8535829176
H       -2.1948786900    0.3786846441    0.2656856534
H       -0.9942453493    2.4528700927   -0.5359534880
C       -0.3524270798   -0.6358417330    0.9999652786
H       -0.5900658825   -1.0906221811    1.9503471946
13   
From optimize.out: Frame 29 / 36, Energy=    -286.8579883465
C        1.5391643102    0.4288699074   -0.3839479634
C        0.8506287653   -0.7972614250    0.0868129035
C       -0.5837345293   -1.0182924903   -0.3847604342
C       -1.1184537912    0.3225582126    0.1229860852
C       -0.4274088899    1.5448095864   -0.3504045894
N        0.8849192250    1.5730505947   -0.5745748336
H        2.6127513507    0.4261774979   -0.5605680090
H        1.4544446786   -1.6923679234    0.2211867116
H       -1.0747453855   -1.8703302732   -0.8317376912
H       -2.1936008625    0.3829797944    0.2796699321
H       -0.9962555449    2.4495939148   -0.5534449367
C       -0.3426761883   -0.6277903754    1.0032586333
H       -0.6050331381   -1.1219970209    1.9255241916
13   
From optimize.out: Frame 28 / 36, Energy=    -286.8574991757
C        1.5417523201    0.4288934264   -0.3884679884
C        0.8520946507   -0.7963378439    0.0852921093
C       -0.5824635983   -1.0101869594   -0.3837634235
C       -1.1177062709    0.3268992773    0.1325926823
C       -0.4286729140    1.5433499620   -0.3595552995
N        0.8844020302    1.5706811896   -0.5819976766
H        2.6183258878    0.4354516487   -0.5445507705
H        1.4556033534   -1.6925735278    0.2125765913
H       -1.0797938029   -1.8698006596   -0.8078860876
H       -2.1921586977    0.3883032372    0.2925886926
H       -0.9961613897    2.4476526881   -0.5672135669
C       -0.3348829284   -0.6209896705    1.0084178840
H       -0.6203386402   -1.1513427682    1.9019668534
13   
From optimize.out: Frame 27 / 36, Energy=    -286.8568730234
C        1.5440060262    0.4292523891   -0.3925097548
C        0.8523769079   -0.7958026543    0.0819021895
C       -0.5812099524   -1.0026097997   -0.3834848565
C       -1.1160865492    0.3298847972    0.1392643871
C       -0.4300104836    1.5417145881   -0.3696168330
N        0.8835036957    1.5685151669   -0.5907924593
H        2.6232792907    0.4450305507   -0.5268695369
H        1.4543253043   -1.6936593465    0.2052103412
H       -1.0847996853   -1.8693195285   -0.7846089040
H       -2.1895679089    0.3925833095    0.3046708668
H       -0.9960806256    2.4466975825   -0.5773208110
C       -0.3266620127   -0.6147276141    1.0143809844
H       -0.6330740073   -1.1775594408    1.8797743865
13   
From optimize.out: Frame 26 / 36, Energy=    -286.8561419238
C        1.5456557888    0.4296806455   -0.3957283577
C        0.8513240767   -0.7956456920    0.0765117442
C       -0.5807148769   -0.9962460438   -0.3835259365
C       -1.1140354638    0.3314699651    0.1434238706
C       -0.4312693456    1.5399360961   -0.3802606433
N        0.8824426419    1.5662703914   -0.6007823189
H        2.6273406182    0.4543267729   -0.5065464706
H        1.4535350975   -1.6938199359    0.1970998372
H       -1.0904763044   -1.8696937766   -0.7611868664
H       -2.1862854335    0.3968123612    0.3156618350
H       -0.9953664017    2.4468319916   -0.5844284358
C       -0.3186119721   -0.6090102196    1.0207276419
H       -0.6435384249   -1.2009125558    1.8590341003
13   
From optimize.out: Frame 25 / 36, Energy=    -286.8553109162
C        1.5465908889    0.4302355223   -0.3982258825
C        0.8490931370   -0.7960945767    0.0691520050
C       -0.5807823675   -0.9910247219   -0.3842039245
C       -1.1114986281    0.3317903219    0.1449899229
C       -0.4324761317    1.5383233299   -0.3912932910
N        0.8811346289    1.5640665985   -0.6118648172
H        2.6302787620    0.4635912012   -0.4838555823
H        1.4524020018   -1.6938182603    0.1890984347
H       -1.0967041242   -1.8708381100   -0.7377745683
H       -2.1822404164    0.4005415298    0.3255373734
H       -0.9940399042    2.4482431789   -0.5886272933
C       -0.3104339478   -0.6034571890    1.0272291070
H       -0.6513238987   -1.2215588246    1.8398385160
13   
From optimize.out: Frame 24 / 36, Energy=    -286.8543558892
C        1.5466393655    0.4308866223   -0.3997906950
C        0.8457232108   -0.7973303144    0.0597261304
C       -0.5814819643   -0.9870562827   -0.3854070371
C       -1.1086011889    0.3308942418    0.1439109824
C       -0.4336669517    1.5370430318   -0.4024922540
N        0.8795920721    1.5618383360   -0.6239156282
H        2.6318128729    0.4726291756   -0.4588098243
H        1.4514459161   -1.6934847527    0.1810241618
H       -1.1035448061   -1.8728543544   -0.7141735848
H       -2.1775680269    0.4039744452    0.3338994860
H       -0.9919654539    2.4510212450   -0.5900579314
C       -0.3022041455   -0.5977349277    1.0338024248
H       -0.6561809004   -1.2398264658    1.8222837696
13   
From optimize.out: Frame 23 / 36, Energy=    -286.8532237691
C        1.5456309027    0.4317079907   -0.4002339340
C        0.8413819727   -0.7996498125    0.0480382727
C       -0.5826852930   -0.9842644726   -0.3870079976
C       -1.1054395116    0.3289041797    0.1400055000
C       -0.4349172354    1.5363301923   -0.4135140538
N        0.8777946426    1.5596412962   -0.6366046838
H        2.6316813092    0.4812281905   -0.4316827742
H        1.4505845783   -1.6931564049    0.1729542745
H       -1.1108436333   -1.8756522603   -0.6902215704
H       -2.1723855467    0.4068507554    0.3403469677
H       -0.9891118236    2.4552359701   -0.5888980911
C       -0.2939113298   -0.5913306018    1.0403996131
H       -0.6577790321   -1.2558450229    1.8064184769
13   
From optimize.out: Frame 22 / 36, Energy=    -286.8518309075
C        1.5433839216    0.4327334389   -0.3993222045
C        0.8364465713   -0.8035194937    0.0336837033
C       -0.5841364128   -0.9825865360   -0.3886152728
C       -1.1021524285    0.3259582770    0.1330932280
C       -0.4362939976    1.5364091780   -0.4237790876
N        0.8756936698    1.5575962484   -0.6492758186
H        2.6296562717    0.4889859369   -0.4028775695
H        1.4500876062   -1.6932549087    0.1643337788
H       -1.1182852736   -1.8791645422   -0.6655156710
H       -2.1668918267    0.4089547288    0.3442572260
H       -0.9855962608    2.4608192422   -0.5853409459
C       -0.2855894229   -0.5836548633    1.0470353201
H       -0.6563224177   -1.2692767062    1.7923233138
13   
From optimize.out: Frame 21 / 36, Energy=    -286.8500567492
C        1.5398292792    0.4339904592   -0.3967993259
C        0.8315934583   -0.8094299553    0.0159765424
C       -0.5853771648   -0.9819202193   -0.3896523100
C       -1.0989613964    0.3222704292    0.1229811268
C       -0.4378007252    1.5374729641   -0.4325589478
N        0.8732565388    1.5560252322   -0.6607476211
H        2.6256872795    0.4953452429   -0.3730170835
H        1.4500748724   -1.6945870966    0.1539660537
H       -1.1252656801   -1.8833484602   -0.6393570132
H       -2.1614152207    0.4098536740    0.3448923251
H       -0.9817939485    2.4675035592   -0.5796333003
C       -0.2772640838   -0.5739633564    1.0537940891
H       -0.6525632087   -1.2792124729    1.7801554647
13   
From optimize.out: Frame 20 / 36, Energy=    -286.8477317970
C        1.5351034632    0.4354097705   -0.3922538842
C        0.8277429625   -0.8175183196   -0.0059601831
C       -0.5858967201   -0.9822193908   -0.3894515166
C       -1.0962857763    0.3180682539    0.1096287879
C       -0.4393484085    1.5395192453   -0.4391347500
N        0.8705602153    1.5553750894   -0.6692563295
H        2.6200339918    0.4995255295   -0.3429122642
H        1.4506001115   -1.6980347861    0.1397678310
H       -1.1309445799   -1.8882950411   -0.6108885639
H       -2.1565542123    0.4092066719    0.3413905522
H       -0.9783294563    2.4746955159   -0.5721665219
C       -0.2690402129   -0.5613980155    1.0608994710
H       -0.6476413780   -1.2843345235    1.7703373713
13   
From optimize.out: Frame 19 / 36, Energy=    -286.8446465019
C        1.5295307861    0.4367059179   -0.3851723362
C        0.8257160247   -0.8272281863   -0.0325338191
C       -0.5853299838   -0.9834525472   -0.3876612951
C       -1.0947231386    0.3134637755    0.0934588685
C       -0.4407358922    1.5422564176   -0.4430342454
N        0.8678667461    1.5558899701   -0.6730161596
H        2.6132811764    0.5008259938   -0.3136108588
H        1.4515078475   -1.7041279044    0.1195944984
H       -1.1344924520   -1.8940883948   -0.5798933126
H       -2.1531258860    0.4066774812    0.3332902188
H       -0.9757702617    2.4815849565   -0.5635324134
C       -0.2610372844   -0.5451666775    1.0685975228
H       -0.6426876822   -1.2833408022    1.7635133318
13   
From optimize.out: Frame 18 / 36, Energy=    -286.8406282594
C        1.5233368720    0.4372714684   -0.3753118414
C        0.8255440709   -0.8376311693   -0.0626379507
C       -0.5836658382   -0.9853496462   -0.3847835521
C       -1.0948665960    0.3084124692    0.0754242564
C       -0.4417976528    1.5451122995   -0.4442080435
N        0.8654594347    1.5571325755   -0.6714520052
H        2.6059800710    0.4989222535   -0.2860566492
H        1.4528369007   -1.7124206419    0.0928818161
H       -1.1356009499   -1.9003798348   -0.5478328759
H       -2.1518604704    0.4019816230    0.3211130634
H       -0.9742378520    2.4874672141   -0.5543161236
C       -0.2530492293   -0.5248461411    1.0769925613
H       -0.6380787606   -1.2756724698    1.7601873444
13   
From optimize.out: Frame 17 / 36, Energy=    -286.8356235109
C        1.5164794438    0.4365358254   -0.3629534871
C        0.8264167024   -0.8481289621   -0.0940478096
C       -0.5812054859   -0.9874247098   -0.3820396515
C       -1.0970108453    0.3028511074    0.0562900547
C       -0.4425526009    1.5475429522   -0.4429729964
N        0.8634435162    1.5582895964   -0.6654770864
H        2.5983181454    0.4940045602   -0.2605719882
H        1.4544403792   -1.7220399459    0.0614671091
H       -1.1347194159   -1.9064644531   -0.5171465608
H       -2.1530115584    0.3949650676    0.3059905649
H       -0.9735675620    2.4920190007   -0.5446014962
C       -0.2441636536   -0.5003706470    1.0858563638
H       -0.6328670650   -1.2617793920    1.7602069837
13   
From optimize.out: Frame 16 / 36, Energy=    -286.8296711812
C        1.5088059240    0.4343383517   -0.3486807384
C        0.8273392126   -0.8586395582   -0.1246915325
C       -0.5784158012   -0.9894114375   -0.3804625880
C       -1.1011008663    0.2968388913    0.0361555938
C       -0.4431467584    1.5492639925   -0.4396431358
N        0.8617836455    1.5588097044   -0.6564460472
H        2.5902254730    0.4866266862   -0.2369880083
H        1.4557632298   -1.7324437109    0.0282892501
H       -1.1327522550   -1.9118954169   -0.4896045634
H       -2.1564091037    0.3858546326    0.2886178339
H       -0.9736604491    2.4952163530   -0.5338786158
C       -0.2330899772   -0.4719172111    1.0945696154
H       -0.6253422741   -1.2426412770    1.7627629362
13   
From optimize.out: Frame 15 / 36, Energy=    -286.8228066765
C        1.5002449815    0.4308493692   -0.3331162709
C        0.8275982756   -0.8693598601   -0.1531382480
C       -0.5757810140   -0.9913651382   -0.3804591389
C       -1.1068767993    0.2905370714    0.0148187837
C       -0.4437612073    1.5501932804   -0.4343242105
N        0.8604018021    1.5585125770   -0.6454268099
H        2.5816237436    0.4774333353   -0.2150625102
H        1.4561673011   -1.7435032358   -0.0039812805
H       -1.1306037707   -1.9166501900   -0.4659891982
H       -2.1617337162    0.3752187192    0.2690838825
H       -0.9745805227    2.4971151238   -0.5214231843
C       -0.2187545536   -0.4397976670    1.1022528507
H       -0.6139445203   -1.2191833852    1.7667653345
13   
From optimize.out: Frame 14 / 36, Energy=    -286.8149970852
C        1.4908520992    0.4263536609   -0.3168335718
C        0.8268495980   -0.8805872092   -0.1784912545
C       -0.5736822456   -0.9935099367   -0.3819446886
C       -1.1139640072    0.2841008533   -0.0077323320
C       -0.4445616793    1.5503351093   -0.4269826128
N        0.8592032895    1.5574457719   -0.6331474973
H        2.5725192411    0.4670174016   -0.1946505784
H        1.4551882395   -1.7553571199   -0.0333368231
H       -1.1289210799   -1.9209705009   -0.4465381579
H       -2.1686292974    0.3638007559    0.2473057983
H       -0.9765350046    2.4977210070   -0.5065853355
C       -0.2005991652   -0.4043413777    1.1078842528
H       -0.5977199881   -1.1920084155    1.7710528009
13   
From optimize.out: Frame 13 / 36, Energy=    -286.8061448179
C        1.4808239514    0.4211522990   -0.3003345476
C        0.8250482622   -0.8925855919   -0.2002675302
C       -0.5723500932   -0.9961436042   -0.3845506469
C       -1.1219002647    0.2775788721   -0.0310617760
C       -0.4456307400    1.5497427076   -0.4176438829
N        0.8581176730    1.5558206327   -0.6201842056
H        2.5630244943    0.4559233724   -0.1756580846
H        1.4526093083   -1.7682234900   -0.0584286604
H       -1.1280408034   -1.9252496732   -0.4311200710
H       -2.1766642761    0.3522994167    0.2235742405
H       -0.9797506436    2.4970011529   -0.4889454184
C       -0.1787276417   -0.3658699186    1.1103300045
H       -0.5765592266   -1.1614461756    1.7742905785
13   
From optimize.out: Frame 12 / 36, Energy=    -286.7961341248
C        1.4705295045    0.4155542546   -0.2840184404
C        0.8223365582   -0.9054557153   -0.2183766911
C       -0.5718905105   -0.9996241620   -0.3877567406
C       -1.1302184927    0.2708920676   -0.0543202973
C       -0.4469217389    1.5485487259   -0.4065158956
N        0.8571535062    1.5540093446   -0.6071415578
H        2.5533875831    0.4446715966   -0.1579295205
H        1.4484462990   -1.7822031609   -0.0785711508
H       -1.1280431062   -1.9299956314   -0.4191190194
H       -2.1853366753    0.3411406647    0.1988326014
H       -0.9842792684    2.4950072511   -0.4684146871
C       -0.1539112962   -0.3247806214    1.1084574071
H       -0.5512523629   -1.1277646141    1.7748739921
13   
From optimize.out: Frame 11 / 36, Energy=    -286.7848554589
C        1.4604546141    0.4098359104   -0.2681872018
C        0.8189606097   -0.9191204199   -0.2330306690
C       -0.5723086507   -1.0042828188   -0.3911049971
C       -1.1386327945    0.2638841816   -0.0764720070
C       -0.4482799338    1.5469379802   -0.3939563067
N        0.8563780893    1.5525266529   -0.5946712703
H        2.5439451620    0.4336625187   -0.1411981106
H        1.4428448284   -1.7972530705   -0.0936221425
H       -1.1288128309   -1.9357052106   -0.4096855708
H       -2.1942435662    0.3303781881    0.1745163628
H       -0.9899251257    2.4919098202   -0.4452367728
C       -0.1272728758   -0.2815513444    1.1014160494
H       -0.5231075260   -1.0912223881    1.7712326364
13   
From optimize.out: Frame 10 / 36, Energy=    -286.7721999950
C        1.4511066894    0.4041724662   -0.2530935676
C        0.8152290244   -0.9333676279   -0.2445745655
C       -0.5735487991   -1.0103317509   -0.3943407159
C       -1.1471527655    0.2563934910   -0.0965834103
C       -0.4494650239    1.5450532160   -0.3803772344
N        0.8558735055    1.5519947288   -0.5833513679
H        2.5350422558    0.4231003394   -0.1252117855
H        1.4360445010   -1.8131959733   -0.1037735152
H       -1.1301326171   -1.9427285226   -0.4020947046
H       -2.2032309510    0.3197362938    0.1521680873
H       -0.9962637713    2.4879116455   -0.4198476782
C       -0.0999704491   -0.2367066309    1.0888677619
H       -0.4935315992   -1.0520316752    1.7622126959
13   
From optimize.out: Frame 9 / 36, Energy=    -286.7580843157
C        1.4429827085    0.3985799133   -0.2389681960
C        0.8114594846   -0.9478583038   -0.2533630964
C       -0.5755559841   -1.0178682798   -0.3973109216
C       -1.1559745590    0.2483383921   -0.1141175610
C       -0.4502047639    1.5429252526   -0.3661049008
N        0.8556923908    1.5531117553   -0.5735706694
H        2.5270280712    0.4130039481   -0.1099581885
H        1.4284260600   -1.8296473094   -0.1094339767
H       -1.1318001726   -1.9512380969   -0.3956923500
H       -2.2123486366    0.3088060870    0.1329411454
H       -1.0027395869    2.4831444914   -0.3926374761
C       -0.0730894562   -0.1908511099    1.0710387278
H       -0.4638755558   -1.0104467400    1.7471774632
13   
From optimize.out: Frame 8 / 36, Energy=    -286.7424931806
C        1.4366170304    0.3929122889   -0.2260555481
C        0.8079199386   -0.9620975883   -0.2597017465
C       -0.5783120767   -1.0268701059   -0.3998401501
C       -1.1653594725    0.2397746073   -0.1290574786
C       -0.4503311150    1.5404076317   -0.3512442192
N        0.8558328140    1.5565627764   -0.5655078106
H        2.5203488950    0.4031561306   -0.0957184746
H        1.4204650686   -1.8459812524   -0.1111498609
H       -1.1336902575   -1.9612134981   -0.3898007939
H       -2.2217892173    0.2973034369    0.1172317459
H       -1.0088790562    2.4775449117   -0.3637608198
C       -0.0475185527   -0.1446576127    1.0486244564
H       -0.4353039987   -0.9668417260    1.7259807001
13   
From optimize.out: Frame 7 / 36, Energy=    -286.7254775872
C        1.4326339063    0.3869763835   -0.2146950057
C        0.8048130079   -0.9754075072   -0.2638037879
C       -0.5818465672   -1.0371500459   -0.4017380069
C       -1.1756753287    0.2308851019   -0.1417806543
C       -0.4498881839    1.5371005262   -0.3356666824
N        0.8563429310    1.5627538497   -0.5591532478
H        2.5156435539    0.3931106957   -0.0829821030
H        1.4126302969   -1.8613608137   -0.1094508927
H       -1.1357639522   -1.9724052644   -0.3838346633
H       -2.2319384665    0.2852041852    0.1047250273
H       -1.0144422283    2.4707456917   -0.3330757966
C       -0.0238114944   -0.0987890549    1.0225534065
H       -0.4086974747   -0.9216637479    1.6989024067
13   
From optimize.out: Frame 6 / 36, Energy=    -286.7071210260
C        1.4316836332    0.3807716285   -0.2053972930
C        0.8022545729   -0.9869829917   -0.2656890982
C       -0.5862567711   -1.0483709467   -0.4028122337
C       -1.1873956307    0.2219353076   -0.1528305329
C       -0.4490902099    1.5323539190   -0.3191071010
N        0.8575451967    1.5714496597   -0.5543034350
H        2.5136816250    0.3825769436   -0.0725251772
H        1.4052816013   -1.8748269384   -0.1045167547
H       -1.1380942344   -1.9843625604   -0.3773125525
H       -2.2433430999    0.2727594712    0.0947052003
H       -1.0193346299    2.4620927205   -0.3001896784
C       -0.0022091450   -0.0539305843    0.9935951756
H       -0.3847229082   -0.8754656286    1.6663834808
13   
From optimize.out: Frame 5 / 36, Energy=    -286.6875154658
C        1.4343362465    0.3746026684   -0.1987379942
C        0.8002996154   -0.9961325156   -0.2651470911
C       -0.5917489071   -1.0601879295   -0.4028141045
C       -1.2008971355    0.2132708117   -0.1626821259
C       -0.4482979669    1.5256083209   -0.3014064253
N        0.8601136963    1.5817645523   -0.5506314797
H        2.5152017690    0.3718217435   -0.0653521863
H        1.3986372265   -1.8855312484   -0.0959092366
H       -1.1409500665   -1.9965849010   -0.3696038828
H       -2.2564639920    0.2604595294    0.0864687766
H       -1.0235603296    2.4510016278   -0.2647205822
C        0.0172114085   -0.0109514088    0.9619716584
H       -0.3638815647   -0.8291412507    1.6285646736
13   
From optimize.out: Frame 4 / 36, Energy=    -286.6666751358
C        1.4409603555    0.3688135300   -0.1950185618
C        0.7991448857   -1.0026198420   -0.2620005753
C       -0.5986056313   -1.0725197852   -0.4014036587
C       -1.2162750738    0.2053929532   -0.1713838011
C       -0.4480953405    1.5169781444   -0.2829029878
N        0.8647445093    1.5926902706   -0.5476237485
H        2.5206780979    0.3614407707   -0.0620458304
H        1.3930084112   -1.8930367526   -0.0830223054
H       -1.1447794422   -2.0088096508   -0.3598209996
H       -2.2714484976    0.2489753628    0.0799028230
H       -1.0273326585    2.4375588190   -0.2270149694
C        0.0343966642    0.0291313874    0.9273664889
H       -0.3463962800   -0.7839952075    1.5849681261
13   
From optimize.out: Frame 3 / 36, Energy=    -286.6443513158
C        1.4516154024    0.3633958886   -0.1939642179
C        0.7993161554   -1.0069549547   -0.2563910081
C       -0.6069737610   -1.0858757563   -0.3980703304
C       -1.2333538219    0.1990683225   -0.1782009577
C       -0.4493522550    1.5077308291   -0.2646720406
N        0.8715352022    1.6035057919   -0.5441084970
H        2.5301060090    0.3518049783   -0.0621725268
H        1.3891550513   -1.8976003130   -0.0660955855
H       -1.1498931546   -2.0213685612   -0.3470804874
H       -2.2881437448    0.2392831251    0.0758571151
H       -1.0311827906    2.4230192048   -0.1889770418
C        0.0492765682    0.0654495171    0.8894268079
H       -0.3321048604   -0.7414580722    1.5344487702
13   
From optimize.out: Frame 2 / 36, Energy=    -286.6199130037
C        1.4661657128    0.3580747033   -0.1948142454
C        0.8015278638   -1.0105657864   -0.2483429754
C       -0.6164776785   -1.1012444512   -0.3914340165
C       -1.2514941923    0.1952667066   -0.1817017122
C       -0.4532030679    1.5007426516   -0.2482030059
N        0.8790282411    1.6132533242   -0.5381173816
H        2.5430615923    0.3429268362   -0.0650103459
H        1.3883534904   -1.9003323777   -0.0467689032
H       -1.1559317755   -2.0350256404   -0.3304206042
H       -2.3061650536    0.2330569157    0.0750474630
H       -1.0359020960    2.4100382598   -0.1540594460
C        0.0618162113    0.0971892955    0.8489646436
H       -0.3207792480   -0.7033804374    1.4748605297
13   
From optimize.out: Frame 1 / 36, Energy=    -286.5933671264
C        1.4815528180    0.3518711811   -0.1987116063
C        0.8035126151   -1.0142865290   -0.2383088373
C       -0.6238396654   -1.1151941091   -0.3784913852
C       -1.2656081563    0.1932064050   -0.1814396121
C       -0.4607965375    1.4983434101   -0.2370318601
N        0.8837500745    1.6197871114   -0.5162986359
H        2.5567026021    0.3320447753   -0.0725378623
H        1.3879880393   -1.9031199232   -0.0307639663
H       -1.1596198610   -2.0462327911   -0.3071504851
H       -2.3216116653    0.2295195311    0.0729770845
H       -1.0443270384    2.4002914130   -0.1291772016
C        0.0726705711    0.1237383959    0.8126519948
H       -0.3103737963   -0.6699688705    1.4042823730
13   
C5H5N+CH->C6H6N atoms 1-13 frame 74 charge +0.000 sz -1.000 sz^2 0.727
C        1.4815528180    0.3518711811   -0.1987116063
C        0.8035126151   -1.0142865290   -0.2383088373
C       -0.6238396654   -1.1151941091   -0.3784913852
C       -1.2656081563    0.1932064050   -0.1814396121
C       -0.4607965375    1.4983434101   -0.2370318601
N        0.8837500745    1.6197871114   -0.5162986359
H        2.5567026021    0.3320447753   -0.0725378623
H        1.3879880393   -1.9031199232   -0.0307639663
H       -1.1596198610   -2.0462327911   -0.3071504851
H       -2.3216116653    0.2295195311    0.0729770845
H       -1.0443270384    2.4002914130   -0.1291772016
C        0.0726705711    0.1237383959    0.8126519948
H       -0.3103737963   -0.6699688705    1.4042823730
13   
C5H5N+CH->C6H6N atoms 1-13 frame 75 charge +0.000 sz -1.000 sz^2 0.516
C        1.4796904112    0.3545103177   -0.1985616352
C        0.8028288867   -1.0177863668   -0.2452360945
C       -0.6281619860   -1.1225959556   -0.3951384864
C       -1.2654161762    0.1927841373   -0.1852072675
C       -0.4575123320    1.5043902185   -0.2445138786
N        0.8869939208    1.6316910636   -0.5369770440
H        2.5569634652    0.3330689281   -0.0543843899
H        1.3896725467   -1.9047337125   -0.0119963347
H       -1.1643899529   -2.0541822015   -0.3181128382
H       -2.3191183053    0.2319015743    0.0995972620
H       -1.0456494232    2.4067261342   -0.1249098413
C        0.0651158639    0.1080897432    0.8030136466
H       -0.3010169188   -0.6638638805    1.4124269015
13   
C5H5N+CH->C6H6N atoms 1-13 frame 76 charge -0.000 sz -1.000 sz^2 0.518
C        1.4777496335    0.3575936672   -0.1989526326
C        0.8022426263   -1.0212150706   -0.2537011599
C       -0.6322273180   -1.1293514902   -0.4136415298
C       -1.2649061357    0.1925346482   -0.1902659632
C       -0.4540595598    1.5110200009   -0.2527960798
N        0.8904033418    1.6437809630   -0.5577805967
H        2.5569049608    0.3340831498   -0.0355884172
H        1.3909729344   -1.9058316231    0.0058799866
H       -1.1692888013   -2.0622224246   -0.3302123318
H       -2.3155922968    0.2342915751    0.1256764180
H       -1.0470843841    2.4135643545   -0.1210854480
C        0.0570285184    0.0913917112    0.7937206618
H       -0.2921435195   -0.6596394616    1.4287470925
13   
C5H5N+CH->C6H6N atoms 1-13 frame 77 charge +0.000 sz -1.000 sz^2 0.521
C        1.4757359034    0.3611296062   -0.1998533495
C        0.8017675009   -1.0245638828   -0.2635799322
C       -0.6360186058   -1.1354190262   -0.4338375341
C       -1.2640585102    0.1924792630   -0.1964671651
C       -0.4504666573    1.5182690311   -0.2618616421
N        0.8939548160    1.6559917408   -0.5786189137
H        2.5561423696    0.3350790137   -0.0162323793
H        1.3916473323   -1.9061461706    0.0227128285
H       -1.1742324604   -2.0701860512   -0.3432714299
H       -2.3106594650    0.2366252851    0.1509887264
H       -1.0484592092    2.4205302703   -0.1177975059
C        0.0484924058    0.0737170780    0.7846967613