13   
From optimize.out: Frame 2 / 3, Energy=    -286.8584616693
C        1.5360581838    0.4300917552   -0.3803367058
C        0.8437398609   -0.7972775747    0.0801986016
C       -0.5859840657   -1.0274911740   -0.3819403129
C       -1.1171137319    0.3117013152    0.1012930658
C       -0.4277233869    1.5419629907   -0.3563521428
N        0.8835531480    1.5723176511   -0.5867061993
H        2.6089057712    0.4191080093   -0.5624229367
H        1.4551752420   -1.6865592210    0.2246630577
H       -1.0692904091   -1.8717942217   -0.8535197564
H       -2.1914735373    0.3770133129    0.2647657020
H       -0.9907430647    2.4598855674   -0.5142812157
C       -0.3510370587   -0.6403404668    1.0056614644
H       -0.5940669521   -1.0886179431    1.9589773776
13   
From optimize.out: Frame 1 / 3, Energy=    -286.8584590534
C        1.5366063708    0.4306394940   -0.3797269958
C        0.8434483316   -0.7968071009    0.0803704740
C       -0.5858167307   -1.0277566172   -0.3817094348
C       -1.1173886401    0.3114209016    0.1006779164
C       -0.4274396035    1.5421362483   -0.3551205125
N        0.8839183099    1.5727556655   -0.5858436800
H        2.6088040849    0.4182818602   -0.5653988345
H        1.4549523773   -1.6858761577    0.2258393013
H       -1.0688158938   -1.8723541411   -0.8530182913
H       -2.1917641921    0.3765177473    0.2642255134
H       -0.9903480075    2.4599444084   -0.5140737577
C       -0.3511969634   -0.6397158462    1.0056778007
H       -0.5949594434   -1.0891864621    1.9581005007
13   
From optimize.out: Frame 35 / 36, Energy=    -286.8584590534
C        1.5366063708    0.4306394940   -0.3797269958
C        0.8434483316   -0.7968071009    0.0803704740
C       -0.5858167307   -1.0277566172   -0.3817094348
C       -1.1173886401    0.3114209016    0.1006779164
C       -0.4274396035    1.5421362483   -0.3551205125
N        0.8839183099    1.5727556655   -0.5858436800
H        2.6088040849    0.4182818602   -0.5653988345
H        1.4549523773   -1.6858761577    0.2258393013
H       -1.0688158938   -1.8723541411   -0.8530182913
H       -2.1917641921    0.3765177473    0.2642255134
H       -0.9903480075    2.4599444084   -0.5140737577
C       -0.3511969634   -0.6397158462    1.0056778007
H       -0.5949594434   -1.0891864621    1.9581005007
13   
From optimize.out: Frame 33 / 36, Energy=    -286.8584456437
C        1.5402719178    0.4288802803   -0.3858809317
C        0.8512561907   -0.7968659205    0.0861632540
C       -0.5831900478   -1.0148244971   -0.3843338660
C       -1.1181341400    0.3244154566    0.1270956213
C       -0.4279499401    1.5441847219   -0.3543212325
N        0.8846979276    1.5720367467   -0.5777509966
H        2.6151370355    0.4301464676   -0.5537121710
H        1.4549408152   -1.6924553484    0.2175044728
H       -1.0769042989   -1.8701043575   -0.8215317123
H       -2.1929841301    0.3852571313    0.2851957785
H       -0.9962155367    2.4487627034   -0.5593384821
C       -0.3393421384   -0.6248800164    1.0054662566
H       -0.6115836548   -1.1345533677    1.9154440090
13   
From optimize.out: Frame 30 / 36, Energy=    -286.8582793221
C        1.5463510996    0.4300937766   -0.3975788087
C        0.8496681655   -0.7959775401    0.0710516923
C       -0.5807620500   -0.9923704676   -0.3840283686
C       -1.1121524764    0.3317066708    0.1445816636
C       -0.4321664711    1.5387364043   -0.3884609648
N        0.8814711268    1.5646330311   -0.6090148164
H        2.6295238300    0.4612095785   -0.4896862524
H        1.4526954370   -1.6938158534    0.1911684635
H       -1.0950958900   -1.8705477557   -0.7437971776
H       -2.1832831364    0.3995796526    0.3229865975
H       -0.9943827652    2.4478765918   -0.5875586062
C       -0.3125413213   -0.6048832399    1.0255569118
H       -0.6493255484   -1.2162408491    1.8447796661
13   
From optimize.out: Frame 28 / 36, Energy=    -286.8574991757
C        1.5426838698    0.4329833294   -0.3988155008
C        0.8354905357   -0.8046837545    0.0301996755
C       -0.5843755797   -0.9824594007   -0.3888175682
C       -1.1015243569    0.3252278849    0.1310862144
C       -0.4365927445    1.5366149609   -0.4255265132
N        0.8752128763    1.5572840883   -0.6515449713
H        2.6288742336    0.4902463559   -0.3969657898
H        1.4500888064   -1.6935125635    0.1623096156
H       -1.1196529613   -1.8799984477   -0.6603464719
H       -2.1658143649    0.4091282957    0.3443634325
H       -0.9848483415    2.4621319856   -0.5842386804
C       -0.2839519515   -0.5817349757    1.0483716269
H       -0.6555900214   -1.2712277584    1.7899249305
13   
From optimize.out: Frame 26 / 36, Energy=    -286.8561419238
C        1.5283568568    0.4368149385   -0.3832869521
C        0.8256869899   -0.8292015335   -0.0382336412
C       -0.5850057117   -0.9838195122   -0.3871102062
C       -1.0947526092    0.3125010420    0.0900172460
C       -0.4409385302    1.5427922318   -0.4432795037
N        0.8674110495    1.5561218035   -0.6727267260
H        2.6118958398    0.5004709787   -0.3083529561
H        1.4517655941   -1.7056962702    0.1145557981
H       -1.1346892385   -1.8952943034   -0.5737947834
H       -2.1528908102    0.4057808910    0.3309482728
H       -0.9754824111    2.4826922551   -0.5618205966
C       -0.2595298910   -0.5412956720    1.0701953544
H       -0.6418271282   -1.2818668491    1.7628886940
13   
From optimize.out: Frame 24 / 36, Energy=    -286.8543558892
C        1.5118884591    0.4352202890   -0.3543931029
C        0.8269737080   -0.8544207148   -0.1123708778
C       -0.5795262699   -0.9886220130   -0.3810888126
C       -1.0994613864    0.2992480754    0.0442149036
C       -0.4429077242    1.5485652181   -0.4410086428
N        0.8624533619    1.5585942642   -0.6600810081
H        2.5934744830    0.4895928531   -0.2464222276
H        1.4552380684   -1.7282631685    0.0416486544
H       -1.1335276653   -1.9097277248   -0.5006436632
H       -2.1550513550    0.3895069651    0.2955527474
H       -0.9736246009    2.4939218193   -0.5382322669
C       -0.2375470756   -0.4833191551    1.0910771607
H       -0.6283820032   -1.2502967080    1.7617471358
13   
From optimize.out: Frame 21 / 36, Energy=    -286.8500567492
C        1.4929415608    0.4273501101   -0.3204310017
C        0.8270209417   -0.8780955034   -0.1728340577
C       -0.5741392945   -0.9930417961   -0.3816074053
C       -1.1123913083    0.2855267976   -0.0027491813
C       -0.4443808871    1.5502951395   -0.4286463606
N        0.8594758604    1.5576739529   -0.6358859818
H        2.5745425648    0.4693330417   -0.1991475296
H        1.4554105750   -1.7527221955   -0.0267656788
H       -1.1292822126   -1.9200220079   -0.4508422244
H       -2.1671035686    0.3663343011    0.2520984898
H       -0.9760991228    2.4975752485   -0.5099382939
C       -0.2046469975   -0.4121944329    1.1066377202
H       -0.6013481113   -1.1980126556    1.7701115051
13   
From optimize.out: Frame 19 / 36, Energy=    -286.8446465019
C        1.4725109681    0.4166257091   -0.2871289793
C        0.8228624013   -0.9029876917   -0.2148684712
C       -0.5719699872   -0.9989632776   -0.3871353303
C       -1.1286209149    0.2721736312   -0.0498820431
C       -0.4466676417    1.5487704139   -0.4086875860
N        0.8573488019    1.5543475853   -0.6096552910
H        2.5552403076    0.4468318404   -0.1612904616
H        1.4492490093   -1.7795190039   -0.0746452186
H       -1.1280321715   -1.9290930451   -0.4214119896
H       -2.1836761661    0.3432838821    0.2035336273
H       -0.9834034542    2.4953807960   -0.4724182908
C       -0.1586968753   -0.3326499713    1.1088194969
H       -0.5561442773   -1.1342008686    1.7747705373
13   
From optimize.out: Frame 17 / 36, Energy=    -286.8356235109
C        1.4536130147    0.4056823574   -0.2571021551
C        0.8162322274   -0.9295614960   -0.2414535288
C       -0.5732083587   -1.0087198064   -0.3934732693
C       -1.1448718712    0.2583960095   -0.0912358507
C       -0.4491381821    1.5455515668   -0.3840434295
N        0.8560231401    1.5521274470   -0.5863826016
H        2.5374265561    0.4259217654   -0.1294337987
H        1.4378646294   -1.8089344926   -0.1009965674
H       -1.1297711189   -1.9408558586   -0.4041214593
H       -2.2008309131    0.3225860001    0.1580879139
H       -0.9945571439    2.4889748389   -0.4266998938
C       -0.1072982340   -0.2486830180    1.0922250220
H       -0.5014837459   -1.0624853134    1.7646296184
13   
From optimize.out: Frame 15 / 36, Energy=    -286.8228066765
C        1.4391991159    0.3951981334   -0.2312424151
C        0.8093565032   -0.9563437723   -0.2571028138
C       -0.5771885268   -1.0232330974   -0.3988203305
C       -1.1615596863    0.2432394075   -0.1230510698
C       -0.4502662174    1.5414223415   -0.3572872725
N        0.8557958361    1.5551576236   -0.5687646863
H        2.5230541274    0.4071317414   -0.1014115380
H        1.4236836226   -1.8393798245   -0.1103918018
H       -1.1329193808   -1.9571813158   -0.3921904259
H       -2.2179737583    0.3019625659    0.1235187011
H       -1.0063794019    2.4798072098   -0.3755004923
C       -0.0578910252   -0.1633267409    1.0576903646
H       -0.4469112083   -0.9844542721    1.7345537804
13   
From optimize.out: Frame 12 / 36, Energy=    -286.7961341248
C        1.4322500829    0.3844044911   -0.2108098291
C        0.8037605096   -0.9801959502   -0.2645459177
C       -0.5836597625   -1.0417871949   -0.4021908137
C       -1.1805114395    0.2271914593   -0.1463874542
C       -0.4495406721    1.5351382481   -0.3288559120
N        0.8568652395    1.5663369167   -0.5571367850
H        2.5148373839    0.3887468626   -0.0785818727
H        1.4095895824   -1.8669314577   -0.1073465070
H       -1.1367227462   -1.9773439607   -0.3811582474
H       -2.2366521832    0.2800738858    0.1005079339
H       -1.0164417382    2.4671721983   -0.3195483775
C       -0.0149210407   -0.0802463858    1.0105901801
H       -0.3988532160   -0.9025591126    1.6854636021
13   
From optimize.out: Frame 10 / 36, Energy=    -286.7721999950
C        1.4355608947    0.3735301475   -0.1980027949
C        0.8000914262   -0.9973291637   -0.2645319421
C       -0.5929974826   -1.0624474950   -0.4025710936
C       -1.2037084560    0.2118336508   -0.1643258273
C       -0.4482387811    1.5240271251   -0.2980426032
N        0.8609949227    1.5837577186   -0.5500577854
H        2.5162107741    0.3699009845   -0.0646505398
H        1.3975960705   -1.8869174200   -0.0934787738
H       -1.1416514041   -1.9988208342   -0.3678407149
H       -2.2592126003    0.2583702289    0.0851751091
H       -1.0242251062    2.4485423737   -0.2578655528
C        0.0203246161   -0.0035965201    0.9556284489
H       -0.3607448739   -0.8208507961    1.6205640698
13   
From optimize.out: Frame 8 / 36, Energy=    -286.7424931806
C        1.4504562552    0.3639769985   -0.1940160212
C        0.7992994073   -1.0064869314   -0.2569677185
C       -0.6060460843   -1.0844032739   -0.3984599737
C       -1.2314663741    0.1997745891   -0.1775079040
C       -0.4491877526    1.5087506517   -0.2667023448
N        0.8708284273    1.6023064560   -0.5444617848
H        2.5290757018    0.3528401071   -0.0620457364
H        1.3895637801   -1.8971120342   -0.0678863524
H       -1.1493343609   -2.0199783689   -0.3485252377
H       -2.2863095319    0.2403705681    0.0761976954
H       -1.0307278555    2.4246266201   -0.1932146046
C        0.0476009792    0.0614598959    0.8935995973
H       -0.3337525916   -0.7461252780    1.5399903854
13   
From optimize.out: Frame 5 / 36, Energy=    -286.6875154658
C        1.4745669832    0.3546758461   -0.1968612210
C        0.8026103400   -1.0126034267   -0.2428313356
C       -0.6204833368   -1.1088404509   -0.3844117855
C       -1.2591751321    0.1941586643   -0.1816250449
C       -0.4573113038    1.4994402970   -0.2421388223
N        0.8816487472    1.6168038363   -0.5261794962
H        2.5505042336    0.3369651909   -0.0689794331
H        1.3881336491   -1.9018682698   -0.0379717857
H       -1.1579495820   -2.0411204147   -0.3177972337
H       -2.3145853215    0.2311564656    0.0737973913
H       -1.0404580779    2.4047380948   -0.1405530454
C        0.0676901529    0.1116593596    0.8291760212
H       -0.3151913519   -0.6851651923    1.4363757909
13   
From optimize.out: Frame 3 / 36, Energy=    -286.6443513158
C        1.4773294608    0.3583389540   -0.1990714290
C        0.8021411726   -1.0219483513   -0.2557894757
C       -0.6330376124   -1.1306551445   -0.4180315534
C       -1.2647108940    0.1925371857   -0.1916710150
C       -0.4532526320    1.5125897524   -0.2547811758
N        0.8912188781    1.6464051096   -0.5622380497
H        2.5567459174    0.3342676682   -0.0312776283
H        1.3910953796   -1.9059160493    0.0095918559
H       -1.1703634033   -2.0639288195   -0.3330867245
H       -2.3145312981    0.2348233228    0.1310205985
H       -1.0473462445    2.4150804263   -0.1204367890
C        0.0551454908    0.0875773020    0.7917749939
H       -0.2904342150   -0.6591713565    1.4339963920
13   
From optimize.out: Frame 1 / 36, Energy=    -286.5933671264
C        1.4711250968    0.3680230416   -0.2023341952
C        0.8010176774   -1.0306851389   -0.2852296785
C       -0.6429276599   -1.1459096274   -0.4763722930
C       -1.2614671185    0.1929795369   -0.2104302095
C       -0.4434331363    1.5332239391   -0.2812614766
N        0.9004627480    1.6790401251   -0.6176859909
H        2.5510030561    0.3370317705    0.0227326265
H        1.3906688591   -1.9040148876    0.0516007479
H       -1.1834592008   -2.0842243472   -0.3709779152
H       -2.2963607359    0.2409755248    0.1964537459
H       -1.0501668090    2.4333006148   -0.1133094218
C        0.0319228522    0.0381008603    0.7687473596
H       -0.2683856292   -0.6578414118    1.5180667008
13   
C5H5N+CH->C6H6N atoms 1-13 frame 75 charge +0.000 sz -1.000 sz^2 0.516
C        1.4636457624    0.3767777209   -0.2058298206
C        0.8003751329   -1.0384132375   -0.3160953910
C       -0.6514357727   -1.1575612461   -0.5354038208
C       -1.2564748782    0.1943590563   -0.2296751530
C       -0.4349116832    1.5540103223   -0.3086357900
N        0.9077522096    1.7070672877   -0.6647879127
H        2.5353524965    0.3392382144    0.0753965454
H        1.3838461687   -1.8956833148    0.0818293087
H       -1.1940803245   -2.0987975587   -0.4087707420
H       -2.2679355316    0.2451681823    0.2483175730
H       -1.0499170634    2.4464193685   -0.1099869263
C        0.0105423741   -0.0123288834    0.7514630025
H       -0.2467588906   -0.6602559118    1.6221791267
13   
C5H5N+CH->C6H6N atoms 1-13 frame 78 charge -0.000 sz -1.000 sz^2 0.743
C        1.4546836159    0.3851884361   -0.2079261589
C        0.8002639989   -1.0465036744   -0.3470061158
C       -0.6595232637   -1.1669745457   -0.5946158594
C       -1.2497532470    0.1960713475   -0.2471232357
C       -0.4278690636    1.5757254467   -0.3366921180
N        0.9135509597    1.7316841239   -0.7058583813
H        2.5090628927    0.3405118581    0.1289964359
H        1.3703517194   -1.8821365699    0.1041683884
H       -1.2024031167   -2.1083281578   -0.4436674152
H       -2.2294997036    0.2466042171    0.2908765260
H       -1.0467365732    2.4542703530   -0.1083037758
C       -0.0105584836   -0.0696008190    0.7391470226
H       -0.2215697352   -0.6565120156    1.7280046871
13   
C5H5N+CH->C6H6N atoms 1-13 frame 80 charge +0.000 sz -1.000 sz^2 0.524
C        1.4428984231    0.3920887445   -0.2072817014
C        0.8004151450   -1.0556577522   -0.3764890291
C       -0.6682274849   -1.1761527129   -0.6542999825
C       -1.2406783897    0.1979685528   -0.2602809705
C       -0.4222207110    1.5982059107   -0.3661346596
N        0.9170543595    1.7530699919   -0.7421985449
H        2.4709845941    0.3414921655    0.1863002685
H        1.3515415721   -1.8653475834    0.1205832665
H       -1.2085932438   -2.1128184898   -0.4741655793
H       -2.1816657013    0.2458139733    0.3270575488
H       -1.0409628317    2.4586703785   -0.1079099766
C       -0.0309630201   -0.1369639246    0.7328574355
H       -0.1895827113   -0.6403692545    1.8219619245
13   
C5H5N+CH->C6H6N atoms 1-13 frame 82 charge -0.000 sz -1.000 sz^2 0.534
C        1.4267563132    0.3961126833   -0.2026384859
C        0.8004361106   -1.0661744881   -0.4021743166
C       -0.6780099113   -1.1863409229   -0.7135724260
C       -1.2277883679    0.2000164706   -0.2655262979
C       -0.4177517105    1.6209910130   -0.3975820945
N        0.9170313509    1.7702291244   -0.7738230400
H        2.4206753176    0.3436012048    0.2491272647
H        1.3307400168   -1.8493861878    0.1311280835
H       -1.2129691873   -2.1123349519   -0.4968724766
H       -2.1272177688    0.2439940457    0.3579941753
H       -1.0336030222    2.4634638360   -0.1099596535
C       -0.0494098771   -0.2167215597    0.7347741697
H       -0.1488892639   -0.6074502673    1.8891250981
13   
C5H5N+CH->C6H6N atoms 1-13 frame 84 charge -0.000 sz -1.000 sz^2 0.542
C        1.4056728082    0.3963091586   -0.1936018005
C        0.7998445152   -1.0774170835   -0.4212556763
C       -0.6885997318   -1.1976916942   -0.7700954464
C       -1.2095738199    0.2023131024   -0.2599086463
C       -0.4139228881    1.6430741983   -0.4308435239
N        0.9127147344    1.7820628978   -0.8004180158
H        2.3623676770    0.3490702869    0.3169418693
H        1.3146186194   -1.8412001401    0.1354740079
H       -1.2169064880   -2.1088609339   -0.5083566577
H       -2.0748822481    0.2436738930    0.3849559060
H       -1.0265852318    2.4743391690   -0.1167625092
C       -0.0640585195   -0.3066472109    0.7459238842
H       -0.1006894269   -0.5590256434    1.9179466087
13   
C5H5N+CH->C6H6N atoms 1-13 frame 87 charge +0.000 sz -1.000 sz^2 0.560
C        1.3801495146    0.3920922654   -0.1802937962
C        0.7982136663   -1.0878686456   -0.4305107693
C       -0.6991090149   -1.2090819885   -0.8202719372
C       -1.1847455501    0.2051127089   -0.2414418855
C       -0.4102574724    1.6630537146   -0.4644816990
N        0.9038839667    1.7874257057   -0.8206005377
H        2.3031584820    0.3606797655    0.3866709120
H        1.3113396188   -1.8484040465    0.1313281299
H       -1.2222682606   -2.1051526181   -0.5060013926
H       -2.0374861282    0.2482681259    0.4083014665
H       -1.0212521553    2.4958569364   -0.1323110987
C       -0.0727441151   -0.4000801757    0.7659789199
H       -0.0488825517   -0.5019017480    1.9036336879
13   
C5H5N+CH->C6H6N atoms 1-13 frame 89 charge -0.000 sz -1.000 sz^2 0.574
C        1.3520774279    0.3838864163   -0.1634238422
C        0.7954292514   -1.0960877418   -0.4291196326
C       -0.7085456625   -1.2186473514   -0.8628639970
C       -1.1538507650    0.2085581880   -0.2118705553
C       -0.4065981548    1.6802745802   -0.4961545386
N        0.8917967040    1.7868513180   -0.8332702494
H        2.2483841997    0.3797449859    0.4538596729
H        1.3243267143   -1.8723645051    0.1141706393
H       -1.2298859746   -2.1022570790   -0.4931103964
H       -2.0225269743    0.2599508077    0.4261016574
H       -1.0167739572    2.5267218696   -0.1606688546
C       -0.0753372185   -0.4887515558    0.7910406931
H        0.0015044096   -0.4478799326    1.8653094034
13   
C5H5N+CH->C6H6N atoms 1-13 frame 91 charge +0.000 sz -1.000 sz^2 0.589
C        1.3227533729    0.3721453472   -0.1430136463
C        0.7915126494   -1.1020057827   -0.4187362930
C       -0.7165280821   -1.2251333935   -0.9006128454
C       -1.1186292796    0.2123215339   -0.1744790864
C       -0.4032912178    1.6951680339   -0.5240627883
N        0.8781122336    1.7817803273   -0.8375691084
H        2.1967709830    0.4051170745    0.5163638269
H        1.3503327661   -1.9078299642    0.0781788681
H       -1.2388240323   -2.0979863492   -0.4778993574
H       -2.0262713911    0.2781231227    0.4334081178
H       -1.0113634501    2.5617527674   -0.2041126172
C       -0.0741598456   -0.5700817940    0.8160594704
H        0.0495852935   -0.4033709233    1.8364754591
13   
C5H5N+CH->C6H6N atoms 1-13 frame 94 charge +0.000 sz -1.000 sz^2 0.620
C        1.2937035801    0.3572922551   -0.1191986111
C        0.7865052892   -1.1064080344   -0.4011651189
C       -0.7228235007   -1.2279108260   -0.9345722434
C       -1.0825076846    0.2155028125   -0.1326224754
C       -0.4011649688    1.7075367979   -0.5457617439
N        0.8645675821    1.7731772385   -0.8326208540
H        2.1465221746    0.4333440262    0.5714799978
H        1.3828763576   -1.9463289461    0.0209847231
H       -1.2474341920   -2.0896281809   -0.4681914550
H       -2.0397472945    0.3000696655    0.4256589106
H       -1.0044316633    2.5949417861   -0.2614944258
C       -0.0719694370   -0.6420438214    0.8376282133
H        0.0959037573   -0.3695447730    1.8398750830
13   
C5H5N+CH->C6H6N atoms 1-13 frame 96 charge -0.000 sz -1.000 sz^2 0.644
C        1.2663097875    0.3403565088   -0.0929245711
C        0.7805946399   -1.1105445686   -0.3776866741
C       -0.7277552904   -1.2275914528   -0.9628257877
C       -1.0488766343    0.2175891309   -0.0883495467
C       -0.4009347618    1.7170643586   -0.5604017056
N        0.8524101888    1.7615630390   -0.8202563213
H        2.0975106657    0.4608912330    0.6177207556
H        1.4149873157   -1.9792744467   -0.0515092908
H       -1.2548952614   -2.0764756438   -0.4655239436
H       -2.0526785888    0.3228943581    0.4050620999
H       -0.9967693599    2.6226474030   -0.3288443683
C       -0.0702309057   -0.7031237796    0.8572545022
H        0.1403282046   -0.3459961399    1.8682848516
13   
C5H5N+CH->C6H6N atoms 1-13 frame 98 charge -0.000 sz -1.000 sz^2 0.670
C        1.2406624322    0.3221026121   -0.0646653067
C        0.7739325115   -1.1153316739   -0.3483848710
C       -0.7319218033   -1.2249271654   -0.9836496176
C       -1.0185165565    0.2190072707   -0.0411492357
C       -0.4028860602    1.7239514658   -0.5691543405
N        0.8419998380    1.7468069602   -0.8030653757
H        2.0498186641    0.4867635970    0.6562239028
H        1.4428483699   -2.0021115267   -0.1332572604
H       -1.2617762920   -2.0590345504   -0.4674710130
H       -2.0588030464    0.3456573132    0.3767088608
H       -0.9894113542    2.6448743748   -0.4052179917
C       -0.0688144210   -0.7538718252    0.8789276916
H        0.1828677178   -0.3338868523    1.9041545572
13   
C5H5N+CH->C6H6N atoms 1-13 frame 100 charge +0.000 sz -1.000 sz^2 0.694
C        1.2166427000    0.3033058703   -0.0349620802
C        0.7668112641   -1.1210999000   -0.3139399032
C       -0.7356102849   -1.2201069103   -0.9966871169
C       -0.9912196491    0.2206005926    0.0092241323
C       -0.4069585855    1.7286427795   -0.5735519393
N        0.8335743176    1.7289364624   -0.7830870714
H        2.0043947772    0.5107539095    0.6887850377
H        1.4642505421   -2.0128671085   -0.2195884351
H       -1.2692569115   -2.0385421835   -0.4721373439
H       -2.0555684166    0.3678179655    0.3455146984
H       -0.9833521213    2.6625228857   -0.4905925280
C       -0.0671852148   -0.7952190227    0.9051835574
H        0.2234775827   -0.3347453404    1.9358389922
13   
C5H5N+CH->C6H6N atoms 1-13 frame 103 charge -0.000 sz -1.000 sz^2 0.721
C        1.1945173737    0.2849370553   -0.0046806890
C        0.7596630123   -1.1277631331   -0.2758454846
C       -0.7386890072   -1.2126704062   -1.0021819669
C       -0.9669434425    0.2232783618    0.0620203506
C       -0.4129453895    1.7315760696   -0.5746123537
N        0.8275512962    1.7082495993   -0.7616653066
H        1.9632970417    0.5323714783    0.7166717675
H        1.4773082995   -2.0102288622   -0.3064857007
H       -1.2787274231   -2.0166132607   -0.4790478535
H       -2.0426262956    0.3884836890    0.3157647563
H       -0.9793806111    2.6756576817   -0.5846203157
C       -0.0648443036   -0.8272059988    0.9367798137
H        0.2618194492   -0.3500722740    1.9579029826
13   
C5H5N+CH->C6H6N atoms 1-13 frame 105 charge -0.000 sz -1.000 sz^2 0.737
C        1.1747189003    0.2681678702    0.0250383306
C        0.7529999903   -1.1349132886   -0.2364251880
C       -0.7407448021   -1.2017962549   -1.0011763891
C       -0.9456533553    0.2279168448    0.1156910559
C       -0.4204214880    1.7333954546   -0.5732205238
N        0.8242627343    1.6854151946   -0.7398473406
H        1.9289324815    0.5509617277    0.7410734712
H        1.4808557904   -1.9939594774   -0.3899807013
H       -1.2916008483   -1.9950546625   -0.4886203373
H       -2.0218806902    0.4066052454    0.2914797944
H       -0.9776946377    2.6833867804   -0.6860536194
C       -0.0613679146   -0.8498052875    0.9730771576
H        0.2975938394   -0.3803201467    1.9689642898
13   
C5H5N+CH->C6H6N atoms 1-13 frame 107 charge +0.000 sz -1.000 sz^2 0.751
C        1.1576309086    0.2541881374    0.0530919072
C        0.7472612807   -1.1419462897   -0.1983397766
C       -0.7411644781   -1.1864861484   -0.9953897912
C       -0.9272573324    0.2352152137    0.1683476491
C       -0.4288141940    1.7349323337   -0.5702370514
N        0.8237982129    1.6612909152   -0.7183453844
H        1.9031554345    0.5657870682    0.7630662450
H        1.4748724886   -1.9650279113   -0.4666742347
H       -1.3089523879   -1.9751946440   -0.5022182300
H       -1.9971819121    0.4212794672    0.2759117355
H       -0.9776921242    2.6838163028   -0.7929945490
C       -0.0565240692   -0.8632587442    1.0124225743
H        0.3308681726   -0.4245957005    1.9713589062
13   
C5H5N+CH->C6H6N atoms 1-13 frame 109 charge -0.000 sz -1.000 sz^2 0.766
C        1.1434090787    0.2440257636    0.0786738857
C        0.7426179488   -1.1482215246   -0.1641945400
C       -0.7392095335   -1.1657008116   -0.9870582701
C       -0.9117570419    0.2455747764    0.2180239263
C       -0.4375239815    1.7370501447   -0.5665718428
N        0.8259756109    1.6366815945   -0.6974587302
H        1.8866559462    0.5758821148    0.7835375930
H        1.4606386877   -1.9254839870   -0.5341462710
H       -1.3311441191   -1.9571915400   -0.5226004430
H       -1.9735778029    0.4318195745    0.2710986818
H       -0.9781012227    2.6743449647   -0.9032108944
C       -0.0505360031   -0.8682193505    1.0524136873
H        0.3625524322   -0.4805617196    1.9714932175
13   
C5H5N+CH->C6H6N atoms 1-13 frame 112 charge +0.000 sz -1.000 sz^2 0.793
C        1.1319248603    0.2385282899    0.1012743711
C        0.7388059264   -1.1531134268   -0.1364864156
C       -0.7341250776   -1.1385352172   -0.9787891907
C       -0.8996176583    0.2590321777    0.2624854389
C       -0.4459867959    1.7404619650   -0.5632948752
N        0.8303450285    1.6122819452   -0.6771817300
H        1.8788402628    0.5798117927    0.8030936135
H        1.4407641765   -1.8785449478   -0.5906893801
H       -1.3574541015   -1.9396879950   -0.5541526610
H       -1.9564932789    0.4375834450    0.2777997520
H       -0.9772608822    2.6522581466   -1.0139096695
C       -0.0444332345   -0.8656593425    1.0898911139
H        0.3946907743   -0.5444168327    1.9799596328
13   
C5H5N+CH->C6H6N atoms 1-13 frame 114 charge +0.000 sz -1.000 sz^2 0.812
C        1.1229577778    0.2385809763    0.1202753144
C        0.7350525078   -1.1558153800   -0.1177220829
C       -0.7254544049   -1.1048160989   -0.9730305967
C       -0.8921883175    0.2752241460    0.2986606105
C       -0.4536082626    1.7455343241   -0.5618719609
N        0.8360309285    1.5889955451   -0.6578904738
H        1.8782321249    0.5757943641    0.8215553365
H        1.4195787436   -1.8297238060   -0.6339939377
H       -1.3853864637   -1.9198842535   -0.6015275506
H       -1.9509663915    0.4378698527    0.2959518034
H       -0.9734204533    2.6155287905   -1.1201656112
C       -0.0400884119   -0.8563625303    1.1209752359
H        0.4292606229   -0.6109259302    2.0087839131
13   
C5H5N+CH->C6H6N atoms 1-13 frame 116 charge -0.000 sz -1.000 sz^2 0.836
C        1.1161589848    0.2442525585    0.1354419746
C        0.7304395687   -1.1556483105   -0.1079357798
C       -0.7140043299   -1.0665265718   -0.9699368440
C       -0.8903527237    0.2933257275    0.3252160394
C       -0.4600346336    1.7518139393   -0.5635821496
N        0.8415818970    1.5675784957   -0.6407525999
H        1.8825272217    0.5640787118    0.8376357227
H        1.4023550489   -1.7864076019   -0.6631518958
H       -1.4108891513   -1.8949794629   -0.6635458838
H       -1.9576924050    0.4331892583    0.3241235806
H       -0.9661305425    2.5656173677   -1.2165581966
C       -0.0384450820   -0.8410573773    1.1442643229
H        0.4644861469   -0.6752367344    2.0587817092
13   
C5H5N+CH->C6H6N atoms 1-13 frame 119 charge +0.000 sz -1.000 sz^2 0.868
C        1.1113795218    0.2552542641    0.1470683530
C        0.7243744044   -1.1521843782   -0.1051830198
C       -0.7009593129   -1.0256568199   -0.9674176888
C       -0.8941191060    0.3129354111    0.3434072806
C       -0.4653534293    1.7583968456   -0.5689633839
N        0.8457085687    1.5479091372   -0.6268818833
H        1.8905313969    0.5461802927    0.8497316277
H        1.3926526103   -1.7538354096   -0.6787989152
H       -1.4308363264   -1.8630276317   -0.7356425864
H       -1.9736999023    0.4246517764    0.3621294141
H       -0.9564209937    2.5043099947   -1.3009707127
C       -0.0385389792   -0.8195920763    1.1617241378
H        0.4952815476   -0.7353414062    2.1197973770
13   
C5H5N+CH->C6H6N atoms 1-13 frame 121 charge -0.000 sz -1.000 sz^2 0.887
C        1.1086382355    0.2710459257    0.1557147117
C        0.7165404159   -1.1453341113   -0.1073309745
C       -0.6872623360   -0.9834236658   -0.9631260741
C       -0.9031508802    0.3337538745    0.3555275353
C       -0.4698900953    1.7641808264   -0.5777819782
N        0.8474786211    1.5292954477   -0.6167286613
H        1.9021261757    0.5235998984    0.8565878050
H        1.3919790712   -1.7344911223   -0.6821328545
H       -1.4434430591   -1.8230103711   -0.8134820817