13   
From optimize.out: Frame 2 / 3, Energy=    -286.8584616693
C        1.5360581838    0.4300917552   -0.3803367058
C        0.8437398609   -0.7972775747    0.0801986016
C       -0.5859840657   -1.0274911740   -0.3819403129
C       -1.1171137319    0.3117013152    0.1012930658
C       -0.4277233869    1.5419629907   -0.3563521428
N        0.8835531480    1.5723176511   -0.5867061993
H        2.6089057712    0.4191080093   -0.5624229367
H        1.4551752420   -1.6865592210    0.2246630577
H       -1.0692904091   -1.8717942217   -0.8535197564
H       -2.1914735373    0.3770133129    0.2647657020
H       -0.9907430647    2.4598855674   -0.5142812157
C       -0.3510370587   -0.6403404668    1.0056614644
H       -0.5940669521   -1.0886179431    1.9589773776
13   
From optimize.out: Frame 1 / 3, Energy=    -286.8584590534
C        1.5429370660    0.4294122840   -0.3910093482
C        0.8505599914   -0.7964764494    0.0795382585
C       -0.5821255996   -1.0049805215   -0.3841999342
C       -1.1155117443    0.3276119668    0.1347616027
C       -0.4297984915    1.5417961481   -0.3692882873
N        0.8832832796    1.5687909152   -0.5914572348
H        2.6214442889    0.4437647138   -0.5256428405
H        1.4539564285   -1.6930518016    0.2059586150
H       -1.0848795970   -1.8702987458   -0.7874524457
H       -2.1887311587    0.3915362069    0.3017634906
H       -0.9954120392    2.4483742270   -0.5717103467
C       -0.3275925062   -0.6161133147    1.0142741152
H       -0.6281299178   -1.1703656288    1.8844643551
13   
From optimize.out: Frame 35 / 36, Energy=    -286.8584590534
C        1.5446883180    0.4314039468   -0.3981395450
C        0.8432397977   -0.7999250792    0.0525287237
C       -0.5824004831   -0.9878766287   -0.3861998695
C       -1.1073335142    0.3287690839    0.1384626075
C       -0.4341734154    1.5377745074   -0.4052670871
N        0.8786335343    1.5613009009   -0.6282986801
H        2.6292292924    0.4743753255   -0.4476452871
H        1.4515135483   -1.6936783368    0.1780833927
H       -1.1062304654   -1.8748328531   -0.7059592708
H       -2.1753625114    0.4039091626    0.3326792020
H       -0.9900597025    2.4543402191   -0.5860532979
C       -0.2995784362   -0.5943874405    1.0359014746
H       -0.6521659623   -1.2411728078    1.8199076371
13   
From optimize.out: Frame 33 / 36, Energy=    -286.8584456437
C        1.5358954755    0.4347988141   -0.3914577974
C        0.8308454408   -0.8163007155   -0.0022252505
C       -0.5846741475   -0.9831038458   -0.3880085896
C       -1.0983157821    0.3191976797    0.1116270047
C       -0.4386518553    1.5395418620   -0.4339381967
N        0.8715162316    1.5567333770   -0.6615812645
H        2.6208295678    0.4950909645   -0.3549794487
H        1.4508832983   -1.6992854210    0.1396830051
H       -1.1267774176   -1.8872458970   -0.6193367381
H       -2.1596909542    0.4075422356    0.3380070905
H       -0.9804105966    2.4718738080   -0.5736165925
C       -0.2723803436   -0.5625741123    1.0587120983
H       -0.6490689171   -1.2762687494    1.7771146795
13   
From optimize.out: Frame 30 / 36, Energy=    -286.8582793221
C        1.5202652732    0.4360314233   -0.3690902464
C        0.8263192061   -0.8415927276   -0.0746602357
C       -0.5823134424   -0.9861791733   -0.3841516543
C       -1.0970662201    0.3059893285    0.0675127202
C       -0.4419060741    1.5456287312   -0.4421637388
N        0.8649751390    1.5573366225   -0.6665133782
H        2.6028446892    0.4951261198   -0.2779239080
H        1.4534717598   -1.7167842914    0.0787335975
H       -1.1341185110   -1.9023860216   -0.5378527074
H       -2.1539523724    0.3977848592    0.3135570332
H       -0.9745695945    2.4882097899   -0.5502307052
C       -0.2487288531   -0.5128094865    1.0804554224
H       -0.6352209996   -1.2663551740    1.7623278007
13   
From optimize.out: Frame 28 / 36, Energy=    -286.8574991757
C        1.5023940976    0.4312765130   -0.3373745672
C        0.8269973770   -0.8662842397   -0.1426692029
C       -0.5768268364   -0.9908367828   -0.3813486814
C       -1.1059406185    0.2923722918    0.0206810253
C       -0.4436459316    1.5494320882   -0.4348138570
N        0.8609613248    1.5581330928   -0.6479567901
H        2.5839876281    0.4794405860   -0.2227326999
H        1.4553245121   -1.7405196782    0.0073659766
H       -1.1314002531   -1.9148862285   -0.4756879763
H       -2.1610907642    0.3778950567    0.2737776567
H       -0.9748645930    2.4957525663   -0.5240540514
C       -0.2210607236   -0.4476782913    1.0988746151
H       -0.6148352191   -1.2240969742    1.7659385525
13   
From optimize.out: Frame 24 / 36, Energy=    -286.8543558892
C        1.4825345510    0.4218872756   -0.3034674961
C        0.8249026492   -0.8907751771   -0.1942457005
C       -0.5730342849   -0.9960581020   -0.3844232399
C       -1.1206584045    0.2787249130   -0.0267578904
C       -0.4455457225    1.5495184692   -0.4184796872
N        0.8583923716    1.5559795557   -0.6225244968
H        2.5647103106    0.4578712977   -0.1798637582
H        1.4522719742   -1.7663720515   -0.0511547334
H       -1.1286454621   -1.9246426459   -0.4358509441
H       -2.1755453788    0.3545927946    0.2273603430
H       -0.9798198297    2.4964574303   -0.4908262179
C       -0.1812407567   -0.3716757849    1.1077490816
H       -0.5783220175   -1.1655079748    1.7724847399
13   
From optimize.out: Frame 21 / 36, Energy=    -286.8500567492
C        1.4627442423    0.4109700324   -0.2716106978
C        0.8194358350   -0.9167214044   -0.2286079997
C       -0.5726099949   -1.0040055877   -0.3904108655
C       -1.1370196357    0.2650531642   -0.0712542676
C       -0.4479444515    1.5471068688   -0.3959511423
N        0.8566636814    1.5532001869   -0.5976276406
H        2.5460339124    0.4360252220   -0.1448264940
H        1.4433654031   -1.7947213386   -0.0882639631
H       -1.1289308838   -1.9351722311   -0.4124760024
H       -2.1925419786    0.3325869281    0.1800466489
H       -0.9891678365    2.4920701081   -0.4487903857
C       -0.1321333407   -0.2892546789    1.1002432408
H       -0.5278949524   -1.0971372696    1.7695295690
13   
From optimize.out: Frame 19 / 36, Energy=    -286.8446465019
C        1.4460612747    0.4001894554   -0.2435537019
C        0.8126298931   -0.9435932851   -0.2496525132
C       -0.5752936512   -1.0163236201   -0.3962747054
C       -1.1536149631    0.2504551519   -0.1079045027
C       -0.4497291832    1.5433881801   -0.3700253248
N        0.8559040508    1.5537150192   -0.5771522110
H        2.5298965431    0.4160772828   -0.1147523561
H        1.4304349063   -1.8248854324   -0.1059189253
H       -1.1314205585   -1.9494091037   -0.3978705438
H       -2.2098124047    0.3117809559    0.1399763875
H       -1.0007510697    2.4841717282   -0.3998754672
C       -0.0814127743   -0.2039630971    1.0741315999
H       -0.4728920635   -1.0216032352    1.7488722641
13   
From optimize.out: Frame 17 / 36, Energy=    -286.8356235109
C        1.4355091923    0.3894667295   -0.2203927501
C        0.8063850411   -0.9690092342   -0.2610550881
C       -0.5806247409   -1.0330852885   -0.4006100508
C       -1.1716230319    0.2347179770   -0.1354426463
C       -0.4498809542    1.5380854996   -0.3421902732
N        0.8563636873    1.5610938073   -0.5625902924
H        2.5186910520    0.3973694051   -0.0892890284
H        1.4161997136   -1.8540096902   -0.1087747560
H       -1.1349389608   -1.9678876426   -0.3863323597
H       -2.2278919670    0.2903397176    0.1113000267
H       -1.0117224837    2.4730980423   -0.3457900239
C       -0.0350740437   -0.1192112275    1.0326802547
H       -0.4213925042   -0.9409680953    1.7084869874
13   
From optimize.out: Frame 15 / 36, Energy=    -286.8228066765
C        1.4340319258    0.3785520376   -0.2039172226
C        0.8017858488   -0.9894168594   -0.2645383962
C       -0.5886852219   -1.0529063437   -0.4023954762
C       -1.1929958215    0.2189260537   -0.1560416915
C       -0.4488400085    1.5291583625   -0.3122725243
N        0.8590877901    1.5757126028   -0.5533269444
H        2.5155765276    0.3786042159   -0.0710841808
H        1.4031348047   -1.8776876852   -0.0998830438
H       -1.1393752963   -1.9889025805   -0.3739908962
H       -2.2487939543    0.2683932136    0.0922559743
H       -1.0206306622    2.4571458293   -0.2863513520
C        0.0040477885   -0.0389942616    0.9810103740
H       -0.3783437207   -0.8585845851    1.6505353796
13   
From optimize.out: Frame 12 / 36, Energy=    -286.7961341248
C        1.4436806062    0.3683225653   -0.1958295375
C        0.7996596833   -1.0023212169   -0.2604085566
C       -0.6001104948   -1.0744159594   -0.4003300530
C       -1.2188397640    0.2052600534   -0.1715115990
C       -0.4487560814    1.5156996625   -0.2809585012
N        0.8663553314    1.5938689473   -0.5470073114
H        2.5232236626    0.3606008133   -0.0632306177
H        1.3932175339   -1.8924746757   -0.0795279145
H       -1.1458395131   -2.0103541622   -0.3573115234
H       -2.2739835935    0.2485583111    0.0802813699
H       -1.0277698642    2.4355054942   -0.2226232336
C        0.0351934204    0.0318668264    0.9218154787
H       -0.3460309269   -0.7801166594    1.5766419993
13   
From optimize.out: Frame 10 / 36, Energy=    -286.7721999950
C        1.4638468212    0.3588113438   -0.1955961824
C        0.8011382262   -1.0098838978   -0.2491166836
C       -0.6140642156   -1.0979751425   -0.3906579201
C       -1.2468552065    0.1966556284   -0.1797944731
C       -0.4536993936    1.5035798863   -0.2530603067
N        0.8768377941    1.6103579809   -0.5343082054
H        2.5409766352    0.3440235291   -0.0658965585
H        1.3887695169   -1.8997535425   -0.0512724625
H       -1.1541190645   -2.0317201943   -0.3314595827
H       -2.3020132811    0.2352532590    0.0748646195
H       -1.0361318062    2.4135809723   -0.1639675374
C        0.0587580628    0.0893395696    0.8578201655
H       -0.3234440889   -0.7122693924    1.4824451274
13   
From optimize.out: Frame 8 / 36, Energy=    -286.7424931806
C        1.4767773817    0.3576068846   -0.1986297206
C        0.8022349354   -1.0200807752   -0.2531998011
C       -0.6305286499   -1.1262954944   -0.4113126681
C       -1.2636045762    0.1928612370   -0.1896633355
C       -0.4540637545    1.5099618436   -0.2522546109
N        0.8893062946    1.6404893174   -0.5550317750
H        2.5554985216    0.3348067661   -0.0388123056
H        1.3905034800   -1.9051071036    0.0000862980
H       -1.1678825105   -2.0593705770   -0.3300311313
H       -2.3145420946    0.2340905042    0.1195845836
H       -1.0459696496    2.4130135191   -0.1244570077
C        0.0576525321    0.0923900831    0.7992495610
H       -0.2953819102   -0.6643662050    1.4344719131
13   
From optimize.out: Frame 5 / 36, Energy=    -286.6875154658
C        1.4719564423    0.3667254351   -0.2018970052
C        0.8011682187   -1.0295144646   -0.2812848776
C       -0.6416024561   -1.1438656232   -0.4685550029
C       -1.2619017639    0.1929202646   -0.2079165961
C       -0.4447488866    1.5304590886   -0.2777132838
N        0.8992241279    1.6746672394   -0.6102563175
H        2.5517725632    0.3366613982    0.0154955940
H        1.3907260101   -1.9042696313    0.0459718221
H       -1.1817044467   -2.0815048749   -0.3659007353
H       -2.2987954763    0.2401511687    0.1876861180
H       -1.0497888712    2.4308592248   -0.1142644439
C        0.0350345389    0.0447303906    0.7718329170
H       -0.2713400002   -0.6580196160    1.5068018112
13   
From optimize.out: Frame 3 / 36, Energy=    -286.6443513158
C        1.4646056883    0.3756541124   -0.2053811789
C        0.8004575995   -1.0374213843   -0.3121339694
C       -0.6503438095   -1.1560658336   -0.5278274925
C       -1.2571156011    0.1941820036   -0.2272051846
C       -0.4360053586    1.5513425197   -0.3051224676
N        0.9068166527    1.7034701762   -0.6587426749
H        2.5373611482    0.3389550311    0.0686374600
H        1.3847218184   -1.8967526202    0.0779496616
H       -1.1927171696   -2.0969271780   -0.4039202684
H       -2.2715837292    0.2446300809    0.2416611744
H       -1.0499491167    2.4447356583   -0.1104133479
C        0.0132864251   -0.0058565404    0.7536813419
H       -0.2495345476   -0.6599460258    1.6088169464
13   
From optimize.out: Frame 1 / 36, Energy=    -286.5933671264
C        1.4557844798    0.3841553072   -0.2076686555
C        0.8002776500   -1.0455098868   -0.3432092016
C       -0.6585298379   -1.1658182645   -0.5873425576
C       -1.2505788975    0.1958610184   -0.2449800031
C       -0.4287341427    1.5730580727   -0.3332458232
N        0.9128386711    1.7286603186   -0.7008134966
H        2.5122921721    0.3403554102    0.1224125015
H        1.3720093080   -1.8838005823    0.1014243710
H       -1.2013807878   -2.1071574681   -0.4393808877
H       -2.2342209627    0.2464278220    0.2856488035
H       -1.0471272482    2.4533059786   -0.1085105253
C       -0.0079665629   -0.0625658295    0.7406598541
H       -0.2246638413   -0.6569718965    1.7150056206
13   
C5H5N+CH->C6H6N atoms 1-13 frame 75 charge +0.000 sz -1.000 sz^2 0.516
C        1.4442745713    0.3912830006   -0.2073569542
C        0.8003974957   -1.0545888372   -0.3730463310
C       -0.6672110994   -1.1750809850   -0.6473307113
C       -1.2417380541    0.1977470175   -0.2587445515
C       -0.4228802649    1.5955808835   -0.3626966757
N        0.9166452701    1.7505727799   -0.7379551307
H        2.4754309690    0.3413776957    0.1796089421
H        1.3537380192   -1.8673080210    0.1186665132
H       -1.2078704273   -2.1122941570   -0.4706043312
H       -2.1872512426    0.2459062495    0.3228327174
H       -1.0416370272    2.4581565908   -0.1079559602
C       -0.0285803974   -0.1290979843    0.7335918660
H       -0.1933178125   -0.6422542328    1.8109906070
13   
C5H5N+CH->C6H6N atoms 1-13 frame 80 charge +0.000 sz -1.000 sz^2 0.524
C        1.4285212149    0.3956727250   -0.2031461531
C        0.8004338183   -1.0650246381   -0.3993660092
C       -0.6769403473   -1.1852269924   -0.7070918584
C       -1.2291977017    0.1997925610   -0.2649527987
C       -0.4182403298    1.6184997981   -0.3941437813
N        0.9170338666    1.7683530263   -0.7703653679
H        2.4261758950    0.3433706124    0.2422580592
H        1.3330143601   -1.8511313310    0.1299751633
H       -1.2124907424   -2.1123878197   -0.4943898123
H       -2.1331708473    0.2441930280    0.3546117114
H       -1.0344077089    2.4629397421   -0.1097355516
C       -0.0473929853   -0.2080012386    0.7345646031
H       -0.1533384923   -0.6110494731    1.8817817955
13   
C5H5N+CH->C6H6N atoms 1-13 frame 82 charge -0.000 sz -1.000 sz^2 0.534
C        1.4077845807    0.3962894792   -0.1945069358
C        0.7999037707   -1.0762909992   -0.4193444433
C       -0.6875390309   -1.1965547748   -0.7644339703
C       -1.2113982310    0.2020830665   -0.2604713233
C       -0.4143063918    1.6408622955   -0.4275119824
N        0.9131470967    1.7808775998   -0.7977542017
H        2.3682079047    0.3485224910    0.3101494021
H        1.3162333757   -1.8420200735    0.1350387101
H       -1.2165121189   -2.1092088995   -0.5072063756
H       -2.0801242946    0.2437059602    0.3822553569
H       -1.0272881499    2.4732498706   -0.1160811195
C       -0.0625912777   -0.2976400503    0.7448071031
H       -0.1055172337   -0.5638759654    1.9150597797
13   
C5H5N+CH->C6H6N atoms 1-13 frame 84 charge -0.000 sz -1.000 sz^2 0.542
C        1.3824799967    0.3924773016   -0.1815089241
C        0.7983625759   -1.0869143338   -0.4296657048
C       -0.6981494327   -1.2080419630   -0.8156904197
C       -1.1870125710    0.2048570823   -0.2431280494
C       -0.4105921544    1.6612294240   -0.4614102629
N        0.9046902868    1.7869360382   -0.8187577110
H        2.3085647580    0.3596197267    0.3803040892
H        1.3116390179   -1.8477462719    0.1317066820
H       -1.2217786876   -2.1054912172   -0.5062164473
H       -2.0409006949    0.2478486354    0.4061698289
H       -1.0217391081    2.4938921910   -0.1308913873
C       -0.0719510504   -0.3915489940    0.7641477337
H       -0.0536129363   -0.5071176194    1.9049405727
13   
C5H5N+CH->C6H6N atoms 1-13 frame 87 charge +0.000 sz -1.000 sz^2 0.560
C        1.3544258546    0.3845728930   -0.1648351321
C        0.7956621872   -1.0954001568   -0.4292360109
C       -0.7077562208   -1.2178471418   -0.8593008728
C       -1.1564353302    0.2082699495   -0.2143444042
C       -0.4069042824    1.6788339341   -0.4935048837
N        0.8928078882    1.7868993695   -0.8322103393
H        2.2529664522    0.3781500467    0.4482388624
H        1.3232402528   -1.8703600449    0.1156059836
H       -1.2292486995   -2.1024993111   -0.4941888186
H       -2.0237784123    0.2589734695    0.4246125467
H       -1.0171485899    2.5241398017   -0.1582965297
C       -0.0751202872   -0.4813335736    0.7889441002
H       -0.0027108127   -0.4523992359    1.8685154983
13   
C5H5N+CH->C6H6N atoms 1-13 frame 89 charge -0.000 sz -1.000 sz^2 0.574
C        1.3249671919    0.3730317389   -0.1445545137
C        0.7918083332   -1.1015590003   -0.4195201831
C       -0.7159254495   -1.2246437298   -0.8977629968
C       -1.1212883250    0.2120374202   -0.1773019546
C       -0.4035408749    1.6940436529   -0.5219558556
N        0.8791453424    1.7821631616   -0.8372445661
H        2.2006675218    0.4032016092    0.5116450770
H        1.3483694398   -1.9051525001    0.0808960662
H       -1.2381492538   -2.0983087678   -0.4790477145
H       -2.0259887064    0.2767512041    0.4328565168
H       -1.0117719162    2.5591081105   -0.2008328312
C       -0.0742487313   -0.5639417692    0.8141706783
H        0.0459554281   -0.4067311301    1.8386522772
13   
C5H5N+CH->C6H6N atoms 1-13 frame 91 charge +0.000 sz -1.000 sz^2 0.589
C        1.2956696322    0.3582974930   -0.1208103817
C        0.7868441808   -1.1061100957   -0.4023543131
C       -0.7223974349   -1.2277228530   -0.9322739156
C       -1.0849523470    0.2152875077   -0.1354552763
C       -0.4013088706    1.7066996960   -0.5442931869
N        0.8654842664    1.7737594844   -0.8329557454
H        2.1499229485    0.4314336629    0.5677498072
H        1.3806738497   -1.9437233852    0.0248555483
H       -1.2468514676   -2.0901938508   -0.4688484732
H       -2.0388352629    0.2985843521    0.4261833669
H       -1.0049007976    2.5926955966   -0.2576108998
C       -0.0721176810   -0.6371735252    0.8361684689
H        0.0927689841   -0.3718340828    1.8396450009
13   
C5H5N+CH->C6H6N atoms 1-13 frame 94 charge +0.000 sz -1.000 sz^2 0.620
C        1.2679945545    0.3413980874   -0.0945404714
C        0.7809581554   -1.1102901644   -0.3791306403
C       -0.7274519765   -1.2276110948   -0.9610881444
C       -1.0509450038    0.2174608186   -0.0910724107
C       -0.4009489200    1.7164783967   -0.5595013219
N        0.8531578902    1.7622773330   -0.8210167621
H        2.1005249609    0.4591970306    0.6148768665
H        1.4130124346   -1.9772482397   -0.0470507797
H       -1.2544363923   -2.0772845483   -0.4656880003
H       -2.0518832912    0.3214905988    0.4063288404
H       -0.9972406052    2.6209434582   -0.3247022268
C       -0.0703378284   -0.6993672533    0.8560474504
H        0.1375960219   -0.3474444228    1.8665376002
13   
C5H5N+CH->C6H6N atoms 1-13 frame 96 charge -0.000 sz -1.000 sz^2 0.644
C        1.2420958218    0.3231227931   -0.0662446717
C        0.7743048472   -1.1150641303   -0.3500225018
C       -0.7316889435   -1.2250760681   -0.9824858071
C       -1.0202133326    0.2189280131   -0.0437871854
C       -0.4027770052    1.7235665564   -0.5686651698
N        0.8425816558    1.7476316538   -0.8040261501
H        2.0524840936    0.4853176321    0.6540720237
H        1.4412912603   -2.0008351989   -0.1286884975
H       -1.2613917222   -2.0600093052   -0.4673621944
H       -2.0584607603    0.3443851281    0.3782934779
H       -0.9898225813    2.6436321450   -0.4009495923
C       -0.0688935861   -0.7510355983    0.8777164118
H        0.1804902526   -0.3345636209    1.9021498568
13   
C5H5N+CH->C6H6N atoms 1-13 frame 98 charge -0.000 sz -1.000 sz^2 0.670
C        1.2178428707    0.3042450689   -0.0364462325
C        0.7671670845   -1.1208116846   -0.3156609815
C       -0.7354259862   -1.2203477593   -0.9960356848
C       -0.9925835671    0.2205209806    0.0067071752
C       -0.4067550976    1.7284083732   -0.5733322087
N        0.8339953074    1.7298293802   -0.7840853079
H        2.0066644285    0.5095552088    0.6871580871
H        1.4631811605   -2.0123296948   -0.2152748091
H       -1.2688831347   -2.0395661057   -0.4719041859
H       -2.0557300382    0.3667106857    0.3470733468
H       -0.9836548771    2.6616410597   -0.4863267014
C       -0.0672666198   -0.7931530674    0.9038716561
H        0.2214484690   -0.3347024452    1.9342558468
13   
C5H5N+CH->C6H6N atoms 1-13 frame 100 charge +0.000 sz -1.000 sz^2 0.694
C        1.1954868351    0.2857419183   -0.0060075232
C        0.7599762259   -1.1274711715   -0.2775146608
C       -0.7385541074   -1.2129962501   -1.0019412000
C       -0.9680071486    0.2231610305    0.0597069884
C       -0.4126830668    1.7314475422   -0.5745658897
N        0.8278152058    1.7091560318   -0.7626039402
H        1.9650978136    0.5314242652    0.7154498598
H        1.4767361502   -2.0103444617   -0.3026781391
H       -1.2783124554   -2.0175741163   -0.4787450569
H       -2.0431933781    0.3875781827    0.3170683040
H       -0.9795546301    2.6750821568   -0.5805003174
C       -0.0649468749   -0.8258044314    0.9353953663
H        0.2601394306   -0.3494006966    1.9569362088
13   
C5H5N+CH->C6H6N atoms 1-13 frame 103 charge -0.000 sz -1.000 sz^2 0.721
C        1.1754649962    0.2687998088    0.0239183837
C        0.7532510831   -1.1346438384   -0.2379107228
C       -0.7406673304   -1.2022060420   -1.0012142838
C       -0.9464556619    0.2277420458    0.1136685014
C       -0.4201397548    1.7333268920   -0.5732729742
N        0.8243866621    1.6862756981   -0.7406695401
H        1.9302274933    0.5502611632    0.7401539048
H        1.4807221049   -1.9945725813   -0.3868342326
H       -1.2911157195   -1.9958670879   -0.4882596029
H       -2.0226624783    0.4059223433    0.2923949614
H       -0.9777581728    2.6830955131   -0.6822311544
C       -0.0614989206   -0.8489536442    0.9717093097
H        0.2962456988   -0.3791802703    1.9685474498
13   
C5H5N+CH->C6H6N atoms 1-13 frame 107 charge +0.000 sz -1.000 sz^2 0.751
C        1.1581735666    0.2546320875    0.0522010185
C        0.7474435232   -1.1417229448   -0.1995492432
C       -0.7411511506   -1.1869723467   -0.9955735544
C       -0.9278415292    0.2349834417    0.1666754500
C       -0.4285476695    1.7348835275   -0.5703317966
N        0.8238129646    1.6620570224   -0.7190282153
H        1.9039740281    0.5653162644    0.7623678274
H        1.4750624985   -1.9659466821   -0.4642387020
H       -1.3084013604   -1.9758253325   -0.5017864059
H       -1.9979662635    0.4208134625    0.2764061255
H       -0.9776922040    2.6838026626   -0.7895984592
C       -0.0566778936   -0.8628315070    1.0111730941
H        0.3298114900   -0.4231896555    1.9712828611
13   
C5H5N+CH->C6H6N atoms 1-13 frame 109 charge -0.000 sz -1.000 sz^2 0.766
C        1.1437787775    0.2442899362    0.0780088781
C        0.7427386530   -1.1480583989   -0.1650821509
C       -0.7392603526   -1.1662411298   -0.9872748493
C       -0.9121599744    0.2453054780    0.2167325835
C       -0.4372975692    1.7369950919   -0.5666671204
N        0.8259190091    1.6373213177   -0.6980016821
H        1.8870848531    0.5756196924    0.7830054370
H        1.4610086976   -1.9265119376   -0.5323923247
H       -1.3305672415   -1.9576595335   -0.5220706042
H       -1.9741913955    0.4315455828    0.2712237979
H       -0.9780905882    2.6745911737   -0.9003458030
C       -0.0506916638   -0.8680903987    1.0513741120
H        0.3617287949   -0.4791068740    1.9714897260
13   
C5H5N+CH->C6H6N atoms 1-13 frame 112 charge +0.000 sz -1.000 sz^2 0.793
C        1.1321552226    0.2386385639    0.1008210273
C        0.7388823919   -1.1530153000   -0.1370422137
C       -0.7342270668   -1.1390801327   -0.9789550604
C       -0.8998611625    0.2587622353    0.2615935841
C       -0.4458170400    1.7403935272   -0.5633606080
N        0.8302573823    1.6127713785   -0.6775884670
H        1.8789970378    0.5797329672    0.8027013387
H        1.4411628399   -1.8794864994   -0.5895551801
H       -1.3569263487   -1.9400390991   -0.5535197541
H       -1.9568359779    0.4374678273    0.2776653350
H       -0.9772777386    2.6527011867   -1.0116891594
C       -0.0445556501   -0.8657106938    1.0891393531
H        0.3940461103   -0.5431359611    1.9797898047
13   
C5H5N+CH->C6H6N atoms 1-13 frame 114 charge +0.000 sz -1.000 sz^2 0.812
C        1.1230768200    0.2385802769    0.1200230681
C        0.7351023361   -1.1557795104   -0.1179711881
C       -0.7255695121   -1.1052637358   -0.9731070447
C       -0.8922869455    0.2750091901    0.2981803683
C       -0.4535070841    1.7454669862   -0.5618908507
N        0.8359554455    1.5893046829   -0.6581465742
H        1.8782401982    0.5758476974    0.8213102486
H        1.4198599900   -1.8303719293   -0.6334190496
H       -1.3850156487   -1.9201471573   -0.6008986269
H       -1.9510397635    0.4378660505    0.2957108265
H       -0.9734714368    2.6160163898   -1.1187550142
C       -0.0401460914   -0.8564859498    1.1205625798
H        0.4288016921   -0.6100429910    2.0084012574
13   
C5H5N+CH->C6H6N atoms 1-13 frame 116 charge -0.000 sz -1.000 sz^2 0.836
C        1.1162021503    0.2442165496    0.1353456815
C        0.7304688562   -1.1556493712   -0.1079979131
C       -0.7140770264   -1.0667696719   -0.9699564862
C       -0.8903643779    0.2932108006    0.3250474391
C       -0.4599938326    1.7517740700   -0.5635712916
N        0.8415466539    1.5677144725   -0.6408614083
H        1.8824999521    0.5641530944    0.8375336284
H        1.4024644021   -1.7866826164   -0.6629667720
H       -1.4107272348   -1.8951375833   -0.6631521295
H       -1.9576497015    0.4332189754    0.3239447180
H       -0.9661768261    2.5659342552   -1.2159462002
C       -0.0384555155   -0.8411545497    1.1441164606
H        0.4642625001   -0.6748284252    2.0584642732
13   
C5H5N+CH->C6H6N atoms 1-13 frame 119 charge +0.000 sz -1.000 sz^2 0.868
C        1.1113791137    0.2552566152    0.1470696403
C        0.7243732381   -1.1521833583   -0.1051833396
C       -0.7009572736   -1.0256505320   -0.9674170498
C       -0.8941204507    0.3129385107    0.3434090851
C       -0.4653541048    1.7583977068   -0.5689646969
N        0.8457088322    1.5479063659   -0.6268803717
H        1.8905331232    0.5461769309    0.8497326485
H        1.3926525101   -1.7538325295   -0.6787994116
H       -1.4308382034   -1.8630216737   -0.7356541755
H       -1.9737030233    0.4246500950    0.3621366384
H       -0.9564194695    2.5042993516   -1.3009815196
C       -0.0385389894   -0.8195879374    1.1617263014
H        0.4952846974   -0.7353495451    2.1198062511
13   
C5H5N+CH->C6H6N atoms 1-13 frame 121 charge -0.000 sz -1.000 sz^2 0.887
C        1.1086346069    0.2711776973    0.1557557374
C        0.7164753720   -1.1452673779   -0.1073696333
C       -0.6871707139   -0.9831376100   -0.9630757723
C       -0.9032447704    0.3338963303    0.3555808804
C       -0.4699171547    1.7642058891   -0.5778582918
N        0.8474703712    1.5291735353   -0.6166848735
H        1.9022306581    0.5234247251    0.8565922895
H        1.3920330820   -1.7344529785   -0.6820763903
H       -1.4434718438   -1.8226880170   -0.8140201064
H       -1.9948071531    0.4132707482    0.4110483504
H       -0.9461267129    2.4322889789   -1.3739642526
C       -0.0385974556   -0.7915676974    1.1763462084
H        0.5164917142   -0.7903242234    2.1797258541
13   
C5H5N+CH->C6H6N atoms 1-13 frame 123 charge +0.000 sz -1.000 sz^2 0.906
C        1.1081239021    0.2909294300    0.1618669471
C        0.7067192653   -1.1352487426   -0.1131953049
C       -0.6734663134   -0.9403356262   -0.9554996654
C       -0.9173555034    0.3552029095    0.3635285638
C       -0.4739618256    1.7679129061   -0.5892933313
N        0.8461920055    1.5109299173   -0.6101728340
H        1.9179261841    0.4971763180    0.8571724306
H        1.4002019898   -1.7289031150   -0.6734718024
H       -1.4476669291   -1.7743547353   -0.8945320182
H       -2.0163868560    0.4001810869    0.4705356254
H       -0.9376570861    2.3520493016   -1.4349241464
C       -0.0370384831   -0.7578252913    1.1898631850
H        0.5243696500   -0.8377143591    2.2281223506
13   
C5H5N+CH->C6H6N atoms 1-13 frame 125 charge +0.000 sz -1.000 sz^2 0.922
C        1.1100531232    0.3128495108    0.1657953269
C        0.6954022841   -1.1229525416   -0.1219882154
C       -0.6604291107   -0.8984787357   -0.9443677578
C       -0.9358159503    0.3753542858    0.3687541417
C       -0.4776054335    1.7682816433   -0.6016773231
N        0.8416394329    1.4929212141   -0.6067813759
H        1.9379522842    0.4686932619    0.8509005096
H        1.4146920312   -1.7352486268   -0.6533338062
H       -1.4433698910   -1.7195821784   -0.9738803430
H       -2.0343887659    0.3865366944    0.5387103835
H       -0.9333348044    2.2673046641   -1.4838028003
C       -0.0327494428   -0.7201733670    1.2028376857
H        0.5179542431   -0.8755058247    2.2588335742
13   
C5H5N+CH->C6H6N atoms 1-13 frame 128 charge +0.000 sz -1.000 sz^2 0.949
C        1.1145738483    0.3350061073    0.1680764181
C        0.6831166810   -1.1094734896   -0.1333020839
C       -0.6483736198   -0.8585694207   -0.9301247993
C       -0.9576260579    0.3927562348    0.3725735552
C       -0.4808375679    1.7644616156   -0.6131733193
N        0.8340718653    1.4750895931   -0.6055733785
H        1.9624286171    0.4392213355    0.8376635591
H        1.4315769013   -1.7495579125   -0.6224997789
H       -1.4315757017   -1.6606880901   -1.0496401876