13   
From optimize.out: Frame 35 / 36, Energy=    -286.8584590534
C        1.5366063709    0.4306394942   -0.3797269952
C        0.8434483317   -0.7968071007    0.0803704746
C       -0.5858167304   -1.0277566174   -0.3817094348
C       -1.1173886402    0.3114209015    0.1006779158
C       -0.4274396037    1.5421362482   -0.3551205131
N        0.8839183098    1.5727556656   -0.5858436800
H        2.6088040851    0.4182818606   -0.5653988334
H        1.4549523775   -1.6858761573    0.2258393024
H       -1.0688158931   -1.8723541415   -0.8530182914
H       -2.1917641923    0.3765177470    0.2642255122
H       -0.9903480078    2.4599444081   -0.5140737588
C       -0.3511969638   -0.6397158460    1.0056778007
H       -0.5949594442   -1.0891864617    1.9581005007
13   
From optimize.out: Frame 33 / 36, Energy=    -286.8584456437
C        1.5402717168    0.4288799711   -0.3858820773
C        0.8512560161   -0.7968662256    0.0861621573
C       -0.5831906993   -1.0148241422   -0.3843338144
C       -1.1181339281    0.3244157496    0.1270967379
C       -0.4279497645    1.5441850147   -0.3543201685
N        0.8846979179    1.5720367288   -0.5777510602
H        2.6151366892    0.4301458972   -0.5537142496
H        1.4549404743   -1.6924559013    0.2175024503
H       -1.0769055979   -1.8701036521   -0.8215316153
H       -2.1929837617    0.3852576899    0.2851978561
H       -0.9962152560    2.4487632660   -0.5593365190
C       -0.3393414606   -0.6248803610    1.0054662712
H       -0.6115823462   -1.1345540350    1.9154440316
13   
From optimize.out: Frame 30 / 36, Energy=    -286.8582793221
C        1.5463502606    0.4300927364   -0.3975831970
C        0.8496672224   -0.7959790657    0.0710458790
C       -0.5807650002   -0.9923683192   -0.3840294586
C       -1.1121514293    0.3317078848    0.1445869323
C       -0.4321655907    1.5387383414   -0.3884542712
N        0.8814712185    1.5646336983   -0.6090129695
H        2.6295226925    0.4612071955   -0.4896946050
H        1.4526935801   -1.6938186915    0.1911574273
H       -1.0951015258   -1.8705436399   -0.7437992306
H       -2.1832813164    0.3995819067    0.3229961114
H       -0.9943812505    2.4478800396   -0.5875468057
C       -0.3125383903   -0.6048861446    1.0255560918
H       -0.6493204708   -1.2162459417    1.8447780957
13   
From optimize.out: Frame 28 / 36, Energy=    -286.8574991757
C        1.5426821256    0.4329816134   -0.3988241104
C        0.8354884171   -0.8046864011    0.0301877637
C       -0.5843813755   -0.9824549846   -0.3888200160
C       -1.1015224203    0.3252301821    0.1310967874
C       -0.4365914721    1.5366192022   -0.4255125027
N        0.8752125050    1.5572860814   -0.6515407062
H        2.6288726702    0.4902414600   -0.3969821887
H        1.4500850921   -1.6935179237    0.1622868701
H       -1.1196634211   -1.8799905767   -0.6603511453
H       -2.1658105758    0.4091322083    0.3443826142
H       -0.9848455671    2.4621389325   -0.5842140806
C       -0.2839457442   -0.5817414609    1.0483697095
H       -0.6555802339   -1.2712383330    1.7899210051
13   
From optimize.out: Frame 26 / 36, Energy=    -286.8561419238
C        1.5283542192    0.4368133472   -0.3832992828
C        0.8256833612   -0.8292042882   -0.0382522590
C       -0.5850138705   -0.9838129112   -0.3871146525
C       -1.0947503891    0.3125042530    0.0900330980
C       -0.4409375793    1.5427989075   -0.4432572146
N        0.8674094645    1.5561260096   -0.6727190402
H        2.6118942926    0.5004643682   -0.3083767902
H        1.4517603082   -1.7057031540    0.1145202824
H       -1.1347030171   -1.8952834873   -0.5738032622
H       -2.1528855135    0.4057854779    0.3309771034
H       -0.9754791723    2.4827023226   -0.5617817301
C       -0.2595199108   -0.5413066836    1.0701922050
H       -0.6418121930   -1.2818841617    1.7628815428
13   
From optimize.out: Frame 24 / 36, Energy=    -286.8543558892
C        1.5118850400    0.4352201213   -0.3544078948
C        0.8269690414   -0.8544220225   -0.1123952749
C       -0.5795352044   -0.9886142330   -0.3810954086
C       -1.0994596835    0.2992513840    0.0442348510
C       -0.4429083437    1.5485733991   -0.4409792928
N        0.8624496938    1.5586010032   -0.6600698884
H        2.5934727803    0.4895871698   -0.2464514372
H        1.4552324160   -1.7282690427    0.0416023682
H       -1.1335416081   -1.9097161605   -0.5006562068
H       -2.1550457872    0.3895103325    0.2955889052
H       -0.9736231768    2.4939333670   -0.5381813339
C       -0.2375334574   -0.4833345829    1.0910732913
H       -0.6283617104   -1.2503207353    1.7617373216
13   
From optimize.out: Frame 21 / 36, Energy=    -286.8500567492
C        1.4929373620    0.4273517287   -0.3204484054
C        0.8270158078   -0.8780946864   -0.1728627713
C       -0.5741481818   -0.9930337816   -0.3816148898
C       -1.1123906147    0.2855297231   -0.0027258813
C       -0.4443839709    1.5503036227   -0.4286124811
N        0.8594693648    1.5576826075   -0.6358735608
H        2.5745404823    0.4693297865   -0.1991821205
H        1.4554055956   -1.7527255035   -0.0268197585
H       -1.1292946449   -1.9200113722   -0.4508563777
H       -2.1670984469    0.3663355960    0.2521406325
H       -0.9761011007    2.4975864981   -0.5098794057
C       -0.2046297444   -0.4122128359    1.1066340558
H       -0.6013219083   -1.1980413829    1.7701009638
13   
From optimize.out: Frame 19 / 36, Energy=    -286.8446465019
C        1.4725058034    0.4166289513   -0.2871507606
C        0.8228571435   -0.9029849454   -0.2149001455
C       -0.5719787398   -0.9989559744   -0.3871412438
C       -1.1286215828    0.2721757815   -0.0498551920
C       -0.4466738965    1.5487779432   -0.4086522152
N        0.8573386042    1.5543570706   -0.6096454485
H        2.5552376501    0.4468316808   -0.1613330001
H        1.4492455018   -1.7795193831   -0.0747042523
H       -1.1280426641   -1.9290845158   -0.4214229474
H       -2.1836717726    0.3432828904    0.2035824314
H       -0.9834098758    2.4953900347   -0.4723561189
C       -0.1586754682   -0.3326688286    1.1088169031
H       -0.5561107031   -1.1342307052    1.7747619900
13   
From optimize.out: Frame 17 / 36, Energy=    -286.8356235109
C        1.4536067198    0.4056871107   -0.2571302437
C        0.8162270081   -0.9295573221   -0.2414872394
C       -0.5732171309   -1.0087140107   -0.3934753478
C       -1.1448741650    0.2583968184   -0.0912047706
C       -0.4491480807    1.5455572816   -0.3840088525
N        0.8560084525    1.5521369878   -0.5863787884
H        2.5374232694    0.4259251128   -0.1294872048
H        1.4378631961   -1.8089321669   -0.1010586089
H       -1.1297796504   -1.9408501920   -0.4041248232
H       -2.2008273442    0.3225823864    0.1581449612
H       -0.9945685495    2.4889809264   -0.4266377957
C       -0.1072722725   -0.2487000035    1.0922237046
H       -0.5014414527   -1.0625129290    1.7646250094
13   
From optimize.out: Frame 15 / 36, Energy=    -286.8228066765
C        1.4391916246    0.3952045558   -0.2312780600
C        0.8093515056   -0.9563385192   -0.2571380837
C       -0.5771973768   -1.0232293233   -0.3988172053
C       -1.1615637505    0.2432382244   -0.1230150389
C       -0.4502800124    1.5414258818   -0.3572546120
N        0.8557760200    1.5551670132   -0.5687688284
H        2.5230502833    0.4071390738   -0.1014777174
H        1.4236848863   -1.8393750001   -0.1104558727
H       -1.1329258140   -1.9571789538   -0.3921836298
H       -2.2179709808    0.3019556760    0.1235854021
H       -1.0063959519    2.4798096579   -0.3754399642
C       -0.0578606876   -0.1633405418    1.0576898935
H       -0.4468597459   -0.9844777448    1.7345537168
13   
From optimize.out: Frame 12 / 36, Energy=    -286.7961341248
C        1.4322413192    0.3844130081   -0.2108538342
C        0.8037560396   -0.9801896964   -0.2645826677
C       -0.5836685583   -1.0417857456   -0.4021818031
C       -1.1805173464    0.2271876663   -0.1463456995
C       -0.4495585162    1.5351395566   -0.3288254093
N        0.8568396240    1.5663463566   -0.5571496407
H        2.5148330206    0.3887588783   -0.0786620249
H        1.4095943244   -1.8669240846   -0.1074124483
H       -1.1367266636   -1.9773451917   -0.3811401785
H       -2.2366500718    0.2800628905    0.1005855282
H       -1.0164634301    2.4671708828   -0.3194895283
C       -0.0148868986   -0.0802566391    1.0105898694
H       -0.3987928429   -0.9025778820    1.6854678369
13   
From optimize.out: Frame 10 / 36, Energy=    -286.7721999950
C        1.4355506182    0.3735413686   -0.1980561254
C        0.8000879234   -0.9973218114   -0.2645702528
C       -0.5930059232   -1.0624486798   -0.4025555330
C       -1.2037163120    0.2118265951   -0.1642773695
C       -0.4482608202    1.5240261848   -0.2980142634
N        0.8609626449    1.5837675209   -0.5500800843
H        2.5162057227    0.3699186409   -0.0647460452
H        1.3976053181   -1.8869072027   -0.0935467265
H       -1.1416520908   -1.9988260159   -0.3678104256
H       -2.2592110421    0.2583541826    0.0852650663
H       -1.0242518957    2.4485372109   -0.2578081616
C        0.0203619133   -0.0036031886    0.9556276298
H       -0.3606760567   -0.8208648055    1.6205722912
13   
From optimize.out: Frame 8 / 36, Energy=    -286.7424931806
C        1.4504440464    0.3639914737   -0.1940801266
C        0.7992973270   -1.0064783768   -0.2570076924
C       -0.6060538159   -1.0844074759   -0.3984367778
C       -1.2314762803    0.1997636169   -0.1774515178
C       -0.4492140769    1.5087474270   -0.2666762485
N        0.8707886716    1.6023167943   -0.5444949440
H        2.5290695574    0.3528642831   -0.0621585985
H        1.3895786681   -1.8970986208   -0.0679564139
H       -1.1493309818   -2.0199879052   -0.3484811077
H       -2.2863083632    0.2403486353    0.0763018775
H       -1.0307595287    2.4246176082   -0.1931587178
C        0.0476407552    0.0614569061    0.8935976832
H       -0.3336759788   -0.7461343658    1.5400025842
13   
From optimize.out: Frame 5 / 36, Energy=    -286.6875154658
C        1.4745524216    0.3546934868   -0.1969384937
C        0.8026096483   -1.0125937692   -0.2428738898
C       -0.6204903138   -1.1088476824   -0.3843796630
C       -1.2591869782    0.1941437437   -0.1815588551
C       -0.4573418723    1.4994349502   -0.2421141968
N        0.8816018663    1.6168145510   -0.5262251209
H        2.5504965955    0.3369955921   -0.0691132026
H        1.3881543021   -1.9018517234   -0.0380454465
H       -1.1579419586   -2.0411340739   -0.3177372755
H       -2.3145841963    0.2311288718    0.0739190076
H       -1.0404940928    2.4047257618   -0.1404974319
C        0.0677323570    0.1116598260    0.8291725119
H       -0.3151077787   -0.6851695342    1.4363920561
13   
From optimize.out: Frame 3 / 36, Energy=    -286.6443513158
C        1.4773148640    0.3583570854   -0.1991470997
C        0.8021400455   -1.0219380877   -0.2558340121
C       -0.6330458667   -1.1306614867   -0.4180018987
C       -1.2647231312    0.1925226904   -0.1916048185
C       -0.4532838430    1.5125850850   -0.2547533578
N        0.8911701141    1.6464173011   -0.5622796425
H        2.5567403154    0.3342981593   -0.0314093992
H        1.3911185386   -1.9058995347    0.0095142401
H       -1.1703561499   -2.0639417919   -0.3330318244
H       -2.3145272859    0.2347954291    0.1311414100
H       -1.0473812123    2.4150683135   -0.1203755729
C        0.0551855499    0.0875757128    0.7917723786
H       -0.2903519387   -0.6591788758    1.4340095970
13   
From optimize.out: Frame 1 / 36, Energy=    -286.5933671264
C        1.4711117546    0.3680408129   -0.2023988672
C        0.8010156798   -1.0306738950   -0.2852759146
C       -0.6429372369   -1.1459123371   -0.4763528488
C       -1.2614789326    0.1929677356   -0.2103702004
C       -0.4434627633    1.5332216465   -0.2812272610
N        0.9004159945    1.6790554241   -0.6177125586
H        2.5510004472    0.3370592420    0.0226177854
H        1.3906918969   -1.9040002625    0.0515194494
H       -1.1834537287   -2.0842338645   -0.3709418996
H       -2.2963542711    0.2409488533    0.1965619974
H       -1.0501984400    2.4332902361   -0.1132391156
C        0.0319579557    0.0380943238    0.7687462251
H       -0.2683083562   -0.6578579151    1.5180732086
13   
C5H5N+CH->C6H6N atoms 1-13 frame 75 charge +0.000 sz -1.000 sz^2 0.516
C        1.4636338989    0.3767952365   -0.2058821104
C        0.8003727370   -1.0384005008   -0.3161432953
C       -0.6514457126   -1.1575593124   -0.5353959073
C       -1.2564859016    0.1943503255   -0.2296222292
C       -0.4349391471    1.5540108555   -0.3085944007
N        0.9077091005    1.7070864853   -0.6647974792
H        2.5353521700    0.3392618528    0.0753011042
H        1.3838679659   -1.8956710433    0.0817449258
H       -1.1940760247   -2.0988028996   -0.4087558801
H       -2.2679280652    0.2451421374    0.2484114604
H       -1.0499453680    2.4464108013   -0.1099072611
C        0.0105723432   -0.0123404406    0.7514623918
H       -0.2466879964   -0.6602834976    1.6221786812
13   
C5H5N+CH->C6H6N atoms 1-13 frame 78 charge -0.000 sz -1.000 sz^2 0.743
C        1.4546733336    0.3852057869   -0.2079659480
C        0.8002616802   -1.0464890153   -0.3470556681
C       -0.6595327372   -1.1669672685   -0.5946196337
C       -1.2497631666    0.1960658001   -0.2470774667
C       -0.4278940750    1.5757290886   -0.3366432850
N        0.9135123308    1.7317076660   -0.7058506191
H        2.5090641791    0.3405310657    0.1289206870
H        1.3703717084   -1.8821268200    0.1040815544
H       -1.2023993129   -2.1083289680   -0.4436738741
H       -2.2294922193    0.2465782356    0.2909559070
H       -1.0467617256    2.4542635370   -0.1082151001
C       -0.0105333520   -0.0696171601    0.7391458423
H       -0.2215066436   -0.6565519479    1.7279976040
13   
C5H5N+CH->C6H6N atoms 1-13 frame 80 charge +0.000 sz -1.000 sz^2 0.524
C        1.4428897264    0.3921059793   -0.2073096358
C        0.8004134081   -1.0556409250   -0.3765399003
C       -0.6682357390   -1.1761398469   -0.6543146798
C       -1.2406869678    0.1979659175   -0.2602420825
C       -0.4222432733    1.5982127253   -0.3660788901
N        0.9170204450    1.7530979069   -0.7421745125
H        2.4709868909    0.3415066410    0.1862432618
H        1.3515596506   -1.8653401841    0.1204950661
H       -1.2085892015   -2.1128149261   -0.4741917612
H       -2.1816588540    0.2457875347    0.3271230881
H       -1.0409852875    2.4586650969   -0.1078136481
C       -0.0309422092   -0.1369845335    0.7328544626
H       -0.1895285886   -0.6404213859    1.8219492318
13   
C5H5N+CH->C6H6N atoms 1-13 frame 82 charge -0.000 sz -1.000 sz^2 0.534
C        1.4267490712    0.3961297683   -0.2026560772
C        0.8004354460   -1.0661556119   -0.4022256769
C       -0.6780163100   -1.1863229606   -0.7135962086
C       -1.2277954957    0.2000159345   -0.2654937408
C       -0.4177721632    1.6210007239   -0.3975210063
N        0.9170017905    1.7702608304   -0.7737855369
H        2.4206780733    0.3436110973    0.2490868409
H        1.3307564919   -1.8493805607    0.1310402206
H       -1.2129641238   -2.1123279269   -0.4969147012
H       -2.1272119591    0.2439667732    0.3580472795
H       -1.0336235915    2.4634597260   -0.1098583352
C       -0.0493926441   -0.2167455878    0.7347682408
H       -0.1488445855   -0.6075122058    1.8891087014
13   
C5H5N+CH->C6H6N atoms 1-13 frame 84 charge -0.000 sz -1.000 sz^2 0.542
C        1.4056667342    0.3963259986   -0.1936114289
C        0.7998453234   -1.0773967723   -0.4213060865
C       -0.6886038349   -1.1976701155   -0.7701253370
C       -1.2095795898    0.2023133194   -0.2598816237
C       -0.4139419077    1.6430860621   -0.4307800018
N        0.9126885849    1.7820970988   -0.8003716860
H        2.3623704054    0.3490764381    0.3169147567
H        1.3146341762   -1.8411953054    0.1353887268
H       -1.2168996656   -2.1088522007   -0.5084092151
H       -2.0748776298    0.2436456149    0.3849986948
H       -1.0266050562    2.4743357713   -0.1166601675
C       -0.0640439405   -0.3066733973    0.7459143704
H       -0.1006535996   -0.5590925121    1.9179289978
13   
C5H5N+CH->C6H6N atoms 1-13 frame 87 charge +0.000 sz -1.000 sz^2 0.560
C        1.3801442153    0.3921087923   -0.1802984199
C        0.7982162583   -1.0878479920   -0.4305581502
C       -0.6991105811   -1.2090593587   -0.8203039577
C       -1.1847502365    0.2051119954   -0.2414194948
C       -0.4102760422    1.6630664190   -0.4644198049
N        0.9038598263    1.7874604193   -0.8205515126
H        2.3031607963    0.3606839642    0.3866532101
H        1.3113552496   -1.8483986339    0.1312482085
H       -1.2222589884   -2.1051446158   -0.5060570792
H       -2.0374826853    0.2482388933    0.4083364197
H       -1.0212726755    2.4958537419   -0.1322129336
C       -0.0727311351   -0.4001067721    0.7659662603
H       -0.0488540019   -0.5019668529    1.9036172544
13   
C5H5N+CH->C6H6N atoms 1-13 frame 89 charge -0.000 sz -1.000 sz^2 0.574
C        1.3520726304    0.3839026877   -0.1634253112
C        0.7954340285   -1.0960677634   -0.4291618052
C       -0.7085441930   -1.2186262382   -0.8628950215
C       -1.1538545970    0.2085552805   -0.2118525471
C       -0.4066169705    1.6802867260   -0.4960979826
N        0.8917736508    1.7868847197   -0.8332232932
H        2.2483855839    0.3797493695    0.4538491481
H        1.3243433119   -1.8723571361    0.1140989415
H       -1.2298735264   -2.1022518248   -0.4931638410
H       -2.0225248771    0.2599207912    0.4261299221
H       -1.0167964211    2.5267184929   -0.1605797718
C       -0.0753253048   -0.4887768966    0.7910261701
H        0.0015266845   -0.4479382084    1.8652953917
13   
C5H5N+CH->C6H6N atoms 1-13 frame 91 charge +0.000 sz -1.000 sz^2 0.589
C        1.3227490371    0.3721615461   -0.1430115956
C        0.7915202836   -1.1019869355   -0.4187714618
C       -0.7165222836   -1.2251152950   -0.9006420779
C       -1.1186323272    0.2123159513   -0.1744663402
C       -0.4033101803    1.6951786909   -0.5240137211
N        0.8780905301    1.7818114841   -0.8375255798
H        2.1967704161    0.4051232643    0.5163613823
H        1.3503509457   -1.9078195858    0.0781181059
H       -1.2388075252   -2.0979847092   -0.4779493442
H       -2.0262712924    0.2780924191    0.4334282806
H       -1.0113884736    2.5617489930   -0.2040359829
C       -0.0741495145   -0.5701049029    0.8160442653
H        0.0496003841   -0.4034209204    1.8364640693
13   
C5H5N+CH->C6H6N atoms 1-13 frame 94 charge +0.000 sz -1.000 sz^2 0.620
C        1.2936997252    0.3573085976   -0.1191914621
C        0.7865164083   -1.1063902584   -0.4011923438
C       -0.7228116799   -1.2278960766   -0.9346007642
C       -1.0825100740    0.2154946800   -0.1326161862
C       -0.4011833659    1.7075456288   -0.5457205896
N        0.8645481954    1.7732061193   -0.8325794774
H        2.1465182594    0.4333527936    0.5714880554
H        1.3828966893   -1.9463150159    0.0209368312
H       -1.2474128842   -2.0896300295   -0.4682399729
H       -2.0397499736    0.3000382282    0.4256682328
H       -1.0044590184    2.5949375414   -0.2614314648
C       -0.0719618482   -0.6420645514    0.8376129753
H        0.0959095668   -0.3695876571    1.8398661662
13   
C5H5N+CH->C6H6N atoms 1-13 frame 96 charge -0.000 sz -1.000 sz^2 0.644
C        1.2663063038    0.3403730527   -0.0929114457
C        0.7806092418   -1.1105276790   -0.3777061560
C       -0.7277365580   -1.2275797384   -0.9628548818
C       -1.0488787237    0.2175788799   -0.0883499872
C       -0.4009519007    1.7170714374   -0.5603677533
N        0.8523937715    1.7615899982   -0.8202154835
H        2.0975024150    0.4609025220    0.6177403480
H        1.4150103861   -1.9792570525   -0.0515438998
H       -1.2548691025   -2.0764803935   -0.4655732701
H       -2.0526842372    0.3228622270    0.4050590881
H       -0.9967980425    2.6226427745   -0.3287943362
C       -0.0702268706   -0.7031424915    0.8572394849
H        0.1403233168   -0.3460335370    1.8682782926
13   
C5H5N+CH->C6H6N atoms 1-13 frame 98 charge -0.000 sz -1.000 sz^2 0.670
C        1.2406591122    0.3221191938   -0.0646464051
C        0.7739499718   -1.1153156197   -0.3483974788
C       -0.7318963629   -1.2249180068   -0.9836799517
C       -1.0185188431    0.2189954047   -0.0411557917
C       -0.4029015040    1.7239570201   -0.5691265836
N        0.8419865486    1.7468322859   -0.8030242201
H        2.0498057889    0.4867768487    0.6562542900
H        1.4428745834   -2.0020911660   -0.1332793342
H       -1.2617458891   -2.0590415295   -0.4675223311
H       -2.0588112583    0.3456248029    0.3766938098
H       -0.9894399253    2.6448696177   -0.4051792773
C       -0.0688142340   -0.7538889705    0.8789130000
H        0.1828520119   -0.3339198813    1.9041502736
13   
C5H5N+CH->C6H6N atoms 1-13 frame 100 charge +0.000 sz -1.000 sz^2 0.694
C        1.2166393200    0.3033221685   -0.0349382966
C        0.7668305679   -1.1210847351   -0.3139469065
C       -0.7355792082   -1.2200997055   -0.9967188721
C       -0.9912226396    0.2205876369    0.0092125941
C       -0.4069720947    1.7286471363   -0.5735292224
N        0.8335640249    1.7289603517   -0.7830452820
H        2.0043775938    0.5107682509    0.6888244061
H        1.4642799125   -2.0128445178   -0.2195996643
H       -1.2692233273   -2.0385506617   -0.4721910185
H       -2.0555784770    0.3677856280    0.3454892679
H       -0.9833789663    2.6625184081   -0.4905630188
C       -0.0671888576   -0.7952350611    0.9051691967
H        0.2234521516   -0.3347748991    1.9358368163
13   
C5H5N+CH->C6H6N atoms 1-13 frame 103 charge -0.000 sz -1.000 sz^2 0.721
C        1.1945137626    0.2849526416   -0.0046533303
C        0.7596829486   -1.1277489576   -0.2758485352
C       -0.7386540390   -1.2126643423   -1.0022150776
C       -0.9669475314    0.2232648351    0.0620052957
C       -0.4129568588    1.7315796835   -0.5745932207
N        0.8275437166    1.7082722459   -0.7616227490
H        1.9632763836    0.5323857791    0.7167177345
H        1.4773402841   -2.0102048877   -0.3064887754
H       -1.2786920457   -2.0166223831   -0.4791038804
H       -2.0426373957    0.3884522280    0.3157316539
H       -0.9794041494    2.6756540954   -0.5845972961
C       -0.0648515248   -0.8272214760    0.9367656467
H        0.2617864493   -0.3500994619    1.9579025338
13   
C5H5N+CH->C6H6N atoms 1-13 frame 105 charge -0.000 sz -1.000 sz^2 0.737
C        1.1747149855    0.2681822672    0.0250677827
C        0.7530193731   -1.1349002097   -0.2364262367
C       -0.7407080662   -1.2017903064   -1.0012107082
C       -0.9456587202    0.2279031834    0.1156741143
C       -0.4204309198    1.7333989064   -0.5732031679
N        0.8242575032    1.6854368464   -0.7398038430
H        1.9289095491    0.5509746941    0.7411235193
H        1.4808892959   -1.9939348998   -0.3899791349
H       -1.2915651984   -1.9950634603   -0.4886786464
H       -2.0218920982    0.4065753636    0.2914423412
H       -0.9777135853    2.6833849416   -0.6860338087
C       -0.0613782321   -0.8498208982    0.9730628735
H        0.2975561135   -0.3803464283    1.9689649148
13   
C5H5N+CH->C6H6N atoms 1-13 frame 107 charge +0.000 sz -1.000 sz^2 0.751
C        1.1576267248    0.2542008817    0.0531221047
C        0.7472791657   -1.1419343901   -0.1983409045
C       -0.7411280420   -1.1864791280   -0.9954252883
C       -0.9272638998    0.2352016760    0.1683303894
C       -0.4288216528    1.7349363056   -0.5702193578
N        0.8237949678    1.6613119226   -0.7183005209
H        1.9031315357    0.5657973499    0.7631182249
H        1.4749061003   -1.9650032377   -0.4666719003
H       -1.3089178521   -1.9752020722   -0.5022790227
H       -1.9971930952    0.4212516775    0.2758732131
H       -0.9777056780    2.6838173516   -0.7929742885
C       -0.0565368396   -0.8632753925    1.0124076655
H        0.3308285652   -0.4246229444    1.9713596854
13   
C5H5N+CH->C6H6N atoms 1-13 frame 109 charge -0.000 sz -1.000 sz^2 0.766
C        1.1434047245    0.2440364582    0.0787039897
C        0.7426337778   -1.1482108265   -0.1641977600
C       -0.7391749156   -1.1656914102   -0.9870952972
C       -0.9117645623    0.2455613557    0.2180075918
C       -0.4375295024    1.7370554012   -0.5665514630
N        0.8259741079    1.6367024648   -0.6974115330
H        1.8866321536    0.5758883685    0.7835902841
H        1.4606710828   -1.9254592647   -0.5341468025
H       -1.3311116495   -1.9571964788   -0.5226646466
H       -1.9735884884    0.4317940241    0.2710615862
H       -0.9781090235    2.6743503833   -0.9031864024
C       -0.0505506349   -0.8682382242    1.0523974139
H        0.3625129301   -0.4805922513    1.9714930389
13   
C5H5N+CH->C6H6N atoms 1-13 frame 112 charge +0.000 sz -1.000 sz^2 0.793
C        1.1319204111    0.2385366349    0.1013044393
C        0.7388195711   -1.1531038480   -0.1364934827
C       -0.7340928119   -1.1385220064   -0.9788287565
C       -0.8996258850    0.2590185503    0.2624706907
C       -0.4459902617    1.7404693512   -0.5632693090
N        0.8303452772    1.6123033928   -0.6771303591
H        1.8788170477    0.5798126935    0.8031472726
H        1.4407946065   -1.8785196492   -0.5906956122
H       -1.3574239218   -1.9396891773   -0.5542224454
H       -1.9565034885    0.4375597849    0.2777651128
H       -0.9772627008    2.6522698365   -1.0138773366
C       -0.0444495398   -0.8656819793    1.0898724692
H        0.3946516959   -0.5444535838    1.9799573168
13   
C5H5N+CH->C6H6N atoms 1-13 frame 114 charge +0.000 sz -1.000 sz^2 0.812
C        1.1229531917    0.2385868106    0.1203065557
C        0.7350642436   -1.1558066779   -0.1177342418
C       -0.7254237908   -1.1047976146   -0.9730744075
C       -0.8921972118    0.2752097124    0.2986473408
C       -0.4536093147    1.7455447243   -0.5618388007
N        0.8360332704    1.5890184654   -0.6578321357
H        1.8782090819    0.5757887030    0.8216119826
H        1.4196074117   -1.8296968932   -0.6340074166
H       -1.3853578181   -1.9198801880   -0.6016064946
H       -1.9509765025    0.4378471668    0.2959187112
H       -0.9734157580    2.6155489821   -1.1201225441
C       -0.0401069491   -0.8563907064    1.1209530473
H        0.4292201458   -0.6109724845    2.0087784033
13   
C5H5N+CH->C6H6N atoms 1-13 frame 116 charge -0.000 sz -1.000 sz^2 0.836
C        1.1161540990    0.2442559055    0.1354761972
C        0.7304498921   -1.1556401388   -0.1079534068
C       -0.7139739116   -1.0665018385   -0.9699864302
C       -0.8903624924    0.2933098757    0.3252035921
C       -0.4600328279    1.7518280072   -0.5635398935
N        0.8415867875    1.5676036204   -0.6406847060
H        1.8825033408    0.5640658221    0.8376980707
H        1.4023829197   -1.7863780421   -0.6631725847
H       -1.4108605436   -1.8949687136   -0.6636374030
H       -1.9577030830    0.4331662984    0.3240897689
H       -0.9661185087    2.5656479157   -1.2165033284
C       -0.0384669200   -0.8410924480    1.1442378105
H        0.4644412479   -0.6752962640    2.0587723131
13   
C5H5N+CH->C6H6N atoms 1-13 frame 119 charge +0.000 sz -1.000 sz^2 0.868
C        1.1113741387    0.2552553041    0.1471072221
C        0.7243838439   -1.1521763643   -0.1052057945
C       -0.7009276723   -1.0256255621   -0.9674737514
C       -0.8941300423    0.3129177274    0.3433949199
C       -0.4653484356    1.7584149215   -0.5689116017
N        0.8457163157    1.5479368835   -0.6268029146
H        1.8905056498    0.5461601861    0.8498018317
H        1.3926807727   -1.7538026140   -0.6788258691
H       -1.4308060218   -1.8630090370   -0.7357486121
H       -1.9737119801    0.4246271866    0.3620924191
H       -0.9564008332    2.5043519477   -1.3009047737
C       -0.0385651488   -0.8196346850    1.1616932079
H        0.4952294132   -0.7354158946    2.1197837165
13   
C5H5N+CH->C6H6N atoms 1-13 frame 121 charge -0.000 sz -1.000 sz^2 0.887
C        1.1086321951    0.2710449518    0.1557594058
C        0.7165494567   -1.1453259056   -0.1073581779
C       -0.6872285050   -0.9833862515   -0.9631884145
C       -0.9031632191    0.3337341775    0.3555146803
C       -0.4698817805    1.7642029761   -0.5777211054
N        0.8474892964    1.5293259545   -0.6166383369
H        1.9020978729    0.5235731910    0.8566669746
H        1.3920083136   -1.7344550640   -0.6821648665
H       -1.4434094337   -1.8229831597   -0.8136027171
H       -1.9946770526    0.4133305614    0.4106095317
H       -0.9461549372    2.4328782056   -1.3734808657
C       -0.0386388054   -0.7918429487    1.1762210599
H        0.5163765989   -0.7900966884    2.1793828318
13   
C5H5N+CH->C6H6N atoms 1-13 frame 123 charge +0.000 sz -1.000 sz^2 0.906
C        1.1080920023    0.2906335925    0.1618650226
C        0.7068794739   -1.1354042482   -0.1131090608
C       -0.6736046144   -0.9408534801   -0.9557154648
C       -0.9171232259    0.3549108994    0.3634445400
C       -0.4739014093    1.7679329133   -0.5890585476
N        0.8462655709    1.5112040864   -0.6101179848
H        1.9176283738    0.4975249323    0.8573426380
H        1.4000393683   -1.7287815639   -0.6737743546
H       -1.4476842580   -1.7750503484   -0.8936030351
H       -2.0161619379    0.4003319129    0.4695765492
H       -0.9376792663    2.3532474690   -1.4341858142
C       -0.0371313537   -0.7583858234    1.1896517984
H        0.5243812763   -0.8373103418    2.2276837135
13   
C5H5N+CH->C6H6N atoms 1-13 frame 125 charge +0.000 sz -1.000 sz^2 0.922
C        1.1099572628    0.3124049062    0.1658068228
C        0.6956554130   -1.1232106915   -0.1217979902
C       -0.6606303463   -0.8992257075   -0.9447209305
C       -0.9353992127    0.3749833245    0.3686633728
C       -0.4775264855    1.7683847148   -0.6013725184
N        0.8418043613    1.4933109108   -0.6066965236
H        1.9374350850    0.4692421706    0.8512558933
H        1.4143875513   -1.7349258621   -0.6539804375