13   
From optimize.out: Frame 1 / 2, Energy=    -286.8516345402
C        1.5189874062    0.3441588063   -0.2644252994
C        0.6216192586   -0.8944701024   -0.0647318007
C       -0.3948716278   -0.5208172525   -1.1474916430
C       -1.0026577606    0.5083552418    0.8086557238
C       -0.5872412418    0.8947648274   -0.6197781154
N        0.8524697132    1.3865955360   -0.5761305058
H        2.5997530457    0.3578848315   -0.1336547130
H        1.1020933072   -1.8728860788   -0.0775504506
H       -1.2194040131   -1.1747379185   -1.4269638383
H       -1.7237658678    1.0470917705    1.4134949852
H       -1.2335871503    1.5920977564   -1.1505755036
C       -0.2723898965   -0.5664110507    1.1480186723
H       -0.2610051735   -1.1016263668    2.0911324881
13   
From optimize.out: Frame 25 / 26, Energy=    -286.8516345401
C        1.5139207633    0.3303996213   -0.2735760907
C        0.6106277384   -0.8986503147   -0.0592505986
C       -0.4068443179   -0.5179962846   -1.1400082128
C       -0.9932305238    0.5229019378    0.8288909392
C       -0.5883067231    0.8914236013   -0.6134506393
N        0.8509576933    1.3756565643   -0.5855888930
H        2.5930963366    0.3482155375   -0.1327402354
H        1.0699979404   -1.8863575149   -0.0618381215
H       -1.1816006208   -1.1652201022   -1.5325405026
H       -1.7474795475    1.0207492985    1.4257326935
H       -1.2418224774    1.5869845470   -1.1362687851
C       -0.2614995890   -0.5466856826    1.1652725506
H       -0.2178166725   -1.0614212087    2.1153658958
13   
From optimize.out: Frame 23 / 26, Energy=    -286.8516095087
C        1.5188571670    0.3123229496   -0.2814038827
C        0.6061976424   -0.9001730042   -0.0705696154
C       -0.4384703718   -0.5106198372   -1.1229853748
C       -0.9925225374    0.5072967286    0.8215139298
C       -0.5681741184    0.9005719909   -0.6088067705
N        0.8651915052    1.3629461541   -0.5936882405
H        2.5917234130    0.3343482850   -0.0997912288
H        1.0399239147   -1.8985041420   -0.0830843599
H       -1.1873532341   -1.1427680148   -1.5675216638
H       -1.8076264057    0.9466758944    1.3856611401
H       -1.2371726239    1.5956770589   -1.1087481439
C       -0.2383665578   -0.5290560658    1.1767699587
H       -0.1522077931   -0.9787179974    2.1526542516
13   
From optimize.out: Frame 21 / 26, Energy=    -286.8514348422
C        1.5289874281    0.3030142464   -0.2874532240
C        0.6093978675   -0.8993731403   -0.0720592484
C       -0.4750156951   -0.5005299926   -1.0809755373
C       -1.0047023634    0.4737826724    0.7862885836
C       -0.5466848016    0.9269387475   -0.6050879762
N        0.8831106606    1.3611790591   -0.5890065636
H        2.5995556981    0.3179565727   -0.0905894130
H        1.0359430855   -1.9006544735   -0.1080039673
H       -1.2215041432   -1.1260746258   -1.5399473932
H       -1.8677445828    0.8729738293    1.3118825506
H       -1.2189786646    1.6266143642   -1.0946062842
C       -0.2194066626   -0.5265520645    1.1871056953
H       -0.1029578264   -0.9292751948    2.1824527780
13   
From optimize.out: Frame 19 / 26, Energy=    -286.8511747418
C        1.5400144408    0.3002320883   -0.2888951437
C        0.6178847372   -0.8990662874   -0.0674465061
C       -0.5129455845   -0.4851883363   -1.0240965669
C       -1.0220509266    0.4414573109    0.7430525381
C       -0.5288728835    0.9591741993   -0.6083576954
N        0.8978800117    1.3654039847   -0.5814130707
H        2.6111254902    0.3059237134   -0.0933211541
H        1.0482317660   -1.8985784419   -0.1297833519
H       -1.2693185604   -1.1070731193   -1.4815002192
H       -1.9211842008    0.8165881743    1.2274407432
H       -1.1958659620    1.6630467302   -1.1012434756
C       -0.1998525381   -0.5426581233    1.1980174274
H       -0.0650457900   -0.9192618928    2.2075464749
13   
From optimize.out: Frame 15 / 26, Energy=    -286.8423508947
C        1.5427597245    0.3004312952   -0.2861179474
C        0.6213816790   -0.9025289032   -0.0635872358
C       -0.5468200380   -0.4644765671   -0.9704962939
C       -1.0305873553    0.4035885778    0.6917206684
C       -0.5104346747    0.9859968762   -0.6110472042
N        0.9094900208    1.3753518092   -0.5736611867
H        2.6139843702    0.2993677853   -0.0901529698
H        1.0526067842   -1.9003805183   -0.1449713006
H       -1.3156570940   -1.0798082343   -1.4125149901
H       -1.9566304306    0.7536600178    1.1438860175
H       -1.1714429695    1.6921575393   -1.1068022443
C       -0.1795795847   -0.5693092454    1.2002811707
H       -0.0290704320   -0.8940504325    2.2234635161
13   
From optimize.out: Frame 13 / 26, Energy=    -286.8305542471
C        1.5432056481    0.3030408145   -0.2593047220
C        0.6297214992   -0.9035762843   -0.0573533979
C       -0.5546266099   -0.4560776373   -0.9413296322
C       -1.0359819311    0.3792934339    0.6696293711
C       -0.4993053392    0.9961994343   -0.6154919862
N        0.9131795595    1.3835392256   -0.5369727342
H        2.6215277865    0.2862725933   -0.1114168143
H        1.0744071559   -1.8902679059   -0.1925895465
H       -1.3613386627   -1.0560923846   -1.3368185721
H       -1.9874632355    0.7280953657    1.0666199715
H       -1.1474388586    1.7073292859   -1.1205023811
C       -0.2042094410   -0.6290314459    1.1960397985
H        0.0083224289   -0.8487244952    2.2394906454
13   
From optimize.out: Frame 11 / 26, Energy=    -286.8240569261
C        1.5438231736    0.3162849372   -0.2281093370
C        0.6482112997   -0.8987610452   -0.0418689197
C       -0.5475986569   -0.4571702149   -0.9053763018
C       -1.0238796229    0.3689744689    0.6807224878
C       -0.4921122423    0.9945735547   -0.6374292250
N        0.9036786946    1.3937802576   -0.4991529287
H        2.6295801475    0.2933360306   -0.1656316356
H        1.1066206260   -1.8682751580   -0.2440113069
H       -1.3904883589   -1.0343558934   -1.2611781813
H       -1.9838330038    0.7555547638    1.0174127113
H       -1.1288718442    1.7016729861   -1.1604438859
C       -0.2468486135   -0.6990288826    1.1943785197
H       -0.0182815991   -0.8665858048    2.2506880030
13   
From optimize.out: Frame 9 / 26, Energy=    -286.8212493953
C        1.5430672637    0.3312216381   -0.2069826123
C        0.6672002824   -0.8898373117   -0.0227470810
C       -0.5357720937   -0.4599142748   -0.8636114924
C       -1.0072039086    0.3617596254    0.7088289382
C       -0.4856046677    0.9941848853   -0.6726358691
N        0.8858695870    1.4059293340   -0.4740769731
H        2.6300208796    0.3116883465   -0.2235061903
H        1.1300533578   -1.8448956771   -0.2828671351
H       -1.4072889580   -1.0128936687   -1.1993019236
H       -1.9645272291    0.7901005108    0.9958274330
H       -1.1052207719    1.6949439440   -1.2246928261
C       -0.2840034424   -0.7597972596    1.2007207423
H       -0.0665902992   -0.9224900921    2.2650449895
13   
From optimize.out: Frame 7 / 26, Energy=    -286.8110639237
C        1.5406310422    0.3443653519   -0.1928625722
C        0.6842423621   -0.8776689737   -0.0003067787
C       -0.5186445405   -0.4644170680   -0.8230542618
C       -0.9893589288    0.3561733564    0.7418187266
C       -0.4801765685    0.9978079714   -0.7101686581
N        0.8616625898    1.4219651542   -0.4582411769
H        2.6230930716    0.3309133989   -0.2825479964
H        1.1458773253   -1.8212397303   -0.3113391433
H       -1.4177398639   -0.9946361104   -1.1530634829
H       -1.9394407080    0.8199673222    0.9874840442
H       -1.0761604443    1.6942937086   -1.2989783494
C       -0.3158431204   -0.8157418085    1.2151177430
H       -0.1181422165   -0.9917825727    2.2861419058
13   
From optimize.out: Frame 5 / 26, Energy=    -286.7889023469
C        1.5367201399    0.3547180250   -0.1800512045
C        0.7000740561   -0.8645056633    0.0263566522
C       -0.4955292064   -0.4743901765   -0.7849010846
C       -0.9681734536    0.3565821222    0.7700199443
C       -0.4776096532    1.0075134432   -0.7440938161
N        0.8284287480    1.4478230252   -0.4450249239
H        2.6097166478    0.3455734103   -0.3410441375
H        1.1577362375   -1.7984888449   -0.3327466458
H       -1.4270093751   -0.9869747237   -1.1212083776
H       -1.9081776651    0.8515379649    0.9781125157
H       -1.0482805783    1.7028015777   -1.3718260253
C       -0.3408226822   -0.8727515295    1.2345693448
H       -0.1670732153   -1.0694386305    2.3118377583
13   
From optimize.out: Frame 3 / 26, Energy=    -286.7533419934
C        1.5246785406    0.3616461877   -0.1687374490
C        0.7148900369   -0.8547020751    0.0568229153
C       -0.4620923637   -0.4898246414   -0.7511770951
C       -0.9424812110    0.3676518376    0.7876480587
C       -0.4804213975    1.0268209692   -0.7704862564
N        0.7847663436    1.4841160908   -0.4326800793
H        2.5866871280    0.3500973791   -0.3919689923
H        1.1670262937   -1.7811028439   -0.3472425052
H       -1.4340670340   -0.9962201035   -1.1086273615
H       -1.8695561093    0.8891607878    0.9600508167
H       -1.0300187017    1.7267208167   -1.4357770123
C       -0.3544226323   -0.9315773907    1.2586160455
H       -0.2049888932   -1.1527870144    2.3435589149
13   
From optimize.out: Frame 1 / 26, Energy=    -286.6936324126
C        1.5463758441    0.3859951007   -0.1746070604
C        0.7407607244   -0.8367457009    0.0718918799
C       -0.4336414322   -0.5079972677   -0.7011531639
C       -0.9346705698    0.3924971195    0.7954147331
C       -0.4742478937    1.0158156663   -0.7796333658
N        0.7464515849    1.4911008330   -0.4478653862
H        2.5896791097    0.3462077865   -0.4552171706
H        1.1536527194   -1.7750484026   -0.3189483913
H       -1.4191318071   -0.9329039790   -1.1314685722
H       -1.8634049036    0.9209054111    0.9413185138
H       -1.0379843571    1.6954587056   -1.4434556751
C       -0.3787095424   -0.9483590193    1.2657300571
H       -0.2351294769   -1.2469262531    2.3779936015
13   
C6H6N->C6H6N atoms 1-13 frame 234 charge -0.000 sz -1.000 sz^2 0.699
C        1.5823774042    0.4125720330   -0.1902931969
C        0.7653205801   -0.8199651614    0.0740172023
C       -0.4219172422   -0.5187103471   -0.6549133047
C       -0.9390443329    0.4188797585    0.7984128184
C       -0.4649653984    0.9938313994   -0.7819175516
N        0.7228391464    1.4814408812   -0.4754254547
H        2.6095069631    0.3379613863   -0.5112304602
H        1.1334948903   -1.7750350096   -0.2740331162
H       -1.3849882945   -0.8493861208   -1.1588868253
H       -1.8777014991    0.9440137156    0.9340793276
H       -1.0593158200    1.6408283843   -1.4208812405
C       -0.4057191497   -0.9415444486    1.2653038191
H       -0.2598872474   -1.3248864710    2.3957679828
13   
C6H6N->C6H6N atoms 1-13 frame 236 charge -0.000 sz -1.000 sz^2 0.679
C        1.6180296727    0.4376537376   -0.2110870491
C        0.7876957558   -0.8064134068    0.0725097515
C       -0.4198506953   -0.5222790649   -0.6116399357
C       -0.9447434042    0.4477866893    0.8009322982
C       -0.4550392660    0.9715993137   -0.7821919900
N        0.7071560962    1.4693210245   -0.5057865518
H        2.6336196381    0.3288911319   -0.5636177266
H        1.1152759157   -1.7805398293   -0.2233404284
H       -1.3342845297   -0.7734299421   -1.1820688726
H       -1.8936935338    0.9677881544    0.9368018818
H       -1.0892358468    1.5836093340   -1.3885174683
C       -0.4350179083   -0.9298972623    1.2656493475
H       -0.2899118944   -1.3940898801    2.3923567435
13   
C6H6N->C6H6N atoms 1-13 frame 240 charge -0.000 sz -1.000 sz^2 0.577
C        1.6530568274    0.4598891205   -0.2361247156
C        0.8082912245   -0.7963538236    0.0677106797
C       -0.4275235169   -0.5170841495   -0.5713432740
C       -0.9513208202    0.4793854436    0.8044263364
C       -0.4445047818    0.9495944703   -0.7781785588
N        0.7028829480    1.4557774599   -0.5370668822
H        2.6629649972    0.3217129979   -0.6102592606
H        1.1029883088   -1.7951850604   -0.1680835348
H       -1.2730513642   -0.7154678137   -1.2028694667
H       -1.9083773393    0.9916938350    0.9506255783
H       -1.1305452868    1.5291212641   -1.3477971004
C       -0.4668704399   -0.9134369177    1.2672393848
H       -0.3279907567   -1.4496468264    2.3617208140
13   
C6H6N->C6H6N atoms 1-13 frame 242 charge +0.000 sz -1.000 sz^2 0.527
C        1.6863459071    0.4773206232   -0.2637461097
C        0.8273430314   -0.7903468696    0.0599577217
C       -0.4433296661   -0.5026179981   -0.5344297765
C       -0.9577609968    0.5129253464    0.8106255630
C       -0.4339669632    0.9292383907   -0.7675962755
N        0.7137621260    1.4421870091   -0.5668302763
H        2.6966770474    0.3202766364   -0.6470070592
H        1.0998106045   -1.8191348331   -0.1107418460
H       -1.2138580164   -0.6888072495   -1.2259681199
H       -1.9182733255    1.0140797980    0.9752870458
H       -1.1819131243    1.4830794316   -1.3001863252
C       -0.5001407222   -0.8927721636    1.2699945640
H       -0.3746959020   -1.4854281213    2.3006408939
13   
C6H6N->C6H6N atoms 1-13 frame 244 charge -0.000 sz -1.000 sz^2 0.587
C        1.7158811329    0.4886292307   -0.2916029855
C        0.8446230273   -0.7885292558    0.0501203853
C       -0.4633626592   -0.4821048787   -0.5013866784
C       -0.9629145950    0.5464677272    0.8205402324
C       -0.4248254143    0.9126781748   -0.7504695559
N        0.7389235659    1.4296292372   -0.5933587496
H        2.7312944022    0.3270849269   -0.6714977270
H        1.1048208319   -1.8457436813   -0.0558230423
H       -1.1693347131   -0.6985536244   -1.2541714885
H       -1.9224961251    1.0330206320    1.0066542131
H       -1.2338749810    1.4478452215   -1.2478550906
C       -0.5322577439   -0.8696762932    1.2727589726
H       -0.4264767285   -1.5007474169    2.2160915145
13   
C6H6N->C6H6N atoms 1-13 frame 246 charge +0.000 sz -1.000 sz^2 0.642
C        1.7404167347    0.4938381709   -0.3190215515
C        0.8597147415   -0.7905260533    0.0383975306
C       -0.4850061648   -0.4596473779   -0.4727265187
C       -0.9664700870    0.5788645123    0.8339554464
C       -0.4181622568    0.9016379401   -0.7284960271
N        0.7745985398    1.4182493093   -0.6173352762
H        2.7639590066    0.3423531341   -0.6852046593
H        1.1148241629   -1.8676713555   -0.0070729046
H       -1.1414130378   -0.7399638639   -1.2839908552
H       -1.9233068981    1.0482615531    1.0403680782
H       -1.2767858021    1.4223401041   -1.1927415956
C       -0.5618680520   -0.8448077107    1.2734050308
H       -0.4805008869   -1.5029283625    2.1204633021
13   
C6H6N->C6H6N atoms 1-13 frame 248 charge -0.000 sz -1.000 sz^2 0.635
C        1.7602091882    0.4938656256   -0.3478618201
C        0.8726991767   -0.7956166512    0.0236068799
C       -0.5079218781   -0.4380767161   -0.4487083493
C       -0.9688504228    0.6110076781    0.8500059686
C       -0.4142387277    0.8970923272   -0.7033061155
N        0.8178544951    1.4074783008   -0.6418628673
H        2.7942988850    0.3659517685   -0.6915599740
H        1.1272669405   -1.8806944964    0.0341497159
H       -1.1240164704   -0.8047562281   -1.3079004560
H       -1.9242690688    1.0614466879    1.0739516436
H       -1.3057438509    1.4043832707   -1.1361818597
C       -0.5897786120   -0.8164708228    1.2689801095
H       -0.5375096548   -1.5056107443    2.0266871244
13   
C6H6N->C6H6N atoms 1-13 frame 251 charge +0.000 sz -1.000 sz^2 0.615
C        1.7756915904    0.4895597321   -0.3804183554
C        0.8838347206   -0.8029317778    0.0044478051
C       -0.5322945238   -0.4198805547   -0.4297873829
C       -0.9704627290    0.6442583887    0.8677922360
C       -0.4129463029    0.8997780744   -0.6761766513
N        0.8665068261    1.3968722250   -0.6702794730
H        2.8227271181    0.3980220861   -0.6933187340
H        1.1413398688   -1.8830875062    0.0671913683
H       -1.1108048374   -0.8846959643   -1.3175181806
H       -1.9283817789    1.0745693637    1.1058693848
H       -1.3189372926    1.3931856238   -1.0809574175
C       -0.6166318769   -0.7822306570    1.2568419908
H       -0.5996407824   -1.5234190337    1.9463134097
13   
C6H6N->C6H6N atoms 1-13 frame 253 charge +0.000 sz -1.000 sz^2 0.615
C        1.7866450516    0.4812943027   -0.4165722627
C        0.8931834211   -0.8116773036   -0.0187525266
C       -0.5569854673   -0.4087747060   -0.4164353580
C       -0.9713400829    0.6777961527    0.8869370190
C       -0.4141166971    0.9095617474   -0.6481115404
N        0.9165817091    1.3864867141   -0.7032720909
H        2.8482899494    0.4372067024   -0.6915659360
H        1.1573609584   -1.8755989421    0.0906014215
H       -1.0982272401   -0.9697640384   -1.3058243240
H       -1.9368817898    1.0879195956    1.1349057844
H       -1.3164968046    1.3897945264   -1.0325269334
C       -0.6409486827   -0.7428660944    1.2367934799
H       -0.6670643251   -1.5613786569    1.8838232671
13   
C6H6N->C6H6N atoms 1-13 frame 255 charge +0.000 sz -1.000 sz^2 0.625
C        1.7934547224    0.4690792757   -0.4541052015
C        0.9011470845   -0.8215701518   -0.0444661747
C       -0.5804282689   -0.4080989266   -0.4077593427
C       -0.9715104574    0.7092584041    0.9084118518
C       -0.4172560961    0.9243781138   -0.6185342575
N        0.9639023983    1.3764368396   -0.7387643657
H        2.8696758520    0.4804889579   -0.6859630558
H        1.1763954889   -1.8629478182    0.1042048546
H       -1.0843671959   -1.0508041265   -1.2713948553
H       -1.9487865742    1.0998489893    1.1620196233
H       -1.3027282764    1.3955591077   -0.9951452943
C       -0.6611441103   -0.7030087980    1.2112653823
H       -0.7383545670   -1.6086198670    1.8302308353
13   
C6H6N->C6H6N atoms 1-13 frame 257 charge -0.000 sz -1.000 sz^2 0.652
C        1.7972088007    0.4525650676   -0.4909965837
C        0.9084465692   -0.8326986854   -0.0717606503
C       -0.6017756451   -0.4195218676   -0.4023749310
C       -0.9712414355    0.7368524706    0.9339808766
C       -0.4218063951    0.9416390492   -0.5854908241
N        1.0064393056    1.3670064239   -0.7744873238
H        2.8859794109    0.5251416733   -0.6751875902
H        1.1999341252   -1.8512536267    0.1092090937
H       -1.0681820340   -1.1235321334   -1.2174892510
H       -1.9620658894    1.1084991202    1.1898187401
H       -1.2838394185    1.4121213731   -0.9705814129
C       -0.6772253841   -0.6672293892    1.1823295180
H       -0.8118720099   -1.6495894757    1.7730303386
13   
C6H6N->C6H6N atoms 1-13 frame 259 charge +0.000 sz -1.000 sz^2 0.714
C        1.7990249788    0.4317639832   -0.5254557059
C        0.9157552868   -0.8447360217   -0.1000591943
C       -0.6201933302   -0.4430841317   -0.3994894143
C       -0.9709628667    0.7592893180    0.9646333565
C       -0.4273493971    0.9589974526   -0.5476867949
N        1.0428555939    1.3591419104   -0.8085272113
H        2.8960651740    0.5681563550   -0.6580272272
H        1.2289670343   -1.8453871846    0.1071531018
H       -1.0499613774   -1.1862041930   -1.1502729967
H       -1.9745650676    1.1127338860    1.2203213029
H       -1.2651251632    1.4407505553   -0.9597662709
C       -0.6899135314   -0.6386918977    1.1512576582
H       -0.8845973341   -1.6727300318    1.7059193961
13   
C6H6N->C6H6N atoms 1-13 frame 263 charge -0.000 sz -1.000 sz^2 0.897
C        1.7997849255    0.4076153420   -0.5559833680
C        0.9236180113   -0.8567864266   -0.1287308890
C       -0.6346899875   -0.4769149045   -0.3986714142
C       -0.9711620797    0.7758870937    1.0001179359
C       -0.4337890790    0.9746816347   -0.5052900778
N        1.0720916016    1.3542398424   -0.8393440289
H        2.8989139830    0.6061707013   -0.6342941924
H        1.2633415908   -1.8470203405    0.0997214434
H       -1.0320480926   -1.2397262531   -1.0787390251
H       -1.9845804068    1.1124618589    1.2543894049
H       -1.2487056152    1.4803937872   -0.9615153754
C       -0.7001225933   -0.6188614563    1.1191406726
H       -0.9526522581   -1.6721408792    1.6291989140
13   
C6H6N->C6H6N atoms 1-13 frame 265 charge +0.000 sz -1.000 sz^2 0.979
C        1.8000228471    0.3817087202   -0.5819741192
C        0.9325292566   -0.8677714089   -0.1573751691
C       -0.6444307609   -0.5178835569   -0.3995164590
C       -0.9722391127    0.7869635790    1.0396152450
C       -0.4414345998    0.9880939267   -0.4592935887
N        1.0940108568    1.3535889973   -0.8662018730
H        2.8943198882    0.6365623958   -0.6047246154
H        1.3020240198   -1.8539357301    0.0883174085
H       -1.0186059589   -1.2892376147   -1.0130950616
H       -1.9913057049    1.1087298533    1.2924322824
H       -1.2325779349    1.5274845724   -0.9715717850
C       -0.7088858475   -0.6072246499    1.0866918948
H       -1.0134269489   -1.6470790843    1.5466958404
13   
C6H6N->C6H6N atoms 1-13 frame 267 charge +0.000 sz -1.000 sz^2 1.038
C        1.7999867959    0.3558068608   -0.6036529826
C        0.9430519979   -0.8766532656   -0.1859644894
C       -0.6486259825   -0.5627327083   -0.4017746022
C       -0.9743959756    0.7935484062    1.0822311021
C       -0.4507352945    0.9997628002   -0.4109230860
N        1.1093034350    1.3581569878   -0.8891361837
H        2.8829423358    0.6576496600   -0.5704547062
H        1.3437229954   -1.8614869625    0.0737439968
H       -1.0144570528   -1.3427879694   -0.9626491728
H       -1.9946761755    1.1034427904    1.3349338026
H       -1.2126044204    1.5775706496   -0.9841217391
C       -0.7171499383   -0.6018703877    1.0540937289
H       -1.0663627205   -1.6004068616    1.4636743314
13   
C6H6N->C6H6N atoms 1-13 frame 269 charge +0.000 sz -1.000 sz^2 1.088
C        1.7997286778    0.3317248611   -0.6218143161
C        0.9558722913   -0.8824059673   -0.2146882214
C       -0.6463326668   -0.6087338674   -0.4057236564
C       -0.9776691409    0.7969369498    1.1265940415
C       -0.4620640539    1.0107129141   -0.3619766315
N        1.1188346670    1.3685309424   -0.9089229136
H        2.8661214506    0.6682039997   -0.5332227570
H        1.3872110953   -1.8643353198    0.0565268663
H       -1.0231307611   -1.4069935066   -0.9335938508
H       -1.9950606671    1.0990763083    1.3821825491
H       -1.1851530020    1.6261830475   -0.9938292573
C       -0.7255475920   -0.6000940496    1.0212239353
H       -1.1128102982   -1.5388063123    1.3872442120
13   
C6H6N->C6H6N atoms 1-13 frame 271 charge +0.000 sz -1.000 sz^2 1.139
C        1.7990583471    0.3110390425   -0.6381601416
C        0.9719548981   -0.8840710472   -0.2441885274
C       -0.6364461782   -0.6546580408   -0.4124441847
C       -0.9820409619    0.7985906011    1.1706858193
C       -0.4759232268    1.0220082521   -0.3149406266
N        1.1231408801    1.3848648276   -0.9277601180
H        2.8456116799    0.6673798186   -0.4956993815
H        1.4319960240   -1.8574510540    0.0372494525
H       -1.0445460830   -1.4829220802   -0.9262127856
H       -1.9930679755    1.0985479122    1.4344144802
H       -1.1483519400    1.6691327634   -0.9972712565
C       -0.7343372057   -0.5985357122    0.9875928713
H       -1.1570482581   -1.4739252831    1.3267343986
13   
From optimize.out: Frame 1 / 21, Energy=    -286.6753260616
C        1.7909558344    0.2973323678   -0.6495710243
C        0.9877381412   -0.8809448995   -0.2727949618
C       -0.6164733964   -0.6924409769   -0.4245189614
C       -0.9810930940    0.7989413420    1.2013575651
C       -0.4922842923    1.0314673582   -0.2834739286
N        1.1142610584    1.4033252204   -0.9423059904
H        2.8206739316    0.6521741345   -0.4612045674
H        1.4691396536   -1.8402147783    0.0154582158
H       -1.0664152561   -1.5491175122   -0.9392329586
H       -1.9816897285    1.1049774291    1.4845279250
H       -1.1111595969    1.6958605428   -0.9971152788
C       -0.7389792505   -0.5952754239    0.9596826606
H       -1.1946740043   -1.4260848041    1.3091913049
13   
From optimize.out: Frame 3 / 21, Energy=    -286.7601272681
C        1.7452225188    0.3023430031   -0.6286739893
C        0.9797803016   -0.8750750590   -0.2858013118
C       -0.5827077058   -0.6801114647   -0.4443376968
C       -0.9447793467    0.7939143047    1.1656321157
C       -0.5045322643    1.0213508730   -0.3199257957
N        1.0531717346    1.4021241003   -0.9162916469
H        2.7814353397    0.6144463747   -0.4314225114
H        1.4526361063   -1.8325722356   -0.0132395652
H       -1.0455369718   -1.5164509784   -0.9820351473
H       -1.9262099846    1.1189274935    1.4926227830
H       -1.1201651450    1.6700819578   -1.0132106130
C       -0.7179540801   -0.5954859308    0.9713099545
H       -1.1703605027   -1.4234924386    1.4053734241
13   
From optimize.out: Frame 5 / 21, Energy=    -286.8069980554
C        1.7043662666    0.3104442962   -0.6025309277
C        0.9738406773   -0.8729987705   -0.2976913918
C       -0.5509725150   -0.6656236399   -0.4585472570
C       -0.9112849744    0.7888283160    1.1276183186
C       -0.5093000594    1.0011994376   -0.3579801571
N        0.9844249061    1.3937797928   -0.8741723217
H        2.7479275041    0.5825943901   -0.4061452279
H        1.4377458057   -1.8326407157   -0.0463975483
H       -1.0292276339   -1.4731250919   -1.0207825572
H       -1.8689393946    1.1384339469    1.4980091667
H       -1.1330544083    1.6336810781   -1.0294391760
C       -0.7025083019   -0.5931545525    0.9829537802
H       -1.1430178723   -1.4114184872    1.4851052992
13   
From optimize.out: Frame 7 / 21, Energy=    -286.8358041423
C        1.6771602963    0.3229760803   -0.5780098861
C        0.9817498312   -0.8764123483   -0.3188206010
C       -0.5189674485   -0.6595818689   -0.4665676792
C       -0.8903022915    0.7821287752    1.0948609024
C       -0.5092964183    0.9737682415   -0.3929599563
N        0.9201795951    1.3858935369   -0.8200628031
H        2.7284053451    0.5601631776   -0.3972658968
H        1.4425014309   -1.8388880052   -0.0971666790
H       -1.0185228988   -1.4326181580   -1.0550703980
H       -1.8105302945    1.1735537936    1.5149259025
H       -1.1481772430    1.5915834594   -1.0451902898
C       -0.7118137353   -0.5918221591    0.9971503238
H       -1.1423861684   -1.3907445252    1.5641770607
13   
From optimize.out: Frame 9 / 21, Energy=    -286.8549857704
C        1.6688899517    0.3350134231   -0.5650647287
C        1.0068414047   -0.8820802919   -0.3521509979
C       -0.4851919652   -0.6625256633   -0.4624868235
C       -0.8920330433    0.7733343944    1.0748432393
C       -0.5081043942    0.9435904552   -0.4140601637
N        0.8785352222    1.3818212816   -0.7649034636
H        2.7284139787    0.5433180407   -0.4155727117
H        1.4725419851   -1.8458534861   -0.1671465422
H       -1.0046515040   -1.4016863793   -1.0752838682
H       -1.7635399708    1.2202371367    1.5422856207
H       -1.1651655689    1.5455918797   -1.0521023637
C       -0.7531715907   -0.5888662823    1.0154619358
H       -1.1833645053   -1.3618945085    1.6361808673
13   
From optimize.out: Frame 13 / 21, Energy=    -286.8734849495
C        1.6714292539    0.3447148833   -0.5609757426
C        1.0373295333   -0.8871825066   -0.3876402880
C       -0.4518243652   -0.6712296421   -0.4466534410
C       -0.9106365223    0.7644980547    1.0654131275
C       -0.5058550624    0.9155419482   -0.4199745692
N        0.8589788280    1.3838188764   -0.7143243723
H        2.7383154900    0.5326501267   -0.4543183604
H        1.5139992455   -1.8500006051   -0.2413242550
H       -0.9879219947   -1.3804833354   -1.0800530505
H       -1.7279174152    1.2719776256    1.5690341895
H       -1.1789916072    1.4984493902   -1.0531923651
C       -0.8097713024   -0.5865667261    1.0340270939
H       -1.2471340815   -1.3361880896    1.6899820332
13   
From optimize.out: Frame 15 / 21, Energy=    -286.8752931953
C        1.6758558752    0.3549167814   -0.5546230227
C        1.0633597296   -0.8916393017   -0.4162568308
C       -0.4220994930   -0.6852537631   -0.4235202463
C       -0.9410672316    0.7562726858    1.0568226548
C       -0.5023406989    0.8899506929   -0.4181745697
N        0.8511219846    1.3916101627   -0.6585636281
H        2.7482049586    0.5309096547   -0.5011074170
H        1.5561138185   -1.8506050268   -0.3096695043
H       -0.9752163172   -1.3632947135   -1.0778805374
H       -1.6866212242    1.3366265410    1.5914911812
H       -1.1902021088    1.4445308177   -1.0594047213
C       -0.8700064342   -0.5888200563    1.0470529708
H       -1.3071028584   -1.3252044746    1.7238336707
13   
From optimize.out: Frame 18 / 21, Energy=    -286.8754023048
C        1.6776839629    0.3649201705   -0.5425392280
C        1.0809408984   -0.8954025515   -0.4355662645
C       -0.4008140748   -0.7022996604   -0.3976828099
C       -0.9862846003    0.7475002721    1.0419209313
C       -0.5004776742    0.8683850830   -0.4142054579
N        0.8461543255    1.3995729703   -0.5966195069
H        2.7521119811    0.5382601056   -0.5396682257
H        1.5933362989   -1.8474114146   -0.3656365812
H       -0.9690565027   -1.3452183537   -1.0773015517
H       -1.6251767461    1.4106055834    1.6144012137
H       -1.1961087655    1.3847469693   -1.0799510716
C       -0.9310212556   -0.5931297300    1.0504654224
H       -1.3412878477   -1.3305294441    1.7423831301
13   
From optimize.out: Frame 20 / 21, Energy=    -286.8754496250
C        1.6738052175    0.3728002518   -0.5248583974
C        1.0862522968   -0.8976825530   -0.4455051589
C       -0.3942885049   -0.7183853408   -0.3770331062
C       -1.0481858910    0.7411743851    1.0173530785
C       -0.5049973368    0.8542189877   -0.4125841678
N        0.8387977266    1.4055050498   -0.5362614815
H        2.7476689376    0.5510760136   -0.5523315412
H        1.6164716352   -1.8422078470   -0.4032544994
H       -0.9683141054   -1.3285989635   -1.0848799381
H       -1.5385502611    1.4722142942    1.6471973975