13   
From optimize.out: Frame 25 / 26, Energy=    -286.8516345401
C        1.5189874062    0.3441588063   -0.2644252994
C        0.6216192586   -0.8944701024   -0.0647318007
C       -0.3948716278   -0.5208172525   -1.1474916430
C       -1.0026577606    0.5083552418    0.8086557238
C       -0.5872412418    0.8947648274   -0.6197781154
N        0.8524697132    1.3865955360   -0.5761305058
H        2.5997530457    0.3578848315   -0.1336547130
H        1.1020933072   -1.8728860788   -0.0775504506
H       -1.2194040131   -1.1747379185   -1.4269638383
H       -1.7237658678    1.0470917705    1.4134949852
H       -1.2335871503    1.5920977564   -1.1505755036
C       -0.2723898965   -0.5664110507    1.1480186723
H       -0.2610051735   -1.1016263668    2.0911324881
13   
From optimize.out: Frame 23 / 26, Energy=    -286.8516095087
C        1.5130790081    0.3419148578   -0.2688392101
C        0.6143344230   -0.8962759027   -0.0522951757
C       -0.3923789572   -0.5231205393   -1.1419853792
C       -1.0002792441    0.5221243307    0.8203953904
C       -0.5960923921    0.8928730277   -0.6153962340
N        0.8467036011    1.3855438852   -0.5764682817
H        2.5955374632    0.3526796522   -0.1523949720
H        1.0921570730   -1.8761302740   -0.0565254781
H       -1.1894052775   -1.1801861991   -1.4866556660
H       -1.7193236501    1.0555954717    1.4315370207
H       -1.2384053938    1.5911594358   -1.1503685025
C       -0.2740226725   -0.5559294278    1.1587960414
H       -0.2519039812   -1.1102483183    2.0902004467
13   
From optimize.out: Frame 21 / 26, Energy=    -286.8514348422
C        1.5144101849    0.3237043185   -0.2763302547
C        0.6084725612   -0.9000308688   -0.0632946894
C       -0.4152549110   -0.5150168898   -1.1388586292
C       -0.9891321872    0.5233540618    0.8338305053
C       -0.5837799024    0.8905808614   -0.6123194125
N        0.8534311497    1.3699077805   -0.5908918891
H        2.5916769926    0.3456199679   -0.1213123841
H        1.0571139584   -1.8923039385   -0.0649270511
H       -1.1770627601   -1.1565183661   -1.5592193181
H       -1.7638502278    1.0004886919    1.4223578842
H       -1.2438092719    1.5845571419   -1.1280707879
C       -0.2542182939   -0.5413110928    1.1690381866
H       -0.1979972923   -1.0330316678    2.1299978401
13   
From optimize.out: Frame 19 / 26, Energy=    -286.8511747418
C        1.5207408060    0.3075020643   -0.2835529545
C        0.6052340393   -0.9002332095   -0.0736511061
C       -0.4483039053   -0.5087573471   -1.1162618305
C       -0.9939586116    0.5004952127    0.8162969125
C       -0.5615638683    0.9048040029   -0.6073188964
N        0.8701729204    1.3599973698   -0.5948727104
H        2.5917430756    0.3295738601   -0.0906753638
H        1.0326426088   -1.9011304052   -0.0907753770
H       -1.1917120416   -1.1369436832   -1.5710383459
H       -1.8261689848    0.9238820348    1.3701172459
H       -1.2343614929    1.6003871993   -1.1005635177
C       -0.2316521281   -0.5238651191    1.1800449591
H       -0.1328124176   -0.9557119797    2.1622509849
13   
From optimize.out: Frame 17 / 26, Energy=    -286.8489012577
C        1.5320183993    0.3013647895   -0.2888867328
C        0.6109282448   -0.8990570297   -0.0714741756
C       -0.4848333717   -0.4975061029   -1.0680063797
C       -1.0086511321    0.4639647200    0.7752592939
C       -0.5412161354    0.9350741725   -0.6042680217
N        0.8878658099    1.3616133783   -0.5868505145
H        2.6024271568    0.3136867439   -0.0905578226
H        1.0371561459   -1.9004795491   -0.1143361797
H       -1.2324539605   -1.1220798021   -1.5285201949
H       -1.8830253176    0.8542629791    1.2904789154
H       -1.2133248452    1.6362539213   -1.0924167570
C       -0.2149059526   -0.5275396269    1.1897008049
H       -0.0919850416   -0.9195585938    2.1898777642
13   
From optimize.out: Frame 15 / 26, Energy=    -286.8423508947
C        1.5427495957    0.2998446324   -0.2888980207
C        0.6202643002   -0.8990694541   -0.0660687869
C       -0.5225617499   -0.4809748765   -1.0090766173
C       -1.0266345089    0.4337583451    0.7320357785
C       -0.5246507061    0.9674179417   -0.6097566239
N        0.9013055059    1.3667006132   -0.5795531190
H        2.6141008737    0.3032682631   -0.0942663893
H        1.0520203327   -1.8979281422   -0.1350672676
H       -1.2819285990   -1.1019398790   -1.4654163959
H       -1.9342369667    0.8037009941    1.2058776776
H       -1.1898939131    1.6722115754   -1.1042627750
C       -0.1947033126   -0.5478296109    1.2008622413
H       -0.0558308520   -0.9191604022    2.2135902981
13   
From optimize.out: Frame 13 / 26, Energy=    -286.8305542471
C        1.5427622064    0.3005750484   -0.2854367307
C        0.6216554765   -0.9033765912   -0.0629791676
C       -0.5527641804   -0.4604338952   -0.9610427441
C       -1.0315559431    0.3961959130    0.6818420342
C       -0.5069512420    0.9905493752   -0.6113634422
N        0.9114955177    1.3774716595   -0.5722174539
H        2.6139558227    0.2984120297   -0.0891450359
H        1.0527504857   -1.9009814376   -0.1473981405
H       -1.3239217735   -1.0743851951   -1.3995522662
H       -1.9621176248    0.7413982008    1.1286958584
H       -1.1669218328    1.6970450091   -1.1074245045
C       -0.1758737341   -0.5745725190    1.2001387877
H       -0.0225131784   -0.8878975978    2.2258828053
13   
From optimize.out: Frame 11 / 26, Energy=    -286.8240569261
C        1.5432823331    0.3034672235   -0.2547856711
C        0.6311163696   -0.9036108176   -0.0563805243
C       -0.5549486829   -0.4553243025   -0.9379206117
C       -1.0367473245    0.3763704606    0.6675174154
C       -0.4979831207    0.9971765082   -0.6162059421
N        0.9134707836    1.3845884996   -0.5308778074
H        2.6228372185    0.2841733008   -0.1152683092
H        1.0781522792   -1.8884151974   -0.2004045700
H       -1.3678092263   -1.0529289791   -1.3259699321
H       -1.9918462933    0.7257948848    1.0558850872
H       -1.1440696361    1.7091077627   -1.1227639596
C       -0.2091095809   -0.6384491169    1.1953309536
H        0.0136548807   -0.8419502267    2.2418438713
13   
From optimize.out: Frame 9 / 26, Energy=    -286.8212493953
C        1.5438978429    0.3180545704   -0.2244263613
C        0.6505714521   -0.8980914782   -0.0398654253
C       -0.5465839010   -0.4574250644   -0.9008831844
C       -1.0221030882    0.3679533669    0.6825456004
C       -0.4913016998    0.9942141870   -0.6403593440
N        0.9023267837    1.3950492858   -0.4947729432
H        2.6305110866    0.2946010512   -0.1725848738
H        1.1105510097   -1.8654945932   -0.2500317199
H       -1.3936194747   -1.0317916647   -1.2522329327
H       -1.9827266767    0.7596634584    1.0121011560
H       -1.1267736137    1.7006465294   -1.1656460344
C       -0.2520589223   -0.7073926181    1.1942470252
H       -0.0226907985   -0.8699870305    2.2519090375
13   
From optimize.out: Frame 7 / 26, Energy=    -286.8110639237
C        1.5429620009    0.3328903555   -0.2047718932
C        0.6693077235   -0.8887912268   -0.0205776018
C       -0.5344018682   -0.4602297428   -0.8588878953
C       -1.0053156733    0.3609746667    0.7121599352
C       -0.4848826590    0.9941811718   -0.6767264078
N        0.8837838978    1.4073082079   -0.4714540865
H        2.6299587536    0.3138538907   -0.2299596613
H        1.1325249718   -1.8422850905   -0.2870285043
H       -1.4090213486   -1.0104986468   -1.1925937559
H       -1.9622207371    0.7939579255    0.9937649962
H       -1.1024892903    1.6942212316   -1.2321760724
C       -0.2880519048   -0.7664387186    1.2015411835
H       -0.0721538661   -0.9291440242    2.2667097635
13   
From optimize.out: Frame 5 / 26, Energy=    -286.7889023469
C        1.5403466267    0.3457654915   -0.1914094377
C        0.6860646353   -0.8763118746    0.0021665975
C       -0.5167218855   -0.4649279910   -0.8186819649
C       -0.9874119416    0.3555875170    0.7454375904
C       -0.4796023475    0.9982505010   -0.7142491666
N        0.8589634238    1.4237535444   -0.4566289831
H        2.6222553447    0.3329949415   -0.2889646444
H        1.1475065336   -1.8186718478   -0.3143054440
H       -1.4188036672   -0.9927006182   -1.1482401348
H       -1.9366611671    0.8231408994    0.9867176641
H       -1.0729478889    1.6943025520   -1.3071293337
C       -0.3192341091   -0.8217576021    1.2167743082
H       -0.1237535570   -0.9994255132    2.2885129491
13   
From optimize.out: Frame 3 / 26, Energy=    -286.7533419934
C        1.5363112064    0.3557275395   -0.1787704161
C        0.7016538002   -0.8631743596    0.0290843951
C       -0.4931394565   -0.4754571608   -0.7810918515
C       -0.9660040641    0.3566942768    0.7727919240
C       -0.4773849510    1.0085579602   -0.7474591881
N        0.8249855667    1.4505371718   -0.4437164155
H        2.6083027468    0.3469917960   -0.3469167769
H        1.1588897695   -1.7962129492   -0.3348261309
H       -1.4279346752   -0.9863290548   -1.1181601959
H       -1.9049657802    0.8547401030    0.9771421734
H       -1.0454990186    1.7037599533   -1.3791214176
C       -0.3432570743   -0.8785017573    1.2365759664
H       -0.1719580695   -1.0773335189    2.3144679336
13   
From optimize.out: Frame 1 / 26, Energy=    -286.6936324126
C        1.5235566745    0.3622169881   -0.1677698595
C        0.7161665529   -0.8538849994    0.0594980462
C       -0.4590981507   -0.4912102557   -0.7482920858
C       -0.9402126433    0.3687085958    0.7890807994
C       -0.4807142355    1.0285822722   -0.7727070102
N        0.7808875611    1.4873544757   -0.4316157238
H        2.5846024958    0.3503968847   -0.3963138735
H        1.1678109884   -1.7796456101   -0.3484399528
H       -1.4346584449   -0.9971740063   -1.1077080053
H       -1.8661411649    0.8924803535    0.9584025089
H       -1.0285257643    1.7289351856   -1.4412409352
C       -0.3554994500   -0.9366960584    1.2607416130
H       -0.2081744192   -1.1600638258    2.3463644786
13   
C6H6N->C6H6N atoms 1-13 frame 234 charge -0.000 sz -1.000 sz^2 0.699
C        1.5442708671    0.3844369384   -0.1737092616
C        0.7393174979   -0.8377379904    0.0717543548
C       -0.4343617067   -0.5073456044   -0.7038660191
C       -0.9344199197    0.3909645952    0.7952374463
C       -0.4747879713    1.0170993172   -0.7794931120
N        0.7478594603    1.4916560974   -0.4462655714
H        2.5885358303    0.3466860231   -0.4519312792
H        1.1548367330   -1.7750683705   -0.3215516785
H       -1.4210652512   -0.9378094550   -1.1298505385
H       -1.8625763820    0.9195576131    0.9417775654
H       -1.0367684215    1.6986403116   -1.4447387673
C       -0.3771394914   -0.9487396113    1.2657576546
H       -0.2337012448   -1.2423398647    2.3768792066
13   
C6H6N->C6H6N atoms 1-13 frame 236 charge -0.000 sz -1.000 sz^2 0.679
C        1.5801394574    0.4109878631   -0.1890076597
C        0.7639099283   -0.8208294811    0.0740977683
C       -0.4220883031   -0.5184498797   -0.6576392468
C       -0.9386909707    0.4170786497    0.7982583947
C       -0.4655851036    0.9952260384   -0.7818830221
N        0.7238694092    1.4821944482   -0.4735262494
H        2.6080171927    0.3385369210   -0.5079225279
H        1.1346612650   -1.7747281196   -0.2771919352
H       -1.3881195625   -0.8542206523   -1.1574216640
H       -1.8766943034    0.9425239512    0.9339553737
H       -1.0574878387    1.6444260743   -1.4228750080
C       -0.4038929989   -0.9422543631    1.2652873956
H       -0.2580381717   -1.3204914499    2.3958683810
13   
C6H6N->C6H6N atoms 1-13 frame 238 charge -0.000 sz -1.000 sz^2 0.632
C        1.6156542925    0.4361276627   -0.2094083410
C        0.7862961003   -0.8071132601    0.0728192364
C       -0.4193736727   -0.5225833362   -0.6143802278
C       -0.9442986112    0.4456611341    0.8007090028
C       -0.4557507635    0.9730939796   -0.7824309835
N        0.7075197746    1.4702358061   -0.5036654651
H        2.6316589298    0.3294035412   -0.5604173719
H        1.1161516177   -1.7795982744   -0.2270634273
H       -1.3384282720   -0.7774996225   -1.1806728696
H       -1.8926778770    0.9661655938    0.9359224453
H       -1.0864967731    1.5873329547   -1.3912351481
C       -0.4328728847   -0.9309884578    1.2655480265
H       -0.2873818607   -1.3902377211    2.3942751232
13   
C6H6N->C6H6N atoms 1-13 frame 240 charge -0.000 sz -1.000 sz^2 0.577
C        1.6505929070    0.4585741506   -0.2340998563
C        0.8068831304   -0.7968193691    0.0682671345
C       -0.4263900257   -0.5181079177   -0.5740742559
C       -0.9508409118    0.4769251629    0.8039933744
C       -0.4452856023    0.9511094758   -0.7789157149
N        0.7021705599    1.4567806118   -0.5348637685
H        2.6604982835    0.3218666978   -0.6074902410
H        1.1032712305   -1.7934472675   -0.1723031719
H       -1.2774794536   -0.7176401531   -1.2012061768
H       -1.9076168090    0.9900312552    0.9488577611
H       -1.1267848241    1.5325635542   -1.3512617707
C       -0.4644232669   -0.9149384551    1.2670383214
H       -0.3245952179   -1.4468977459    2.3660583645
13   
C6H6N->C6H6N atoms 1-13 frame 242 charge +0.000 sz -1.000 sz^2 0.527
C        1.6839286021    0.4763650803   -0.2614952593
C        0.8259339871   -0.7905207563    0.0607385595
C       -0.4417256331   -0.5042568107   -0.5371253433
C       -0.9573338492    0.5102116150    0.8098511483
C       -0.4347214648    0.9306121572   -0.7689423355
N        0.7118088383    1.4432084344   -0.5646708718
H        2.6938717700    0.3197872094   -0.6449537869
H        1.0994434315   -1.8169587961   -0.1152134482
H       -1.2175694658   -0.6882494126   -1.2237097147
H       -1.9179064298    1.0125251859    0.9727755047
H       -1.1776621322    1.4859909723   -1.3043863942
C       -0.4975323771   -0.8946233545    1.2697586152
H       -0.3705352769   -1.4840915243    2.3073733262
13   
C6H6N->C6H6N atoms 1-13 frame 244 charge -0.000 sz -1.000 sz^2 0.587
C        1.7136918219    0.4881302618   -0.2892089960
C        0.8432829339   -0.7883797652    0.0511244454
C       -0.4614753899   -0.4840788281   -0.5039360082
C       -0.9625931299    0.5436246028    0.8193861775
C       -0.4254316167    0.9136975712   -0.7523688879
N        0.7358588150    1.4306320710   -0.5912586749
H        2.7284119236    0.3258133090   -0.6702348313
H        1.1039642728   -1.8437513884   -0.0601565652
H       -1.1718720122   -0.6951178151   -1.2515164707
H       -1.9224238558    1.0316664449    1.0036990112
H       -1.2300027386    1.4501424445   -1.2526727814
C       -0.5296477892   -0.8718304503    1.2726637503
H       -0.4217632347   -1.5005484582    2.2244798313
13   
C6H6N->C6H6N atoms 1-13 frame 246 charge +0.000 sz -1.000 sz^2 0.642
C        1.7385567430    0.4937972596   -0.3163985352
C        0.8585029344   -0.7900775921    0.0397209148
C       -0.4829098961   -0.4616598597   -0.4749822042
C       -0.9662441427    0.5759151552    0.8324932609
C       -0.4185467229    0.9021198596   -0.7307973807
N        0.7706664723    1.4192424688   -0.6151101016
H        2.7611494383    0.3402556047   -0.6845780660
H        1.1136925724   -1.8663786922   -0.0109389341
H       -1.1430548455   -0.7341397386   -1.2816706179
H       -1.9232446483    1.0470465135    1.0372624750
H       -1.2739814138    1.4240519231   -1.1979562520
C       -0.5592901363   -0.8473647870    1.2737452305
H       -0.4752963548   -1.5028081149    2.1292102104
13   
C6H6N->C6H6N atoms 1-13 frame 248 charge -0.000 sz -1.000 sz^2 0.635
C        1.7586821846    0.4942399268   -0.3447800378
C        0.8716149026   -0.7949300223    0.0254016619
C       -0.5055918964   -0.4398844483   -0.4505752868
C       -0.9686888999    0.6078277238    0.8483143687
C       -0.4143867317    0.8969054053   -0.7058963256
N        0.8132121423    1.4084963055   -0.6391868862
H        2.7915494671    0.3629512454   -0.6913579165
H        1.1259365826   -1.8803655386    0.0308921936
H       -1.1252901943   -0.7971578112   -1.3067759983
H       -1.9239182015    1.0601934581    1.0708656539
H       -1.3043253946    1.4055297376   -1.1415327419
C       -0.5871836429   -0.8196967668    1.2700642087
H       -0.5316103181   -1.5041092153    2.0345671063
13   
C6H6N->C6H6N atoms 1-13 frame 251 charge +0.000 sz -1.000 sz^2 0.615
C        1.7745391151    0.4903530540   -0.3767823255
C        0.8828743774   -0.8020602129    0.0067640286
C       -0.5297872281   -0.4211123346   -0.4311883655
C       -0.9703662093    0.6408494642    0.8658805242
C       -0.4128498080    0.8988464666   -0.6789986931
N        0.8614199313    1.3979249943   -0.6669751954
H        2.8201003691    0.3941097093   -0.6934561510
H        1.1397514769   -1.8837815489    0.0647194266
H       -1.1120634067   -0.8760623864   -1.3184527544
H       -1.9275617283    1.0732074284    1.1029116331
H       -1.3190551335    1.3936244299   -1.0859673401
C       -0.6141306950   -0.7861974544    1.2588065498
H       -0.5928710609   -1.5197016095    1.9527386626
13   
C6H6N->C6H6N atoms 1-13 frame 253 charge +0.000 sz -1.000 sz^2 0.615
C        1.7858824867    0.4825446919   -0.4125703708
C        0.8923266657   -0.8106386919   -0.0160336697
C       -0.5544655769   -0.4089883983   -0.4173990320
C       -0.9713162155    0.6744021985    0.8846967685
C       -0.4137995701    0.9080159237   -0.6512224199
N        0.9114882826    1.3875629908   -0.6994979304
H        2.8459544507    0.4326177304   -0.6921036081
H        1.1553854076   -1.8769503538    0.0890497983
H       -1.0996757929   -0.9610393760   -1.3092541034
H       -1.9356331709    1.0866124344    1.1320236470
H       -1.3178952714    1.3893054292   -1.0366565972
C       -0.6387488673   -0.7471537920    1.2394701503
H       -0.6595028283   -1.5562907869    1.8894973675
13   
C6H6N->C6H6N atoms 1-13 frame 255 charge +0.000 sz -1.000 sz^2 0.625
C        1.7930128573    0.4708529157   -0.4499900998
C        0.9003377651   -0.8203502408   -0.0414563681
C       -0.5780278367   -0.4069902658   -0.4083881888
C       -0.9715393877    0.7061374007    0.9056442528
C       -0.4167648690    0.9224701636   -0.6221341112
N        0.9591144169    1.3774992556   -0.7347882549
H        2.8677925545    0.4755269575   -0.6870760997
H        1.1738578147   -1.8643139655    0.1035582663
H       -1.0861310854   -1.0426194166   -1.2771839171
H       -1.9473083938    1.0988350572    1.1589731014
H       -1.3048188945    1.3938787370   -0.9980421357
C       -0.6593182633   -0.7070616337    1.2144419182
H       -0.7302066782   -1.6038649649    1.8364416365
13   
C6H6N->C6H6N atoms 1-13 frame 257 charge -0.000 sz -1.000 sz^2 0.652
C        1.7969840575    0.4549125770   -0.4869739932
C        0.9076114083   -0.8313140178   -0.0685065793
C       -0.5996013814   -0.4169541977   -0.4027365237
C       -0.9712793805    0.7341869770    0.9305176575
C       -0.4211797030    0.9396175959   -0.5897809356
N        1.0021457218    1.3679509419   -0.7705229873
H        2.8847184235    0.5201222340   -0.6770727751
H        1.1966648025   -1.8520359098    0.1093693874
H       -1.0702783781   -1.1161783382   -1.2251555440
H       -1.9605933306    1.1079476279    1.1863532859
H       -1.2860297604    1.4089808309   -0.9720071837
C       -0.6757278049   -0.6706373469    1.1858932515
H       -0.8034346748   -1.6465989743    1.7806229396
13   
C6H6N->C6H6N atoms 1-13 frame 259 charge +0.000 sz -1.000 sz^2 0.714
C        1.7989253941    0.4346347377   -0.5217212206
C        0.9148255472   -0.8432748078   -0.0966153180
C       -0.6183827208   -0.4391337883   -0.3996130780
C       -0.9709516106    0.7572115709    0.9604330227
C       -0.4265930834    0.9570789555   -0.5527228559
N        1.0392337950    1.3597921741   -0.8047670156
H        2.8956108612    0.5634802641   -0.6607885054
H        1.2249052860   -1.8452785303    0.1079847669
H       -1.0521701108   -1.1797005866   -1.1589339325
H       -1.9733133268    1.1127114309    1.2162879575
H       -1.2671095382    1.4361089050   -0.9596913437
C       -0.6886639277   -0.6411993322    1.1551096420
H       -0.8763165652   -1.6724309930    1.7150378806
13   
C6H6N->C6H6N atoms 1-13 frame 261 charge -0.000 sz -1.000 sz^2 0.803
C        1.7997506707    0.4108442775   -0.5526695741
C        0.9225304671   -0.8553841509   -0.1251553428
C       -0.6333875677   -0.4718709964   -0.3985882546
C       -0.9710448923    0.7744302358    0.9952419472
C       -0.4328607918    0.9729778873   -0.5109881096
N        1.0692482966    1.3544033218   -0.8359284357
H        2.8993758338    0.6022318734   -0.6379052941
H        1.2585657272   -1.8461789686    0.1010926082
H       -1.0338659387   -1.2335971470   -1.0871591945
H       -1.9836867289    1.1128975208    1.2497130184
H       -1.2506646651    1.4745750984   -0.9603122790
C       -0.6990196193   -0.6204197704    1.1231875572
H       -0.9449407915   -1.6749091817    1.6394713533
13   
C6H6N->C6H6N atoms 1-13 frame 263 charge -0.000 sz -1.000 sz^2 0.897
C        1.8000240304    0.3850767519   -0.5791142858
C        0.9312092787   -0.8665745805   -0.1536888881
C       -0.6437811275   -0.5121223525   -0.3992518841
C       -0.9719800698    0.7860562422    1.0341532738
C       -0.4402687021    0.9865741190   -0.4655167216
N        1.0919384170    1.3530987249   -0.8631855260
H        2.8956901756    0.6336644770   -0.6090880086
H        1.2966780365   -1.8528932777    0.0901504493
H       -1.0193591779   -1.2825085912   -1.0199646250
H       -1.9908184499    1.1094208547    1.2870314805
H       -1.2350310706    1.5210093529   -0.9699132190
C       -0.7078215642   -0.6079841247    1.0908926405
H       -1.0064797764   -1.6528175960    1.5574953141
13   
C6H6N->C6H6N atoms 1-13 frame 265 charge +0.000 sz -1.000 sz^2 0.979
C        1.8000148955    0.3590748261   -0.6011928115
C        0.9413997908   -0.8758143513   -0.1821477657
C       -0.6487964367   -0.5566000834   -0.4012944588
C       -0.9739799363    0.7930610769    1.0763208599
C       -0.4492696822    0.9983073595   -0.4174728040
N        1.1079380953    1.3568837324   -0.8864723706
H        2.8851112637    0.6560370308   -0.5754016799
H        1.3379501713   -1.8609412328    0.0759989820
H       -1.0135441656   -1.3344580923   -0.9669301260
H       -1.9945801625    1.1040861759    1.3287268266
H       -1.2160923386    1.5709994330   -0.9827177034
C       -0.7160380593   -0.6021208171    1.0584619849
H       -1.0601134353   -1.6085150575    1.4741210665
13   
C6H6N->C6H6N atoms 1-13 frame 267 charge +0.000 sz -1.000 sz^2 1.038
C        1.7998050125    0.3346655475   -0.6195684664
C        0.9537405531   -0.8820804193   -0.2106558632
C       -0.6475232704   -0.6024062469   -0.4048807740
C       -0.9770874415    0.7967010661    1.1204659893
C       -0.4602167199    1.0091784232   -0.3685512643
N        1.1181361714    1.3663940062   -0.9063690801
H        2.8689109796    0.6680821763   -0.5384514525
H        1.3810688896   -1.8650174290    0.0591559136
H       -1.0203627562   -1.3966761009   -0.9349545779
H       -1.9952973086    1.0992805636    1.3750883380
H       -1.1900401743    1.6200815510   -0.9932048094
C       -0.7243429710   -0.6002502953    1.0258343501
H       -1.1067909643   -1.5479528425    1.3960916970
13   
C6H6N->C6H6N atoms 1-13 frame 269 charge +0.000 sz -1.000 sz^2 1.088
C        1.7992543654    0.3134526335   -0.6357691115
C        0.9691180439   -0.8844287897   -0.2397436527
C       -0.6389347407   -0.6480511244   -0.4109609847
C       -0.9812835840    0.7984026354    1.1646712625
C       -0.4735426346    1.0202476154   -0.3211245411
N        1.1231748340    1.3818089935   -0.9247913950
H        2.8487884538    0.6689609605   -0.5007337730
H        1.4253762593   -1.8600969714    0.0401910372
H       -1.0403300161   -1.4711016632   -0.9251388465
H       -1.9935902734    1.0978071495    1.4262630873
H       -1.1547861036    1.6640952621   -0.9977093225
C       -0.7330326162   -0.5991232025    0.9925766961
H       -1.1502119877   -1.4819734987    1.3322695442
13   
C6H6N->C6H6N atoms 1-13 frame 271 charge +0.000 sz -1.000 sz^2 1.139
C        1.7978912672    0.2966686821   -0.6523961761
C        0.9888453391   -0.8819410718   -0.2706530154
C       -0.6216294425   -0.6939951817   -0.4212750588
C       -0.9865503398    0.7997097363    1.2064960906
C       -0.4900971144    1.0324909659   -0.2781220104
N        1.1229387204    1.4030590606   -0.9454356970
H        2.8266973797    0.6579658044   -0.4657249491
H        1.4714096626   -1.8416974379    0.0197354527
H       -1.0696482650   -1.5533000568   -0.9326069472
H       -1.9899582486    1.1029583644    1.4829473316
H       -1.1100433573    1.6991257116   -0.9946630401
C       -0.7421046443   -0.5950378341    0.9579195095
H       -1.1977509569   -1.4260067429    1.2937785098
13   
From optimize.out: Frame 1 / 21, Energy=    -286.6753260616
C        1.7585069669    0.3004375601   -0.6363529631
C        0.9825578850   -0.8762840998   -0.2828165044
C       -0.5923497601   -0.6851693056   -0.4396962354
C       -0.9555602325    0.7953462490    1.1773159025
C       -0.5025174600    1.0266781965   -0.3085139934
N        1.0736608083    1.4045705050   -0.9276630057
H        2.7924919744    0.6250765997   -0.4400550193
H        1.4585189432   -1.8332778461   -0.0045537282
H       -1.0512889502   -1.5295486055   -0.9702341338
H       -1.9430037340    1.1144240437    1.4919230607
H       -1.1163821565    1.6805837702   -1.0085885887
C       -0.7243564442   -0.5963870373    0.9679319301
H       -1.1802778405   -1.4264500298    1.3813032787
13   
From optimize.out: Frame 3 / 21, Energy=    -286.7601272681
C        1.7147219655    0.3067178229   -0.6110433774
C        0.9734030829   -0.8722991505   -0.2926543085
C       -0.5605699408   -0.6684988674   -0.4549943037
C       -0.9200268707    0.7906266186    1.1388066159
C       -0.5091581732    1.0091195546   -0.3461268305
N        1.0061296534    1.3965072545   -0.8901834686
H        2.7560497554    0.5900398098   -0.4116026238
H        1.4391293515   -1.8309521826   -0.0331818941
H       -1.0323306631   -1.4863793584   -1.0091297951
H       -1.8876522178    1.1292672314    1.4942293172
H       -1.1288507332    1.6459702229   -1.0238225933
C       -0.7032545121   -0.5934170268    0.9790657615
H       -1.1475906978   -1.4167019292    1.4606375005
13   
From optimize.out: Frame 5 / 21, Energy=    -286.8069980554
C        1.6813903652    0.3187121190   -0.5836445921
C        0.9748115557   -0.8745509981   -0.3088670284
C       -0.5296789731   -0.6592444526   -0.4664300958
C       -0.8918895718    0.7848384720    1.1027951542
C       -0.5096148584    0.9836272941   -0.3842788037
N        0.9362691864    1.3877284493   -0.8386488348
H        2.7299068907    0.5660754442   -0.3940370550
H        1.4346761711   -1.8363870173   -0.0757187529
H       -1.0223430293   -1.4437182192   -1.0466362167
H       -1.8274217737    1.1587718841    1.5063954139
H       -1.1423809853    1.6064154938   -1.0419005321
C       -0.7008527061   -0.5925722080    0.9915800194
H       -1.1328722716   -1.3996962613    1.5393913241
13   
From optimize.out: Frame 7 / 21, Energy=    -286.8358041423
C        1.6684544698    0.3317516600   -0.5664132022
C        0.9960293672   -0.8802431586   -0.3393058642
C       -0.4969222585   -0.6602762990   -0.4668508371
C       -0.8870355394    0.7765519984    1.0785315659
C       -0.5086410428    0.9534775083   -0.4108264754
N        0.8870659056    1.3821171378   -0.7818112361
H        2.7253150418    0.5479952514   -0.4039111161
H        1.4586064528   -1.8440352421   -0.1413082578
H       -1.0106607592   -1.4097733279   -1.0724286302
H       -1.7757662547    1.2039761675    1.5324823428
H       -1.1601064135    1.5610579245   -1.0519608789
C       -0.7343724263   -0.5902784972    1.0086144640
H       -1.1619665431   -1.3723211232    1.6151881253
13   
From optimize.out: Frame 9 / 21, Energy=    -286.8549857704
C        1.6697136777    0.3411831386   -0.5625140536
C        1.0272926742   -0.8855552807   -0.3764479253
C       -0.4630037893   -0.6667803985   -0.4542321704
C       -0.9014859610    0.7672482072    1.0678666669
C       -0.5070893085    0.9248888194   -0.4201767750
N        0.8623991974    1.3812616612   -0.7329219418
H        2.7342757040    0.5344709668   -0.4376309438
H        1.4989014317   -1.8492927453   -0.2160203756
H       -0.9932848308   -1.3863896911   -1.0806846301
H       -1.7404136150    1.2509952119    1.5608287932
H       -1.1747351019    1.5163374260   -1.0523699861
C       -0.7887307329   -0.5861950386    1.0284141191
H       -1.2238393457   -1.3421722769    1.6758892224
13   
From optimize.out: Frame 11 / 21, Energy=    -286.8669639879
C        1.6745607184    0.3511614250   -0.5581678426
C        1.0556499489   -0.8901527041   -0.4080698601
C       -0.4314184101   -0.6793509069   -0.4328198830
C       -0.9273391662    0.7594781638    1.0609346485
C       -0.5036021762    0.8984809769   -0.4196054801
N        0.8527355813    1.3884865962   -0.6803779757
H        2.7456893662    0.5293265224   -0.4847781289
H        1.5415574906   -1.8512926713   -0.2875117705
H       -0.9781331370   -1.3697023841   -1.0789002196
H       -1.7051079317    1.3102771108    1.5840116109
H       -1.1867610641    1.4657981148   -1.0546934646
C       -0.8481769403   -0.5872451724    1.0442725331
H       -1.2896542797   -1.3252650710    1.7157058324
13   
From optimize.out: Frame 13 / 21, Energy=    -286.8734849495
C        1.6781539713    0.3615801987   -0.5483331764
C        1.0770397857   -0.8942770861   -0.4307836021
C       -0.4055642222   -0.6957276542   -0.4070191865
C       -0.9654259929    0.7505849597    1.0495264283
C       -0.5001023628    0.8748147545   -0.4156355955
N        0.8482588559    1.3971525469   -0.6198567549
H        2.7526685676    0.5337187281   -0.5300817275
H        1.5819422295   -1.8493848865   -0.3489856739
H       -0.9700407799   -1.3519250912   -1.0760712371
H       -1.6538188387    1.3833803595    1.6047627575