13   
From optimize.out: Frame 1 / 2, Energy=    -286.8516580738
C        1.1257872283    0.1915103642    0.4753344904
C        0.8530562582   -0.9771834436   -0.4844585579
C       -0.4708821211   -0.9917798802   -0.7112761441
C       -1.0733753324    0.1689504635    0.1058247809
C       -0.4268768735    1.4516272469   -0.4559746898
N        0.8343480124    1.4888641751   -0.2636226176
H        2.1013688013    0.2175611497    0.9584965789
H        1.6121067179   -1.6257873646   -0.9077038328
H       -1.0351172358   -1.6489404257   -1.3639214750
H       -2.1544426050    0.1672496931    0.2459404249
H       -0.9623959612    2.2384269214   -0.9846100443
C       -0.1373892975    0.0439136282    1.3126277610
H       -0.2661875919   -0.7244125280    2.0733433255
