13   
From optimize.out: Frame 1 / 2, Energy=    -286.9243409348
C        0.0359080000   -0.1152560000   -0.0000000000
C       -0.1107630000    0.0884290000   -0.0000000000
C       -0.1117820000    0.0989600000    0.0000000000
C       -0.1307830000    0.3425830000    0.0000000000
C        0.0348320000   -0.1100840000    0.0000000000
N       -0.4231640000    0.3869670000   -0.0000000000
H        0.1425980000    0.0035330000   -0.0000000000
H        0.1420150000   -0.0063810000   -0.0000000000
H        0.1419030000   -0.0068860000    0.0000000000
H        0.1343930000   -0.0181280000    0.0000000000
H        0.1426280000    0.0032800000    0.0000000000
C       -0.1321090000    0.3515300000   -0.0000000000
H        0.1343230000   -0.0185470000   -0.0000000000
