13   
From optimize.out: Frame 2 / 3, Energy=    -286.8584653799
C        1.5751877236    0.4456964295   -0.0859246270
C        0.8224775221   -0.8153030354    0.1174561384
C       -0.5187162062   -0.9686041869   -0.5830774992
C       -1.1193980815    0.3160409781   -0.0361673903
C       -0.3701428071    1.5789271588   -0.2388473708
N        0.9609130039    1.6141495743   -0.2598457188
H        2.6634259738    0.4386562133   -0.0979529891
H        1.4063163589   -1.7246875642    0.2497027670
H       -0.9207244973   -1.7424615602   -1.2221101752
H       -2.2063341362    0.3789713473   -0.0331540677
H       -0.9040697882    2.5169144806   -0.3782928638
C       -0.5024268939   -0.7468623541    0.8584352223
H       -0.8865081718   -1.2914374808    1.7097785743
13   
From optimize.out: Frame 1 / 3, Energy=    -286.8584556587
C        1.5748599054    0.4457949740   -0.0860317596
C        0.8229557592   -0.8160969870    0.1166120045
C       -0.5200598412   -0.9688885879   -0.5830004193
C       -1.1192044585    0.3159568790   -0.0355108537
C       -0.3703706085    1.5798969104   -0.2390095738
N        0.9608892208    1.6152682481   -0.2557641062
H        2.6628065438    0.4376265635   -0.0979064337
H        1.4076710844   -1.7255910363    0.2501101096
H       -0.9239840193   -1.7415043390   -1.2229397548
H       -2.2059505343    0.3777711621   -0.0368484009
H       -0.9048727445    2.5181695496   -0.3803360802
C       -0.5012349430   -0.7476811521    0.8586617737
H       -0.8835053643   -1.2907221844    1.7119634944
13   
From optimize.out: Frame 33 / 34, Energy=    -286.8584556587
C        1.5748599054    0.4457949740   -0.0860317596
C        0.8229557592   -0.8160969870    0.1166120045
C       -0.5200598412   -0.9688885879   -0.5830004193
C       -1.1192044585    0.3159568790   -0.0355108537
C       -0.3703706085    1.5798969104   -0.2390095738
N        0.9608892208    1.6152682481   -0.2557641062
H        2.6628065438    0.4376265635   -0.0979064337
H        1.4076710844   -1.7255910363    0.2501101096
H       -0.9239840193   -1.7415043390   -1.2229397548
H       -2.2059505343    0.3777711621   -0.0368484009
H       -0.9048727445    2.5181695496   -0.3803360802
C       -0.5012349430   -0.7476811521    0.8586617737
H       -0.8835053643   -1.2907221844    1.7119634944
13   
From optimize.out: Frame 31 / 34, Energy=    -286.8584370224
C        1.5753295390    0.4479627838   -0.0858299916
C        0.8170148536   -0.8065703921    0.1353378671
C       -0.5151777456   -0.9792052449   -0.5751041759
C       -1.1235321185    0.3149613340   -0.0092764723
C       -0.3668141592    1.5706462009   -0.2549071604
N        0.9647297346    1.6091982323   -0.2884753970
H        2.6625568294    0.4332644161   -0.1064790401
H        1.3990711311   -1.7119098545    0.2908195683
H       -0.9159567371   -1.6824836084   -1.2972393980
H       -2.2119680566    0.3654488258   -0.0073446471
H       -0.8966303119    2.5089023993   -0.3953916023
C       -0.5192748462   -0.7664074227    0.8616952411
H       -0.8693481126   -1.3038076695    1.7321952083
13   
From optimize.out: Frame 29 / 34, Energy=    -286.8583943354
C        1.5748301289    0.4458750049   -0.1024764723
C        0.8233965778   -0.8086809672    0.1530191037
C       -0.4996154995   -1.0054891929   -0.5425209634
C       -1.1097123485    0.3087075513    0.0144847086
C       -0.3722635412    1.5578156932   -0.2893526231
N        0.9591483881    1.5940945879   -0.3549406335
H        2.6628217421    0.4431600966   -0.0817833005
H        1.4148268720   -1.7071894231    0.3285691159
H       -0.9469743622   -1.5653768416   -1.3495370621
H       -2.1981124214    0.3601243656    0.0129073455
H       -0.9052459837    2.4991212304   -0.4042613550
C       -0.5197523527   -0.7726904763    0.8869247831
H       -0.8833471997   -1.3494716288    1.7289673532
13   
From optimize.out: Frame 28 / 34, Energy=    -286.8583509999
C        1.5742108998    0.4452306973   -0.1162075431
C        0.8330872007   -0.8127063609    0.1367992142
C       -0.4974955964   -1.0300270497   -0.5136244924
C       -1.0998252748    0.3030735607    0.0264955952
C       -0.3747043015    1.5482201725   -0.3092024151
N        0.9566820924    1.5873826292   -0.3900048132
H        2.6603925521    0.4557795761   -0.0543354906
H        1.4297715974   -1.7032399019    0.3317183446
H       -0.9646694656   -1.5004133307   -1.3643386817
H       -2.1886630952    0.3551999818    0.0129042212
H       -0.9027076329    2.4940792234   -0.4062368644
C       -0.5224724567   -0.7661003069    0.9173453743
H       -0.9036065194   -1.3764788909    1.7286875511
13   
From optimize.out: Frame 26 / 34, Energy=    -286.8581878949
C        1.5632332725    0.4379959089   -0.1263090590
C        0.8361615047   -0.8251599766    0.1143658583
C       -0.5087741739   -1.0611353987   -0.4622509537
C       -1.0904319000    0.2971406409    0.0334818663
C       -0.3795996954    1.5382702009   -0.3324721539
N        0.9507801056    1.5811596298   -0.4229062799
H        2.6449381595    0.4620014580   -0.0177176656
H        1.4386139692   -1.7089125014    0.3161117071
H       -0.9568923369   -1.4198053347   -1.3729046030
H       -2.1788321268    0.3473544629   -0.0026407106
H       -0.9000592841    2.4905484206   -0.4044121224
C       -0.5149129406   -0.7446261042    0.9494130512
H       -0.9042245539   -1.3948314064    1.7282410652
13   
From optimize.out: Frame 24 / 34, Energy=    -286.8577421206
C        1.5528992224    0.4187409037   -0.1365405267
C        0.8443776509   -0.8448622417    0.0558268813
C       -0.5307360911   -1.0901279730   -0.3926368435
C       -1.1008793155    0.2954059991    0.0351288283
C       -0.3883883561    1.5255677442   -0.3359909108
N        0.9374695077    1.5723785355   -0.4236178520
H        2.6285626798    0.4564770194    0.0109991822
H        1.4464162114   -1.7282046935    0.2579974866
H       -0.8936132877   -1.3738419302   -1.3671953870
H       -2.1855783189    0.3437720327   -0.0531211946
H       -0.8953123255    2.4876232257   -0.3870638968
C       -0.5112918581   -0.6887690621    0.9941374223
H       -0.9039257192   -1.3741595599    1.7420768106
13   
From optimize.out: Frame 22 / 34, Energy=    -286.8528959086
C        1.5546544041    0.4017688579   -0.1410542320
C        0.8706302181   -0.8579328871   -0.0045074215
C       -0.5261025950   -1.1067039876   -0.3489194793
C       -1.1234540611    0.2935256476    0.0310849864
C       -0.3912033303    1.5173690064   -0.3134721858
N        0.9267634773    1.5693711540   -0.3835023049
H        2.6282704834    0.4479889269    0.0119891173
H        1.4786114984   -1.7408742990    0.1821905297
H       -0.8679611272   -1.3871240034   -1.3322187065
H       -2.2009708722    0.3245489243   -0.1172617317
H       -0.8871801917    2.4866877104   -0.3639605672
C       -0.5282125237   -0.6249974157    1.0245516717
H       -0.9338453799   -1.3236276347    1.7550803237
13   
From optimize.out: Frame 20 / 34, Energy=    -286.8462926905
C        1.5592573560    0.3848935181   -0.1394567768
C        0.8989798908   -0.8714751896   -0.0534097568
C       -0.5166981257   -1.1217350810   -0.3214286926
C       -1.1517399441    0.2917435792    0.0286923324
C       -0.3952398847    1.5098488677   -0.2884844350
N        0.9168481830    1.5615584677   -0.3353178176
H        2.6336348167    0.4376758377    0.0052778450
H        1.5191096435   -1.7532209262    0.1026620186
H       -0.8472202329   -1.4066271422   -1.3088189549
H       -2.2205082448    0.3029918104   -0.1724572343
H       -0.8807511894    2.4853105744   -0.3471476124
C       -0.5488276549   -0.5584512484    1.0553297268
H       -0.9668446136   -1.2625130677    1.7745593579
13   
From optimize.out: Frame 19 / 34, Energy=    -286.8428711912
C        1.5590099495    0.3677855194   -0.1306821563
C        0.9174622389   -0.8880697414   -0.0954953012
C       -0.5102454238   -1.1420248785   -0.3000720627
C       -1.1820386272    0.2914074593    0.0231303800
C       -0.4022450907    1.5036205843   -0.2638861712
N        0.9063645563    1.5510590784   -0.2831115918
H        2.6348322497    0.4248656821    0.0030271052
H        1.5516342352   -1.7670486770    0.0245432988
H       -0.8292241872   -1.4338072460   -1.2915801999
H       -2.2391733420    0.2806387685   -0.2297931968
H       -0.8737566008    2.4867810102   -0.3275512516
C       -0.5562582049   -0.4811181252    1.0804371119
H       -0.9763617530   -1.1940894341    1.7910340357
13   
From optimize.out: Frame 17 / 34, Energy=    -286.8334788919
C        1.5512772066    0.3499310401   -0.1162134202
C        0.9234383584   -0.9107580521   -0.1264382375
C       -0.5023829351   -1.1723723923   -0.2969857882
C       -1.2134510370    0.2926180463    0.0148159709
C       -0.4111385413    1.5018449430   -0.2398723911
N        0.8957995410    1.5405643738   -0.2323496304
H        2.6277820928    0.4096453629    0.0107955058
H        1.5721919782   -1.7837027047   -0.0346333270
H       -0.8240908342   -1.4704018250   -1.2867103408
H       -2.2577298527    0.2553669751   -0.2809060098
H       -0.8674442451    2.4933324473   -0.3009161361
C       -0.5423177517   -0.3909148913    1.0897847631
H       -0.9519339800   -1.1151533230    1.7996290415
13   
From optimize.out: Frame 15 / 34, Energy=    -286.8212172670
C        1.5415635254    0.3316359148   -0.1014987218
C        0.9266543034   -0.9386174324   -0.1501646070
C       -0.4908716619   -1.2119861583   -0.3137675532
C       -1.2451602697    0.2967296371    0.0076457488
C       -0.4201198951    1.5060194056   -0.2169626472
N        0.8859046496    1.5315372959   -0.1887951693
H        2.6179882617    0.3955738087    0.0261601088
H        1.5887921805   -1.8039166919   -0.0700855482
H       -0.8292545926   -1.5167654709   -1.2983243817
H       -2.2795087505    0.2345266156   -0.3144162044
H       -0.8657144971    2.5038250516   -0.2697605963
C       -0.5167861330   -0.2990985264    1.0863943246
H       -0.9134871207   -1.0294634493    1.8035752468
13   
From optimize.out: Frame 13 / 34, Energy=    -286.8048234795
C        1.5341395016    0.3125172120   -0.0887113547
C        0.9325547833   -0.9696628393   -0.1675778074
C       -0.4801598456   -1.2550150134   -0.3404092520
C       -1.2761436779    0.3045414826    0.0013739850
C       -0.4304173884    1.5160860013   -0.1961158704
N        0.8760169619    1.5251572699   -0.1534582733
H        2.6103461107    0.3837016456    0.0462337436
H        1.6044125106   -1.8288440497   -0.0824213996
H       -0.8419464714   -1.5726473929   -1.3207966818
H       -2.3052920217    0.2225954448   -0.3314744417
H       -0.8706165257    2.5178523042   -0.2354031761
C       -0.4844662856   -0.2128718310    1.0702671229
H       -0.8684276518   -0.9434102342    1.7984934055
13   
From optimize.out: Frame 11 / 34, Energy=    -286.7859313292
C        1.5306194238    0.2927789661   -0.0760327244
C        0.9415344618   -1.0005608859   -0.1799437798
C       -0.4735753981   -1.2947769608   -0.3670161889
C       -1.3050963606    0.3138051053   -0.0053540093
C       -0.4433179321    1.5287011384   -0.1784231205
N        0.8659115187    1.5200319447   -0.1230421707
H        2.6066953988    0.3725728461    0.0710796199
H        1.6192937579   -1.8563177537   -0.0805141140
H       -0.8641339337   -1.6315180406   -1.3460497163
H       -2.3323678710    0.2153351636   -0.3397737636
H       -0.8813607674    2.5327899165   -0.2012289170
C       -0.4476375599   -0.1326732897    1.0435401134
H       -0.8165647382   -0.8601681501    1.7827587712
13   
From optimize.out: Frame 9 / 34, Energy=    -286.7646887803
C        1.5329979441    0.2728636578   -0.0615767132
C        0.9532183648   -1.0282253534   -0.1872773174
C       -0.4713512891   -1.3262630841   -0.3899697804
C       -1.3314258424    0.3226124979   -0.0129006900
C       -0.4595767217    1.5402022709   -0.1653345274
N        0.8561264797    1.5112739316   -0.0950042898
H        2.6087511513    0.3615640610    0.1005285463
H        1.6329805925   -1.8835351827   -0.0691061603
H       -0.8984700386   -1.6873543928   -1.3729661815
H       -2.3592045034    0.2089704931   -0.3418335740
H       -0.8986327052    2.5448153853   -0.1694833823
C       -0.4078607205   -0.0578985162    1.0075835924
H       -0.7575527115   -0.7790257684    1.7573404777
13   
From optimize.out: Frame 8 / 34, Energy=    -286.7510723139
C        1.5522299591    0.2563725979   -0.0495466826
C        0.9710420458   -1.0521295686   -0.1901179558
C       -0.4737120944   -1.3472230047   -0.4075092148
C       -1.3599379025    0.3297079477   -0.0200696761
C       -0.4802232723    1.5483538620   -0.1527595266
N        0.8482119497    1.4938832243   -0.0683093775
H        2.6293159515    0.3542750055    0.1277037083
H        1.6504321852   -1.9104710516   -0.0503083689
H       -0.9459739863   -1.7383867295   -1.4028997108
H       -2.3895780484    0.2025033465   -0.3431722100
H       -0.9250535403    2.5517848757   -0.1388712004
C       -0.3731592846    0.0103932712    0.9702775197
H       -0.7035939624   -0.6990637763    1.7255826955
13   
From optimize.out: Frame 6 / 34, Energy=    -286.7147976360
C        1.5637715767    0.2467394417   -0.0306769243
C        0.9797737235   -1.0759631132   -0.1854565690
C       -0.4784351889   -1.3604750069   -0.4256052400
C       -1.3777102483    0.3404194025   -0.0272866857
C       -0.4969168646    1.5586839431   -0.1573979079
N        0.8392953480    1.4806462239   -0.0517956816
H        2.6413974331    0.3506020449    0.1655151167
H        1.6608758167   -1.9339109610   -0.0181658604
H       -1.0092194326   -1.7778967876   -1.4239467479
H       -2.4168923265    0.1970186319   -0.3305997980
H       -0.9446378465    2.5611460757   -0.1223671536
C       -0.3264972629    0.0616382092    0.9315335006
H       -0.6348047278   -0.6486481043    1.6762499512
13   
From optimize.out: Frame 4 / 34, Energy=    -286.6659657553
C        1.5663281730    0.2479282743   -0.0198566301
C        0.9677557483   -1.1092137141   -0.2118470450
C       -0.4547890866   -1.3908339075   -0.4682866820
C       -1.3758193219    0.3707835456   -0.0361823614
C       -0.5126220259    1.5933063090   -0.1931813454
N        0.8538635361    1.4800537042   -0.0487964379
H        2.6204971675    0.3485202852    0.2320522598
H        1.6719675062   -1.9328933158   -0.0377999755
H       -1.0413797564   -1.8008615349   -1.4167173924
H       -2.4416598459    0.1431321076   -0.2556574501
H       -0.9238476227    2.6001491063   -0.1488467965
C       -0.3068954882    0.1081099501    0.9586604005
H       -0.6233989837   -0.6581808102    1.6464594560
13   
From optimize.out: Frame 2 / 34, Energy=    -286.6015441328
C        1.5591849192    0.2449672862   -0.0110252689
C        0.9519281957   -1.1348241754   -0.2475938306
C       -0.4360412220   -1.4124465121   -0.5248167781
C       -1.3684986274    0.3990229003   -0.0549211839
C       -0.5264218828    1.6289555735   -0.2311085494
N        0.8618325132    1.4830907526   -0.0479411641
H        2.5871571755    0.3407310925    0.2995387154
H        1.6708642466   -1.9319538719   -0.0845506277
H       -1.0244925948   -1.8058943355   -1.3727838138
H       -2.4412556994    0.1041216693   -0.1795504302
H       -0.9029548899    2.6375848606   -0.1841115683
C       -0.3121659250    0.1342257100    0.9813532125
H       -0.6191362091   -0.6875809500    1.6575112873
13   
C5H5N+CH->C6H6N atoms 1-13 frame 104 charge -0.000 sz -1.000 sz^2 0.527
C        1.5431134103    0.2404827578   -0.0016689565
C        0.9353486195   -1.1521137945   -0.2837020938
C       -0.4191906474   -1.4255425908   -0.5796697951
C       -1.3579052108    0.4220787213   -0.0728561581
C       -0.5374770832    1.6620584279   -0.2652079957
N        0.8620898000    1.4899139534   -0.0480655262
H        2.5538297518    0.3298705183    0.3655592628
H        1.6691255216   -1.9357993264   -0.1438080413
H       -0.9930547034   -1.8203160419   -1.3309813474
H       -2.4181616715    0.0815459533   -0.1063752744
H       -0.8887580381    2.6768185198   -0.2230691265
C       -0.3327309733    0.1469190744    1.0040669133
H       -0.6162287754   -0.7159161725    1.6857781391
13   
C5H5N+CH->C6H6N atoms 1-13 frame 105 charge +0.000 sz -1.000 sz^2 0.523
C        1.5208515055    0.2370181407    0.0118982213
C        0.9210135894   -1.1626369164   -0.3156806468
C       -0.3979288073   -1.4309053212   -0.6255474362
C       -1.3426606962    0.4409688233   -0.0850145411
C       -0.5450492822    1.6934967427   -0.2945114948
N        0.8570332704    1.5013137830   -0.0475444776
H        2.5215236494    0.3183472775    0.4329286993
H        1.6730742667   -1.9421886847   -0.2080373018
H       -0.9770160628   -1.8668467892   -1.3210615521
H       -2.3795659076    0.0720578751   -0.0338237918
H       -0.8806867288    2.7189099626   -0.2647223809
C       -0.3610091104    0.1526169594    1.0317925228
H       -0.6095796861   -0.7321518527    1.7193241795
13   
C5H5N+CH->C6H6N atoms 1-13 frame 107 charge -0.000 sz -1.000 sz^2 0.512
C        1.4959280638    0.2352169615    0.0299542888
C        0.9113112509   -1.1676093051   -0.3411585551
C       -0.3727943951   -1.4293770555   -0.6600485714
C       -1.3230641850    0.4557635359   -0.0896950960
C       -0.5479522294    1.7218571783   -0.3169516447
N        0.8493520423    1.5159975579   -0.0456149486
H        2.4891107830    0.3068688406    0.4961180032
H        1.6818758591   -1.9470121733   -0.2710071621
H       -0.9806995056   -1.9429914388   -1.3426544922
H       -2.3367533336    0.0738945398    0.0322489516
H       -0.8764972845    2.7581342537   -0.3049437802
C       -0.3907491955    0.1537936840    1.0634919293
H       -0.5990678704   -0.7345365789    1.7502610774
13   
C5H5N+CH->C6H6N atoms 1-13 frame 109 charge +0.000 sz -1.000 sz^2 0.500
C        1.4683283190    0.2333925724    0.0514749310
C        0.9053629839   -1.1697224084   -0.3635177254
C       -0.3475165624   -1.4237977752   -0.6898312356
C       -1.2996632622    0.4677354822   -0.0885084848
C       -0.5464619980    1.7477463720   -0.3338953833
N        0.8402529655    1.5322620318   -0.0427534230
H        2.4524638852    0.2929999515    0.5533532990
H        1.6914425817   -1.9483703885   -0.3353915155
H       -0.9860749055   -2.0310303290   -1.3724988030
H       -2.2970068310    0.0847289767    0.0907913869
H       -0.8734685300    2.7917622198   -0.3434573997
C       -0.4207843037    0.1510243116    1.0978108307
H       -0.5868743424   -0.7287310169    1.7764235227
13   
C5H5N+CH->C6H6N atoms 1-13 frame 111 charge +0.000 sz -1.000 sz^2 0.507
C        1.4359798013    0.2298414756    0.0764361193
C        0.9027095176   -1.1706821507   -0.3861371739
C       -0.3248409691   -1.4162575300   -0.7208288498
C       -1.2717393963    0.4777249148   -0.0820702544
C       -0.5403273260    1.7721056538   -0.3469950080
N        0.8297834451    1.5495519852   -0.0398859974
H        2.4072334786    0.2741078982    0.6049090271
H        1.6990074447   -1.9448670324   -0.4061258116
H       -0.9776380474   -2.1180427118   -1.3939684719
H       -2.2634158285    0.1045331052    0.1424148729
H       -0.8699246929    2.8186527061   -0.3824663151
C       -0.4519992403    0.1439747423    1.1350392886
H       -0.5748281867   -0.7206430562    1.7996785742
13   
C5H5N+CH->C6H6N atoms 1-13 frame 113 charge +0.000 sz -1.000 sz^2 0.537
C        1.3980079381    0.2236744786    0.1041096288
C        0.9037613163   -1.1711650137   -0.4103151193
C       -0.3074894803   -1.4083797796   -0.7554041262
C       -1.2395626510    0.4857725326   -0.0703687659
C       -0.5292257769    1.7945389938   -0.3570647876
N        0.8182798985    1.5672561662   -0.0383461074
H        2.3527913799    0.2497285588    0.6494482969
H        1.7031889615   -1.9353953667   -0.4838891952
H       -0.9475218935   -2.1926898166   -1.3977672448
H       -2.2381321017    0.1339443470    0.1849130463
H       -0.8651994471    2.8372095078   -0.4231761261
C       -0.4836986562    0.1330312860    1.1742597701
H       -0.5651994877   -0.7175258942    1.8236007305
13   
C5H5N+CH->C6H6N atoms 1-13 frame 114 charge +0.000 sz -1.000 sz^2 0.555
C        1.3551538450    0.2148422414    0.1326384706
C        0.9087351541   -1.1711894741   -0.4356985427
C       -0.2980789322   -1.4015085312   -0.7928680635
C       -1.2051330383    0.4913738227   -0.0533617632
C       -0.5134680485    1.8134418081   -0.3642733571
N        0.8065406443    1.5843845329   -0.0396802194
H        2.2930835770    0.2218150706    0.6847651813
H        1.7041793199   -1.9201021730   -0.5650379242
H       -0.8952776810   -2.2450207099   -1.3799299825
H       -2.2221030807    0.1732910426    0.2137848717
H       -0.8597822497    2.8461278314   -0.4652101517
C       -0.5134639818    0.1195263259    1.2130778024
H       -0.5603855282   -0.7269817876    1.8517936783
13   
C5H5N+CH->C6H6N atoms 1-13 frame 116 charge +0.000 sz -1.000 sz^2 0.609
C        1.3092876105    0.2040983509    0.1599900566
C        0.9164995831   -1.1705184006   -0.4612785524
C       -0.2971916461   -1.3964012466   -0.8305788482
C       -1.1714881622    0.4941376097   -0.0313979585
C       -0.4946071138    1.8273515342   -0.3687220792
N        0.7955047847    1.6000257259   -0.0447836433
H        2.2351547934    0.1939659678    0.7110569647
H        1.7042661306   -1.9012560115   -0.6444375219
H       -0.8288862936   -2.2724981071   -1.3437731578
H       -2.2133306620    0.2212063108    0.2265871484
H       -0.8552353402    2.8463041435   -0.5072558315
C       -0.5386049495    0.1051549710    1.2494546216
H       -0.5613687346   -0.7515708479    1.8851388015
13   
C5H5N+CH->C6H6N atoms 1-13 frame 118 charge +0.000 sz -1.000 sz^2 0.708
C        1.2614310463    0.1923080232    0.1860563095
C        0.9253479481   -1.1687914254   -0.4867835677
C       -0.3026990968   -1.3925305027   -0.8664845257
C       -1.1400532101    0.4943125654   -0.0044465707
C       -0.4742021719    1.8363953801   -0.3704593760
N        0.7857077883    1.6142892733   -0.0532369487
H        2.1832957274    0.1686689527    0.7318230095
H        1.7064655956   -1.8811523990   -0.7206238802
H       -0.7592337873   -2.2838915661   -1.2979043704
H       -2.2078161532    0.2759927041    0.2253943196
H       -0.8529348098    2.8402405678   -0.5486119042
C       -0.5581274425    0.0905195029    1.2840905128
H       -0.5671814340   -0.7863610764    1.9211869921
13   
C5H5N+CH->C6H6N atoms 1-13 frame 120 charge +0.000 sz -1.000 sz^2 0.858
C        1.2111749486    0.1799546938    0.2123744481
C        0.9342911524   -1.1651781892   -0.5128237275
C       -0.3124315663   -1.3882560357   -0.8997000485
C       -1.1106278477    0.4923995471    0.0290224944
C       -0.4526594708    1.8412731949   -0.3688310858
N        0.7778380637    1.6280149617   -0.0643044993
H        2.1383665660    0.1471415041    0.7505134646
H        1.7132388500   -1.8599086782   -0.7951553567
H       -0.6951113857   -2.2926560738   -1.2504778118
H       -2.2021324723    0.3381619434    0.2119921356
H       -0.8535280978    2.8292243449   -0.5891088143
C       -0.5713724655    0.0752443337    1.3192341616
H       -0.5770462744   -0.8254155468    1.9572646398
13   
C5H5N+CH->C6H6N atoms 1-13 frame 122 charge +0.000 sz -1.000 sz^2 1.014
C        1.1585593478    0.1675486318    0.2409093366
C        0.9426107119   -1.1583682491   -0.5401758194
C       -0.3243565798   -1.3810253367   -0.9294510596
C       -1.0829319092    0.4892390948    0.0709159197
C       -0.4301834923    1.8428611762   -0.3626514923
N        0.7735109314    1.6421418875   -0.0768983991
H        2.0998384085    0.1305632483    0.7695678683
H        1.7260434263   -1.8357980320   -0.8692743707
H       -0.6455295216   -2.3153559018   -1.2099859736
H       -2.1931126572    0.4084579756    0.1873991931
H       -0.8568864090    2.8135212236   -0.6276126406
C       -0.5770038970    0.0588424926    1.3568357770
H       -0.5905583597   -0.8626282108    1.9904216607
13   
C5H5N+CH->C6H6N atoms 1-13 frame 123 charge +0.000 sz -1.000 sz^2 1.071
C        1.1060813885    0.1555269586    0.2725124006
C        0.9491878968   -1.1475282417   -0.5690126255
C       -0.3365973105   -1.3693539344   -0.9544358566
C       -1.0581219079    0.4855851593    0.1213659468
C       -0.4083493067    1.8414651815   -0.3513399207
N        0.7755354164    1.6564636628   -0.0898364077
H        2.0666243530    0.1202166317    0.7894836614
H        1.7440053841   -1.8063672368   -0.9406317866
H       -0.6181497933   -2.3617052212   -1.1831615308
H       -2.1779084147    0.4837793115    0.1532151843
H       -0.8621873758    2.7922194011   -0.6613348747
C       -0.5729439892    0.0410569222    1.3965005433
H       -0.6071763409   -0.8913585947    2.0166752662
13   
C5H5N+CH->C6H6N atoms 1-13 frame 125 charge -0.000 sz -1.000 sz^2 1.129
C        1.0562057136    0.1432966953    0.3067436177
C        0.9532380833   -1.1337744994   -0.5993482181
C       -0.3482169755   -1.3557089329   -0.9749303316
C       -1.0372198412    0.4814145659    0.1779899285
C       -0.3893532607    1.8366267981   -0.3368207645
N        0.7855399400    1.6695622446   -0.1034284318
H        2.0351260172    0.1150113902    0.8096433591
H        1.7635521802   -1.7701580172   -1.0064595779
H       -0.6098410343   -2.4194989170   -1.1679122601
H       -2.1555009564    0.5577027449    0.1131133552
H       -0.8684562549    2.7635198253   -0.6900776998
C       -0.5591664317    0.0216121255    1.4362199419
H       -0.6259071797   -0.9096060235    2.0352670812
13   
C5H5N+CH->C6H6N atoms 1-13 frame 127 charge +0.000 sz -1.000 sz^2 1.140
C        1.0096838590    0.1297061712    0.3438356379
C        0.9541500259   -1.1180692116   -0.6320338022
C       -0.3590932373   -1.3435469416   -0.9918526966
C       -1.0207714156    0.4766335854    0.2399573457
C       -0.3746781772    1.8269506921   -0.3213617962
N        0.8053362967    1.6800767727   -0.1198641487
H        2.0012752227    0.1131991825    0.8304545239
H        1.7816542674   -1.7249309785   -1.0654806960
H       -0.6157164293   -2.4700429681   -1.1601846480
H       -2.1247168659    0.6247442100    0.0697430410
H       -0.8754460210    2.7242619304   -0.7161638331
C       -0.5350404783    0.0001980534    1.4745129013
H       -0.6466370472   -0.9191804978    2.0484381711
13   
C5H5N+CH->C6H6N atoms 1-13 frame 129 charge -0.000 sz -1.000 sz^2 1.117
C        0.9680666923    0.1141816916    0.3835284410
C        0.9509858373   -1.1009072631   -0.6675394409
C       -0.3689309890   -1.3361118689   -1.0059306678
C       -1.0097280712    0.4725701951    0.3056703672
C       -0.3650340193    1.8110215039   -0.3076249285
N        0.8366971443    1.6867376750   -0.1423681421
H        1.9628429859    0.1126984207    0.8535866696
H        1.7956372632   -1.6687875752   -1.1155452971
H       -0.6326786292   -2.4941828421   -1.1575644259
H       -2.0853012076    0.6769351581    0.0274701555
H       -0.8832355788    2.6726046757   -0.7428571674
C       -0.4996124550   -0.0220000268    1.5086429176
H       -0.6697089731   -0.9247597440    2.0605315188
13   
C5H5N+CH->C6H6N atoms 1-13 frame 131 charge +0.000 sz -1.000 sz^2 1.097
C        0.9343457487    0.0976345399    0.4235196230
C        0.9429953637   -1.0828531390   -0.7041199554
C       -0.3770208653   -1.3353682835   -1.0176330365
C       -1.0050662005    0.4723084734    0.3701895871
C       -0.3591898318    1.7889859858   -0.2983033412
N        0.8779777886    1.6887274729   -0.1730097347
H        1.9229195692    0.1108437184    0.8812916391
H        1.8044817098   -1.6041913436   -1.1540816906
H       -0.6580748597   -2.4792444632   -1.1593017626
H       -2.0417937210    0.7044983867   -0.0058520805
H       -0.8921845772    2.6122649472   -0.7729897055
C       -0.4546048240   -0.0417119069    1.5343592749
H       -0.6947853005   -0.9318943880    2.0759311830
13   
C5H5N+CH->C6H6N atoms 1-13 frame 133 charge -0.000 sz -1.000 sz^2 1.068
C        0.9105440384    0.0816383794    0.4610705405
C        0.9303709261   -1.0644972498   -0.7384710887
C       -0.3826639242   -1.3408947661   -1.0273325789
C       -1.0067713239    0.4785200152    0.4280713011
C       -0.3543615287    1.7627115505   -0.2943052660
N        0.9238601808    1.6860523728   -0.2105434938
H        1.8885771975    0.1052659776    0.9151715123
H        1.8101901942   -1.5372540278   -1.1809288252
H       -0.6896854909   -2.4277951151   -1.1661198969
H       -2.0029420711    0.7026568716   -0.0229317962
H       -0.9026477281    2.5503514147   -0.8070469934
C       -0.4048196160   -0.0564255517    1.5490795386
H       -0.7196508542   -0.9403298715    2.0942870466
13   
C5H5N+CH->C6H6N atoms 1-13 frame 134 charge +0.000 sz -1.000 sz^2 1.062
C        0.9161191558    0.0749028063    0.4699306805
C        0.9256609882   -1.0479853949   -0.7251156740
C       -0.3708955270   -1.3346303890   -1.0181544379
C       -1.0300467448    0.4874426780    0.4404472467
C       -0.3541552441    1.7245226939   -0.2936656283
N        0.9386634925    1.6451101841   -0.2337705242
H        1.8938624525    0.1035563680    0.9289708855
H        1.8180521791   -1.4985712252   -1.1560085781
H       -0.7211556182   -2.3715088667   -1.1867831877
H       -2.0266842943    0.6921273146   -0.0003640580
H       -0.9027401829    2.5090848844   -0.8151134614
C       -0.3745543293   -0.0512014581    1.5201503455
H       -0.7121263276   -0.9328495955    2.0694763915
13   
C5H5N+CH->C6H6N atoms 1-13 frame 136 charge -0.000 sz -1.000 sz^2 1.038
C        0.9365374110    0.0768405739    0.4630196596
C        0.9236294622   -1.0310446099   -0.6819073304
C       -0.3552209096   -1.3173939307   -0.9943149229
C       -1.0628204059    0.4925631690    0.4219342154
C       -0.3585467806    1.6794363736   -0.2955257319
N        0.9292832627    1.5784104322   -0.2386065818
H        1.9171866068    0.1109375170    0.9293953905
H        1.8215959118   -1.4788822389   -1.1022553997
H       -0.7554416475   -2.3205922209   -1.2065393203