13   
From optimize.out: Frame 1 / 2, Energy=    -286.8707992435
C        0.0457650000   -0.1430770000   -0.0000000000
C        0.0289990000    0.0017420000   -0.0000000000
C       -0.1926100000   -0.0048390000    0.0000000000
C       -0.1862640000   -0.0084840000    0.0000000000
C        0.0358410000    0.0007990000    0.0000000000
N       -0.4028400000    0.0421380000   -0.0000000000
H        0.1634420000    0.0349020000   -0.0000000000
H        0.1469710000    0.0002150000   -0.0000000000
H        0.1295180000    0.0017690000    0.0000000000
H        0.1295380000    0.0010300000    0.0000000000
H        0.1453720000    0.0010860000    0.0000000000
C       -0.2137190000    1.0797970000   -0.0000000000
H        0.1699880000   -0.0070780000   -0.0000000000
