
Running Job 1 of 1 optimize.in
qchem optimize.in_27800.0 ./optimize.d/ 1
/home/leeping/opt/qchem/5.0.2-openmp/exe/qcprog.exe_s optimize.in_27800.0 ./optimize.d/
Check license passed

                  Welcome to Q-Chem
     A Quantum Leap Into The Future Of Chemistry


 Q-Chem 5.0, Q-Chem, Inc., Pleasanton, CA (2017)

 Yihan Shao,  Zhengting Gan,  E. Epifanovsky,  A. T. B. Gilbert,  M. Wormit,  
 J. Kussmann,  A. W. Lange,  A. Behn,  Jia Deng,  Xintian Feng,  D. Ghosh,  
 M. Goldey,  P. R. Horn,  L. D. Jacobson,  I. Kaliman,  T. Kus,  A. Landau,  
 Jie Liu,  E. I. Proynov,  R. M. Richard,  R. P. Steele,  E. J. Sundstrom,  
 H. L. Woodcock III,  P. M. Zimmerman,  D. Zuev,  B. Albrecht,  E. Alguire,  
 S. A. Baeppler,  D. Barton,  Z. Benda,  Y. A. Bernard,  E. J. Berquist,  
 K. B. Bravaya,  H. Burton,  D. Casanova,  Chun-Min Chang,  Yunqing Chen,  
 A. Chien,  K. D. Closser,  M. P. Coons,  S. Dasgupta,  A. L. Dempwolff,  
 M. Diedenhofen,  Hainam Do,  R. G. Edgar,  Po-Tung Fang,  S. Fatehi,  
 Qingguo Feng,  J. Fosso-Tande,  Qinghui Ge,  A. Ghysels,  G. Gidofalvi,  
 J. Gomes,  J. Gonthier,  A. Gunina,  M. W. D. Hanson-Heine,  
 P. H. P. Harbach,  A. W. Hauser,  J. E. Herr,  E. G. Hohenstein,  
 Z. C. Holden,  Kerwin Hui,  T.-C. Jagau,  Hyunjun Ji,  B. Kaduk,  
 K. Khistyaev,  Jaehoon Kim,  P. Klunzinger,  K. Koh,  D. Kosenkov,  
 L. Koulias,  T. Kowalczyk,  C. M. Krauter,  A. Kunitsa,  Ka Un Lao,  
 A. Laurent,  K. V. Lawler,  Joonho Lee,  D. Lefrancois,  S. Lehtola,  
 D. S. Levine,  Yi-Pei Li,  You-Sheng Lin,  Fenglai Liu,  E. Livshits,  
 A. Luenser,  P. Manohar,  E. Mansoor,  S. F. Manzer,  Shan-Ping Mao,  
 Yuezhi Mao,  N. Mardirossian,  A. V. Marenich,  T. Markovich,  
 L. A. Martinez-Martinez,  S. A. Maurer,  N. J. Mayhall,  S. C. McKenzie,  
 J.-M. Mewes,  A. F. Morrison,  J. W. Mullinax,  K. Nanda,  
 T. S. Nguyen-Beck,  R. Olivares-Amaya,  J. A. Parkhill,  T. M. Perrine,  
 F. Plasser,  S. Prager,  A. Prociuk,  E. Ramos,  D. R. Rehn,  F. Rob,  
 M. Schneider,  N. Sergueev,  S. M. Sharada,  S. Sharma,  D. W. Small,  
 T. Stauch,  T. Stein,  Yu-Chuan Su,  A. J. W. Thom,  A. Tkatchenko,  
 T. Tsuchimochi,  L. Vogt,  O. Vydrov,  M. A. Watson,  J. Wenzel,  
 M. de Wergifosse,  T. A. Wesolowski,  A. White,  J. Witte,  A. Yamada,  
 Jun Yang,  K. Yao,  S. Yeganeh,  S. R. Yost,  Zhi-Qiang You,  A. Zech,  
 Igor Ying Zhang,  Xing Zhang,  Yan Zhao,  Ying Zhu,  B. R. Brooks,  
 G. K. L. Chan,  C. J. Cramer,  M. S. Gordon,  W. J. Hehre,  A. Klamt,  
 M. W. Schmidt,  C. D. Sherrill,  D. G. Truhlar,  A. Aspuru-Guzik,  R. Baer,  
 A. T. Bell,  N. A. Besley,  Jeng-Da Chai,  R. A. DiStasio Jr.,  A. Dreuw,  
 B. D. Dunietz,  T. R. Furlani,  Chao-Ping Hsu,  Yousung Jung,  Jing Kong,  
 D. S. Lambrecht,  WanZhen Liang,  C. Ochsenfeld,  V. A. Rassolov,  
 L. V. Slipchenko,  J. E. Subotnik,  T. Van Voorhis,  J. M. Herbert,  
 A. I. Krylov,  P. M. W. Gill,  M. Head-Gordon

 Contributors to earlier versions of Q-Chem not listed above: 
 R. D. Adamson,  B. Austin,  J. Baker,  G. J. O. Beran,  K. Brandhorst,  
 S. T. Brown,  E. F. C. Byrd,  A. K. Chakraborty,  C.-L. Cheng,  
 Siu Hung Chien,  D. M. Chipman,  D. L. Crittenden,  H. Dachsel,  
 R. J. Doerksen,  A. D. Dutoi,  L. Fusti-Molnar,  W. A. Goddard III,  
 A. Golubeva-Zadorozhnaya,  S. R. Gwaltney,  G. Hawkins,  A. Heyden,  
 S. Hirata,  G. Kedziora,  F. J. Keil,  C. Kelley,  Jihan Kim,  R. A. King,  
 R. Z. Khaliullin,  P. P. Korambath,  W. Kurlancheek,  A. M. Lee,  M. S. Lee,  
 S. V. Levchenko,  Ching Yeh Lin,  D. Liotard,  R. C. Lochan,  I. Lotan,  
 P. E. Maslen,  N. Nair,  D. P. O'Neill,  D. Neuhauser,  E. Neuscamman,  
 C. M. Oana,  R. Olson,  B. Peters,  R. Peverati,  P. A. Pieniazek,  
 Y. M. Rhee,  J. Ritchie,  M. A. Rohrdanz,  E. Rosta,  N. J. Russ,  
 H. F. Schaefer III,  N. E. Schultz,  N. Shenvi,  A. C. Simmonett,  A. Sodt,  
 D. Stuck,  K. S. Thanthiriwatte,  V. Vanovschi,  Tao Wang,  A. Warshel,  
 C. F. Williams,  Q. Wu,  X. Xu,  W. Zhang

 Please cite Q-Chem as follows:
 Y. Shao et al., Mol. Phys. 113, 184-215 (2015)
 DOI: 10.1080/00268976.2014.952696

 Q-Chem 5.0.2 for Intel X86 EM64T Linux

 Parts of Q-Chem use Armadillo 5.200.1 (Boston Tea Smuggler).
 http://arma.sourceforge.net/

 Q-Chem begins on Wed Mar  2 17:09:08 2022  

Host: 
0

     Scratch files written to ./optimize.d//
 Dec517 15110_ 26548  26544 5633   
Processing $rem in /home/leeping/opt/qchem/5.0.2-openmp/config/preferences.
 MEM_STATIC 2000
 MEM_TOTAL  8000
 SYMMETRY   OFF
 SYM_IGNORE TRUE 

Checking the input file for inconsistencies... 	...done.

--------------------------------------------------------------
User input:
--------------------------------------------------------------
$molecule
0 2
C        1.6275208656    0.3388165904   -0.3025239701
C        1.1398763554   -0.9438103089   -0.4730325191
C       -0.2057285338   -1.4173079962   -0.2706573326
C       -1.2783643897   -0.6846921986    0.1422835657
C       -0.2472334035    1.6192674999    0.4206524854
N        1.0599169531    1.5054969870    0.0841605408
H        2.6905909706    0.4560962210   -0.5241435773
H        1.8676799238   -1.6816847037   -0.8031711638
H       -0.3721805494   -2.4736071504   -0.4726346800
H       -2.2289009435   -1.2046825637    0.2416831057
H       -0.5062034222    2.6402763480    0.7111212926
C       -1.2948735157    0.7191902312    0.4653743436
H       -2.2521003108    1.1266410446    0.7808879094
$end

$rem
method                b3lyp
basis                 6-31g(d)
unrestricted          true
symmetry              off
sym_ignore            true
incdft                false
incfock               0
scf_convergence       8
thresh                14
jobtype               opt
scf_guess             read
scf_algorithm         diis
max_scf_cycles        100
geom_opt_tol_gradient 600
geom_opt_tol_displacement 2400
geom_opt_tol_energy   200
geom_opt_max_cycles   100
$end

--------------------------------------------------------------
 ----------------------------------------------------------------
             Standard Nuclear Orientation (Angstroms)
    I     Atom           X                Y                Z
 ----------------------------------------------------------------
    1      C       1.6275208656     0.3388165904    -0.3025239701
    2      C       1.1398763554    -0.9438103089    -0.4730325191
    3      C      -0.2057285338    -1.4173079962    -0.2706573326
    4      C      -1.2783643897    -0.6846921986     0.1422835657
    5      C      -0.2472334035     1.6192674999     0.4206524854
    6      N       1.0599169531     1.5054969870     0.0841605408
    7      H       2.6905909706     0.4560962210    -0.5241435773
    8      H       1.8676799238    -1.6816847037    -0.8031711638
    9      H      -0.3721805494    -2.4736071504    -0.4726346800
   10      H      -2.2289009435    -1.2046825637     0.2416831057
   11      H      -0.5062034222     2.6402763480     0.7111212926
   12      C      -1.2948735157     0.7191902312     0.4653743436
   13      H      -2.2521003108     1.1266410446     0.7808879094
 ----------------------------------------------------------------
 Nuclear Repulsion Energy =   260.6948741195 hartrees
 There are       25 alpha and       24 beta electrons
 Requested basis set is 6-31G(d)
 There are 40 shells and 117 basis functions

 Total QAlloc Memory Limit   8000 MB
 Mega-Array Size      1956 MB
 MEM_STATIC part      2000 MB
 A cutoff of  1.0D-14 yielded    791 shell pairs
 There are      7063 function pairs
 
 -------------------------------------------------------
 OpenMP Integral Computing Module                       
 Release: version 1.0, May 2013, Q-Chem Inc. Pittsburgh 
 -------------------------------------------------------
 Integral Job Info:
 Integral job number is                      11
 Integral operator is                         1
 short-range coefficients                     0
 long-range coefficients              100000000
 Omega coefficients                           0
 if combine SR and LR in K                    0
 Integral screening is                        0
 Integral computing path is                   2
 max size of driver memory is            800000
 size of driver memory is                593474
 size of scratch memory is              2361544
 max col of scratch BK array               1296
 max len of scratch array in speh3          155
 max len of scratch index in speh4           18
 max int batch size is                      520
 min int batch size is                       52
 fixed nKL is                                52
 max L of basis functions is                  2
 order of int derivative is                   0
 number of shells is                         40
 number of basis is                         117
 number of cartesian basis is               117
 number of contracted shell pairs           791
 number of primitive shell pairs           3395
 maxK2 (contraction) of shell pair           36
 max number of K2 of shell pair               1
 max number of CS2 of shell pair             94
 max number of PS2 of shell pair            402
 mem total for path MDJ                  535308
 -------------------------------------------------------
 Smallest overlap matrix eigenvalue = 1.33E-03

 Scale SEOQF with 1.000000e-01/1.000000e-01/1.000000e+00

 Standard Electronic Orientation quadrupole field applied
 Nucleus-field energy     =     0.0000000002 hartrees
 Guess MOs from SCF MO coefficient file
 Reading MOs from coefficient file
 Reading MOs from coefficient file
 An unrestricted hybrid HF-DFT SCF calculation will be
 performed using Pulay DIIS extrapolation
 Exchange:     0.2000 Hartree-Fock + 0.0800 Slater + 0.7200 B88
 Correlation:  0.1900 VWN1RPA + 0.8100 LYP
 Using SG-1 standard quadrature grid
 SCF converges when DIIS error is below 1.0E-08
Using Q-Chem read-in guess as SCF_GUESS READ specified.

 using 4 threads for integral computing
 -------------------------------------------------------
 OpenMP Integral computing Module                
 Release: version 1.0, May 2013, Q-Chem Inc. Pittsburgh 
 -------------------------------------------------------
 -------------------------------------------------------
 OpenMP BLAS3 based DFT computing Module                
 Release: version 1.0, May 2013, Q-Chem Inc. Pittsburgh 
 -------------------------------------------------------
 ---------------------------------------
  Cycle       Energy         DIIS Error
 ---------------------------------------
    1    -286.9243436157      3.52E-10
    2    -286.9243436157      6.03E-10 Convergence criterion met
 ---------------------------------------
 <S^2> = 0.7684
 SCF time:  CPU 4.76 s  wall 1.61 s
 SCF   energy in the final basis set = -286.92434362
 Total energy in the final basis set = -286.92434362
 
 --------------------------------------------------------------
 
                    Orbital Energies (a.u.)
 --------------------------------------------------------------
 
 Alpha MOs
 -- Occupied --
-14.322 -10.232 -10.232 -10.212 -10.211 -10.201 -10.201  -0.922
 -0.818  -0.784  -0.693  -0.667  -0.551  -0.537  -0.518  -0.449
 -0.439  -0.414  -0.394  -0.387  -0.349  -0.322  -0.299  -0.251
 -0.162
 -- Virtual --
 -0.072   0.076   0.097   0.101   0.117   0.142   0.181   0.184
  0.193   0.213   0.266   0.319   0.357   0.390   0.412   0.483
  0.496   0.521   0.547   0.576   0.584   0.587   0.591   0.610
  0.619   0.624   0.646   0.658   0.713   0.718   0.833   0.840
  0.847   0.853   0.868   0.872   0.885   0.922   0.965   0.975
  1.024   1.027   1.043   1.127   1.177   1.185   1.300   1.303
  1.325   1.402   1.429   1.480   1.482   1.546   1.574   1.586
  1.682   1.732   1.769   1.829   1.850   1.919   1.924   2.030
  2.046   2.047   2.100   2.141   2.141   2.191   2.246   2.391
  2.410   2.414   2.446   2.545   2.576   2.600   2.614   2.739
  2.748   2.807   3.051   3.248   3.251   4.017   4.046   4.102
  4.196   4.239   4.531   4.595
 
 Beta MOs
 -- Occupied --
-14.314 -10.233 -10.233 -10.210 -10.210 -10.196 -10.196  -0.911
 -0.809  -0.777  -0.681  -0.665  -0.546  -0.534  -0.514  -0.447
 -0.438  -0.411  -0.383  -0.373  -0.347  -0.295  -0.276  -0.242
 -- Virtual --
 -0.078  -0.070   0.078   0.118   0.124   0.125   0.142   0.182
  0.187   0.196   0.219   0.268   0.324   0.360   0.392   0.414
  0.486   0.504   0.525   0.551   0.587   0.588   0.592   0.596
  0.614   0.624   0.629   0.649   0.676   0.715   0.729   0.834
  0.843   0.846   0.869   0.875   0.880   0.887   0.925   0.967
  0.979   1.026   1.030   1.045   1.133   1.180   1.189   1.311
  1.315   1.333   1.411   1.429   1.489   1.492   1.560   1.582
  1.596   1.685   1.736   1.781   1.831   1.854   1.922   1.933
  2.035   2.058   2.061   2.110   2.141   2.146   2.203   2.258
  2.399   2.422   2.426   2.448   2.558   2.578   2.611   2.624
  2.742   2.760   2.810   3.053   3.251   3.254   4.029   4.053
  4.109   4.200   4.239   4.536   4.601
 --------------------------------------------------------------
 
          Ground-State Mulliken Net Atomic Charges

     Atom                 Charge (a.u.)    Spin (a.u.)
  --------------------------------------------------------
      1 C                     0.036000      -0.113796
      2 C                    -0.132006       0.348735
      3 C                    -0.111017       0.091586
      4 C                    -0.111516       0.095903
      5 C                     0.035187      -0.111374
      6 N                    -0.423539       0.387374
      7 H                     0.142486       0.003463
      8 H                     0.134551      -0.018426
      9 H                     0.141935      -0.006532
     10 H                     0.141960      -0.006736
     11 H                     0.142718       0.003344
     12 C                    -0.131096       0.344678
     13 H                     0.134337      -0.018220
  --------------------------------------------------------
  Sum of atomic charges =    -0.000000
  Sum of spin   charges =     1.000000

 -----------------------------------------------------------------
                    Cartesian Multipole Moments
 -----------------------------------------------------------------
    Charge (ESU x 10^10)
                -0.0000
    Dipole Moment (Debye)
         X      -1.2920      Y      -1.8335      Z      -0.1020
       Tot       2.2453
    Quadrupole Moments (Debye-Ang)
        XX     -37.3907     XY      -3.3717     YY     -40.0887
        XZ      -2.1164     YZ       1.5512     ZZ     -42.5234
    Octopole Moments (Debye-Ang^2)
       XXX     -12.4395    XXY     -10.9534    XYY     -13.1209
       YYY     -25.4338    XXZ      -1.1490    XYZ      -0.7542
       YYZ      -0.3833    XZZ      -3.4483    YZZ      -4.7658
       ZZZ      -0.8291
    Hexadecapole Moments (Debye-Ang^3)
      XXXX    -361.3253   XXXY     -14.8567   XXYY    -136.6574
      XYYY     -29.9642   YYYY    -386.2143   XXXZ      26.3500
      XXYZ     -10.9947   XYYZ       8.3515   YYYZ     -26.6747
      XXZZ     -80.0946   XYZZ      -4.9231   YYZZ     -80.1384
      XZZZ      40.9215   YZZZ     -39.2043   ZZZZ     -80.7751
 -----------------------------------------------------------------
 Calculating analytic gradient of the SCF energy
 Gradient of SCF Energy
            1           2           3           4           5           6
    1   0.0001225  -0.0001039  -0.0001036  -0.0001976  -0.0003727   0.0002268
    2  -0.0002857  -0.0004441   0.0002591   0.0000198  -0.0002091   0.0005528
    3   0.0002207  -0.0001609   0.0001216   0.0000495   0.0002938  -0.0003436
            7           8           9          10          11          12
    1  -0.0000288   0.0003995  -0.0000743   0.0000339  -0.0000067   0.0000082
    2  -0.0000656   0.0000416  -0.0000137   0.0001209   0.0002708  -0.0001135
    3  -0.0000558  -0.0000580  -0.0000096  -0.0000570   0.0000905   0.0000578
           13
    1   0.0000967
    2  -0.0001332
    3  -0.0001492
 Max gradient component =       5.528E-04
 RMS gradient           =       2.027E-04
 Gradient time:  CPU 7.18 s  wall 2.42 s
 Geometry Optimization Parameters
   NAtoms,    NIC,     NZ,  NCons,   NDum,   NFix, NCnnct, MaxDiis
       13      82       0       0       0       0       0       0


** GEOMETRY OPTIMIZATION IN DELOCALIZED INTERNAL COORDINATES **
   Searching for a Minimum

   Optimization Cycle:   1

                       Coordinates (Angstroms)
     ATOM                X               Y               Z
      1  C         1.6275208656    0.3388165904   -0.3025239701
      2  C         1.1398763554   -0.9438103089   -0.4730325191
      3  C        -0.2057285338   -1.4173079962   -0.2706573326
      4  C        -1.2783643897   -0.6846921986    0.1422835657
      5  C        -0.2472334035    1.6192674999    0.4206524854
      6  N         1.0599169531    1.5054969870    0.0841605408
      7  H         2.6905909706    0.4560962210   -0.5241435773
      8  H         1.8676799238   -1.6816847037   -0.8031711638
      9  H        -0.3721805494   -2.4736071504   -0.4726346800
     10  H        -2.2289009435   -1.2046825637    0.2416831057
     11  H        -0.5062034222    2.6402763480    0.7111212926
     12  C        -1.2948735157    0.7191902312    0.4653743436
     13  H        -2.2521003108    1.1266410446    0.7808879094
   Point Group: c1    Number of degrees of freedom:    33


   Energy is   -286.924343616


 Attempting to Generate Delocalized Internal Coordinates

 33 Hessian modes will be used to form the next step
  Hessian Eigenvalues:
     0.018549    0.019879    0.020875    0.021842    0.021986    0.022683
     0.023079    0.023756    0.023988    0.025330    0.159999    0.160000
     0.160000    0.160000    0.160000    0.160000    0.219998    0.219999
     0.220000    0.233937    0.345075    0.345551    0.350167    0.350423
     0.350767    0.351466    0.382630    0.389712    0.466914    0.484394
     0.506739    0.533258    0.537390

 Minimum Search - Taking Simple RFO Step
 Searching for Lamda that Minimizes Along All modes
 Value Taken    Lamda =  -0.00000700
 Step Taken.  Stepsize is  0.012095

                             Maximum     Tolerance    Cnvgd?
         Gradient           0.000488      0.000600     YES
         Displacement       0.005427      0.002400      NO
         Energy change     *********      0.000002      NO


 New Cartesian Coordinates Obtained by Inverse Iteration

 Displacement from previous Coordinates is:  0.010580
 ----------------------------------------------------------------
             Standard Nuclear Orientation (Angstroms)
    I     Atom           X                Y                Z
 ----------------------------------------------------------------
    1      C       1.6276639315     0.3392271855    -0.3027601267
    2      C       1.1393237710    -0.9428352096    -0.4738965665
    3      C      -0.2056741721    -1.4171572286    -0.2711846395
    4      C      -1.2783094952    -0.6848475977     0.1421864018
    5      C      -0.2471559984     1.6191039934     0.4195377458
    6      N       1.0602970564     1.5047078549     0.0861278080
    7      H       2.6912210000     0.4564990081    -0.5222194936
    8      H       1.8652133641    -1.6818652093    -0.8043903605
    9      H      -0.3710696079    -2.4737481844    -0.4722864989
   10      H      -2.2282300129    -1.2058790824     0.2435343208
   11      H      -0.5060666194     2.6396143676     0.7102013760
   12      C      -1.2952218083     0.7195564842     0.4640634259
   13      H      -2.2519914088     1.1276236189     0.7810866077
 ----------------------------------------------------------------
 Nuclear Repulsion Energy =   260.7256363308 hartrees
 There are       25 alpha and       24 beta electrons
 Applying Cartesian multipole field
    Component          Value
    ---------          -----
     (2,0,0)        1.00000E-11
     (0,2,0)        2.00000E-11
     (0,0,2)       -3.00000E-10
 Nucleus-field energy     =     0.0000000002 hartrees
 Requested basis set is 6-31G(d)
 There are 40 shells and 117 basis functions
 A cutoff of  1.0D-14 yielded    791 shell pairs
 There are      7063 function pairs
 Smallest overlap matrix eigenvalue = 1.33E-03
 Guess MOs from SCF MO coefficient file
 Reading MOs from coefficient file
 Reading MOs from coefficient file
 An unrestricted hybrid HF-DFT SCF calculation will be
 performed using Pulay DIIS extrapolation
 Exchange:     0.2000 Hartree-Fock + 0.0800 Slater + 0.7200 B88
 Correlation:  0.1900 VWN1RPA + 0.8100 LYP
 Using SG-1 standard quadrature grid
 SCF converges when DIIS error is below 1.0E-08
 Geometry optimization detected.  Setting ReadMinima to 0
 Setting SaveMinima to 0
Using Q-Chem read-in guess as SCF_GUESS READ specified.

 using 4 threads for integral computing
 -------------------------------------------------------
 OpenMP Integral computing Module                
 Release: version 1.0, May 2013, Q-Chem Inc. Pittsburgh 
 -------------------------------------------------------
 -------------------------------------------------------
 OpenMP BLAS3 based DFT computing Module                
 Release: version 1.0, May 2013, Q-Chem Inc. Pittsburgh 
 -------------------------------------------------------
 ---------------------------------------
  Cycle       Energy         DIIS Error
 ---------------------------------------
    1    -286.9250998527      8.03E-05
    2    -286.9243471170      1.40E-05
    3    -286.9243460844      2.72E-05
    4    -286.9243476944      2.90E-06
    5    -286.9243477126      1.30E-06
    6    -286.9243477191      6.28E-07
    7    -286.9243477209      2.33E-07
    8    -286.9243477214      1.46E-07
    9    -286.9243477216      4.41E-08
   10    -286.9243477216      1.51E-08
   11    -286.9243477216      5.26E-09 Convergence criterion met
 ---------------------------------------
 <S^2> = 0.7683
 SCF time:  CPU 27.52 s  wall 10.60 s
 SCF   energy in the final basis set = -286.92434772
 Total energy in the final basis set = -286.92434772
 
 --------------------------------------------------------------
 
                    Orbital Energies (a.u.)
 --------------------------------------------------------------
 
 Alpha MOs
 -- Occupied --
-14.322 -10.232 -10.232 -10.212 -10.211 -10.201 -10.200  -0.922
 -0.818  -0.784  -0.693  -0.667  -0.551  -0.537  -0.518  -0.449
 -0.439  -0.414  -0.394  -0.386  -0.349  -0.322  -0.299  -0.251
 -0.162
 -- Virtual --
 -0.072   0.076   0.097   0.101   0.117   0.142   0.181   0.184
  0.193   0.213   0.266   0.320   0.357   0.390   0.412   0.483
  0.496   0.521   0.547   0.576   0.584   0.587   0.591   0.610
  0.619   0.624   0.646   0.658   0.713   0.718   0.833   0.840
  0.847   0.854   0.868   0.872   0.885   0.922   0.965   0.975
  1.024   1.027   1.043   1.127   1.177   1.185   1.300   1.303
  1.326   1.402   1.429   1.480   1.482   1.546   1.574   1.586
  1.682   1.732   1.769   1.829   1.850   1.919   1.925   2.030
  2.046   2.048   2.100   2.141   2.142   2.191   2.247   2.391
  2.410   2.415   2.446   2.545   2.577   2.601   2.614   2.739
  2.748   2.807   3.052   3.249   3.251   4.018   4.046   4.102
  4.196   4.239   4.532   4.595
 
 Beta MOs
 -- Occupied --
-14.314 -10.233 -10.233 -10.210 -10.210 -10.196 -10.196  -0.911
 -0.809  -0.777  -0.681  -0.665  -0.546  -0.535  -0.514  -0.447
 -0.438  -0.411  -0.383  -0.373  -0.348  -0.295  -0.276  -0.242
 -- Virtual --
 -0.078  -0.070   0.078   0.118   0.124   0.125   0.142   0.182
  0.187   0.196   0.219   0.268   0.324   0.360   0.393   0.415
  0.486   0.504   0.525   0.551   0.587   0.588   0.592   0.596
  0.614   0.624   0.629   0.649   0.676   0.716   0.729   0.834
  0.843   0.846   0.869   0.875   0.880   0.887   0.925   0.967
  0.979   1.026   1.030   1.045   1.133   1.180   1.189   1.311
  1.315   1.333   1.411   1.429   1.489   1.492   1.560   1.582
  1.597   1.685   1.737   1.781   1.831   1.854   1.922   1.933
  2.036   2.058   2.061   2.110   2.142   2.147   2.203   2.259
  2.399   2.422   2.426   2.448   2.558   2.579   2.611   2.624
  2.742   2.761   2.810   3.054   3.252   3.254   4.030   4.053
  4.109   4.200   4.239   4.537   4.601
 --------------------------------------------------------------
 
          Ground-State Mulliken Net Atomic Charges

     Atom                 Charge (a.u.)    Spin (a.u.)
  --------------------------------------------------------
      1 C                     0.036006      -0.113704
      2 C                    -0.132001       0.348778
      3 C                    -0.110964       0.091420
      4 C                    -0.111556       0.096134
      5 C                     0.035255      -0.111413
      6 N                    -0.423415       0.386982
      7 H                     0.142521       0.003457
      8 H                     0.134422      -0.018419
      9 H                     0.141976      -0.006524
     10 H                     0.141905      -0.006751
     11 H                     0.142675       0.003345
     12 C                    -0.131185       0.344931
     13 H                     0.134360      -0.018237
  --------------------------------------------------------
  Sum of atomic charges =    -0.000000
  Sum of spin   charges =     1.000000

 -----------------------------------------------------------------
                    Cartesian Multipole Moments
 -----------------------------------------------------------------
    Charge (ESU x 10^10)
                -0.0000
    Dipole Moment (Debye)
         X      -1.2911      Y      -1.8329      Z      -0.1034
       Tot       2.2444
    Quadrupole Moments (Debye-Ang)
        XX     -37.4000     XY      -3.3677     YY     -40.0793
        XZ      -2.1235     YZ       1.5404     ZZ     -42.5213
    Octopole Moments (Debye-Ang^2)
       XXX     -12.4229    XXY     -10.9400    XYY     -13.1127
       YYY     -25.4517    XXZ      -1.1233    XYZ      -0.7655
       YYZ      -0.3928    XZZ      -3.4531    YZZ      -4.7716
       ZZZ      -0.7958
    Hexadecapole Moments (Debye-Ang^3)
      XXXX    -361.3679   XXXY     -14.8500   XXYY    -136.6341
      XYYY     -29.9752   YYYY    -386.0327   XXXZ      26.3053
      XXYZ     -11.0242   XYYZ       8.2990   YYYZ     -26.7378
      XXZZ     -80.0931   XYZZ      -4.9406   YYZZ     -80.1090
      XZZZ      40.8644   YZZZ     -39.2171   ZZZZ     -80.7444
 -----------------------------------------------------------------
 Calculating analytic gradient of the SCF energy
 Gradient of SCF Energy
            1           2           3           4           5           6
    1  -0.0000754  -0.0000604   0.0000474   0.0000232  -0.0001678   0.0001141
    2  -0.0000515  -0.0001696   0.0000347   0.0000317  -0.0000480   0.0001433
    3  -0.0000211   0.0000171   0.0000022  -0.0000206   0.0000469  -0.0001147
            7           8           9          10          11          12
    1   0.0000090   0.0000161  -0.0000280  -0.0000004   0.0000527   0.0000851
    2   0.0000049   0.0000505  -0.0000089   0.0000142  -0.0000262   0.0000243
    3   0.0000454   0.0000388  -0.0000170  -0.0000232   0.0000429  -0.0000085
           13
    1  -0.0000157
    2   0.0000007
    3   0.0000119
 Max gradient component =       1.696E-04
 RMS gradient           =       6.165E-05
 Gradient time:  CPU 7.59 s  wall 2.00 s
 Geometry Optimization Parameters
   NAtoms,    NIC,     NZ,  NCons,   NDum,   NFix, NCnnct, MaxDiis
       13      82       0       0       0       0       0       0

 Cartesian Hessian Update
 Hessian Updated using BFGS Update


** GEOMETRY OPTIMIZATION IN DELOCALIZED INTERNAL COORDINATES **
   Searching for a Minimum

   Optimization Cycle:   2

                       Coordinates (Angstroms)
     ATOM                X               Y               Z
      1  C         1.6276639315    0.3392271855   -0.3027601267
      2  C         1.1393237710   -0.9428352096   -0.4738965665
      3  C        -0.2056741721   -1.4171572286   -0.2711846395
      4  C        -1.2783094952   -0.6848475977    0.1421864018
      5  C        -0.2471559984    1.6191039934    0.4195377458
      6  N         1.0602970564    1.5047078549    0.0861278080
      7  H         2.6912210000    0.4564990081   -0.5222194936
      8  H         1.8652133641   -1.6818652093   -0.8043903605
      9  H        -0.3710696079   -2.4737481844   -0.4722864989
     10  H        -2.2282300129   -1.2058790824    0.2435343208
     11  H        -0.5060666194    2.6396143676    0.7102013760
     12  C        -1.2952218083    0.7195564842    0.4640634259
     13  H        -2.2519914088    1.1276236189    0.7810866077
   Point Group: c1    Number of degrees of freedom:    33


   Energy is   -286.924347722

 Hessian Updated using BFGS Update

 28 Hessian modes will be used to form the next step
  Hessian Eigenvalues:
     0.014548    0.019911    0.020757    0.021069    0.021871    0.022655
     0.023394    0.023713    0.025080    0.026906    0.151172    0.162673
     0.212220    0.222516    0.234559    0.345546    0.346706    0.349998
     0.350352    0.351260    0.359239    0.386112    0.394176    0.465140
     0.486928    0.503944    0.531645    0.539626

 Minimum Search - Taking Simple RFO Step
 Searching for Lamda that Minimizes Along All modes
 Value Taken    Lamda =  -0.00000149
 Step Taken.  Stepsize is  0.009096

                             Maximum     Tolerance    Cnvgd?
         Gradient           0.000100      0.000600     YES
         Displacement       0.006881      0.002400      NO
         Energy change     -0.000004      0.000002      NO


 New Cartesian Coordinates Obtained by Inverse Iteration

 Displacement from previous Coordinates is:  0.009677
 ----------------------------------------------------------------
             Standard Nuclear Orientation (Angstroms)
    I     Atom           X                Y                Z
 ----------------------------------------------------------------
    1      C       1.6282024676     0.3391485899    -0.3018253504
    2      C       1.1392054177    -0.9423347504    -0.4745887587
    3      C      -0.2056161073    -1.4170300364    -0.2710164278
    4      C      -1.2783046124    -0.6850616552     0.1428788334
    5      C      -0.2470006477     1.6188856289     0.4198220256
    6      N       1.0608099922     1.5038933086     0.0886918167
    7      H       2.6915892333     0.4565744353    -0.5220611442
    8      H       1.8640443016    -1.6816189085    -0.8068064342
    9      H      -0.3705711301    -2.4736967268    -0.4718858104
   10      H      -2.2280015850    -1.2064428943     0.2449535067
   11      H      -0.5064907913     2.6397490057     0.7086155453
   12      C      -1.2954761747     0.7196520702     0.4636563522
   13      H      -2.2523903640     1.1282819335     0.7795658460
 ----------------------------------------------------------------
 Nuclear Repulsion Energy =   260.7297558311 hartrees
 There are       25 alpha and       24 beta electrons
 Applying Cartesian multipole field
    Component          Value
    ---------          -----
     (2,0,0)        1.00000E-11
     (0,2,0)        2.00000E-11
     (0,0,2)       -3.00000E-10
 Nucleus-field energy     =     0.0000000002 hartrees
 Requested basis set is 6-31G(d)
 There are 40 shells and 117 basis functions
 A cutoff of  1.0D-14 yielded    791 shell pairs
 There are      7063 function pairs
 Smallest overlap matrix eigenvalue = 1.33E-03
 Guess MOs from SCF MO coefficient file
 Reading MOs from coefficient file
 Reading MOs from coefficient file
 An unrestricted hybrid HF-DFT SCF calculation will be
 performed using Pulay DIIS extrapolation
 Exchange:     0.2000 Hartree-Fock + 0.0800 Slater + 0.7200 B88
 Correlation:  0.1900 VWN1RPA + 0.8100 LYP
 Using SG-1 standard quadrature grid
 SCF converges when DIIS error is below 1.0E-08
 Geometry optimization detected.  Setting ReadMinima to 0
 Setting SaveMinima to 0
Using Q-Chem read-in guess as SCF_GUESS READ specified.

 using 4 threads for integral computing
 -------------------------------------------------------
 OpenMP Integral computing Module                
 Release: version 1.0, May 2013, Q-Chem Inc. Pittsburgh 
 -------------------------------------------------------
 -------------------------------------------------------
 OpenMP BLAS3 based DFT computing Module                
 Release: version 1.0, May 2013, Q-Chem Inc. Pittsburgh 
 -------------------------------------------------------
 ---------------------------------------
  Cycle       Energy         DIIS Error
 ---------------------------------------
    1    -286.9244756918      6.46E-05
    2    -286.9243484217      7.77E-06
    3    -286.9243482379      1.35E-05
    4    -286.9243486168      2.15E-06
    5    -286.9243486259      8.75E-07
    6    -286.9243486279      4.58E-07
    7    -286.9243486287      8.26E-08
    8    -286.9243486289      8.33E-08
    9    -286.9243486290      3.71E-08
   10    -286.9243486291      3.47E-08
   11    -286.9243486292      2.13E-08
   12    -286.9243486292      1.08E-08
   13    -286.9243486292      5.95E-09 Convergence criterion met
 ---------------------------------------
 <S^2> = 0.7684
 SCF time:  CPU 31.95 s  wall 10.25 s
 SCF   energy in the final basis set = -286.92434863
 Total energy in the final basis set = -286.92434863
 
 --------------------------------------------------------------
 
                    Orbital Energies (a.u.)
 --------------------------------------------------------------
 
 Alpha MOs
 -- Occupied --
-14.322 -10.232 -10.232 -10.212 -10.211 -10.201 -10.200  -0.922
 -0.818  -0.784  -0.693  -0.667  -0.551  -0.537  -0.518  -0.449
 -0.439  -0.414  -0.394  -0.386  -0.349  -0.322  -0.299  -0.251
 -0.162
 -- Virtual --
 -0.072   0.077   0.097   0.101   0.117   0.142   0.181   0.184
  0.193   0.213   0.266   0.320   0.356   0.390   0.412   0.483
  0.496   0.521   0.547   0.576   0.584   0.587   0.591   0.610
  0.619   0.624   0.646   0.658   0.714   0.718   0.833   0.840
  0.847   0.854   0.868   0.872   0.885   0.922   0.965   0.975
  1.024   1.027   1.043   1.127   1.177   1.185   1.300   1.303
  1.326   1.401   1.429   1.480   1.482   1.546   1.574   1.586
  1.682   1.732   1.769   1.829   1.850   1.919   1.925   2.030
  2.046   2.048   2.100   2.141   2.142   2.191   2.247   2.391
  2.410   2.415   2.446   2.546   2.577   2.601   2.614   2.739
  2.749   2.807   3.052   3.250   3.250   4.018   4.046   4.102
  4.196   4.239   4.532   4.595
 
 Beta MOs
 -- Occupied --
-14.314 -10.233 -10.233 -10.210 -10.210 -10.196 -10.196  -0.911
 -0.809  -0.777  -0.681  -0.665  -0.546  -0.535  -0.514  -0.447
 -0.438  -0.411  -0.383  -0.373  -0.348  -0.295  -0.276  -0.241
 -- Virtual --
 -0.078  -0.070   0.078   0.118   0.124   0.125   0.142   0.182
  0.187   0.196   0.219   0.268   0.324   0.360   0.393   0.415
  0.486   0.504   0.525   0.551   0.587   0.588   0.592   0.596
  0.614   0.624   0.629   0.649   0.676   0.716   0.729   0.834
  0.843   0.846   0.869   0.875   0.880   0.887   0.925   0.967
  0.979   1.026   1.030   1.045   1.133   1.180   1.189   1.311
  1.315   1.333   1.411   1.429   1.489   1.492   1.560   1.582
  1.597   1.685   1.737   1.781   1.831   1.854   1.922   1.933
  2.036   2.058   2.061   2.110   2.142   2.147   2.203   2.259
  2.399   2.422   2.426   2.448   2.558   2.579   2.611   2.624
  2.743   2.761   2.810   3.054   3.253   3.254   4.030   4.053
  4.109   4.200   4.239   4.537   4.601
 --------------------------------------------------------------
 
          Ground-State Mulliken Net Atomic Charges

     Atom                 Charge (a.u.)    Spin (a.u.)
  --------------------------------------------------------
      1 C                     0.036034      -0.113579
      2 C                    -0.132001       0.348644
      3 C                    -0.111011       0.091648
      4 C                    -0.111526       0.095897
      5 C                     0.035313      -0.111590
      6 N                    -0.423389       0.386842
      7 H                     0.142553       0.003449
      8 H                     0.134370      -0.018411
      9 H                     0.141972      -0.006535
     10 H                     0.141910      -0.006740
     11 H                     0.142660       0.003352
     12 C                    -0.131242       0.345278
     13 H                     0.134357      -0.018255
  --------------------------------------------------------
  Sum of atomic charges =    -0.000000
  Sum of spin   charges =     1.000000

 -----------------------------------------------------------------
                    Cartesian Multipole Moments
 -----------------------------------------------------------------
    Charge (ESU x 10^10)
                 0.0000
    Dipole Moment (Debye)
         X      -1.2916      Y      -1.8316      Z      -0.1081
       Tot       2.2438
    Quadrupole Moments (Debye-Ang)
        XX     -37.4025     XY      -3.3668     YY     -40.0741
        XZ      -2.1307     YZ       1.5300     ZZ     -42.5222
    Octopole Moments (Debye-Ang^2)
       XXX     -12.4399    XXY     -10.9279    XYY     -13.1194
       YYY     -25.4275    XXZ      -1.1503    XYZ      -0.7707
       YYZ      -0.4349    XZZ      -3.4519    YZZ      -4.7786
       ZZZ      -0.8508
    Hexadecapole Moments (Debye-Ang^3)
      XXXX    -361.4681   XXXY     -14.8493   XXYY    -136.6287
      XYYY     -29.9781   YYYY    -385.8708   XXXZ      26.2471
      XXYZ     -11.0664   XYYZ       8.2529   YYYZ     -26.8465
      XXZZ     -80.1122   XYZZ      -4.9481   YYZZ     -80.0987
      XZZZ      40.8220   YZZZ     -39.2756   ZZZZ     -80.7590
 -----------------------------------------------------------------
 Calculating analytic gradient of the SCF energy
 Gradient of SCF Energy
            1           2           3           4           5           6
    1  -0.0000215  -0.0000177   0.0000516   0.0000212  -0.0000406   0.0000464
    2   0.0000441   0.0000119  -0.0000444   0.0000116  -0.0000017  -0.0000608
    3   0.0000461   0.0000487  -0.0000404  -0.0000160   0.0000628  -0.0000748
            7           8           9          10          11          12
    1   0.0000069  -0.0000572  -0.0000086  -0.0000192   0.0000151   0.0000385
    2   0.0000054  -0.0000010   0.0000099  -0.0000070  -0.0000451   0.0000535
    3  -0.0000130   0.0000330  -0.0000164  -0.0000158  -0.0000215  -0.0000266
           13
    1  -0.0000149
    2   0.0000236
    3   0.0000340
 Max gradient component =       7.475E-05
 RMS gradient           =       3.468E-05
 Gradient time:  CPU 7.94 s  wall 2.27 s
 Geometry Optimization Parameters
   NAtoms,    NIC,     NZ,  NCons,   NDum,   NFix, NCnnct, MaxDiis
       13      82       0       0       0       0       0       0

 Cartesian Hessian Update
 Hessian Updated using BFGS Update


** GEOMETRY OPTIMIZATION IN DELOCALIZED INTERNAL COORDINATES **
   Searching for a Minimum

   Optimization Cycle:   3

                       Coordinates (Angstroms)
     ATOM                X               Y               Z
      1  C         1.6282024676    0.3391485899   -0.3018253504
      2  C         1.1392054177   -0.9423347504   -0.4745887587
      3  C        -0.2056161073   -1.4170300364   -0.2710164278
      4  C        -1.2783046124   -0.6850616552    0.1428788334
      5  C        -0.2470006477    1.6188856289    0.4198220256
      6  N         1.0608099922    1.5038933086    0.0886918167
      7  H         2.6915892333    0.4565744353   -0.5220611442
      8  H         1.8640443016   -1.6816189085   -0.8068064342
      9  H        -0.3705711301   -2.4736967268   -0.4718858104
     10  H        -2.2280015850   -1.2064428943    0.2449535067
     11  H        -0.5064907913    2.6397490057    0.7086155453
     12  C        -1.2954761747    0.7196520702    0.4636563522
     13  H        -2.2523903640    1.1282819335    0.7795658460
   Point Group: c1    Number of degrees of freedom:    33


   Energy is   -286.924348629

 Hessian Updated using BFGS Update

 31 Hessian modes will be used to form the next step
  Hessian Eigenvalues:
     0.008371    0.019913    0.020880    0.021092    0.021911    0.022646
     0.023640    0.023824    0.025259    0.030707    0.159636    0.159999
     0.160761    0.165502    0.218969    0.220379    0.225668    0.233324
     0.345585    0.346836    0.350235    0.350695    0.351251    0.358982
     0.388967    0.390162    0.463532    0.487213    0.507382    0.531433
     0.549781

 Minimum Search - Taking Simple RFO Step
 Searching for Lamda that Minimizes Along All modes
 Value Taken    Lamda =   0.00000000
 Step Taken.  Stepsize is  0.007040

                             Maximum     Tolerance    Cnvgd?
         Gradient           0.000072      0.000600     YES
         Displacement       0.005937      0.002400      NO
         Energy change     -0.000001      0.000002     YES


                       Distance Matrix (Angstroms)
             C (  1)   C (  2)   C (  3)   C (  4)   C (  5)   N (  6)
   C (  2)  1.382449
   C (  3)  2.539292  1.440598
   C (  4)  3.113608  2.508348  1.362992
   C (  5)  2.382202  3.046537  3.113801  2.539382
   N (  6)  1.353170  2.511466  3.203907  3.204047  1.353972
   H (  7)  1.092284  2.090238  3.459366  4.183962  3.297487  2.032077
   H (  8)  2.096218  1.087337  2.154199  3.430654  4.105418  3.405083
   H (  9)  3.454868  2.150466  1.088165  2.097887  4.190423  4.264308
   H ( 10)  4.190242  3.453343  2.097764  1.088201  3.455058  4.264578
   H ( 11)  3.297070  4.115776  4.184216  3.459786  1.092199  2.032463
   C ( 12)  3.046086  3.093571  2.508575  1.440977  1.381971  2.511517
   H ( 13)  4.105014  4.166927  3.430980  2.154630  2.095637  3.405244
             H (  7)   H (  8)   H (  9)   H ( 10)   H ( 11)   C ( 12)
   H (  8)  2.310364
   H (  9)  4.238612  2.394382
   H ( 10)  5.249411  4.251686  2.360051
   H ( 11)  4.063069  5.156565  5.249703  4.239313
   C ( 12)  4.115524  4.166863  3.453718  2.151111  2.090281
   H ( 13)  5.156390  5.230407  4.252249  2.395276  2.310353  1.087411

 
 Final energy is   -286.924348629217     


 ******************************
 **  OPTIMIZATION CONVERGED  **
 ******************************

                       Coordinates (Angstroms)
     ATOM                X               Y               Z
      1  C         1.6282024676    0.3391485899   -0.3018253504
      2  C         1.1392054177   -0.9423347504   -0.4745887587
      3  C        -0.2056161073   -1.4170300364   -0.2710164278
      4  C        -1.2783046124   -0.6850616552    0.1428788334
      5  C        -0.2470006477    1.6188856289    0.4198220256
      6  N         1.0608099922    1.5038933086    0.0886918167
      7  H         2.6915892333    0.4565744353   -0.5220611442
      8  H         1.8640443016   -1.6816189085   -0.8068064342
      9  H        -0.3705711301   -2.4736967268   -0.4718858104
     10  H        -2.2280015850   -1.2064428943    0.2449535067
     11  H        -0.5064907913    2.6397490057    0.7086155453
     12  C        -1.2954761747    0.7196520702    0.4636563522
     13  H        -2.2523903640    1.1282819335    0.7795658460

Z-matrix Print:
$molecule
0 2
N 
C  1 1.353170
H  2 1.092284 1 111.954303
C  1 1.353972 2 123.277429 3 -179.876002 0
H  4 1.092199 1 111.933698 2 179.886969 0
C  4 1.381971 1 133.259994 2 -0.114236 0
H  6 1.087411 4 115.615630 1 179.939731 0
C  2 1.382449 1 133.285807 3 -179.945042 0
H  8 1.087337 2 115.634894 1 179.989391 0
C  8 1.440598 2 128.169437 1 0.046339 0
H  10 1.088165 8 115.810817 2 179.797666 0
C  10 1.362992 8 126.915728 2 -0.217678 0
H  12 1.088201 10 117.259542 8 -179.973347 0
$end

 
 --------------------------------------------------------------
 
                    Orbital Energies (a.u.)
 --------------------------------------------------------------
 
 Alpha MOs
 -- Occupied --
-14.322 -10.232 -10.232 -10.212 -10.211 -10.201 -10.200  -0.922
 -0.818  -0.784  -0.693  -0.667  -0.551  -0.537  -0.518  -0.449
 -0.439  -0.414  -0.394  -0.386  -0.349  -0.322  -0.299  -0.251
 -0.162
 -- Virtual --
 -0.072   0.077   0.097   0.101   0.117   0.142   0.181   0.184
  0.193   0.213   0.266   0.320   0.356   0.390   0.412   0.483
  0.496   0.521   0.547   0.576   0.584   0.587   0.591   0.610
  0.619   0.624   0.646   0.658   0.714   0.718   0.833   0.840
  0.847   0.854   0.868   0.872   0.885   0.922   0.965   0.975
  1.024   1.027   1.043   1.127   1.177   1.185   1.300   1.303
  1.326   1.401   1.429   1.480   1.482   1.546   1.574   1.586
  1.682   1.732   1.769   1.829   1.850   1.919   1.925   2.030
  2.046   2.048   2.100   2.141   2.142   2.191   2.247   2.391
  2.410   2.415   2.446   2.546   2.577   2.601   2.614   2.739
  2.749   2.807   3.052   3.250   3.250   4.018   4.046   4.102
  4.196   4.239   4.532   4.595
 
 Beta MOs
 -- Occupied --
-14.314 -10.233 -10.233 -10.210 -10.210 -10.196 -10.196  -0.911
 -0.809  -0.777  -0.681  -0.665  -0.546  -0.535  -0.514  -0.447
 -0.438  -0.411  -0.383  -0.373  -0.348  -0.295  -0.276  -0.241
 -- Virtual --
 -0.078  -0.070   0.078   0.118   0.124   0.125   0.142   0.182
  0.187   0.196   0.219   0.268   0.324   0.360   0.393   0.415
  0.486   0.504   0.525   0.551   0.587   0.588   0.592   0.596
  0.614   0.624   0.629   0.649   0.676   0.716   0.729   0.834
  0.843   0.846   0.869   0.875   0.880   0.887   0.925   0.967
  0.979   1.026   1.030   1.045   1.133   1.180   1.189   1.311
  1.315   1.333   1.411   1.429   1.489   1.492   1.560   1.582
  1.597   1.685   1.737   1.781   1.831   1.854   1.922   1.933
  2.036   2.058   2.061   2.110   2.142   2.147   2.203   2.259
  2.399   2.422   2.426   2.448   2.558   2.579   2.611   2.624
  2.743   2.761   2.810   3.054   3.253   3.254   4.030   4.053
  4.109   4.200   4.239   4.537   4.601
 --------------------------------------------------------------
 
          Ground-State Mulliken Net Atomic Charges

     Atom                 Charge (a.u.)    Spin (a.u.)
  --------------------------------------------------------
      1 C                     0.036034      -0.113579
      2 C                    -0.132001       0.348644
      3 C                    -0.111011       0.091648
      4 C                    -0.111526       0.095897
      5 C                     0.035313      -0.111590
      6 N                    -0.423389       0.386842
      7 H                     0.142553       0.003449
      8 H                     0.134370      -0.018411
      9 H                     0.141972      -0.006535
     10 H                     0.141910      -0.006740
     11 H                     0.142660       0.003352
     12 C                    -0.131242       0.345278
     13 H                     0.134357      -0.018255
  --------------------------------------------------------
  Sum of atomic charges =    -0.000000
  Sum of spin   charges =     1.000000

 -----------------------------------------------------------------
                    Cartesian Multipole Moments
 -----------------------------------------------------------------
    Charge (ESU x 10^10)
                 0.0000
    Dipole Moment (Debye)
         X      -1.2916      Y      -1.8316      Z      -0.1081
       Tot       2.2438
    Quadrupole Moments (Debye-Ang)
        XX     -37.4025     XY      -3.3668     YY     -40.0741
        XZ      -2.1307     YZ       1.5300     ZZ     -42.5222
    Octopole Moments (Debye-Ang^2)
       XXX     -12.4399    XXY     -10.9279    XYY     -13.1194
       YYY     -25.4275    XXZ      -1.1503    XYZ      -0.7707
       YYZ      -0.4349    XZZ      -3.4519    YZZ      -4.7786
       ZZZ      -0.8508
    Hexadecapole Moments (Debye-Ang^3)
      XXXX    -361.4681   XXXY     -14.8493   XXYY    -136.6287
      XYYY     -29.9781   YYYY    -385.8708   XXXZ      26.2471
      XXYZ     -11.0664   XYYZ       8.2529   YYYZ     -26.8465
      XXZZ     -80.1122   XYZZ      -4.9481   YYZZ     -80.0987
      XZZZ      40.8220   YZZZ     -39.2756   ZZZZ     -80.7590
 -----------------------------------------------------------------
Archival summary:
1\1\c8-89\OPT\ProcedureUnspecified\6-31G*\166(2)\hpark21\WedMar217:09:462022WedMar217:09:462022\0\\#,OPT,ProcedureUnspecified,6-31G*,\\0,2\N\C,1,1.35317\H,2,1.09228,1,111.954\C,1,1.35397,2,123.277,3,-179.876,0\H,4,1.0922,1,111.934,2,179.887,0\C,4,1.38197,1,133.26,2,-0.114236,0\H,6,1.08741,4,115.616,1,179.94,0\C,2,1.38245,1,133.286,3,-179.945,0\H,8,1.08734,2,115.635,1,179.989,0\C,8,1.4406,2,128.169,1,0.0463389,0\H,10,1.08817,8,115.811,2,179.798,0\C,10,1.36299,8,126.916,2,-0.217678,0\H,12,1.0882,10,117.26,8,-179.973,0\\\@

 Total job time:  38.15s(wall), 91.75s(cpu) 
 Wed Mar  2 17:09:46 2022

        *************************************************************
        *                                                           *
        *  Thank you very much for using Q-Chem.  Have a nice day.  *
        *                                                           *
        *************************************************************


