13   
From optimize.out: Frame 1 / 3, Energy=    -286.9243436157
C        0.0360000000   -0.1137960000   -0.0000000000
C       -0.1320060000    0.3487350000   -0.0000000000
C       -0.1110170000    0.0915860000   -0.0000000000
C       -0.1115160000    0.0959030000    0.0000000000
C        0.0351870000   -0.1113740000    0.0000000000
N       -0.4235390000    0.3873740000    0.0000000000
H        0.1424860000    0.0034630000   -0.0000000000
H        0.1345510000   -0.0184260000   -0.0000000000
H        0.1419350000   -0.0065320000   -0.0000000000
H        0.1419600000   -0.0067360000    0.0000000000
H        0.1427180000    0.0033440000    0.0000000000
C       -0.1310960000    0.3446780000    0.0000000000
H        0.1343370000   -0.0182200000    0.0000000000
13   
From optimize.out: Frame 2 / 3, Energy=    -286.9243477216
C        0.0360060000   -0.1137040000   -0.0000000000
C       -0.1320010000    0.3487780000   -0.0000000000
C       -0.1109640000    0.0914200000   -0.0000000000
C       -0.1115560000    0.0961340000    0.0000000000
C        0.0352550000   -0.1114130000    0.0000000000
N       -0.4234150000    0.3869820000    0.0000000000
H        0.1425210000    0.0034570000   -0.0000000000
H        0.1344220000   -0.0184190000   -0.0000000000
H        0.1419760000   -0.0065240000   -0.0000000000
H        0.1419050000   -0.0067510000    0.0000000000
H        0.1426750000    0.0033450000    0.0000000000
C       -0.1311850000    0.3449310000    0.0000000000
H        0.1343600000   -0.0182370000    0.0000000000
