13   
From optimize.out: Frame 1 / 2, Energy=    -286.9514648084
C        0.0305690000    0.2702340000   -0.0000000000
C       -0.1344150000   -0.1348530000   -0.0000000000
C       -0.1568000000    0.2473780000   -0.0000000000
C        0.2090670000   -0.2006440000    0.0000000000
C       -0.0084930000    0.2423490000    0.0000000000
N       -0.4021460000   -0.1103890000    0.0000000000
H        0.1434330000   -0.0141340000   -0.0000000000
H        0.1386970000    0.0053210000   -0.0000000000
H        0.1399180000   -0.0114770000   -0.0000000000
H        0.1520370000   -0.0383530000    0.0000000000
H        0.1401790000   -0.0120670000    0.0000000000
C       -0.4073240000    0.7948270000    0.0000000000
H        0.1552780000   -0.0381910000    0.0000000000
