
Running Job 1 of 1 qcfsm.in
qchem qcfsm.in_1861.0 ./qcfsm.d/ 1
/home/leeping/opt/qchem/5.0.2-openmp/exe/qcprog.exe_s qcfsm.in_1861.0 ./qcfsm.d/
Check license passed

                  Welcome to Q-Chem
     A Quantum Leap Into The Future Of Chemistry


 Q-Chem 5.0, Q-Chem, Inc., Pleasanton, CA (2017)

 Yihan Shao,  Zhengting Gan,  E. Epifanovsky,  A. T. B. Gilbert,  M. Wormit,  
 J. Kussmann,  A. W. Lange,  A. Behn,  Jia Deng,  Xintian Feng,  D. Ghosh,  
 M. Goldey,  P. R. Horn,  L. D. Jacobson,  I. Kaliman,  T. Kus,  A. Landau,  
 Jie Liu,  E. I. Proynov,  R. M. Richard,  R. P. Steele,  E. J. Sundstrom,  
 H. L. Woodcock III,  P. M. Zimmerman,  D. Zuev,  B. Albrecht,  E. Alguire,  
 S. A. Baeppler,  D. Barton,  Z. Benda,  Y. A. Bernard,  E. J. Berquist,  
 K. B. Bravaya,  H. Burton,  D. Casanova,  Chun-Min Chang,  Yunqing Chen,  
 A. Chien,  K. D. Closser,  M. P. Coons,  S. Dasgupta,  A. L. Dempwolff,  
 M. Diedenhofen,  Hainam Do,  R. G. Edgar,  Po-Tung Fang,  S. Fatehi,  
 Qingguo Feng,  J. Fosso-Tande,  Qinghui Ge,  A. Ghysels,  G. Gidofalvi,  
 J. Gomes,  J. Gonthier,  A. Gunina,  M. W. D. Hanson-Heine,  
 P. H. P. Harbach,  A. W. Hauser,  J. E. Herr,  E. G. Hohenstein,  
 Z. C. Holden,  Kerwin Hui,  T.-C. Jagau,  Hyunjun Ji,  B. Kaduk,  
 K. Khistyaev,  Jaehoon Kim,  P. Klunzinger,  K. Koh,  D. Kosenkov,  
 L. Koulias,  T. Kowalczyk,  C. M. Krauter,  A. Kunitsa,  Ka Un Lao,  
 A. Laurent,  K. V. Lawler,  Joonho Lee,  D. Lefrancois,  S. Lehtola,  
 D. S. Levine,  Yi-Pei Li,  You-Sheng Lin,  Fenglai Liu,  E. Livshits,  
 A. Luenser,  P. Manohar,  E. Mansoor,  S. F. Manzer,  Shan-Ping Mao,  
 Yuezhi Mao,  N. Mardirossian,  A. V. Marenich,  T. Markovich,  
 L. A. Martinez-Martinez,  S. A. Maurer,  N. J. Mayhall,  S. C. McKenzie,  
 J.-M. Mewes,  A. F. Morrison,  J. W. Mullinax,  K. Nanda,  
 T. S. Nguyen-Beck,  R. Olivares-Amaya,  J. A. Parkhill,  T. M. Perrine,  
 F. Plasser,  S. Prager,  A. Prociuk,  E. Ramos,  D. R. Rehn,  F. Rob,  
 M. Schneider,  N. Sergueev,  S. M. Sharada,  S. Sharma,  D. W. Small,  
 T. Stauch,  T. Stein,  Yu-Chuan Su,  A. J. W. Thom,  A. Tkatchenko,  
 T. Tsuchimochi,  L. Vogt,  O. Vydrov,  M. A. Watson,  J. Wenzel,  
 M. de Wergifosse,  T. A. Wesolowski,  A. White,  J. Witte,  A. Yamada,  
 Jun Yang,  K. Yao,  S. Yeganeh,  S. R. Yost,  Zhi-Qiang You,  A. Zech,  
 Igor Ying Zhang,  Xing Zhang,  Yan Zhao,  Ying Zhu,  B. R. Brooks,  
 G. K. L. Chan,  C. J. Cramer,  M. S. Gordon,  W. J. Hehre,  A. Klamt,  
 M. W. Schmidt,  C. D. Sherrill,  D. G. Truhlar,  A. Aspuru-Guzik,  R. Baer,  
 A. T. Bell,  N. A. Besley,  Jeng-Da Chai,  R. A. DiStasio Jr.,  A. Dreuw,  
 B. D. Dunietz,  T. R. Furlani,  Chao-Ping Hsu,  Yousung Jung,  Jing Kong,  
 D. S. Lambrecht,  WanZhen Liang,  C. Ochsenfeld,  V. A. Rassolov,  
 L. V. Slipchenko,  J. E. Subotnik,  T. Van Voorhis,  J. M. Herbert,  
 A. I. Krylov,  P. M. W. Gill,  M. Head-Gordon

 Contributors to earlier versions of Q-Chem not listed above: 
 R. D. Adamson,  B. Austin,  J. Baker,  G. J. O. Beran,  K. Brandhorst,  
 S. T. Brown,  E. F. C. Byrd,  A. K. Chakraborty,  C.-L. Cheng,  
 Siu Hung Chien,  D. M. Chipman,  D. L. Crittenden,  H. Dachsel,  
 R. J. Doerksen,  A. D. Dutoi,  L. Fusti-Molnar,  W. A. Goddard III,  
 A. Golubeva-Zadorozhnaya,  S. R. Gwaltney,  G. Hawkins,  A. Heyden,  
 S. Hirata,  G. Kedziora,  F. J. Keil,  C. Kelley,  Jihan Kim,  R. A. King,  
 R. Z. Khaliullin,  P. P. Korambath,  W. Kurlancheek,  A. M. Lee,  M. S. Lee,  
 S. V. Levchenko,  Ching Yeh Lin,  D. Liotard,  R. C. Lochan,  I. Lotan,  
 P. E. Maslen,  N. Nair,  D. P. O'Neill,  D. Neuhauser,  E. Neuscamman,  
 C. M. Oana,  R. Olson,  B. Peters,  R. Peverati,  P. A. Pieniazek,  
 Y. M. Rhee,  J. Ritchie,  M. A. Rohrdanz,  E. Rosta,  N. J. Russ,  
 H. F. Schaefer III,  N. E. Schultz,  N. Shenvi,  A. C. Simmonett,  A. Sodt,  
 D. Stuck,  K. S. Thanthiriwatte,  V. Vanovschi,  Tao Wang,  A. Warshel,  
 C. F. Williams,  Q. Wu,  X. Xu,  W. Zhang

 Please cite Q-Chem as follows:
 Y. Shao et al., Mol. Phys. 113, 184-215 (2015)
 DOI: 10.1080/00268976.2014.952696

 Q-Chem 5.0.2 for Intel X86 EM64T Linux

 Parts of Q-Chem use Armadillo 5.200.1 (Boston Tea Smuggler).
 http://arma.sourceforge.net/

 Q-Chem begins on Fri Mar  4 12:03:33 2022  

Host: 
0

     Scratch files written to ./qcfsm.d//
 Dec517 15110_ 26548  26544 5633   
Processing $rem in /home/leeping/opt/qchem/5.0.2-openmp/config/preferences.
 MEM_STATIC 2000
 MEM_TOTAL  8000
 SYMMETRY   OFF
 SYM_IGNORE TRUE 
 Now reading second FSM geometry

Checking the input file for inconsistencies... 	...done.

--------------------------------------------------------------
User input:
--------------------------------------------------------------
$molecule
0 2
C        1.2032459294    0.3391973390    0.3346105013
C        0.6649579777   -1.0858932313   -0.1429279517
C       -0.6133864524   -0.9512136048   -0.8278617436
C       -1.0806369947    0.1427653032    0.1297581032
C       -0.5136885281    1.4332116739   -0.4500366488
N        0.7652460932    1.5123490674   -0.3791405000
H        2.2197977028    0.3338952738    0.7145726306
H        1.3728809849   -1.9078290518   -0.1830612541
H       -0.9309221282   -1.1924953842   -1.8395863126
H       -2.1198405083    0.1493128295    0.4658743792
H       -1.1029750191    2.1657020476   -0.9994903586
C        0.0918671170   -0.3235255426    1.0662567220
H        0.0434538265   -0.6154767204    2.1110324324
****
C        0.6989420174    0.0034297681    0.1591628452
C        0.8882504103   -1.1649876204   -0.7908505585
C        0.1779843411   -2.2681388692   -0.7942033658
C       -1.2100029678    1.0968853981    0.8268774752
C       -0.4546652715    1.8523425712   -0.1834419154
N        0.6209957850    1.2691278454   -0.5923431271
H        1.6034670623    0.0770750919    0.7886398945
H        1.6962339632   -1.0188471679   -1.5172037137
H        0.1533738980   -3.1907709279   -1.3602779664
H       -2.1364600187    1.4131728855    1.2928203771
H       -0.7462706190    2.8259806959   -0.5757869040
C       -0.5239274543   -0.0408790471    1.0370675996
H       -0.7679211460   -0.8543906236    1.7095393592
$end

$rem
method                b3lyp
basis                 6-31g(d)
unrestricted          true
symmetry              off
sym_ignore            true
incdft                false
incfock               0
scf_convergence       8
thresh                14
jobtype               fsm
scf_guess             core
scf_guess_mix         5
scf_algorithm         diis
max_scf_cycles        100
fsm_nnode             21
fsm_ngrad             6
fsm_mode              2
fsm_opt_mode          2
$end

--------------------------------------------------------------
 ----------------------------------------------------------------
             Standard Nuclear Orientation (Angstroms)
    I     Atom           X                Y                Z
 ----------------------------------------------------------------
    1      C       1.2032459294     0.3391973390     0.3346105013
    2      C       0.6649579777    -1.0858932313    -0.1429279517
    3      C      -0.6133864524    -0.9512136048    -0.8278617436
    4      C      -1.0806369947     0.1427653032     0.1297581032
    5      C      -0.5136885281     1.4332116739    -0.4500366488
    6      N       0.7652460932     1.5123490674    -0.3791405000
    7      H       2.2197977028     0.3338952738     0.7145726306
    8      H       1.3728809849    -1.9078290518    -0.1830612541
    9      H      -0.9309221282    -1.1924953842    -1.8395863126
   10      H      -2.1198405083     0.1493128295     0.4658743792
   11      H      -1.1029750191     2.1657020476    -0.9994903586
   12      C       0.0918671170    -0.3235255426     1.0662567220
   13      H       0.0434538265    -0.6154767204     2.1110324324
 ----------------------------------------------------------------
 Nuclear Repulsion Energy =   282.1918607040 hartrees
 There are       25 alpha and       24 beta electrons
 Requested basis set is 6-31G(d)
 There are 40 shells and 117 basis functions

 Total QAlloc Memory Limit   8000 MB
 Mega-Array Size      1956 MB
 MEM_STATIC part      2000 MB
 beginning FSman 

*******************************************
*******************************************
******** Starting FSM Calculation *********
*******************************************
*******************************************
-FSM parameters:
 Maximum displacement of each coordinate during optimization (Angstrom)      0.05
 Maximum optimization steps for each new node                                6
 The scaling factor for optimization (hartrees/Angstrom^2)                   1.75
 The number of LST interpolations used for reparameterization                100
-Aligning product structure to maximum coincidence with the reactant structure
 Total R --> P Distance 4.231965
 New node interpolation distace (Angstroms): 0.20
-Performing force calculation on reactant structure in state:0
 ----------------------------------------------------------------
             Standard Nuclear Orientation (Angstroms)
    I     Atom           X                Y                Z
 ----------------------------------------------------------------
    1      C       1.2032459294     0.3391973390     0.3346105013
    2      C       0.6649579777    -1.0858932313    -0.1429279517
    3      C      -0.6133864524    -0.9512136048    -0.8278617436
    4      C      -1.0806369947     0.1427653032     0.1297581032
    5      C      -0.5136885281     1.4332116739    -0.4500366488
    6      N       0.7652460932     1.5123490674    -0.3791405000
    7      H       2.2197977028     0.3338952738     0.7145726306
    8      H       1.3728809849    -1.9078290518    -0.1830612541
    9      H      -0.9309221282    -1.1924953842    -1.8395863126
   10      H      -2.1198405083     0.1493128295     0.4658743792
   11      H      -1.1029750191     2.1657020476    -0.9994903586
   12      C       0.0918671170    -0.3235255426     1.0662567220
   13      H       0.0434538265    -0.6154767204     2.1110324324
 ----------------------------------------------------------------
 Nuclear Repulsion Energy =   282.1918607040 hartrees
 There are       25 alpha and       24 beta electrons

                       Distance Matrix (Angstroms)
             C (  1)   C (  2)   C (  3)   C (  4)   C (  5)   N (  6)
   C (  2)  1.596459
   C (  3)  2.513296  1.456515
   C (  4)  2.301450  2.151990  1.527137
   C (  5)  2.181835  2.798109  2.416232  1.524088
   N (  6)  1.441378  2.610884  2.858517  2.354150  1.283340
   H (  7)  1.085254  2.273463  3.472397  3.357292  3.168084  2.168106
   H (  8)  2.312118  1.085516  2.296985  3.212872  3.846163  3.479265
   H (  9)  3.409969  2.331705  1.087489  2.384041  2.999878  3.510851
   H ( 10)  3.331094  3.106683  2.270312  1.092228  2.251003  3.300855
   H ( 11)  3.230263  3.798968  3.159797  2.316889  1.088899  2.074115
   C ( 12)  1.486496  1.540054  2.116379  1.571376  2.398326  2.431676
   H ( 13)  2.326413  2.384931  3.030059  2.400825  3.326651  3.354041
             H (  7)   H (  8)   H (  9)   H ( 10)   H ( 11)   C ( 12)
   H (  8)  2.558973
   H (  9)  4.333663  2.926309
   H ( 10)  4.350676  4.105125  2.920467
   H ( 11)  4.163454  4.836329  3.465956  2.692050
   C ( 12)  2.254767  2.389939  3.200801  2.340018  3.448364
   H ( 13)  2.754611  2.949647  4.109714  2.823347  4.327194  1.085880

 
 Requested basis set is 6-31G(d)
 There are 40 shells and 117 basis functions
 A cutoff of  1.0D-14 yielded    812 shell pairs
 There are      7084 function pairs
 
 -------------------------------------------------------
 OpenMP Integral Computing Module                       
 Release: version 1.0, May 2013, Q-Chem Inc. Pittsburgh 
 -------------------------------------------------------
 Integral Job Info:
 Integral job number is                      11
 Integral operator is                         1
 short-range coefficients                     0
 long-range coefficients              100000000
 Omega coefficients                           0
 if combine SR and LR in K                    0
 Integral screening is                        0
 Integral computing path is                   2
 max size of driver memory is            800000
 size of driver memory is                593474
 size of scratch memory is              2361544
 max col of scratch BK array               1296
 max len of scratch array in speh3          155
 max len of scratch index in speh4           18
 max int batch size is                      520
 min int batch size is                       52
 fixed nKL is                                52
 max L of basis functions is                  2
 order of int derivative is                   0
 number of shells is                         40
 number of basis is                         117
 number of cartesian basis is               117
 number of contracted shell pairs           812
 number of primitive shell pairs           3615
 maxK2 (contraction) of shell pair           36
 max number of K2 of shell pair               1
 max number of CS2 of shell pair             84
 max number of PS2 of shell pair            426
 mem total for path MDJ                  535308
 -------------------------------------------------------
 Smallest overlap matrix eigenvalue = 1.65E-03

 Scale SEOQF with 1.000000e-01/1.000000e-01/1.000000e-01

 Standard Electronic Orientation quadrupole field applied
 Nucleus-field energy     =     0.0000000026 hartrees
 Guess MOs from core Hamiltonian diagonalization
 Mixing HOMO and LUMO in initial guess
 Adding  50% of the LUMO to the HOMO
 An unrestricted hybrid HF-DFT SCF calculation will be
 performed using Pulay DIIS extrapolation
 Exchange:     0.2000 Hartree-Fock + 0.0800 Slater + 0.7200 B88
 Correlation:  0.1900 VWN1RPA + 0.8100 LYP
 Using SG-1 standard quadrature grid
 SCF converges when DIIS error is below 1.0E-08
 using 4 threads for integral computing
 -------------------------------------------------------
 OpenMP Integral computing Module                
 Release: version 1.0, May 2013, Q-Chem Inc. Pittsburgh 
 -------------------------------------------------------
 -------------------------------------------------------
 OpenMP BLAS3 based DFT computing Module                
 Release: version 1.0, May 2013, Q-Chem Inc. Pittsburgh 
 -------------------------------------------------------
 ---------------------------------------
  Cycle       Energy         DIIS Error
 ---------------------------------------
    1    -236.3081643770      1.34E-01
    2    -225.7160004314      1.11E-01
    3    -256.5561713992      1.01E-01
    4    -276.2112976250      7.33E-02
    5    -282.8009981705      4.30E-02
    6    -286.3561380659      1.58E-02
    7    -286.4866449658      1.32E-02
    8    -286.8101025376      3.91E-03
    9    -286.8275107151      2.47E-03
   10    -286.8380214281      2.92E-04
   11    -286.8382323572      1.43E-04
   12    -286.8382864244      5.13E-05
   13    -286.8383044773      2.54E-05
   14    -286.8383070658      8.02E-06
   15    -286.8383072796      1.46E-06
   16    -286.8383072995      4.03E-07
   17    -286.8383073037      2.29E-07
   18    -286.8383073045      8.50E-08
   19    -286.8383073047      1.71E-08
   20    -286.8383073047      8.09E-09 Convergence criterion met
 ---------------------------------------
 <S^2> = 0.7566
 SCF time:  CPU 47.69 s  wall 12.28 s
 SCF   energy in the final basis set = -286.83830730
 Total energy in the final basis set = -286.83830730
 
 --------------------------------------------------------------
 
                    Orbital Energies (a.u.)
 --------------------------------------------------------------
 
 Alpha MOs
 -- Occupied --
-14.320 -10.224 -10.220 -10.210 -10.209 -10.208 -10.206  -0.968
 -0.856  -0.749  -0.664  -0.606  -0.571  -0.535  -0.516  -0.467
 -0.439  -0.405  -0.400  -0.356  -0.336  -0.298  -0.273  -0.256
 -0.182
 -- Virtual --
  0.004   0.100   0.114   0.128   0.150   0.150   0.153   0.162
  0.177   0.200   0.221   0.262   0.280   0.296   0.348   0.391
  0.494   0.513   0.524   0.543   0.558   0.573   0.601   0.605
  0.605   0.659   0.675   0.678   0.720   0.741   0.770   0.777
  0.805   0.807   0.822   0.842   0.854   0.877   0.889   0.936
  0.954   0.973   1.043   1.096   1.206   1.237   1.327   1.390
  1.446   1.475   1.504   1.517   1.587   1.632   1.672   1.713
  1.743   1.828   1.873   1.881   1.932   1.954   1.987   2.026
  2.060   2.168   2.207   2.218   2.232   2.253   2.363   2.380
  2.456   2.490   2.502   2.542   2.590   2.626   2.664   2.676
  2.718   2.808   2.841   2.914   2.963   3.959   4.194   4.239
  4.362   4.433   4.508   4.640
 
 Beta MOs
 -- Occupied --
-14.319 -10.222 -10.219 -10.211 -10.209 -10.207 -10.193  -0.964
 -0.850  -0.741  -0.652  -0.601  -0.567  -0.528  -0.511  -0.461
 -0.434  -0.403  -0.394  -0.348  -0.332  -0.292  -0.262  -0.250
 -- Virtual --
 -0.062   0.020   0.102   0.118   0.134   0.151   0.156   0.157
  0.165   0.181   0.204   0.227   0.267   0.284   0.298   0.360
  0.394   0.497   0.518   0.532   0.553   0.561   0.578   0.607
  0.610   0.622   0.669   0.679   0.683   0.729   0.745   0.775
  0.787   0.808   0.810   0.824   0.844   0.858   0.882   0.892
  0.940   0.958   0.976   1.047   1.108   1.208   1.243   1.334
  1.392   1.449   1.481   1.514   1.525   1.594   1.640   1.677
  1.716   1.751   1.835   1.878   1.894   1.940   1.970   1.994
  2.035   2.068   2.172   2.222   2.226   2.242   2.270   2.368
  2.390   2.463   2.497   2.510   2.546   2.594   2.633   2.666
  2.684   2.725   2.813   2.846   2.917   2.965   3.961   4.208
  4.245   4.369   4.438   4.511   4.644
 --------------------------------------------------------------
 
          Ground-State Mulliken Net Atomic Charges

     Atom                 Charge (a.u.)    Spin (a.u.)
  --------------------------------------------------------
      1 C                    -0.019172       0.097054
      2 C                    -0.163346      -0.095918
      3 C                    -0.066215       0.888456
      4 C                    -0.258213      -0.065716
      5 C                     0.088771       0.047092
      6 N                    -0.342317       0.039265
      7 H                     0.151435       0.002835
      8 H                     0.147203       0.005290
      9 H                     0.136266      -0.019362
     10 H                     0.142847       0.022704
     11 H                     0.143028       0.001376
     12 C                    -0.108352       0.077703
     13 H                     0.148065      -0.000779
  --------------------------------------------------------
  Sum of atomic charges =    -0.000000
  Sum of spin   charges =     1.000000

 -----------------------------------------------------------------
                    Cartesian Multipole Moments
 -----------------------------------------------------------------
    Charge (ESU x 10^10)
                 0.0000
    Dipole Moment (Debye)
         X      -1.1237      Y      -1.5134      Z       0.8050
       Tot       2.0496
    Quadrupole Moments (Debye-Ang)
        XX     -38.4768     XY      -4.6405     YY     -43.6853
        XZ       2.3452     YZ       0.5155     ZZ     -39.1573
    Octopole Moments (Debye-Ang^2)
       XXX      -6.5634    XXY      -6.7836    XYY      -7.4414
       YYY     -20.4306    XXZ       4.0993    XYZ       2.6631
       YYZ       0.7218    XZZ      -4.9357    YZZ      -7.7483
       ZZZ       6.0444
    Hexadecapole Moments (Debye-Ang^3)
      XXXX    -215.2624   XXXY      -7.7649   XXYY     -89.8066
      XYYY     -24.2304   YYYY    -307.4877   XXXZ     -13.2712
      XXYZ       4.7001   XYYZ       0.1620   YYYZ       9.9139
      XXZZ     -63.2142   XYZZ      -1.6630   YYZZ     -73.3633
      XZZZ     -13.9563   YZZZ       9.4877   ZZZZ    -142.6616
 -----------------------------------------------------------------
 Calculating analytic gradient of the SCF energy
 Gradient of SCF Energy
            1           2           3           4           5           6
    1   0.0000031  -0.0001233   0.0000648  -0.0000163   0.0000216   0.0000270
    2   0.0001427  -0.0000923   0.0000233  -0.0000114  -0.0000332  -0.0000482
    3   0.0000353  -0.0000353   0.0000076  -0.0000274   0.0000077  -0.0000495
            7           8           9          10          11          12
    1  -0.0000018   0.0000219  -0.0000131   0.0000013  -0.0000103   0.0000348
    2   0.0000072   0.0000253  -0.0000481  -0.0000008  -0.0000051   0.0000168
    3  -0.0000083   0.0000229   0.0000246   0.0000007  -0.0000042   0.0000179
           13
    1  -0.0000098
    2   0.0000238
    3   0.0000081
 Max gradient component =       1.427E-04
 RMS gradient           =       4.151E-05
 Gradient time:  CPU 7.96 s  wall 2.02 s
-Performing force calculation on product structure in state0
 ----------------------------------------------------------------
             Standard Nuclear Orientation (Angstroms)
    I     Atom           X                Y                Z
 ----------------------------------------------------------------
    1      C       0.6989521644     0.0033465874     0.1591200509
    2      C       0.8881029352    -1.1649428915    -0.7910820370
    3      C       0.1777434155    -2.2680335856    -0.7945579118
    4      C      -1.2098590153     1.0968624073     0.8271185767
    5      C      -0.4545200601     1.8524087554    -0.1831331868
    6      N       0.6210663595     1.2691650590    -0.5921893813
    7      H       1.6035224284     0.0768201188     0.7885521949
    8      H       1.6960538356    -1.0187607148    -1.5174631170
    9      H       0.1530199138    -3.1905778110    -1.3607707197
   10      H      -2.1362604588     1.4131576193     1.2931667867
   11      H      -0.7460674143     2.8261309372    -0.5753126350
   12      C      -0.5238666557    -0.0409918426     1.0370938606
   13      H      -0.7678874475    -0.8545846396     1.7094575182
 ----------------------------------------------------------------
 Nuclear Repulsion Energy =   259.7580376587 hartrees
 There are       25 alpha and       24 beta electrons

                       Distance Matrix (Angstroms)
             C (  1)   C (  2)   C (  3)   C (  4)   C (  5)   N (  6)
   C (  2)  1.517749
   C (  3)  2.518001  1.312033
   C (  4)  2.299034  3.483645  3.984696
   C (  5)  2.206052  3.358072  4.213270  1.470373
   N (  6)  1.474052  2.456776  3.570611  2.323018  1.290111
   H (  7)  1.104459  2.132849  3.168189  2.992840  2.886594  2.072041
   H (  8)  2.202237  1.096259  2.094885  4.291533  3.827404  2.691902
   H (  9)  3.579003  2.228921  1.082726  5.002644  5.214178  4.549625
   H ( 10)  3.363341  4.487479  4.823316  1.084188  2.280494  3.343374
   H ( 11)  3.255086  4.318071  5.181892  2.274266  1.089468  2.072072
   C ( 12)  1.506018  2.568881  2.967646  1.345135  2.253604  2.383683
   H ( 13)  2.300263  3.015182  3.026904  2.186780  3.317817  3.425943
             H (  7)   H (  8)   H (  9)   H ( 10)   H ( 11)   C ( 12)
   H (  8)  2.554714
   H (  9)  4.171263  2.668763
   H ( 10)  4.003300  5.338586  5.786067
   H ( 11)  3.865153  4.651322  6.134011  2.724031
   C ( 12)  2.145096  3.522760  4.015946  2.186307  3.296911
   H ( 13)  2.709090  4.063370  3.966262  2.681119  4.332242  1.083306

 
 Applying Cartesian multipole field
    Component          Value
    ---------          -----
     (2,0,0)        1.00000E-11
     (0,2,0)        2.00000E-11
     (0,0,2)       -3.00000E-11
 Nucleus-field energy     =     0.0000000051 hartrees
 Requested basis set is 6-31G(d)
 There are 40 shells and 117 basis functions
 A cutoff of  1.0D-14 yielded    791 shell pairs
 There are      7028 function pairs
 Smallest overlap matrix eigenvalue = 1.47E-03
 Guess MOs from core Hamiltonian diagonalization
 Mixing HOMO and LUMO in initial guess
 Adding  50% of the LUMO to the HOMO
 An unrestricted hybrid HF-DFT SCF calculation will be
 performed using Pulay DIIS extrapolation
 Exchange:     0.2000 Hartree-Fock + 0.0800 Slater + 0.7200 B88
 Correlation:  0.1900 VWN1RPA + 0.8100 LYP
 Using SG-1 standard quadrature grid
 SCF converges when DIIS error is below 1.0E-08
 using 4 threads for integral computing
 -------------------------------------------------------
 OpenMP Integral computing Module                
 Release: version 1.0, May 2013, Q-Chem Inc. Pittsburgh 
 -------------------------------------------------------
 -------------------------------------------------------
 OpenMP BLAS3 based DFT computing Module                
 Release: version 1.0, May 2013, Q-Chem Inc. Pittsburgh 
 -------------------------------------------------------
 ---------------------------------------
  Cycle       Energy         DIIS Error
 ---------------------------------------
    1    -227.9469124061      1.38E-01
    2    -162.9621520763      1.55E-01
    3    -238.2561090712      1.06E-01
    4    -226.5072518916      1.31E-01
    5    -285.5849210384      2.28E-02
    6    -282.8015853333      3.81E-02
    7    -286.6584852042      9.45E-03
    8    -286.7537593142      7.35E-03
    9    -286.8466824735      1.25E-03
   10    -286.8490408424      8.27E-04
   11    -286.8502630487      2.13E-04
   12    -286.8504319838      9.45E-05
   13    -286.8504891213      5.23E-05
   14    -286.8505203476      1.74E-05
   15    -286.8505297625      6.36E-06
   16    -286.8505341484      1.06E-06
   17    -286.8505356458      5.73E-07
   18    -286.8505363288      3.27E-07
   19    -286.8505365513      6.77E-08
   20    -286.8505365549      3.17E-08
   21    -286.8505365554      1.07E-08
   22    -286.8505365558      5.71E-09 Convergence criterion met
 ---------------------------------------
 <S^2> = 0.7608
 SCF time:  CPU 49.87 s  wall 12.93 s
 SCF   energy in the final basis set = -286.85053656
 Total energy in the final basis set = -286.85053656
 
 --------------------------------------------------------------
 
                    Orbital Energies (a.u.)
 --------------------------------------------------------------
 
 Alpha MOs
 -- Occupied --
-14.321 -10.227 -10.224 -10.209 -10.202 -10.201 -10.196  -0.943
 -0.790  -0.765  -0.704  -0.595  -0.556  -0.537  -0.507  -0.468
 -0.446  -0.405  -0.398  -0.370  -0.326  -0.274  -0.265  -0.254
 -0.234
 -- Virtual --
 -0.035   0.017   0.072   0.119   0.123   0.151   0.158   0.161
  0.166   0.200   0.239   0.281   0.302   0.351   0.405   0.445
  0.498   0.521   0.537   0.540   0.557   0.571   0.605   0.610
  0.625   0.640   0.657   0.674   0.703   0.724   0.749   0.798
  0.803   0.842   0.848   0.854   0.884   0.893   0.898   0.909
  0.950   1.008   1.024   1.035   1.108   1.114   1.164   1.327
  1.401   1.418   1.464   1.491   1.529   1.539   1.570   1.631
  1.658   1.738   1.817   1.853   1.888   1.918   1.969   1.995
  2.021   2.079   2.089   2.177   2.194   2.253   2.277   2.303
  2.328   2.403   2.490   2.549   2.567   2.585   2.625   2.730
  2.759   2.848   2.898   2.961   3.036   3.926   4.056   4.086
  4.188   4.280   4.409   4.565
 
 Beta MOs
 -- Occupied --
-14.321 -10.226 -10.224 -10.204 -10.201 -10.196 -10.193  -0.943
 -0.782  -0.764  -0.693  -0.587  -0.555  -0.529  -0.504  -0.457
 -0.441  -0.403  -0.397  -0.365  -0.324  -0.268  -0.261  -0.252
 -- Virtual --
 -0.072  -0.035   0.028   0.073   0.120   0.130   0.153   0.158
  0.161   0.172   0.202   0.240   0.282   0.308   0.355   0.425
  0.446   0.506   0.527   0.539   0.553   0.565   0.580   0.611
  0.622   0.631   0.643   0.659   0.677   0.706   0.724   0.757
  0.798   0.805   0.843   0.849   0.855   0.895   0.900   0.903
  0.911   0.953   1.011   1.036   1.041   1.112   1.123   1.165
  1.329   1.402   1.421   1.466   1.494   1.534   1.542   1.576
  1.634   1.704   1.761   1.839   1.860   1.903   1.922   1.976
  2.009   2.028   2.083   2.093   2.183   2.198   2.256   2.277
  2.311   2.328   2.412   2.495   2.550   2.570   2.588   2.626
  2.737   2.763   2.859   2.907   2.961   3.040   3.925   4.069
  4.100   4.195   4.283   4.409   4.566
 --------------------------------------------------------------
 
          Ground-State Mulliken Net Atomic Charges

     Atom                 Charge (a.u.)    Spin (a.u.)
  --------------------------------------------------------
      1 C                    -0.069237       0.042893
      2 C                    -0.103039      -0.167468
      3 C                    -0.198629       1.040410
      4 C                    -0.142505       0.000219
      5 C                     0.055685       0.004806
      6 N                    -0.377669      -0.003530
      7 H                     0.181065      -0.004371
      8 H                     0.164014       0.078679
      9 H                     0.163966       0.004909
     10 H                     0.140173       0.000139
     11 H                     0.143568      -0.000138
     12 C                    -0.110578       0.002976
     13 H                     0.153186       0.000474
  --------------------------------------------------------
  Sum of atomic charges =    -0.000000
  Sum of spin   charges =     1.000000

 -----------------------------------------------------------------
                    Cartesian Multipole Moments
 -----------------------------------------------------------------
    Charge (ESU x 10^10)
                 0.0000
    Dipole Moment (Debye)
         X      -0.7698      Y      -0.6975      Z       1.1018
       Tot       1.5144
    Quadrupole Moments (Debye-Ang)
        XX     -39.4479     XY      -3.9770     YY     -37.8148
        XZ      -0.5337     YZ       2.5253     ZZ     -40.4573
    Octopole Moments (Debye-Ang^2)
       XXX      -4.1104    XXY      -1.6160    XYY      -9.2645
       YYY     -11.8512    XXZ       4.9558    XYZ       3.3419
       YYZ      -4.1504    XZZ      -1.8054    YZZ      -9.4613
       ZZZ       6.6549
    Hexadecapole Moments (Debye-Ang^3)
      XXXX    -192.4851   XXXY      47.5539   XXYY    -125.4949
      XYYY      42.2977   YYYY    -475.9066   XXXZ      45.3002
      XXYZ      -9.7292   XYYZ      17.3066   YYYZ     -27.3928
      XXZZ     -59.0238   XYZZ      13.8442   YYZZ    -111.5658
      XZZZ      47.5570   YZZZ     -46.2358   ZZZZ    -191.7154
 -----------------------------------------------------------------
 Calculating analytic gradient of the SCF energy
 Gradient of SCF Energy
            1           2           3           4           5           6
    1  -0.0001282   0.0000432   0.0000003  -0.0000159  -0.0000649   0.0000701
    2   0.0000300  -0.0000455  -0.0000016   0.0000505  -0.0000224  -0.0000253
    3  -0.0000960   0.0000554  -0.0000013  -0.0000612   0.0000681   0.0000246
            7           8           9          10          11          12
    1   0.0000280  -0.0000198   0.0000005  -0.0000122   0.0000153   0.0000563
    2  -0.0000145   0.0000148   0.0000094  -0.0000382   0.0000008   0.0000436
    3  -0.0000197  -0.0000464  -0.0000291   0.0000335   0.0000350   0.0000390
           13
    1   0.0000271
    2  -0.0000017
    3  -0.0000019
 Max gradient component =       1.282E-04
 RMS gradient           =       4.303E-05
 Gradient time:  CPU 7.47 s  wall 1.90 s

STARTING FREEZING STRING ITERATION # 1
 The distance between the innermost nodes (Angstroms): 4.232
-Adding two new nodes
 The distance between the previous and current R_nodes (Angstroms): 0.1983
 The distance between the previous and current P_nodes (Angstroms): 0.2003
-Optimizing new reactant side node
 Using BFGS, step: 2 E_tol 0.0122
 max_steps 6, node_spacing 0.2015, sigma 0.7000
 ----------------------------------------------------------------
             Standard Nuclear Orientation (Angstroms)
    I     Atom           X                Y                Z
 ----------------------------------------------------------------
    1      C       1.1868070633     0.3288745193     0.3309902090
    2      C       0.6809512973    -1.0934599344    -0.1683437596
    3      C      -0.5972051877    -1.0160942260    -0.8448757321
    4      C      -1.1003003176     0.1897020173     0.1642634468
    5      C      -0.5133079293     1.4559976409    -0.4390409526
    6      N       0.7682618945     1.5017953338    -0.3947827011
    7      H       2.1974964710     0.3312171097     0.7277574440
    8      H       1.4166401869    -1.8887469492    -0.2388259161
    9      H      -0.9025166268    -1.2964258152    -1.8498675422
   10      H      -2.1350874943     0.2176284035     0.5115010920
   11      H      -1.0918929659     2.2016913241    -0.9818969148
   12      C       0.0671272375    -0.3066348014     1.0716335851
   13      H       0.0156986583    -0.6307546956     2.1059373917
 ----------------------------------------------------------------
 Nuclear Repulsion Energy =   279.9566681542 hartrees
 There are       25 alpha and       24 beta electrons

                       Distance Matrix (Angstroms)
             C (  1)   C (  2)   C (  3)   C (  4)   C (  5)   N (  6)
   C (  2)  1.590050
   C (  3)  2.524738  1.448228
   C (  4)  2.297396  2.220358  1.650882
   C (  5)  2.180309  2.828297  2.506587  1.520540
   N (  6)  1.441412  2.606578  2.899457  2.350669  1.283151
   H (  7)  1.085782  2.265527  3.478330  3.348584  3.158324  2.161726
   H (  8)  2.301165  1.085674  2.276926  3.288985  3.866795  3.455502
   H (  9)  3.429725  2.318639  1.087111  2.510860  3.117331  3.569148
   H ( 10)  3.328655  3.179814  2.393097  1.091851  2.251057  3.301496
   H ( 11)  3.228558  3.829212  3.258471  2.315568  1.088812  2.072374
   C ( 12)  1.485297  1.591671  2.148878  1.559666  2.392889  2.431540
   H ( 13)  2.332985  2.414335  3.038328  2.385100  3.333361  3.371605
             H (  7)   H (  8)   H (  9)   H ( 10)   H ( 11)   C ( 12)
   H (  8)  2.544064
   H (  9)  4.347810  2.885271
   H ( 10)  4.339465  4.196972  3.063928
   H ( 11)  4.152310  4.855572  3.609163  2.693510
   C ( 12)  2.250240  2.457960  3.233429  2.332027  3.442676
   H ( 13)  2.754090  3.007174  4.115171  2.808534  4.334078  1.085119

 
 Applying Cartesian multipole field
    Component          Value
    ---------          -----
     (2,0,0)        1.00000E-11
     (0,2,0)        2.00000E-11
     (0,0,2)       -3.00000E-11
 Nucleus-field energy     =     0.0000000027 hartrees
 Requested basis set is 6-31G(d)
 There are 40 shells and 117 basis functions
 A cutoff of  1.0D-14 yielded    812 shell pairs
 There are      7084 function pairs
 Smallest overlap matrix eigenvalue = 1.84E-03
 Guess MOs from core Hamiltonian diagonalization
 Mixing HOMO and LUMO in initial guess
 Adding  50% of the LUMO to the HOMO
 An unrestricted hybrid HF-DFT SCF calculation will be
 performed using Pulay DIIS extrapolation
 Exchange:     0.2000 Hartree-Fock + 0.0800 Slater + 0.7200 B88
 Correlation:  0.1900 VWN1RPA + 0.8100 LYP
 Using SG-1 standard quadrature grid
 SCF converges when DIIS error is below 1.0E-08
 using 4 threads for integral computing
 -------------------------------------------------------
 OpenMP Integral computing Module                
 Release: version 1.0, May 2013, Q-Chem Inc. Pittsburgh 
 -------------------------------------------------------
 -------------------------------------------------------
 OpenMP BLAS3 based DFT computing Module                
 Release: version 1.0, May 2013, Q-Chem Inc. Pittsburgh 
 -------------------------------------------------------
 ---------------------------------------
  Cycle       Energy         DIIS Error
 ---------------------------------------
    1    -235.7992703071      1.34E-01
    2    -223.0110772353      1.09E-01
    3    -255.0487563336      1.00E-01
    4    -277.5156689953      6.80E-02
    5    -281.6792955064      5.00E-02
    6    -286.1118862308      1.80E-02
    7    -286.5182823511      1.22E-02
    8    -286.8014823578      3.78E-03
    9    -286.8091471317      3.69E-03
   10    -286.8308497469      4.70E-04
   11    -286.8313865139      1.99E-04
   12    -286.8315399225      8.78E-05
   13    -286.8315900799      2.31E-05
   14    -286.8315937521      1.18E-05
   15    -286.8315944561      2.34E-06
   16    -286.8315945681      6.33E-07
   17    -286.8315946049      2.89E-07
   18    -286.8315946213      2.38E-07
   19    -286.8315946286      6.35E-08
   20    -286.8315946309      4.54E-08
   21    -286.8315946319      9.17E-09 Convergence criterion met
 ---------------------------------------
 <S^2> = 0.7572
 SCF time:  CPU 49.68 s  wall 12.56 s
 SCF   energy in the final basis set = -286.83159463
 Total energy in the final basis set = -286.83159463
 
 --------------------------------------------------------------
 
                    Orbital Energies (a.u.)
 --------------------------------------------------------------
 
 Alpha MOs
 -- Occupied --
-14.318 -10.225 -10.220 -10.216 -10.213 -10.211 -10.211  -0.962
 -0.848  -0.738  -0.673  -0.600  -0.572  -0.534  -0.517  -0.463
 -0.435  -0.402  -0.398  -0.356  -0.342  -0.291  -0.270  -0.259
 -0.181
 -- Virtual --
  0.001   0.091   0.101   0.132   0.141   0.150   0.154   0.162
  0.176   0.189   0.218   0.260   0.276   0.295   0.343   0.392
  0.501   0.510   0.519   0.535   0.562   0.567   0.581   0.597
  0.608   0.658   0.674   0.678   0.710   0.742   0.769   0.776
  0.806   0.807   0.828   0.839   0.858   0.886   0.891   0.930
  0.955   0.974   1.037   1.090   1.206   1.221   1.329   1.385
  1.438   1.468   1.509   1.514   1.578   1.630   1.646   1.675
  1.727   1.823   1.862   1.886   1.901   1.954   1.990   2.025
  2.045   2.152   2.179   2.194   2.223   2.245   2.332   2.354
  2.452   2.473   2.508   2.533   2.588   2.606   2.664   2.668
  2.697   2.789   2.810   2.913   2.966   3.957   4.157   4.238
  4.342   4.421   4.498   4.622
 
 Beta MOs
 -- Occupied --
-14.318 -10.223 -10.219 -10.217 -10.212 -10.211 -10.199  -0.959
 -0.842  -0.732  -0.660  -0.595  -0.568  -0.527  -0.512  -0.457
 -0.432  -0.399  -0.393  -0.351  -0.332  -0.284  -0.258  -0.254
 -- Virtual --
 -0.059   0.016   0.097   0.103   0.139   0.147   0.152   0.157
  0.166   0.181   0.192   0.222   0.266   0.278   0.298   0.355
  0.394   0.505   0.515   0.525   0.550   0.564   0.571   0.593
  0.605   0.613   0.669   0.678   0.683   0.720   0.746   0.772
  0.786   0.809   0.811   0.830   0.841   0.862   0.892   0.894
  0.934   0.958   0.977   1.040   1.103   1.208   1.226   1.336
  1.387   1.442   1.473   1.514   1.527   1.586   1.635   1.654
  1.679   1.736   1.830   1.870   1.891   1.914   1.966   1.999
  2.030   2.055   2.161   2.187   2.201   2.235   2.261   2.343
  2.360   2.461   2.480   2.514   2.539   2.591   2.612   2.667
  2.676   2.703   2.794   2.815   2.914   2.968   3.958   4.172
  4.244   4.349   4.424   4.501   4.626
 --------------------------------------------------------------
 
          Ground-State Mulliken Net Atomic Charges

     Atom                 Charge (a.u.)    Spin (a.u.)
  --------------------------------------------------------
      1 C                    -0.010765       0.092363
      2 C                    -0.167316      -0.102152
      3 C                    -0.078854       0.895668
      4 C                    -0.258915      -0.067907
      5 C                     0.093324       0.042973
      6 N                    -0.343664       0.023868
      7 H                     0.150792       0.003664
      8 H                     0.150172       0.004827
      9 H                     0.138748      -0.013899
     10 H                     0.142637       0.014441
     11 H                     0.142762       0.000207
     12 C                    -0.110668       0.107625
     13 H                     0.151746      -0.001678
  --------------------------------------------------------
  Sum of atomic charges =     0.000000
  Sum of spin   charges =     1.000000

 -----------------------------------------------------------------
                    Cartesian Multipole Moments
 -----------------------------------------------------------------
    Charge (ESU x 10^10)
                 0.0000
    Dipole Moment (Debye)
         X      -1.0574      Y      -1.4535      Z       0.8816
       Tot       2.0020
    Quadrupole Moments (Debye-Ang)
        XX     -38.6091     XY      -4.8827     YY     -43.5711
        XZ       2.1200     YZ       0.7738     ZZ     -39.1324
    Octopole Moments (Debye-Ang^2)
       XXX      -6.0880    XXY      -6.6151    XYY      -7.2494
       YYY     -19.4622    XXZ       4.4600    XYZ       2.7632
       YYZ       0.3562    XZZ      -4.8533    YZZ      -8.1396
       ZZZ       6.3434
    Hexadecapole Moments (Debye-Ang^3)
      XXXX    -215.8129   XXXY      -7.6284   XXYY     -90.9782
      XYYY     -23.0292   YYYY    -313.9906   XXXZ     -11.8064
      XXYZ       4.4223   XYYZ       1.0476   YYYZ       8.1185
      XXZZ     -63.6761   XYZZ      -1.0042   YYZZ     -74.2136
      XZZZ     -11.7004   YZZZ       7.4098   ZZZZ    -144.6179
 -----------------------------------------------------------------
 Calculating analytic gradient of the SCF energy
 Gradient of SCF Energy
            1           2           3           4           5           6
    1  -0.0020389   0.0087364   0.0129743  -0.0136455   0.0020760  -0.0014677
    2  -0.0002361  -0.0102702  -0.0275870   0.0234114   0.0057258  -0.0016102
    3   0.0004074  -0.0095139  -0.0209025   0.0239638   0.0000241  -0.0025114
            7           8           9          10          11          12
    1  -0.0003704   0.0007123   0.0014519  -0.0010252   0.0003097  -0.0067002
    2   0.0005453   0.0006339  -0.0011850   0.0036782   0.0003738   0.0078842
    3   0.0006622  -0.0030723   0.0005523   0.0019707   0.0001805   0.0088650
           13
    1  -0.0010126
    2  -0.0013640
    3  -0.0006259
 Max gradient component =       2.759E-02
 RMS gradient           =       9.090E-03
 Gradient time:  CPU 7.92 s  wall 2.01 s
 ----------------------------------------------------------------
             Standard Nuclear Orientation (Angstroms)
    I     Atom           X                Y                Z
 ----------------------------------------------------------------
    1      C       1.1862227739     0.3273324736     0.3302351116
    2      C       0.6750309864    -1.0845449172    -0.1631671661
    3      C      -0.6068217984    -0.9993566708    -0.8274955555
    4      C      -1.0900175904     0.1743086265     0.1463575209
    5      C      -0.5151114695     1.4540187433    -0.4371273442
    6      N       0.7702825623     1.5014024695    -0.3949125729
    7      H       2.1941227146     0.3305380296     0.7299030702
    8      H       1.4231859991    -1.8859425539    -0.2444727725
    9      H      -0.8995809682    -1.3117677759    -1.8521471116
   10      H      -2.1364769261     0.2252129485     0.5168177124
   11      H      -1.0901649079     2.2071641340    -0.9790206372
   12      C       0.0695749463    -0.3115480689     1.0638412258
   13      H       0.0124265505    -0.6320270366     2.1056369510
 ----------------------------------------------------------------
 Nuclear Repulsion Energy =   280.9158376248 hartrees
 There are       25 alpha and       24 beta electrons

                       Distance Matrix (Angstroms)
             C (  1)   C (  2)   C (  3)   C (  4)   C (  5)   N (  6)
   C (  2)  1.580557
   C (  3)  2.513057  1.446283
   C (  4)  2.288776  2.189958  1.599799
   C (  5)  2.180093  2.817055  2.485930  1.519418
   N (  6)  1.441279  2.598057  2.887445  2.348376  1.286960
   H (  7)  1.084254  2.260016  3.469784  3.339238  3.156599  2.159503
   H (  8)  2.298919  1.099356  2.290607  3.273160  3.866452  3.452973
   H (  9)  3.435116  2.320277  1.110504  2.497741  3.130443  3.581327
   H ( 10)  3.329501  3.175283  2.376256  1.111265  2.246954  3.302902
   H ( 11)  3.229529  3.823203  3.246283  2.323570  1.091587  2.073776
   C ( 12)  1.480962  1.571512  2.123146  1.556434  2.389977  2.430174
   H ( 13)  2.334571  2.406510  3.020210  2.388375  3.330996  3.373220
             H (  7)   H (  8)   H (  9)   H ( 10)   H ( 11)   C ( 12)
   H (  8)  2.540972
   H (  9)  4.351454  2.882627
   H ( 10)  4.337118  4.208057  3.082891
   H ( 11)  4.150746  4.859014  3.630641  2.694519
   C ( 12)  2.244436  2.454112  3.231515  2.335383  3.444153
   H ( 13)  2.752994  3.014227  4.117992  2.806598  4.334954  1.091472

 
 Applying Cartesian multipole field
    Component          Value
    ---------          -----
     (2,0,0)        1.00000E-11
     (0,2,0)        2.00000E-11
     (0,0,2)       -3.00000E-11
 Nucleus-field energy     =     0.0000000027 hartrees
 Requested basis set is 6-31G(d)
 There are 40 shells and 117 basis functions
 A cutoff of  1.0D-14 yielded    812 shell pairs
 There are      7084 function pairs
 Smallest overlap matrix eigenvalue = 1.77E-03
 Guess MOs from core Hamiltonian diagonalization
 Mixing HOMO and LUMO in initial guess
 Adding  50% of the LUMO to the HOMO
 An unrestricted hybrid HF-DFT SCF calculation will be
 performed using Pulay DIIS extrapolation
 Exchange:     0.2000 Hartree-Fock + 0.0800 Slater + 0.7200 B88
 Correlation:  0.1900 VWN1RPA + 0.8100 LYP
 Using SG-1 standard quadrature grid
 SCF converges when DIIS error is below 1.0E-08
 using 4 threads for integral computing
 -------------------------------------------------------
 OpenMP Integral computing Module                
 Release: version 1.0, May 2013, Q-Chem Inc. Pittsburgh 
 -------------------------------------------------------
 -------------------------------------------------------
 OpenMP BLAS3 based DFT computing Module                
 Release: version 1.0, May 2013, Q-Chem Inc. Pittsburgh 
 -------------------------------------------------------
 ---------------------------------------
  Cycle       Energy         DIIS Error
 ---------------------------------------
    1    -235.9303278607      1.35E-01
    2    -223.4441619152      1.10E-01
    3    -255.3692708488      1.01E-01
    4    -276.7775054762      6.98E-02
    5    -281.7659512490      4.89E-02
    6    -286.1747266879      1.75E-02
    7    -286.4733227681      1.30E-02
    8    -286.7998962040      4.00E-03
    9    -286.8081408593      3.91E-03
   10    -286.8332423688      4.18E-04
   11    -286.8337398239      1.90E-04
   12    -286.8338855406      8.61E-05
   13    -286.8339349130      1.97E-05
   14    -286.8339381112      3.82E-06
   15    -286.8339383490      1.72E-06
   16    -286.8339384013      7.12E-07
   17    -286.8339384336      2.40E-07
   18    -286.8339384525      1.51E-07
   19    -286.8339384577      7.24E-08
   20    -286.8339384592      5.12E-08
   21    -286.8339384604      1.39E-08
   22    -286.8339384605      2.41E-09 Convergence criterion met
 ---------------------------------------
 <S^2> = 0.7569
 SCF time:  CPU 52.52 s  wall 13.59 s
 SCF   energy in the final basis set = -286.83393846
 Total energy in the final basis set = -286.83393846
 
 --------------------------------------------------------------
 
                    Orbital Energies (a.u.)
 --------------------------------------------------------------
 
 Alpha MOs
 -- Occupied --
-14.319 -10.223 -10.220 -10.216 -10.212 -10.211 -10.210  -0.966
 -0.853  -0.742  -0.670  -0.601  -0.572  -0.533  -0.513  -0.464
 -0.434  -0.402  -0.401  -0.354  -0.342  -0.295  -0.271  -0.260
 -0.180
 -- Virtual --
  0.000   0.097   0.098   0.132   0.141   0.150   0.152   0.162
  0.173   0.192   0.219   0.266   0.276   0.296   0.345   0.390
  0.500   0.509   0.522   0.537   0.561   0.570   0.590   0.600
  0.609   0.657   0.672   0.677   0.712   0.741   0.767   0.779
  0.803   0.806   0.820   0.832   0.854   0.880   0.888   0.928
  0.945   0.973   1.037   1.089   1.207   1.224   1.325   1.387
  1.439   1.468   1.507   1.512   1.588   1.631   1.653   1.691
  1.732   1.826   1.866   1.884   1.902   1.952   1.987   2.024
  2.057   2.163   2.193   2.203   2.227   2.245   2.348   2.362
  2.455   2.477   2.507   2.533   2.588   2.615   2.663   2.667
  2.703   2.797   2.825   2.908   2.964   3.954   4.162   4.238
  4.351   4.423   4.503   4.625
 
 Beta MOs
 -- Occupied --
-14.319 -10.222 -10.219 -10.217 -10.211 -10.210 -10.199  -0.962
 -0.847  -0.735  -0.658  -0.596  -0.568  -0.527  -0.507  -0.458
 -0.430  -0.400  -0.395  -0.348  -0.334  -0.287  -0.260  -0.255
 -- Virtual --
 -0.059   0.015   0.099   0.103   0.138   0.148   0.151   0.156
  0.166   0.178   0.195   0.224   0.271   0.279   0.298   0.357
  0.393   0.504   0.513   0.530   0.550   0.563   0.575   0.602
  0.608   0.614   0.668   0.677   0.683   0.721   0.746   0.770
  0.788   0.807   0.809   0.822   0.835   0.858   0.886   0.892
  0.932   0.948   0.976   1.040   1.103   1.210   1.228   1.332
  1.389   1.443   1.473   1.515   1.521   1.595   1.637   1.661
  1.696   1.742   1.833   1.872   1.889   1.916   1.965   1.995
  2.030   2.066   2.170   2.200   2.214   2.237   2.262   2.360
  2.366   2.462   2.485   2.513   2.538   2.592   2.621   2.666
  2.674   2.709   2.802   2.829   2.910   2.966   3.956   4.177
  4.245   4.359   4.426   4.505   4.629
 --------------------------------------------------------------
 
          Ground-State Mulliken Net Atomic Charges

     Atom                 Charge (a.u.)    Spin (a.u.)
  --------------------------------------------------------
      1 C                    -0.011328       0.089790
      2 C                    -0.163617      -0.097943
      3 C                    -0.072342       0.887465
      4 C                    -0.259528      -0.067221
      5 C                     0.089177       0.045049
      6 N                    -0.342687       0.028060
      7 H                     0.150851       0.003560
      8 H                     0.148917       0.005393
      9 H                     0.134974      -0.013251
     10 H                     0.140972       0.018052
     11 H                     0.143440       0.000781
     12 C                    -0.110636       0.101857
     13 H                     0.151807      -0.001593
  --------------------------------------------------------
  Sum of atomic charges =    -0.000000
  Sum of spin   charges =     1.000000

 -----------------------------------------------------------------
                    Cartesian Multipole Moments
 -----------------------------------------------------------------
    Charge (ESU x 10^10)
                 0.0000
    Dipole Moment (Debye)
         X      -1.0339      Y      -1.4479      Z       0.8877
       Tot       1.9883
    Quadrupole Moments (Debye-Ang)
        XX     -38.7114     XY      -4.8797     YY     -43.5676
        XZ       2.0838     YZ       0.7519     ZZ     -39.1863
    Octopole Moments (Debye-Ang^2)
       XXX      -5.7147    XXY      -6.5758    XYY      -7.2937
       YYY     -19.3999    XXZ       4.4833    XYZ       2.7874
       YYZ       0.3580    XZZ      -4.7082    YZZ      -8.0930
       ZZZ       6.5326
    Hexadecapole Moments (Debye-Ang^3)
      XXXX    -216.5031   XXXY      -8.0897   XXYY     -90.7699
      XYYY     -23.3015   YYYY    -312.5030   XXXZ     -12.1565
      XXYZ       4.5968   XYYZ       0.9132   YYYZ       8.5627
      XXZZ     -63.5527   XYZZ      -1.1788   YYZZ     -73.7225
      XZZZ     -12.1912   YZZZ       7.9084   ZZZZ    -143.6015
 -----------------------------------------------------------------
 Calculating analytic gradient of the SCF energy
 Gradient of SCF Energy
            1           2           3           4           5           6
    1  -0.0043783  -0.0028475   0.0130882   0.0067563  -0.0049747   0.0039359
    2  -0.0034492   0.0021296  -0.0136717   0.0139279   0.0023936  -0.0024905
    3   0.0010762  -0.0052532   0.0026653   0.0105761   0.0039752  -0.0032911
            7           8           9          10          11          12
    1  -0.0014119   0.0076509  -0.0004766  -0.0110001   0.0000632  -0.0053399
    2   0.0007947  -0.0049938  -0.0067294   0.0055086   0.0022607   0.0067252
    3   0.0004388  -0.0038647  -0.0130079   0.0065427  -0.0009065  -0.0023980
           13
    1  -0.0010657
    2  -0.0024058
    3   0.0034470
 Max gradient component =       1.393E-02
 RMS gradient           =       6.165E-03
 Gradient time:  CPU 7.91 s  wall 2.02 s
 FSM gradient convergence criteria satisfied
done with opt_step_by_gradient, Reactant, iter1
-Optimizing new product side node
 Using BFGS, step: 2 E_tol 0.0122293
 max_steps 6, node_spacing 0.2015221, sigma 0.7000000
 ----------------------------------------------------------------
             Standard Nuclear Orientation (Angstroms)
    I     Atom           X                Y                Z
 ----------------------------------------------------------------
    1      C       0.7323409861     0.0247997759     0.1760419308
    2      C       0.8848211710    -1.1544181856    -0.7676728024
    3      C       0.1152731794    -2.2247843254    -0.7966338829
    4      C      -1.2194322087     1.0576393012     0.7916505977
    5      C      -0.4611845775     1.8354745539    -0.2004847149
    6      N       0.6392455043     1.2830668088    -0.5818309630
    7      H       1.6396640161     0.0951270020     0.7990961100
    8      H       1.7171056531    -1.0473771863    -1.4726146173
    9      H       0.0721052159    -3.1264543955    -1.3954292798
   10      H      -2.1499543648     1.3623837810     1.2569939910
   11      H      -0.7692787514     2.8012769329    -0.5989780708
   12      C      -0.4919128713    -0.0577255648     1.0419866111
   13      H      -0.7166536937    -0.8537613727     1.7413020216
 ----------------------------------------------------------------
 Nuclear Repulsion Energy =   260.2815329716 hartrees
 There are       25 alpha and       24 beta electrons

                       Distance Matrix (Angstroms)
             C (  1)   C (  2)   C (  3)   C (  4)   C (  5)   N (  6)
   C (  2)  1.518026
   C (  3)  2.527350  1.318608
   C (  4)  2.292411  3.428202  3.883090
   C (  5)  2.201095  3.327596  4.144080  1.471156
   N (  6)  1.471827  2.456863  3.553267  2.322058  1.289002
   H (  7)  1.102895  2.141475  3.201892  3.016773  2.905432  2.078220
   H (  8)  2.199407  1.095946  2.099787  4.263947  3.830678  2.717765
   H (  9)  3.582713  2.223401  1.083249  4.894694  5.131572  4.519676
   H ( 10)  3.356369  4.432091  4.713430  1.084106  2.280351  3.341737
   H ( 11)  3.250284  4.290924  5.107131  2.275249  1.089263  2.071038
   C ( 12)  1.501822  2.524480  2.906087  1.354988  2.264704  2.390403
   H ( 13)  2.306836  2.991667  3.002153  2.192733  3.326829  3.435323
             H (  7)   H (  8)   H (  9)   H ( 10)   H ( 11)   C ( 12)
   H (  8)  2.544009
   H (  9)  4.201401  2.652272
   H ( 10)  4.022041  5.311484  5.667677
   H ( 11)  3.883409  4.664492  6.039889  2.724208
   C ( 12)  2.150809  3.490328  3.959319  2.193636  3.308110
   H ( 13)  2.709313  4.036079  3.953019  2.683320  4.340390  1.083154

 
 Applying Cartesian multipole field
    Component          Value
    ---------          -----
     (2,0,0)        1.00000E-11
     (0,2,0)        2.00000E-11
     (0,0,2)       -3.00000E-11
 Nucleus-field energy     =     0.0000000049 hartrees
 Requested basis set is 6-31G(d)
 There are 40 shells and 117 basis functions
 A cutoff of  1.0D-14 yielded    792 shell pairs
 There are      7034 function pairs
 Smallest overlap matrix eigenvalue = 1.49E-03
 Guess MOs from core Hamiltonian diagonalization
 Mixing HOMO and LUMO in initial guess
 Adding  50% of the LUMO to the HOMO
 An unrestricted hybrid HF-DFT SCF calculation will be
 performed using Pulay DIIS extrapolation
 Exchange:     0.2000 Hartree-Fock + 0.0800 Slater + 0.7200 B88
 Correlation:  0.1900 VWN1RPA + 0.8100 LYP
 Using SG-1 standard quadrature grid
 SCF converges when DIIS error is below 1.0E-08
 using 4 threads for integral computing
 -------------------------------------------------------
 OpenMP Integral computing Module                
 Release: version 1.0, May 2013, Q-Chem Inc. Pittsburgh 
 -------------------------------------------------------
 -------------------------------------------------------
 OpenMP BLAS3 based DFT computing Module                
 Release: version 1.0, May 2013, Q-Chem Inc. Pittsburgh 
 -------------------------------------------------------
 ---------------------------------------
  Cycle       Energy         DIIS Error
 ---------------------------------------
    1    -227.8537338654      1.38E-01
    2    -163.6159805319      1.54E-01
    3    -239.0752459688      1.05E-01
    4    -226.6450156165      1.30E-01
    5    -285.5832950346      2.29E-02
    6    -282.8780836953      3.79E-02
    7    -286.6387326663      9.89E-03
    8    -286.7606869537      7.04E-03
    9    -286.8459185396      1.26E-03
   10    -286.8484033750      7.97E-04
   11    -286.8495883598      1.72E-04
   12    -286.8497420486      7.32E-05
   13    -286.8497950650      3.73E-05
   14    -286.8498286035      1.49E-05
   15    -286.8498406032      6.05E-06
   16    -286.8498476255      1.23E-06
   17    -286.8498501110      6.34E-07
   18    -286.8498509465      3.74E-07
   19    -286.8498511450      7.68E-08
   20    -286.8498511512      3.75E-08
   21    -286.8498511524      1.41E-08
   22    -286.8498511533      7.69E-09 Convergence criterion met
 ---------------------------------------
 <S^2> = 0.7612
 SCF time:  CPU 50.05 s  wall 13.22 s
 SCF   energy in the final basis set = -286.84985115
 Total energy in the final basis set = -286.84985115
 
 --------------------------------------------------------------
 
                    Orbital Energies (a.u.)
 --------------------------------------------------------------
 
 Alpha MOs
 -- Occupied --
-14.321 -10.227 -10.224 -10.210 -10.203 -10.201 -10.197  -0.944
 -0.791  -0.763  -0.703  -0.595  -0.557  -0.537  -0.508  -0.468
 -0.445  -0.407  -0.398  -0.368  -0.326  -0.274  -0.265  -0.254
 -0.235
 -- Virtual --
 -0.036   0.015   0.071   0.118   0.124   0.152   0.157   0.160
  0.169   0.200   0.237   0.280   0.303   0.349   0.403   0.442
  0.499   0.521   0.535   0.545   0.558   0.572   0.605   0.609
  0.624   0.639   0.659   0.672   0.701   0.720   0.747   0.797
  0.805   0.841   0.846   0.853   0.880   0.894   0.897   0.906
  0.948   1.013   1.023   1.032   1.113   1.117   1.165   1.329
  1.402   1.418   1.460   1.483   1.535   1.545   1.570   1.624
  1.660   1.750   1.820   1.859   1.886   1.920   1.968   1.992
  2.016   2.070   2.083   2.181   2.197   2.258   2.274   2.302
  2.328   2.398   2.488   2.553   2.569   2.587   2.621   2.728
  2.755   2.842   2.893   2.951   3.029   3.928   4.052   4.086
  4.197   4.285   4.412   4.570
 
 Beta MOs
 -- Occupied --
-14.321 -10.226 -10.224 -10.204 -10.201 -10.197 -10.195  -0.943
 -0.783  -0.761  -0.692  -0.587  -0.556  -0.528  -0.505  -0.457
 -0.440  -0.405  -0.397  -0.363  -0.323  -0.269  -0.261  -0.251
 -- Virtual --
 -0.074  -0.035   0.027   0.073   0.120   0.130   0.155   0.157
  0.161   0.174   0.202   0.238   0.281   0.309   0.352   0.423
  0.442   0.507   0.528   0.540   0.555   0.565   0.581   0.610
  0.621   0.632   0.642   0.661   0.674   0.704   0.720   0.755
  0.797   0.807   0.841   0.847   0.854   0.892   0.898   0.903
  0.909   0.952   1.016   1.032   1.042   1.114   1.128   1.166
  1.331   1.404   1.421   1.462   1.486   1.536   1.554   1.576
  1.626   1.708   1.773   1.840   1.865   1.902   1.924   1.974
  2.009   2.020   2.075   2.087   2.188   2.199   2.260   2.275
  2.311   2.329   2.407   2.493   2.554   2.573   2.589   2.623
  2.734   2.759   2.853   2.902   2.951   3.032   3.928   4.065
  4.102   4.202   4.289   4.412   4.572
 --------------------------------------------------------------
 
          Ground-State Mulliken Net Atomic Charges

     Atom                 Charge (a.u.)    Spin (a.u.)
  --------------------------------------------------------
      1 C                    -0.069192       0.041525
      2 C                    -0.105226      -0.167114
      3 C                    -0.195288       1.039650
      4 C                    -0.144112       0.002755
      5 C                     0.056881       0.003143
      6 N                    -0.374498      -0.001823
      7 H                     0.178529      -0.004150
      8 H                     0.162749       0.077227
      9 H                     0.163332       0.007104
     10 H                     0.139257       0.000065
     11 H                     0.143877      -0.000160
     12 C                    -0.111242       0.001209
     13 H                     0.154931       0.000566
  --------------------------------------------------------
  Sum of atomic charges =    -0.000000
  Sum of spin   charges =     1.000000

 -----------------------------------------------------------------
                    Cartesian Multipole Moments
 -----------------------------------------------------------------
    Charge (ESU x 10^10)
                 0.0000
    Dipole Moment (Debye)
         X      -0.7672      Y      -0.7210      Z       1.0963
       Tot       1.5200
    Quadrupole Moments (Debye-Ang)
        XX     -39.4361     XY      -3.9785     YY     -38.1085
        XZ      -0.3689     YZ       2.4584     ZZ     -40.3462
    Octopole Moments (Debye-Ang^2)
       XXX      -3.7772    XXY      -1.8635    XYY      -9.5618
       YYY     -11.6002    XXZ       4.9632    XYZ       3.3335
       YYZ      -4.2748    XZZ      -1.9037    YZZ      -9.7274
       ZZZ       6.9061
    Hexadecapole Moments (Debye-Ang^3)
      XXXX    -194.2035   XXXY      42.6940   XXYY    -123.9327
      XYYY      39.0936   YYYY    -469.2240   XXXZ      42.2907
      XXYZ      -8.8273   XYYZ      17.3191   YYYZ     -25.4452
      XXZZ     -59.4115   XYZZ      12.8860   YYZZ    -108.5484
      XZZZ      44.8193   YZZZ     -43.3576   ZZZZ    -188.6264
 -----------------------------------------------------------------
 Calculating analytic gradient of the SCF energy
 Gradient of SCF Energy
            1           2           3           4           5           6
    1   0.0005486   0.0002935  -0.0052623  -0.0056647   0.0024043  -0.0010994
    2   0.0069676   0.0039885  -0.0066198   0.0049602   0.0011019   0.0011592
    3  -0.0002487   0.0014519   0.0010724  -0.0054018  -0.0010941   0.0001532
            7           8           9          10          11          12
    1  -0.0004241   0.0002136   0.0004978   0.0009483   0.0004007   0.0074789
    2  -0.0000560   0.0010068   0.0006459   0.0005809   0.0000836  -0.0146128
    3   0.0002545   0.0009133  -0.0007441   0.0011400   0.0003332   0.0009612
           13
    1  -0.0003352
    2   0.0007939
    3   0.0012089
 Max gradient component =       1.461E-02
 RMS gradient           =       3.634E-03
 Gradient time:  CPU 7.47 s  wall 1.90 s
 ----------------------------------------------------------------
             Standard Nuclear Orientation (Angstroms)
    I     Atom           X                Y                Z
 ----------------------------------------------------------------
    1      C       0.7323576261     0.0132908444     0.1769631964
    2      C       0.8843702020    -1.1610445550    -0.7695054274
    3      C       0.1227949215    -2.2119126169    -0.7986832472
    4      C      -1.2099014558     1.0478010859     0.8000234346
    5      C      -0.4656177424     1.8330539304    -0.1990384033
    6      N       0.6416351716     1.2814858310    -0.5817335095
    7      H       1.6414426784     0.0958138908     0.7989709443
    8      H       1.7174021107    -1.0498745715    -1.4729334723
    9      H       0.0689035048    -3.1257561905    -1.3949944399
   10      H      -2.1520504342     1.3598280313     1.2539718226
   11      H      -0.7707414779     2.8003782291    -0.6002095834
   12      C      -0.5039829594    -0.0327255648     1.0404757060
   13      H      -0.7144727395    -0.8550915093     1.7401199440
 ----------------------------------------------------------------
 Nuclear Repulsion Energy =   260.8002831393 hartrees
 There are       25 alpha and       24 beta electrons

                       Distance Matrix (Angstroms)
             C (  1)   C (  2)   C (  3)   C (  4)   C (  5)   N (  6)
   C (  2)  1.515907
   C (  3)  2.504992  1.298142
   C (  4)  2.287091  3.424674  3.867515
   C (  5)  2.210896  3.333546  4.131290  1.472652
   N (  6)  1.480598  2.461734  3.538375  2.322079  1.294871
   H (  7)  1.104599  2.147783  3.191299  3.006068  2.907530  2.076482
   H (  8)  2.196086  1.095953  2.085118  4.258601  3.834014  2.717858
   H (  9)  3.572791  2.217276  1.092521  4.885901  5.128920  4.518097
   H ( 10)  3.360494  4.434987  4.705916  1.091364  2.275794  3.343745
   H ( 11)  3.260546  4.296618  5.095180  2.285835  1.090759  2.074171
   C ( 12)  1.508744  2.544928  2.919625  1.312888  2.240313  2.381419
   H ( 13)  2.300188  2.991342  2.997916  2.179503  3.323912  3.434384
             H (  7)   H (  8)   H (  9)   H ( 10)   H ( 11)   C ( 12)
   H (  8)  2.545569
   H (  9)  4.202961  2.651963
   H ( 10)  4.024344  5.311812  5.663049
   H ( 11)  3.884715  4.666578  6.037860  2.724186
   C ( 12)  2.162799  3.505192  3.978260  2.168159  3.284735
   H ( 13)  2.709302  4.034311  3.949499  2.684928  4.340826  1.100043

 
 Applying Cartesian multipole field
    Component          Value
    ---------          -----
     (2,0,0)        1.00000E-11
     (0,2,0)        2.00000E-11
     (0,0,2)       -3.00000E-11
 Nucleus-field energy     =     0.0000000049 hartrees
 Requested basis set is 6-31G(d)
 There are 40 shells and 117 basis functions
 A cutoff of  1.0D-14 yielded    792 shell pairs
 There are      7034 function pairs
 Smallest overlap matrix eigenvalue = 1.38E-03
 Guess MOs from core Hamiltonian diagonalization
 Mixing HOMO and LUMO in initial guess
 Adding  50% of the LUMO to the HOMO
 An unrestricted hybrid HF-DFT SCF calculation will be
 performed using Pulay DIIS extrapolation
 Exchange:     0.2000 Hartree-Fock + 0.0800 Slater + 0.7200 B88
 Correlation:  0.1900 VWN1RPA + 0.8100 LYP
 Using SG-1 standard quadrature grid
 SCF converges when DIIS error is below 1.0E-08
 using 4 threads for integral computing
 -------------------------------------------------------
 OpenMP Integral computing Module                
 Release: version 1.0, May 2013, Q-Chem Inc. Pittsburgh 
 -------------------------------------------------------
 -------------------------------------------------------
 OpenMP BLAS3 based DFT computing Module                
 Release: version 1.0, May 2013, Q-Chem Inc. Pittsburgh 
 -------------------------------------------------------
 ---------------------------------------
  Cycle       Energy         DIIS Error
 ---------------------------------------
    1    -228.4015300243      1.39E-01
    2    -173.7638748831      1.43E-01
    3    -240.2864688471      1.02E-01
    4    -229.3898618551      1.27E-01
    5    -285.6057293003      2.20E-02
    6    -283.2903329955      3.62E-02
    7    -286.5987047216      1.11E-02
    8    -286.8046338024      5.00E-03
    9    -286.8455126632      1.12E-03
   10    -286.8476952250      5.77E-04
   11    -286.8483642510      1.21E-04
   12    -286.8484754751      5.98E-05
   13    -286.8485148221      2.73E-05
   14    -286.8485398877      1.23E-05
   15    -286.8485479861      5.15E-06
   16    -286.8485511882      1.50E-06
   17    -286.8485521850      4.94E-07
   18    -286.8485524519      2.83E-07
   19    -286.8485525665      1.43E-07
   20    -286.8485525788      3.73E-08
   21    -286.8485525790      6.43E-09 Convergence criterion met
 ---------------------------------------
 <S^2> = 0.7600
 SCF time:  CPU 48.76 s  wall 13.11 s
 SCF   energy in the final basis set = -286.84855258
 Total energy in the final basis set = -286.84855258
 
 --------------------------------------------------------------
 
                    Orbital Energies (a.u.)
 --------------------------------------------------------------
 
 Alpha MOs
 -- Occupied --
-14.321 -10.226 -10.225 -10.208 -10.200 -10.198 -10.193  -0.942
 -0.793  -0.769  -0.703  -0.593  -0.555  -0.535  -0.508  -0.470
 -0.445  -0.405  -0.401  -0.365  -0.327  -0.277  -0.264  -0.258
 -0.234
 -- Virtual --
 -0.033   0.020   0.075   0.115   0.120   0.151   0.157   0.159
  0.168   0.197   0.241   0.282   0.304   0.352   0.406   0.448
  0.496   0.519   0.535   0.539   0.558   0.573   0.608   0.619
  0.625   0.640   0.659   0.673   0.704   0.720   0.749   0.796
  0.799   0.841   0.850   0.853   0.879   0.894   0.900   0.912
  0.947   1.013   1.026   1.036   1.122   1.126   1.168   1.331
  1.406   1.421   1.459   1.485   1.538   1.544   1.573   1.625
  1.658   1.747   1.820   1.852   1.884   1.919   1.977   1.994
  2.016   2.080   2.100   2.178   2.215   2.262   2.283   2.308
  2.353   2.412   2.491   2.557   2.572   2.584   2.632   2.742
  2.769   2.860   2.896   2.976   3.033   3.921   4.060   4.088
  4.199   4.288   4.409   4.570
 
 Beta MOs
 -- Occupied --
-14.321 -10.225 -10.224 -10.201 -10.198 -10.193 -10.193  -0.942
 -0.784  -0.768  -0.693  -0.585  -0.554  -0.526  -0.505  -0.459
 -0.439  -0.403  -0.400  -0.360  -0.325  -0.270  -0.262  -0.255
 -- Virtual --
 -0.073  -0.032   0.031   0.076   0.116   0.128   0.154   0.158
  0.160   0.174   0.198   0.242   0.283   0.310   0.355   0.427
  0.449   0.504   0.525   0.536   0.555   0.564   0.580   0.619
  0.625   0.632   0.643   0.661   0.676   0.707   0.720   0.758
  0.797   0.800   0.842   0.850   0.853   0.894   0.900   0.903
  0.915   0.949   1.015   1.036   1.046   1.125   1.135   1.170
  1.333   1.407   1.423   1.461   1.488   1.539   1.551   1.579
  1.627   1.705   1.769   1.839   1.858   1.899   1.924   1.983
  2.009   2.025   2.085   2.103   2.185   2.218   2.264   2.284
  2.318   2.354   2.421   2.495   2.559   2.575   2.586   2.634
  2.749   2.770   2.871   2.906   2.976   3.037   3.921   4.072
  4.104   4.206   4.290   4.409   4.571
 --------------------------------------------------------------
 
          Ground-State Mulliken Net Atomic Charges

     Atom                 Charge (a.u.)    Spin (a.u.)
  --------------------------------------------------------
      1 C                    -0.072806       0.044406
      2 C                    -0.098720      -0.162572
      3 C                    -0.197016       1.027076
      4 C                    -0.134996       0.001334
      5 C                     0.052309       0.004516
      6 N                    -0.376480      -0.003071
      7 H                     0.176692      -0.003970
      8 H                     0.162837       0.081409
      9 H                     0.162172       0.007955
     10 H                     0.138412       0.000160
     11 H                     0.144623      -0.000159
     12 C                    -0.108566       0.002519
     13 H                     0.151538       0.000397
  --------------------------------------------------------
  Sum of atomic charges =    -0.000000
  Sum of spin   charges =     1.000000

 -----------------------------------------------------------------
                    Cartesian Multipole Moments
 -----------------------------------------------------------------
    Charge (ESU x 10^10)
                -0.0000
    Dipole Moment (Debye)
         X      -0.7898      Y      -0.7218      Z       1.0688
       Tot       1.5123
    Quadrupole Moments (Debye-Ang)
        XX     -39.3867     XY      -4.0425     YY     -38.0552
        XZ      -0.3089     YZ       2.5144     ZZ     -40.3696
    Octopole Moments (Debye-Ang^2)
       XXX      -3.9133    XXY      -1.9363    XYY      -9.6016
       YYY     -11.7429    XXZ       4.8145    XYZ       3.3234
       YYZ      -4.2451    XZZ      -1.8372    YZZ      -9.6866
       ZZZ       6.6823
    Hexadecapole Moments (Debye-Ang^3)
      XXXX    -193.9396   XXXY      42.8266   XXYY    -123.4327
      XYYY      39.1620   YYYY    -466.4405   XXXZ      42.7411
      XXYZ      -8.9099   XYYZ      17.5637   YYYZ     -25.9561
      XXZZ     -59.6829   XYZZ      12.9375   YYZZ    -108.2561
      XZZZ      45.3506   YZZZ     -43.4476   ZZZZ    -189.3501
 -----------------------------------------------------------------
 Calculating analytic gradient of the SCF energy
 Gradient of SCF Energy
            1           2           3           4           5           6
    1   0.0023039  -0.0125840   0.0099619   0.0243651  -0.0078054   0.0053838
    2  -0.0042104  -0.0154890   0.0203007  -0.0345284   0.0029982  -0.0002821
    3  -0.0006794  -0.0003323   0.0054339   0.0023889   0.0029796  -0.0009919
            7           8           9          10          11          12
    1   0.0010016  -0.0002810   0.0002127  -0.0033830   0.0007198  -0.0195530
    2   0.0013018   0.0005866  -0.0049158   0.0024446   0.0011856   0.0389658
    3   0.0003436   0.0009265  -0.0041940   0.0019994  -0.0006520  -0.0143024
           13
    1  -0.0003425
    2  -0.0083576
    3   0.0070801
 Max gradient component =       3.897E-02
 RMS gradient           =       1.150E-02
 Gradient time:  CPU 7.14 s  wall 1.91 s
WARNING!!!!! energy has increased from optimization step!
 ----------------------------------------------------------------
             Standard Nuclear Orientation (Angstroms)
    I     Atom           X                Y                Z
 ----------------------------------------------------------------
    1      C       0.7303354162     0.0166644624     0.1774511235
    2      C       0.8946918460    -1.1483663908    -0.7693369114
    3      C       0.1148431336    -2.2287554206    -0.8031303253
    4      C      -1.2298567868     1.0762997406     0.7982133440
    5      C      -0.4591840291     1.8306603690    -0.2014109882
    6      N       0.6371440417     1.2816630304    -0.5809657473
    7      H       1.6404831120     0.0946669719     0.7986380414
    8      H       1.7175382258    -1.0502423093    -1.4738800311
    9      H       0.0690489010    -3.1219611192    -1.3914504327
   10      H      -2.1492112875     1.3580175415     1.2524886295
   11      H      -0.7712408613     2.7995074806    -0.5995686492
   12      C      -0.4880557151    -0.0646586492     1.0521964452
   13      H      -0.7143966281    -0.8482488269     1.7341824787
 ----------------------------------------------------------------
 Nuclear Repulsion Energy =   259.8275647243 hartrees
 There are       25 alpha and       24 beta electrons

                       Distance Matrix (Angstroms)
             C (  1)   C (  2)   C (  3)   C (  4)   C (  5)   N (  6)
   C (  2)  1.510204
   C (  3)  2.526318  1.332872
   C (  4)  2.313120  3.452544  3.910998
   C (  5)  2.202061  3.321162  4.143722  1.470458
   N (  6)  1.477871  2.450889  3.556008  2.330236  1.283509
   H (  7)  1.104684  2.135388  3.208042  3.033555  2.902133  2.078210
   H (  8)  2.199944  1.087697  2.099388  4.286225  3.828433  2.720722
   H (  9)  3.570675  2.227956  1.070530  4.909906  5.120907  4.513482
   H ( 10)  3.353613  4.431149  4.713433  1.063458  2.278905  3.336339
   H ( 11)  3.256180  4.288340  5.109795  2.265738  1.092966  2.070687
   C ( 12)  1.502088  2.530691  2.913596  1.384400  2.272575  2.397056
   H ( 13)  2.293194  2.991128  3.005228  2.201278  3.314847  3.423901
             H (  7)   H (  8)   H (  9)   H ( 10)   H ( 11)   C ( 12)
   H (  8)  2.545799
   H (  9)  4.196736  2.648836
   H ( 10)  4.020425  5.308913  5.655201
   H ( 11)  3.884270  4.666799  6.032989  2.721546
   C ( 12)  2.149501  3.495294  3.953337  2.196261  3.318429
   H ( 13)  2.703663  4.030729  3.943746  2.675506  4.330791  1.063179

 
 Applying Cartesian multipole field
    Component          Value
    ---------          -----
     (2,0,0)        1.00000E-11
     (0,2,0)        2.00000E-11
     (0,0,2)       -3.00000E-11
 Nucleus-field energy     =     0.0000000049 hartrees
 Requested basis set is 6-31G(d)
 There are 40 shells and 117 basis functions
 A cutoff of  1.0D-14 yielded    792 shell pairs
 There are      7034 function pairs
 Smallest overlap matrix eigenvalue = 1.57E-03
 Guess MOs from core Hamiltonian diagonalization
 Mixing HOMO and LUMO in initial guess
 Adding  50% of the LUMO to the HOMO
 An unrestricted hybrid HF-DFT SCF calculation will be
 performed using Pulay DIIS extrapolation
 Exchange:     0.2000 Hartree-Fock + 0.0800 Slater + 0.7200 B88
 Correlation:  0.1900 VWN1RPA + 0.8100 LYP
 Using SG-1 standard quadrature grid
 SCF converges when DIIS error is below 1.0E-08
 using 4 threads for integral computing
 -------------------------------------------------------
 OpenMP Integral computing Module                
 Release: version 1.0, May 2013, Q-Chem Inc. Pittsburgh 
 -------------------------------------------------------
 -------------------------------------------------------
 OpenMP BLAS3 based DFT computing Module                
 Release: version 1.0, May 2013, Q-Chem Inc. Pittsburgh 
 -------------------------------------------------------
 ---------------------------------------
  Cycle       Energy         DIIS Error
 ---------------------------------------
    1    -227.7024123502      1.38E-01
    2    -163.5387062516      1.55E-01
    3    -238.6928476201      1.06E-01
    4    -226.6566531910      1.30E-01
    5    -285.5576226757      2.31E-02
    6    -282.7471652714      3.84E-02
    7    -286.6587466185      9.31E-03
    8    -286.7350579702      7.90E-03
    9    -286.8435694024      1.26E-03
   10    -286.8459770482      8.02E-04
   11    -286.8471747807      2.01E-04
   12    -286.8473421586      9.18E-05
   13    -286.8474069238      4.30E-05
   14    -286.8474485696      1.67E-05
   15    -286.8474631594      6.55E-06
   16    -286.8474710519      1.30E-06
   17    -286.8474739437      6.98E-07
   18    -286.8474749936      4.04E-07
   19    -286.8474752935      9.12E-08
   20    -286.8474753019      4.50E-08
   21    -286.8474753036      1.62E-08
   22    -286.8474753050      8.95E-09 Convergence criterion met
 ---------------------------------------
 <S^2> = 0.7622
 SCF time:  CPU 49.98 s  wall 13.41 s
 SCF   energy in the final basis set = -286.84747530
 Total energy in the final basis set = -286.84747530
 
 --------------------------------------------------------------
 
                    Orbital Energies (a.u.)
 --------------------------------------------------------------
 
 Alpha MOs
 -- Occupied --
-14.321 -10.227 -10.224 -10.211 -10.204 -10.203 -10.198  -0.943
 -0.790  -0.760  -0.703  -0.598  -0.558  -0.539  -0.509  -0.470
 -0.445  -0.408  -0.394  -0.371  -0.325  -0.273  -0.264  -0.252
 -0.236
 -- Virtual --
 -0.038   0.011   0.069   0.121   0.129   0.153   0.157   0.164
  0.169   0.199   0.234   0.279   0.303   0.347   0.402   0.435
  0.501   0.521   0.534   0.547   0.559   0.571   0.599   0.604
  0.623   0.637   0.658   0.672   0.701   0.721   0.747   0.796
  0.812   0.845   0.847   0.852   0.882   0.892   0.898   0.913
  0.951   1.011   1.026   1.030   1.106   1.114   1.165   1.329
  1.401   1.419   1.457   1.483   1.532   1.541   1.572   1.630
  1.663   1.752   1.818   1.857   1.888   1.920   1.963   1.990
  2.016   2.065   2.075   2.177   2.185   2.255   2.271   2.296
  2.308   2.389   2.491   2.544   2.569   2.585   2.615   2.715
  2.754   2.838   2.886   2.946   3.030   3.932   4.049   4.086
  4.194   4.285   4.416   4.569
 
 Beta MOs
 -- Occupied --
-14.321 -10.226 -10.224 -10.205 -10.203 -10.198 -10.195  -0.942
 -0.783  -0.758  -0.691  -0.590  -0.556  -0.530  -0.507  -0.459
 -0.440  -0.406  -0.393  -0.366  -0.323  -0.268  -0.259  -0.248
 -- Virtual --
 -0.073  -0.038   0.023   0.071   0.124   0.134   0.155   0.158
  0.164   0.174   0.201   0.235   0.281   0.309   0.351   0.421
  0.436   0.509   0.528   0.540   0.557   0.565   0.581   0.602
  0.618   0.631   0.640   0.660   0.674   0.704   0.721   0.755
  0.797   0.813   0.846   0.847   0.852   0.892   0.896   0.906
  0.916   0.956   1.015   1.035   1.040   1.107   1.125   1.167
  1.331   1.403   1.421   1.459   1.486   1.534   1.548   1.578
  1.633   1.712   1.776   1.837   1.862   1.905   1.923   1.968
  2.005   2.022   2.070   2.081   2.184   2.186   2.258   2.273
  2.303   2.310   2.397   2.496   2.545   2.572   2.587   2.617
[...]
 
          Ground-State Mulliken Net Atomic Charges

     Atom                 Charge (a.u.)    Spin (a.u.)
  --------------------------------------------------------
      1 C                     0.006078       0.025991
      2 C                    -0.166657      -0.152473
      3 C                    -0.110055       0.784482
      4 C                    -0.248459      -0.072607
      5 C                     0.081724       0.040713
      6 N                    -0.337713       0.025316
      7 H                     0.150418       0.003759
      8 H                     0.161182       0.004992
      9 H                     0.134469       0.015522
     10 H                     0.141829       0.003480
     11 H                     0.143475      -0.001322
     12 C                    -0.122522       0.337474
     13 H                     0.166231      -0.015326
  --------------------------------------------------------
  Sum of atomic charges =    -0.000000
  Sum of spin   charges =     1.000000

 -----------------------------------------------------------------
                    Cartesian Multipole Moments
 -----------------------------------------------------------------
    Charge (ESU x 10^10)
                -0.0000
    Dipole Moment (Debye)
         X      -0.6029      Y      -1.3551      Z       1.2144
       Tot       1.9169
    Quadrupole Moments (Debye-Ang)
        XX     -39.3633     XY      -5.5038     YY     -42.7128
        XZ       0.9072     YZ       1.3209     ZZ     -39.4782
    Octopole Moments (Debye-Ang^2)
       XXX      -1.4637    XXY      -5.9680    XYY      -7.5110
       YYY     -16.6394    XXZ       5.9623    XYZ       2.9187
       YYZ      -0.6152    XZZ      -3.2062    YZZ      -9.1331
       ZZZ      10.2525
    Hexadecapole Moments (Debye-Ang^3)
      XXXX    -218.8165   XXXY     -10.1608   XXYY     -94.7654
      XYYY     -19.2028   YYYY    -329.0140   XXXZ      -7.4063
      XXYZ       3.6449   XYYZ       3.4931   YYYZ       2.5261
      XXZZ     -63.1217   XYZZ      -0.2928   YYZZ     -74.6400
      XZZZ      -6.3639   YZZZ      -1.7028   ZZZZ    -147.5647
 -----------------------------------------------------------------
 Calculating analytic gradient of the SCF energy
 Gradient of SCF Energy
            1           2           3           4           5           6
    1   0.0049222   0.0050714   0.0036135   0.0092865  -0.0028718  -0.0021423
    2   0.0018172  -0.0124598  -0.0102090   0.0114236  -0.0047045  -0.0055872
    3  -0.0030375   0.0012684   0.0002376   0.0004757   0.0077733  -0.0083006
            7           8           9          10          11          12
    1  -0.0123857   0.0079724   0.0107348  -0.0098491   0.0016670  -0.0123901
    2   0.0016425   0.0105438  -0.0205607   0.0234661   0.0154331  -0.0114147
    3   0.0010680  -0.0086777  -0.0095718   0.0203725  -0.0003028   0.0026102
           13
    1  -0.0036288
    2   0.0006096
    3  -0.0039153
 Max gradient component =       2.347E-02
 RMS gradient           =       9.350E-03
 Gradient time:  CPU 7.96 s  wall 2.02 s
 ----------------------------------------------------------------
             Standard Nuclear Orientation (Angstroms)
    I     Atom           X                Y                Z
 ----------------------------------------------------------------
    1      C       1.1271222322     0.2920958431     0.3162246644
    2      C       0.7090906327    -1.0649195092    -0.2965783030
    3      C      -0.5919703004    -1.1814899694    -0.8349977706
    4      C      -1.1357063388     0.2783610102     0.1766431013
    5      C      -0.5091862203     1.5025844265    -0.4184562139
    6      N       0.7787300032     1.4753210403    -0.4108226175
    7      H       2.0833515042     0.2904169608     0.8011423880
    8      H       1.5762836861    -1.6773042315    -0.5556765359
    9      H      -0.7680397134    -1.8664901398    -1.7113293373
   10      H      -2.1193215204     0.5135787988     0.6764610425
   11      H      -1.0135284509     2.3837185765    -0.8583918750
   12      C      -0.0357481860    -0.2681889282     1.0530980707
   13      H      -0.1443534422    -0.7058955396     2.0316917672
 ----------------------------------------------------------------
 Nuclear Repulsion Energy =   277.5152108299 hartrees
 There are       25 alpha and       24 beta electrons

                       Distance Matrix (Angstroms)
             C (  1)   C (  2)   C (  3)   C (  4)   C (  5)   N (  6)
   C (  2)  1.546534
   C (  3)  2.540088  1.412885
   C (  4)  2.267171  2.330583  1.857480
   C (  5)  2.163919  2.844491  2.717465  1.498464
   N (  6)  1.431781  2.543762  3.019501  2.333001  1.288227
   H (  7)  1.072158  2.220478  3.464219  3.279097  3.110952  2.138900
   H (  8)  2.200112  1.092781  2.241691  3.422836  3.805221  3.255168
   H (  9)  3.515979  2.196805  1.126136  2.880973  3.617898  3.905319
   H ( 10)  3.273870  3.382067  2.736890  1.128115  2.183921  3.241271
   H ( 11)  3.215120  3.895659  3.590121  2.349203  1.106482  2.058566
   C ( 12)  1.486327  1.735278  2.169887  1.508906  2.350586  2.417905
   H ( 13)  2.357003  2.505615  2.940146  2.322229  3.318691  3.402303
             H (  7)   H (  8)   H (  9)   H ( 10)   H ( 11)   C ( 12)
   H (  8)  2.443359
   H (  9)  4.369805  2.620530
   H ( 10)  4.210440  4.469410  3.632111
   H ( 11)  4.089820  4.826041  4.341894  2.660070
   C ( 12)  2.205925  2.678135  3.276107  2.257054  3.412105
   H ( 13)  2.733050  3.255565  3.968145  2.687800  4.319000  1.077510

 
 Applying Cartesian multipole field
    Component          Value
    ---------          -----
     (2,0,0)        1.00000E-11
     (0,2,0)        2.00000E-11
     (0,0,2)       -3.00000E-11
 Nucleus-field energy     =     0.0000000030 hartrees
 Requested basis set is 6-31G(d)
 There are 40 shells and 117 basis functions
 A cutoff of  1.0D-14 yielded    813 shell pairs
 There are      7085 function pairs
 Smallest overlap matrix eigenvalue = 1.98E-03
 Guess MOs from core Hamiltonian diagonalization
 Mixing HOMO and LUMO in initial guess
 Adding  50% of the LUMO to the HOMO
 An unrestricted hybrid HF-DFT SCF calculation will be
 performed using Pulay DIIS extrapolation
 Exchange:     0.2000 Hartree-Fock + 0.0800 Slater + 0.7200 B88
 Correlation:  0.1900 VWN1RPA + 0.8100 LYP
 Using SG-1 standard quadrature grid
 SCF converges when DIIS error is below 1.0E-08
 using 4 threads for integral computing
 -------------------------------------------------------
 OpenMP Integral computing Module                
 Release: version 1.0, May 2013, Q-Chem Inc. Pittsburgh 
 -------------------------------------------------------
 -------------------------------------------------------
 OpenMP BLAS3 based DFT computing Module                
 Release: version 1.0, May 2013, Q-Chem Inc. Pittsburgh 
 -------------------------------------------------------
 ---------------------------------------
  Cycle       Energy         DIIS Error
 ---------------------------------------
    1    -232.2509421470      1.41E-01
    2    -209.9873488500      1.13E-01
    3    -253.1718933607      9.70E-02
    4    -276.8653482450      6.94E-02
    5    -283.9661378395      3.80E-02
    6    -286.1689682542      1.80E-02
    7    -286.6371562242      8.51E-03
    8    -286.7630537344      2.78E-03
    9    -286.7766979599      8.01E-04
   10    -286.7778079694      4.43E-04
   11    -286.7781702881      1.54E-04
   12    -286.7782404698      7.16E-05
   13    -286.7782678034      3.08E-05
   14    -286.7782710802      1.15E-05
   15    -286.7782722342      3.25E-06
   16    -286.7782725777      1.52E-06
   17    -286.7782727123      7.80E-07
   18    -286.7782727465      2.39E-07
   19    -286.7782727489      5.38E-08
   20    -286.7782727491      1.08E-08
   21    -286.7782727492      4.33E-09 Convergence criterion met
 ---------------------------------------
 <S^2> = 0.7657
 SCF time:  CPU 54.40 s  wall 16.21 s
 SCF   energy in the final basis set = -286.77827275
 Total energy in the final basis set = -286.77827275
 
 --------------------------------------------------------------
 
                    Orbital Energies (a.u.)
 --------------------------------------------------------------
 
 Alpha MOs
 -- Occupied --
-14.316 -10.229 -10.224 -10.221 -10.219 -10.218 -10.218  -0.962
 -0.840  -0.732  -0.694  -0.590  -0.580  -0.535  -0.512  -0.460
 -0.421  -0.407  -0.397  -0.375  -0.328  -0.286  -0.272  -0.263
 -0.157
 -- Virtual --
 -0.016   0.030   0.070   0.095   0.135   0.150   0.154   0.165
  0.173   0.195   0.210   0.265   0.287   0.295   0.346   0.397
  0.500   0.503   0.510   0.531   0.567   0.583   0.592   0.598
  0.631   0.649   0.661   0.684   0.696   0.724   0.766   0.782
  0.807   0.817   0.832   0.838   0.861   0.893   0.904   0.916
  0.968   0.989   1.052   1.075   1.161   1.233   1.262   1.360
  1.405   1.446   1.462   1.510   1.579   1.597   1.635   1.684
  1.739   1.827   1.835   1.873   1.916   1.953   1.989   2.028
  2.055   2.112   2.163   2.198   2.233   2.289   2.317   2.349
  2.425   2.453   2.489   2.533   2.547   2.588   2.644   2.677
  2.687   2.771   2.798   2.903   2.974   3.949   4.102   4.233
  4.307   4.412   4.526   4.549
 
 Beta MOs
 -- Occupied --
-14.316 -10.229 -10.223 -10.220 -10.218 -10.215 -10.205  -0.959
 -0.833  -0.730  -0.681  -0.584  -0.575  -0.530  -0.507  -0.452
 -0.418  -0.402  -0.394  -0.372  -0.313  -0.277  -0.266  -0.254
 -- Virtual --
 -0.042  -0.002   0.037   0.084   0.100   0.140   0.153   0.156
  0.169   0.176   0.197   0.213   0.268   0.291   0.299   0.354
  0.399   0.505   0.508   0.520   0.545   0.569   0.587   0.595
  0.600   0.634   0.669   0.671   0.691   0.701   0.730   0.770
  0.785   0.809   0.818   0.838   0.841   0.866   0.895   0.907
  0.920   0.972   0.991   1.058   1.089   1.166   1.240   1.264
  1.365   1.410   1.453   1.470   1.519   1.586   1.609   1.641
  1.692   1.748   1.833   1.841   1.879   1.924   1.966   2.002
  2.034   2.068   2.117   2.167   2.205   2.250   2.300   2.324
  2.357   2.437   2.461   2.493   2.539   2.554   2.592   2.651
  2.681   2.691   2.775   2.805   2.904   2.975   3.950   4.118
  4.238   4.316   4.414   4.530   4.553
 --------------------------------------------------------------
 
          Ground-State Mulliken Net Atomic Charges

     Atom                 Charge (a.u.)    Spin (a.u.)
  --------------------------------------------------------
      1 C                     0.006427       0.028374
      2 C                    -0.166747      -0.149252
      3 C                    -0.109149       0.792208
      4 C                    -0.249121      -0.073280
      5 C                     0.081383       0.041631
      6 N                    -0.337283       0.024207
      7 H                     0.150380       0.003749
      8 H                     0.161030       0.004953
      9 H                     0.134654       0.013695
     10 H                     0.141884       0.003789
     11 H                     0.143488      -0.001279
     12 C                    -0.122841       0.325694
     13 H                     0.165896      -0.014488
  --------------------------------------------------------
  Sum of atomic charges =     0.000000
  Sum of spin   charges =     1.000000

 -----------------------------------------------------------------
                    Cartesian Multipole Moments
 -----------------------------------------------------------------
    Charge (ESU x 10^10)
                -0.0000
    Dipole Moment (Debye)
         X      -0.6121      Y      -1.3485      Z       1.2090
       Tot       1.9118
    Quadrupole Moments (Debye-Ang)
        XX     -39.3653     XY      -5.4937     YY     -42.7224
        XZ       0.9021     YZ       1.3367     ZZ     -39.4789
    Octopole Moments (Debye-Ang^2)
       XXX      -1.4834    XXY      -5.9528    XYY      -7.5236
       YYY     -16.6319    XXZ       5.9504    XYZ       2.9145
       YYZ      -0.6262    XZZ      -3.2042    YZZ      -9.1053
       ZZZ      10.2700
    Hexadecapole Moments (Debye-Ang^3)
      XXXX    -218.9856   XXXY     -10.2476   XXYY     -94.7367
      XYYY     -19.3382   YYYY    -328.7855   XXXZ      -7.5971
      XXYZ       3.7375   XYYZ       3.4005   YYYZ       2.8572
      XXZZ     -63.0844   XYZZ      -0.3417   YYZZ     -74.5303
      XZZZ      -6.6169   YZZZ      -1.3721   ZZZZ    -147.2804
 -----------------------------------------------------------------
 Calculating analytic gradient of the SCF energy
 Gradient of SCF Energy
            1           2           3           4           5           6
    1   0.0047823   0.0051831   0.0041456   0.0092479  -0.0028796  -0.0019687
    2   0.0014347  -0.0122914  -0.0107068   0.0119773  -0.0046084  -0.0057622
    3  -0.0029937   0.0006212   0.0003910   0.0008856   0.0080101  -0.0084999
            7           8           9          10          11          12
    1  -0.0125827   0.0083477   0.0109863  -0.0102377   0.0016782  -0.0129071
    2   0.0014899   0.0104458  -0.0211348   0.0237540   0.0155525  -0.0105567
    3   0.0010493  -0.0092375  -0.0097630   0.0206192  -0.0003330   0.0031156
           13
    1  -0.0037953
    2   0.0004061
    3  -0.0038648
 Max gradient component =       2.375E-02
 RMS gradient           =       9.503E-03
 Gradient time:  CPU 7.64 s  wall 2.05 s
 E1 = -286.7776500, E2 = -286.7782727, Emax = -286.7779558
 Iteration 5, Curvature = -0.3056948
 Curvature, final (in Hartree/Bohr^2) = -0.0856033
 ----------------------------------------------------------------
             Standard Nuclear Orientation (Angstroms)
    I     Atom           X                Y                Z
 ----------------------------------------------------------------
    1      C       1.1265080751     0.2914060132     0.3164791523
    2      C       0.7094753852    -1.0650669114    -0.2988357050
    3      C      -0.5910517615    -1.1835616630    -0.8352966418
    4      C      -1.1358609072     0.2804326480     0.1784050406
    5      C      -0.5092158707     1.5028447291    -0.4181050709
    6      N       0.7788381165     1.4747245928    -0.4109924916
    7      H       2.0829651965     0.2901500725     0.8012127041
    8      H       1.5769448447    -1.6769421313    -0.5569059377
    9      H      -0.7670685787    -1.8683630378    -1.7114805624
   10      H      -2.1196725999     0.5144142331     0.6770485256
   11      H      -1.0133347689     2.3839457657    -0.8581213362
   12      C      -0.0371237844    -0.2659001514     1.0541452011
   13      H      -0.1447760414    -0.7063384266     2.0314031590
 ----------------------------------------------------------------
 Nuclear Repulsion Energy =   277.4707257537 hartrees
 There are       25 alpha and       24 beta electrons
 Requested basis set is 6-31G(d)
 There are 40 shells and 117 basis functions
 Geometry Optimization Parameters
   NAtoms,    NIC,     NZ,  NCons,   NDum,   NFix, NCnnct, MaxDiis
       13     128       0       0       0       0       0       0


** GEOMETRY OPTIMIZATION IN DELOCALIZED INTERNAL COORDINATES **
   Searching for a Minimum

   Optimization Cycle:   1

                       Coordinates (Angstroms)
     ATOM                X               Y               Z
      1  C         1.1265080751    0.2914060132    0.3164791523
      2  C         0.7094753852   -1.0650669114   -0.2988357050
      3  C        -0.5910517615   -1.1835616630   -0.8352966418
      4  C        -1.1358609072    0.2804326480    0.1784050406
      5  C        -0.5092158707    1.5028447291   -0.4181050709
      6  N         0.7788381165    1.4747245928   -0.4109924916
      7  H         2.0829651965    0.2901500725    0.8012127041
      8  H         1.5769448447   -1.6769421313   -0.5569059377
      9  H        -0.7670685787   -1.8683630378   -1.7114805624
     10  H        -2.1196725999    0.5144142331    0.6770485256
     11  H        -1.0133347689    2.3839457657   -0.8581213362
     12  C        -0.0371237844   -0.2659001514    1.0541452011
     13  H        -0.1447760414   -0.7063384266    2.0314031590
   Point Group: c1    Number of degrees of freedom:    33


   Energy is   -286.778272749


 Attempting to Generate Delocalized Internal Coordinates

 33 Hessian modes will be used to form the next step
  Hessian Eigenvalues:
     0.007036    0.012566    0.013580    0.014413    0.019009    0.022728
     0.027989    0.035522    0.046068    0.055295    0.064940    0.068472
     0.088967    0.095658    0.111086    0.123189    0.136484    0.152761
     0.159984    0.172533    0.201394    0.244977    0.263341    0.306757
     0.308143    0.309737    0.329857    0.345285    0.363207    0.369438
     0.378091    0.388207    0.626288

 Minimum Search - Taking Simple RFO Step
 Searching for Lamda that Minimizes Along All modes
 Value Taken    Lamda =  -0.03362593
 Calculated Step too Large.  Step scaled by  0.520869
 Step Taken.  Stepsize is  0.300000

                             Maximum     Tolerance    Cnvgd?
         Gradient           0.041601      0.000300      NO
         Displacement       0.148549      0.001200      NO
         Energy change     *********      0.000001      NO


 New Cartesian Coordinates Obtained by Inverse Iteration

 Displacement from previous Coordinates is:  0.373337
 ----------------------------------------------------------------
             Standard Nuclear Orientation (Angstroms)
    I     Atom           X                Y                Z
 ----------------------------------------------------------------
    1      C       1.1448619693     0.2990204162     0.3318043357
    2      C       0.7015740380    -1.0530624457    -0.2849181546
    3      C      -0.6006330937    -1.1336764146    -0.8281514810
    4      C      -1.1225918345     0.2586374771     0.1745699249
    5      C      -0.5028003934     1.4800157619    -0.4267679966
    6      N       0.7877521199     1.4829284343    -0.3928005104
    7      H       2.1150813374     0.2901460171     0.8052963072
    8      H       1.5469438729    -1.6940171163    -0.5365776852
    9      H      -0.8251969367    -1.7653182510    -1.7139319785
   10      H      -2.1218070397     0.4374985998     0.6211094714
   11      H      -1.0314989926     2.3190617285    -0.8968015336
   12      C      -0.0165339895    -0.2528354337     1.0686326778
   13      H      -0.1185237522    -0.6966530407     2.0474926599
 ----------------------------------------------------------------
 Nuclear Repulsion Energy =   278.6418483134 hartrees
 There are       25 alpha and       24 beta electrons

































 Eigenvalues after right structure
 -0.1188843 -0.0000000 -0.0000000 -0.0000000 0.0000000 0.0000000 0.0000196 0.0155452 0.0210631 0.0391307 0.0433354 0.0535047 0.0591115 0.0657278 0.0815883 0.0835042 0.0932137 0.1210717 0.1326253 0.1404391 0.1469687 0.1820429 0.2378959 0.2598562 0.2844094 0.3154268 0.3901349 0.4329252 0.5059838 0.5853236 0.7102459 0.9173542 0.9839603 1.0560675 1.1555879 1.2030683 1.3267015 1.3670650 1.6972184
Archival summary:
1\1\c8-73\JobtypUnspecified\ProcedureUnspecified\6-31G*\166(2)\hpark21\FriMar412:20:022022FriMar412:20:022022\0\\#,JobtypUnspecified,ProcedureUnspecified,6-31G*,\\0,2\N\C,1,1.291\H,2,1.09748,1,119.414\C,1,1.43325,2,105.1,3,177.376,0\H,4,1.07963,1,116.899,2,-156.905,0\C,4,1.48199,1,111.327,2,-15.6758,0\H,6,1.0796,4,132.68,1,-140.43,0\C,2,1.49583,1,113.92,3,178.358,0\H,8,1.10897,2,113.798,1,150.249,0\C,4,1.5508,1,116.61,2,61.2752,0\H,10,1.09032,4,112.501,1,118.226,0\C,10,1.41327,4,117.773,1,-42.2575,0\H,12,1.11086,10,121.682,4,146.23,0\\\@

 Total job time:  988.90s(wall), 3739.70s(cpu) 
 Fri Mar  4 12:20:02 2022

        *************************************************************
        *                                                           *
        *  Thank you very much for using Q-Chem.  Have a nice day.  *
        *                                                           *
        *************************************************************


