
Running Job 1 of 1 qcirc.in
qchem qcirc.in_4852.0 ./qcirc.d/ 1
/home/leeping/opt/qchem/5.0.2-openmp/exe/qcprog.exe_s qcirc.in_4852.0 ./qcirc.d/
Check license passed

                  Welcome to Q-Chem
     A Quantum Leap Into The Future Of Chemistry


 Q-Chem 5.0, Q-Chem, Inc., Pleasanton, CA (2017)

 Yihan Shao,  Zhengting Gan,  E. Epifanovsky,  A. T. B. Gilbert,  M. Wormit,  
 J. Kussmann,  A. W. Lange,  A. Behn,  Jia Deng,  Xintian Feng,  D. Ghosh,  
 M. Goldey,  P. R. Horn,  L. D. Jacobson,  I. Kaliman,  T. Kus,  A. Landau,  
 Jie Liu,  E. I. Proynov,  R. M. Richard,  R. P. Steele,  E. J. Sundstrom,  
 H. L. Woodcock III,  P. M. Zimmerman,  D. Zuev,  B. Albrecht,  E. Alguire,  
 S. A. Baeppler,  D. Barton,  Z. Benda,  Y. A. Bernard,  E. J. Berquist,  
 K. B. Bravaya,  H. Burton,  D. Casanova,  Chun-Min Chang,  Yunqing Chen,  
 A. Chien,  K. D. Closser,  M. P. Coons,  S. Dasgupta,  A. L. Dempwolff,  
 M. Diedenhofen,  Hainam Do,  R. G. Edgar,  Po-Tung Fang,  S. Fatehi,  
 Qingguo Feng,  J. Fosso-Tande,  Qinghui Ge,  A. Ghysels,  G. Gidofalvi,  
 J. Gomes,  J. Gonthier,  A. Gunina,  M. W. D. Hanson-Heine,  
 P. H. P. Harbach,  A. W. Hauser,  J. E. Herr,  E. G. Hohenstein,  
 Z. C. Holden,  Kerwin Hui,  T.-C. Jagau,  Hyunjun Ji,  B. Kaduk,  
 K. Khistyaev,  Jaehoon Kim,  P. Klunzinger,  K. Koh,  D. Kosenkov,  
 L. Koulias,  T. Kowalczyk,  C. M. Krauter,  A. Kunitsa,  Ka Un Lao,  
 A. Laurent,  K. V. Lawler,  Joonho Lee,  D. Lefrancois,  S. Lehtola,  
 D. S. Levine,  Yi-Pei Li,  You-Sheng Lin,  Fenglai Liu,  E. Livshits,  
 A. Luenser,  P. Manohar,  E. Mansoor,  S. F. Manzer,  Shan-Ping Mao,  
 Yuezhi Mao,  N. Mardirossian,  A. V. Marenich,  T. Markovich,  
 L. A. Martinez-Martinez,  S. A. Maurer,  N. J. Mayhall,  S. C. McKenzie,  
 J.-M. Mewes,  A. F. Morrison,  J. W. Mullinax,  K. Nanda,  
 T. S. Nguyen-Beck,  R. Olivares-Amaya,  J. A. Parkhill,  T. M. Perrine,  
 F. Plasser,  S. Prager,  A. Prociuk,  E. Ramos,  D. R. Rehn,  F. Rob,  
 M. Schneider,  N. Sergueev,  S. M. Sharada,  S. Sharma,  D. W. Small,  
 T. Stauch,  T. Stein,  Yu-Chuan Su,  A. J. W. Thom,  A. Tkatchenko,  
 T. Tsuchimochi,  L. Vogt,  O. Vydrov,  M. A. Watson,  J. Wenzel,  
 M. de Wergifosse,  T. A. Wesolowski,  A. White,  J. Witte,  A. Yamada,  
 Jun Yang,  K. Yao,  S. Yeganeh,  S. R. Yost,  Zhi-Qiang You,  A. Zech,  
 Igor Ying Zhang,  Xing Zhang,  Yan Zhao,  Ying Zhu,  B. R. Brooks,  
 G. K. L. Chan,  C. J. Cramer,  M. S. Gordon,  W. J. Hehre,  A. Klamt,  
 M. W. Schmidt,  C. D. Sherrill,  D. G. Truhlar,  A. Aspuru-Guzik,  R. Baer,  
 A. T. Bell,  N. A. Besley,  Jeng-Da Chai,  R. A. DiStasio Jr.,  A. Dreuw,  
 B. D. Dunietz,  T. R. Furlani,  Chao-Ping Hsu,  Yousung Jung,  Jing Kong,  
 D. S. Lambrecht,  WanZhen Liang,  C. Ochsenfeld,  V. A. Rassolov,  
 L. V. Slipchenko,  J. E. Subotnik,  T. Van Voorhis,  J. M. Herbert,  
 A. I. Krylov,  P. M. W. Gill,  M. Head-Gordon

 Contributors to earlier versions of Q-Chem not listed above: 
 R. D. Adamson,  B. Austin,  J. Baker,  G. J. O. Beran,  K. Brandhorst,  
 S. T. Brown,  E. F. C. Byrd,  A. K. Chakraborty,  C.-L. Cheng,  
 Siu Hung Chien,  D. M. Chipman,  D. L. Crittenden,  H. Dachsel,  
 R. J. Doerksen,  A. D. Dutoi,  L. Fusti-Molnar,  W. A. Goddard III,  
 A. Golubeva-Zadorozhnaya,  S. R. Gwaltney,  G. Hawkins,  A. Heyden,  
 S. Hirata,  G. Kedziora,  F. J. Keil,  C. Kelley,  Jihan Kim,  R. A. King,  
 R. Z. Khaliullin,  P. P. Korambath,  W. Kurlancheek,  A. M. Lee,  M. S. Lee,  
 S. V. Levchenko,  Ching Yeh Lin,  D. Liotard,  R. C. Lochan,  I. Lotan,  
 P. E. Maslen,  N. Nair,  D. P. O'Neill,  D. Neuhauser,  E. Neuscamman,  
 C. M. Oana,  R. Olson,  B. Peters,  R. Peverati,  P. A. Pieniazek,  
 Y. M. Rhee,  J. Ritchie,  M. A. Rohrdanz,  E. Rosta,  N. J. Russ,  
 H. F. Schaefer III,  N. E. Schultz,  N. Shenvi,  A. C. Simmonett,  A. Sodt,  
 D. Stuck,  K. S. Thanthiriwatte,  V. Vanovschi,  Tao Wang,  A. Warshel,  
 C. F. Williams,  Q. Wu,  X. Xu,  W. Zhang

 Please cite Q-Chem as follows:
 Y. Shao et al., Mol. Phys. 113, 184-215 (2015)
 DOI: 10.1080/00268976.2014.952696

 Q-Chem 5.0.2 for Intel X86 EM64T Linux

 Parts of Q-Chem use Armadillo 5.200.1 (Boston Tea Smuggler).
 http://arma.sourceforge.net/

 Q-Chem begins on Fri Mar  4 13:01:38 2022  

Host: 
0

     Scratch files written to ./qcirc.d//
 Dec517 15110_ 26548  26544 5633   
Processing $rem in /home/leeping/opt/qchem/5.0.2-openmp/config/preferences.
 MEM_STATIC 2000
 MEM_TOTAL  8000
 SYMMETRY   OFF
 SYM_IGNORE TRUE 

Checking the input file for inconsistencies... 	...done.

--------------------------------------------------------------
User input:
--------------------------------------------------------------
$molecule
0 2
C        1.1779031116    0.2840944244    0.3689960102
C        0.7676713006   -0.9972239665   -0.3571738784
C       -0.5530491205   -0.9266570571   -0.8295145818
C       -1.0772296443    0.1603414448    0.1071820102
C       -0.4849925830    1.4655012319   -0.4297986839
N        0.7935087085    1.5245718443   -0.3171320011
H        2.1730474453    0.2829729468    0.8041510424
H        1.4809258936   -1.8021782831   -0.5110664618
H       -1.0736281102   -1.5425663514   -1.5493331602
H       -2.1346407866    0.1481677277    0.3693341658
H       -1.0515168464    2.2247759025   -0.9646693744
C        0.0078438060   -0.1986748046    1.1496575872
H       -0.0692158692   -0.6513793268    2.1283233625
$end

$rem
method                b3lyp
basis                 6-31+g(d,p)
unrestricted          true
symmetry              off
sym_ignore            true
incdft                false
incfock               0
scf_convergence       8
thresh                14
jobtype               rpath
scf_guess             core
scf_guess_mix         5
scf_algorithm         diis
max_scf_cycles        100
rpath_direction       1
rpath_tol_displacement 1000
rpath_max_cycles      50
geom_opt_max_cycles   300
geom_opt_hessian      read
$end

--------------------------------------------------------------
 ----------------------------------------------------------------
             Standard Nuclear Orientation (Angstroms)
    I     Atom           X                Y                Z
 ----------------------------------------------------------------
    1      C       1.1779031116     0.2840944244     0.3689960102
    2      C       0.7676713006    -0.9972239665    -0.3571738784
    3      C      -0.5530491205    -0.9266570571    -0.8295145818
    4      C      -1.0772296443     0.1603414448     0.1071820102
    5      C      -0.4849925830     1.4655012319    -0.4297986839
    6      N       0.7935087085     1.5245718443    -0.3171320011
    7      H       2.1730474453     0.2829729468     0.8041510424
    8      H       1.4809258936    -1.8021782831    -0.5110664618
    9      H      -1.0736281102    -1.5425663514    -1.5493331602
   10      H      -2.1346407866     0.1481677277     0.3693341658
   11      H      -1.0515168464     2.2247759025    -0.9646693744
   12      C       0.0078438060    -0.1986748046     1.1496575872
   13      H      -0.0692158692    -0.6513793268     2.1283233625
 ----------------------------------------------------------------
 Nuclear Repulsion Energy =   281.0251900598 hartrees
 There are       25 alpha and       24 beta electrons
 Requested basis set is 6-31+G(d,p)
 There are 53 shells and 163 basis functions

 Total QAlloc Memory Limit   8000 MB
 Mega-Array Size      1956 MB
 MEM_STATIC part      2000 MB
 Starting direction for rxn path = 1

                       Distance Matrix (Angstroms)
             C (  1)   C (  2)   C (  3)   C (  4)   C (  5)   N (  6)
   C (  2)  1.528852
   C (  3)  2.428692  1.404417
   C (  4)  2.273650  2.226936  1.527656
   C (  5)  2.190666  2.763957  2.426278  1.530534
   N (  6)  1.468780  2.522246  2.843286  2.353897  1.284815
   H (  7)  1.086128  2.227703  3.400540  3.326425  3.160092  2.168403
   H (  8)  2.284484  1.086447  2.237186  3.282967  3.814337  3.402561
   H (  9)  3.476502  2.260315  1.080965  2.375700  3.263176  3.796295
   H ( 10)  3.315332  3.203615  2.256971  1.089491  2.257282  3.307534
   H ( 11)  3.242718  3.749637  3.193472  2.326245  1.087904  2.076947
   C ( 12)  1.487124  1.866965  2.182128  1.546943  2.346711  2.395479
   H ( 13)  2.350670  2.645314  3.009764  2.399999  3.346348  3.385160
             H (  7)   H (  8)   H (  9)   H ( 10)   H ( 11)   C ( 12)
   H (  8)  2.560602
   H (  9)  4.405949  2.769683
   H ( 10)  4.331676  4.201342  2.768685
   H ( 11)  4.158983  4.778638  3.812504  2.695371
   C ( 12)  2.244876  2.738466  3.203151  2.306392  3.386109
   H ( 13)  2.766621  3.270116  3.915127  2.828303  4.336333  1.081049

 
 A cutoff of  1.0D-14 yielded   1405 shell pairs
 There are     13515 function pairs
 
 -------------------------------------------------------
 OpenMP Integral Computing Module                       
 Release: version 1.0, May 2013, Q-Chem Inc. Pittsburgh 
 -------------------------------------------------------
 Integral Job Info:
 Integral job number is                      11
 Integral operator is                         1
 short-range coefficients                     0
 long-range coefficients              100000000
 Omega coefficients                           0
 if combine SR and LR in K                    0
 Integral screening is                        0
 Integral computing path is                   2
 max size of driver memory is            800000
 size of driver memory is                593474
 size of scratch memory is              2361544
 max col of scratch BK array               1296
 max len of scratch array in speh3          155
 max len of scratch index in speh4           18
 max int batch size is                      520
 min int batch size is                       52
 fixed nKL is                                52
 max L of basis functions is                  2
 order of int derivative is                   0
 number of shells is                         53
 number of basis is                         163
 number of cartesian basis is               163
 number of contracted shell pairs          1405
 number of primitive shell pairs           4830
 maxK2 (contraction) of shell pair           36
 max number of K2 of shell pair               1
 max number of CS2 of shell pair            127
 max number of PS2 of shell pair            702
 mem total for path MDJ                  535308
 -------------------------------------------------------
 Smallest overlap matrix eigenvalue = 2.76E-05

 Scale SEOQF with 1.000000e-01/1.000000e-01/1.000000e-01

 Standard Electronic Orientation quadrupole field applied
 Nucleus-field energy     =     0.0000000026 hartrees
 Guess MOs from core Hamiltonian diagonalization
 Mixing HOMO and LUMO in initial guess
 Adding  50% of the LUMO to the HOMO
 An unrestricted hybrid HF-DFT SCF calculation will be
 performed using Pulay DIIS extrapolation
 Exchange:     0.2000 Hartree-Fock + 0.0800 Slater + 0.7200 B88
 Correlation:  0.1900 VWN1RPA + 0.8100 LYP
 Using SG-1 standard quadrature grid
 SCF converges when DIIS error is below 1.0E-08
 using 4 threads for integral computing
 -------------------------------------------------------
 OpenMP Integral computing Module                
 Release: version 1.0, May 2013, Q-Chem Inc. Pittsburgh 
 -------------------------------------------------------
 -------------------------------------------------------
 OpenMP BLAS3 based DFT computing Module                
 Release: version 1.0, May 2013, Q-Chem Inc. Pittsburgh 
 -------------------------------------------------------
 ---------------------------------------
  Cycle       Energy         DIIS Error
 ---------------------------------------
    1    -235.5613845842      9.87E-02
    2    -211.6698044190      7.26E-02
    3    -254.6252681854      7.67E-02
    4    -280.1542387816      3.77E-02
    5    -282.2940961329      3.19E-02
    6    -285.6728147916      1.67E-02
    7    -286.6350499013      7.14E-03
    8    -286.7684922667      4.69E-03
    9    -286.8444935558      5.80E-04
   10    -286.8463919901      3.94E-04
   11    -286.8471317550      1.68E-04
   12    -286.8473581109      6.75E-05
   13    -286.8474504231      5.07E-05
   14    -286.8475300455      1.59E-05
   15    -286.8475404100      9.09E-06
   16    -286.8475417142      4.01E-06
   17    -286.8475423259      8.30E-07
   18    -286.8475423651      1.82E-07
   19    -286.8475423753      9.04E-08
   20    -286.8475423800      3.86E-08
   21    -286.8475423807      1.58E-08
   22    -286.8475423808      6.53E-09 Convergence criterion met
 ---------------------------------------
 <S^2> = 0.7773
 SCF time:  CPU 110.59 s  wall 28.43 s
 SCF   energy in the final basis set = -286.84754238
 Total energy in the final basis set = -286.84754238
 
 --------------------------------------------------------------
 
                    Orbital Energies (a.u.)
 --------------------------------------------------------------
 
 Alpha MOs
 -- Occupied --
-14.330 -10.235 -10.230 -10.229 -10.226 -10.221 -10.206  -0.972
 -0.849  -0.751  -0.696  -0.601  -0.585  -0.548  -0.522  -0.472
 -0.444  -0.424  -0.409  -0.378  -0.356  -0.296  -0.284  -0.277
 -0.157
 -- Virtual --
 -0.017  -0.010   0.001   0.018   0.029   0.033   0.046   0.048
  0.062   0.071   0.074   0.095   0.100   0.107   0.109   0.118
  0.124   0.129   0.141   0.153   0.165   0.178   0.180   0.185
  0.192   0.197   0.207   0.218   0.225   0.234   0.240   0.251
  0.259   0.268   0.281   0.287   0.309   0.313   0.331   0.368
  0.372   0.382   0.407   0.455   0.629   0.668   0.675   0.695
  0.699   0.713   0.725   0.734   0.744   0.753   0.778   0.793
  0.806   0.814   0.858   0.901   0.917   0.936   0.955   1.002
  1.015   1.033   1.047   1.070   1.082   1.094   1.104   1.139
  1.202   1.217   1.326   1.340   1.384   1.419   1.437   1.487
  1.558   1.622   1.626   1.691   1.724   1.768   1.817   1.864
  1.878   1.908   1.952   1.980   2.042   2.093   2.105   2.126
  2.156   2.212   2.220   2.277   2.304   2.327   2.363   2.397
  2.404   2.437   2.447   2.485   2.504   2.520   2.534   2.553
  2.569   2.606   2.618   2.655   2.686   2.703   2.745   2.777
  2.852   2.857   2.981   3.071   3.083   3.291   3.316   3.326
  3.508   3.599   3.687   4.171   4.413   4.487   4.569   4.620
  4.694   4.831
 
 Beta MOs
 -- Occupied --
-14.329 -10.235 -10.231 -10.230 -10.222 -10.217 -10.197  -0.968
 -0.842  -0.747  -0.684  -0.598  -0.577  -0.541  -0.519  -0.463
 -0.441  -0.419  -0.407  -0.373  -0.351  -0.287  -0.275  -0.265
 -- Virtual --
 -0.054  -0.009  -0.002   0.003   0.019   0.031   0.038   0.047
  0.049   0.063   0.072   0.077   0.096   0.101   0.108   0.109
  0.119   0.128   0.132   0.142   0.153   0.164   0.179   0.181
  0.188   0.195   0.197   0.208   0.223   0.228   0.237   0.242
  0.254   0.260   0.273   0.282   0.288   0.312   0.315   0.333
  0.372   0.376   0.385   0.411   0.457   0.633   0.674   0.678
  0.699   0.711   0.727   0.734   0.744   0.749   0.759   0.784
  0.796   0.808   0.817   0.859   0.905   0.919   0.939   0.958
  1.005   1.019   1.036   1.049   1.071   1.087   1.102   1.109
  1.147   1.207   1.221   1.330   1.346   1.387   1.425   1.442
  1.491   1.566   1.627   1.636   1.698   1.732   1.771   1.828
  1.870   1.885   1.913   1.955   1.984   2.048   2.102   2.109
  2.130   2.166   2.220   2.229   2.283   2.310   2.330   2.367
  2.403   2.405   2.443   2.454   2.489   2.508   2.526   2.542
  2.556   2.573   2.614   2.620   2.664   2.692   2.706   2.748
  2.782   2.857   2.861   2.983   3.074   3.085   3.292   3.318
  3.327   3.509   3.602   3.692   4.173   4.423   4.487   4.581
  4.626   4.696   4.835
 --------------------------------------------------------------
 
          Ground-State Mulliken Net Atomic Charges

     Atom                 Charge (a.u.)    Spin (a.u.)
  --------------------------------------------------------
      1 C                    -0.133191      -0.021295
      2 C                    -0.103043      -0.233740
      3 C                    -0.141175       0.728694
      4 C                     0.002612      -0.101962
      5 C                    -0.070296      -0.002369
      6 N                    -0.179666       0.062424
      7 H                     0.138959       0.004314
      8 H                     0.139224       0.010302
      9 H                     0.139082      -0.028844
     10 H                     0.129090       0.010582
     11 H                     0.132712       0.001554
     12 C                    -0.200204       0.594698
     13 H                     0.145896      -0.024357
  --------------------------------------------------------
  Sum of atomic charges =    -0.000000
  Sum of spin   charges =     1.000000

 -----------------------------------------------------------------
                    Cartesian Multipole Moments
 -----------------------------------------------------------------
    Charge (ESU x 10^10)
                -0.0000
    Dipole Moment (Debye)
         X      -1.2887      Y      -2.0808      Z       0.8788
       Tot       2.6005
    Quadrupole Moments (Debye-Ang)
        XX     -38.8854     XY      -5.0411     YY     -44.9107
        XZ       2.2464     YZ       0.6036     ZZ     -41.5565
    Octopole Moments (Debye-Ang^2)
       XXX      -9.3274    XXY     -10.4640    XYY     -10.6370
       YYY     -26.5015    XXZ       3.8817    XYZ       2.9401
       YYZ      -1.5691    XZZ      -5.1706    YZZ     -10.2798
       ZZZ      10.1197
    Hexadecapole Moments (Debye-Ang^3)
      XXXX    -225.3333   XXXY      -9.9518   XXYY     -94.5920
      XYYY     -27.5180   YYYY    -325.7519   XXXZ      -7.5368
      XXYZ       4.8516   XYYZ       3.1307   YYYZ       4.6333
      XXZZ     -68.1347   XYZZ      -0.9662   YYZZ     -77.7068
      XZZZ     -10.5392   YZZZ      -2.2503   ZZZZ    -172.8002
 -----------------------------------------------------------------
 Calculating analytic gradient of the SCF energy
 Gradient of SCF Energy
            1           2           3           4           5           6
    1  -0.0000040   0.0000052   0.0000095  -0.0000014  -0.0000003  -0.0000008
    2   0.0000028   0.0000008  -0.0000025  -0.0000040  -0.0000014   0.0000025
    3   0.0000091   0.0000027  -0.0000054  -0.0000079  -0.0000027   0.0000065
            7           8           9          10          11          12
    1  -0.0000067   0.0000088   0.0000165  -0.0000034   0.0000013  -0.0000106
    2   0.0000056   0.0000042  -0.0000016  -0.0000059  -0.0000023   0.0000040
    3   0.0000167   0.0000100  -0.0000077  -0.0000162  -0.0000071   0.0000028
           13
    1  -0.0000142
    2  -0.0000020
    3  -0.0000007
 Max gradient component =       1.672E-05
 RMS gradient           =       7.160E-06
 Gradient time:  CPU 17.60 s  wall 4.94 s
rPathMan2.  file_steps = 951
 ------------------------------------------------------------------------
 Reaction path following.  The coordinates are cartesian              
 Step   1 E=    -286.847542 |G|=  0.000045 S_lin= 0.0000 S_tot= 0.0000
 ------------------------------------------------------------------------
 IRC -- neg. force constant =  -0.146216520542845     
 IRC -- max trans/rot const =   1.601321873264115E-004
 In first_irc_step: ISign =            1
 ----------------------------------------------------------------
             Standard Nuclear Orientation (Angstroms)
    I     Atom           X                Y                Z
 ----------------------------------------------------------------
    1      C       1.1717691858     0.2668341106     0.3720016322
    2      C       0.7782539416    -0.9958637579    -0.3965154631
    3      C      -0.5412027013    -0.9364564423    -0.8190043278
    4      C      -1.0755180403     0.1605141911     0.1102097145
    5      C      -0.4837635337     1.4648465260    -0.4302006205
    6      N       0.7941101102     1.5193996274    -0.3175761956
    7      H       2.1696654916     0.2793223057     0.8043185892
    8      H       1.4868929777    -1.8050203078    -0.5291123910
    9      H      -1.0709888424    -1.5444781260    -1.5424185449
   10      H      -2.1347458114     0.1470566512     0.3653001112
   11      H      -1.0507252041     2.2256955653    -0.9629259377
   12      C      -0.0108838335    -0.1541142646     1.1812185007
   13      H      -0.0762364363    -0.6559903465     2.1336609692
 ----------------------------------------------------------------
 Nuclear Repulsion Energy =   280.5299961290 hartrees
 There are       25 alpha and       24 beta electrons

                       Distance Matrix (Angstroms)
             C (  1)   C (  2)   C (  3)   C (  4)   C (  5)   N (  6)
   C (  2)  1.529666
   C (  3)  2.408459  1.386720
   C (  4)  2.264981  2.242867  1.533713
   C (  5)  2.195348  2.765668  2.433254  1.530849
   N (  6)  1.478873  2.516552  2.840021  2.350549  1.283987
   H (  7)  1.087590  2.236991  3.385573  3.320711  3.157561  2.165316
   H (  8)  2.281204  1.083737  2.225222  3.292113  3.819071  3.402420
   H (  9)  3.460610  2.243607  1.083371  2.374489  3.261579  3.790274
   H ( 10)  3.308691  3.220590  2.261848  1.089594  2.257240  3.305729
   H ( 11)  3.249408  3.747590  3.206171  2.327490  1.088179  2.078160
   C ( 12)  1.493552  1.954616  2.212281  1.542562  2.332664  2.386430
   H ( 13)  2.347886  2.692111  3.002180  2.399916  3.352225  3.390927
             H (  7)   H (  8)   H (  9)   H ( 10)   H ( 11)   C ( 12)
   H (  8)  2.566846
   H (  9)  4.397188  2.763590
   H ( 10)  4.328763  4.210326  2.762654
   H ( 11)  4.157215  4.782716  3.814503  2.694443
   C ( 12)  2.254932  2.809637  3.236531  2.295042  3.367806
   H ( 13)  2.772370  3.294542  3.910563  2.830096  4.340806  1.078563

 
 Applying Cartesian multipole field
    Component          Value
    ---------          -----
     (2,0,0)        1.00000E-11
     (0,2,0)        2.00000E-11
     (0,0,2)       -3.00000E-11
 Nucleus-field energy     =     0.0000000025 hartrees
 Requested basis set is 6-31+G(d,p)
 There are 53 shells and 163 basis functions
 A cutoff of  1.0D-14 yielded   1406 shell pairs
 There are     13518 function pairs
 Smallest overlap matrix eigenvalue = 2.65E-05
 Guess MOs from core Hamiltonian diagonalization
 Mixing HOMO and LUMO in initial guess
 Adding  50% of the LUMO to the HOMO
 An unrestricted hybrid HF-DFT SCF calculation will be
 performed using Pulay DIIS extrapolation
 Exchange:     0.2000 Hartree-Fock + 0.0800 Slater + 0.7200 B88
 Correlation:  0.1900 VWN1RPA + 0.8100 LYP
 Using SG-1 standard quadrature grid
 SCF converges when DIIS error is below 1.0E-08
 using 4 threads for integral computing
 -------------------------------------------------------
 OpenMP Integral computing Module                
 Release: version 1.0, May 2013, Q-Chem Inc. Pittsburgh 
 -------------------------------------------------------
 -------------------------------------------------------
 OpenMP BLAS3 based DFT computing Module                
 Release: version 1.0, May 2013, Q-Chem Inc. Pittsburgh 
 -------------------------------------------------------
 ---------------------------------------
  Cycle       Energy         DIIS Error
 ---------------------------------------
    1    -235.4932563335      9.89E-02
    2    -211.9277854443      7.24E-02
    3    -254.5543521871      7.64E-02
    4    -280.3141190437      3.73E-02
    5    -282.4782640356      3.09E-02
    6    -285.6827536411      1.66E-02
    7    -286.6333640540      7.08E-03
    8    -286.7635572720      4.79E-03
    9    -286.8445801534      7.86E-04
   10    -286.8472627918      5.53E-04
   11    -286.8486177051      2.23E-04
   12    -286.8489751045      1.14E-04
   13    -286.8491308315      6.03E-05
   14    -286.8492451350      1.59E-05
   15    -286.8492524258      8.89E-06
   16    -286.8492533668      2.75E-06
   17    -286.8492538320      5.96E-07
   18    -286.8492539283      3.42E-07
   19    -286.8492539845      1.38E-07
   20    -286.8492539971      3.09E-08
   21    -286.8492539973      1.44E-08
   22    -286.8492539973      4.16E-09 Convergence criterion met
 ---------------------------------------
 <S^2> = 0.7819
 SCF time:  CPU 108.96 s  wall 27.50 s
 SCF   energy in the final basis set = -286.84925400
 Total energy in the final basis set = -286.84925400
 
 --------------------------------------------------------------
 
                    Orbital Energies (a.u.)
 --------------------------------------------------------------
 
 Alpha MOs
 -- Occupied --
-14.332 -10.234 -10.231 -10.226 -10.221 -10.219 -10.209  -0.970
 -0.845  -0.747  -0.701  -0.599  -0.585  -0.546  -0.522  -0.473
 -0.442  -0.425  -0.406  -0.381  -0.357  -0.295  -0.283  -0.276
 -0.161
 -- Virtual --
 -0.027  -0.009   0.001   0.018   0.027   0.032   0.047   0.048
  0.063   0.070   0.074   0.095   0.101   0.106   0.109   0.118
  0.124   0.129   0.140   0.152   0.165   0.177   0.179   0.186
  0.194   0.197   0.206   0.218   0.226   0.232   0.239   0.250
  0.259   0.267   0.281   0.287   0.308   0.317   0.333   0.363
  0.371   0.388   0.408   0.453   0.628   0.667   0.685   0.695
  0.702   0.715   0.726   0.735   0.746   0.752   0.774   0.793
  0.807   0.818   0.857   0.896   0.920   0.938   0.954   1.003
  1.023   1.035   1.044   1.071   1.081   1.090   1.101   1.124
  1.205   1.222   1.322   1.341   1.376   1.414   1.433   1.483
  1.544   1.617   1.625   1.691   1.714   1.759   1.819   1.873
  1.888   1.911   1.955   1.983   2.036   2.083   2.098   2.113
  2.146   2.207   2.231   2.275   2.296   2.326   2.365   2.399
  2.412   2.433   2.447   2.485   2.499   2.509   2.538   2.546
  2.571   2.604   2.630   2.651   2.678   2.712   2.741   2.777
  2.843   2.863   2.973   3.073   3.084   3.294   3.325   3.330
  3.502   3.600   3.691   4.164   4.402   4.490   4.580   4.612
  4.714   4.823
 
 Beta MOs
 -- Occupied --
-14.330 -10.234 -10.231 -10.229 -10.222 -10.208 -10.201  -0.966
 -0.837  -0.744  -0.688  -0.596  -0.575  -0.539  -0.520  -0.464
 -0.439  -0.420  -0.404  -0.376  -0.352  -0.288  -0.273  -0.265
 -- Virtual --
 -0.053  -0.016  -0.003   0.003   0.019   0.030   0.035   0.047
  0.049   0.064   0.072   0.077   0.096   0.101   0.107   0.109
  0.119   0.128   0.131   0.141   0.153   0.165   0.178   0.181
  0.190   0.196   0.198   0.207   0.224   0.229   0.236   0.240
  0.254   0.260   0.271   0.282   0.288   0.311   0.319   0.336
  0.366   0.377   0.390   0.411   0.456   0.631   0.676   0.685
  0.700   0.712   0.726   0.738   0.746   0.752   0.759   0.780
  0.797   0.808   0.820   0.858   0.901   0.922   0.940   0.957
  1.006   1.026   1.039   1.046   1.072   1.086   1.095   1.107
  1.131   1.210   1.227   1.325   1.346   1.377   1.418   1.439
  1.487   1.552   1.623   1.635   1.698   1.722   1.762   1.829
  1.880   1.893   1.915   1.958   1.987   2.044   2.091   2.103
  2.118   2.155   2.217   2.238   2.283   2.302   2.328   2.369
  2.403   2.421   2.439   2.451   2.491   2.501   2.514   2.540
  2.551   2.578   2.611   2.633   2.661   2.685   2.716   2.743
  2.781   2.848   2.865   2.975   3.076   3.086   3.295   3.326
  3.332   3.503   3.604   3.694   4.166   4.411   4.490   4.597
  4.617   4.716   4.826
 --------------------------------------------------------------
 
          Ground-State Mulliken Net Atomic Charges

     Atom                 Charge (a.u.)    Spin (a.u.)
  --------------------------------------------------------
      1 C                    -0.087270      -0.050553
      2 C                    -0.109123      -0.230019
      3 C                    -0.144529       0.577288
      4 C                     0.012329      -0.098741
      5 C                    -0.075815      -0.020050
      6 N                    -0.183445       0.061990
      7 H                     0.136464       0.004431
      8 H                     0.139616       0.012012
      9 H                     0.140094      -0.021524
     10 H                     0.129084       0.008410
     11 H                     0.133538       0.001565
     12 C                    -0.236699       0.790960
     13 H                     0.145756      -0.035770
  --------------------------------------------------------
  Sum of atomic charges =    -0.000000
  Sum of spin   charges =     1.000000

 -----------------------------------------------------------------
                    Cartesian Multipole Moments
 -----------------------------------------------------------------
    Charge (ESU x 10^10)
                 0.0000
    Dipole Moment (Debye)
         X      -1.3468      Y      -2.1274      Z       0.6294
       Tot       2.5954
    Quadrupole Moments (Debye-Ang)
        XX     -38.8121     XY      -4.9872     YY     -44.7636
        XZ       2.4583     YZ       0.3512     ZZ     -41.8019
    Octopole Moments (Debye-Ang^2)
       XXX      -9.5933    XXY     -10.6441    XYY     -10.6982
       YYY     -26.6501    XXZ       3.6067    XYZ       2.8124
       YYZ      -1.7375    XZZ      -5.4113    YZZ     -10.6163
       ZZZ       8.5239
    Hexadecapole Moments (Debye-Ang^3)
      XXXX    -224.7949   XXXY      -9.2742   XXYY     -94.0336
      XYYY     -26.8205   YYYY    -323.8054   XXXZ      -5.8938
      XXYZ       4.1889   XYYZ       3.9550   YYYZ       2.5055
      XXZZ     -68.5363   XYZZ      -0.4358   YYZZ     -78.4891
      XZZZ      -7.8032   YZZZ      -4.9240   ZZZZ    -177.2308
 -----------------------------------------------------------------
 Calculating analytic gradient of the SCF energy
 Gradient of SCF Energy
            1           2           3           4           5           6
    1   0.0023360  -0.0022857  -0.0044860  -0.0005048  -0.0007402   0.0006042
    2   0.0051981   0.0008404   0.0022609  -0.0000521   0.0001560   0.0012204
    3  -0.0017322   0.0105594  -0.0028414  -0.0011429   0.0003537   0.0001129
            7           8           9          10          11          12
    1   0.0009139  -0.0015729  -0.0005416   0.0000381  -0.0002164   0.0046747
    2   0.0009749   0.0005652   0.0007325   0.0002456  -0.0003059  -0.0134772
    3   0.0000568   0.0052896  -0.0021978   0.0011162  -0.0005403  -0.0086325
           13
    1   0.0017807
    2   0.0016411
    3  -0.0004016
 Max gradient component =       1.348E-02
 RMS gradient           =       3.632E-03
 Gradient time:  CPU 17.53 s  wall 4.45 s
rPathMan2.  file_steps = 951
 IRC --- Status = 2.  Assess steepest descent step
 IRC --- Previous SD length =   0.150000
 IRC --- Point 1 E =     -286.847542 |G| =   0.000045 G.D1 =   0.000006
 IRC --- Point 2 E =     -286.849254 |G| =   0.022679 G.D1 =  -0.022481
 IRC --- Angle(G1/G2) =    7.59 Deg.  Curvature =  -0.1499
 IRC --- Corrector step required
 IRC --- equal length displacement: B_eq =   0.019854
 IRC --- chosen bisector length  : B_len =   0.015000
 ----------------------------------------------------------------
             Standard Nuclear Orientation (Angstroms)
    I     Atom           X                Y                Z
 ----------------------------------------------------------------
    1      C       1.1702264652     0.2661292427     0.3743111939
    2      C       0.7763025864    -0.9991137203    -0.3947144751
    3      C      -0.5382904797    -0.9350313515    -0.8194316330
    4      C      -1.0754764424     0.1605213827     0.1109443582
    5      C      -0.4827346713     1.4649285564    -0.4308323029
    6      N       0.7920581540     1.5200801929    -0.3175390525
    7      H       2.1698040091     0.2795024663     0.8040417555
    8      H       1.4865439167    -1.8043677803    -0.5294655150
    9      H      -1.0715507713    -1.5449705836    -1.5418309877
   10      H      -2.1347672232     0.1472465967     0.3653963470
   11      H      -1.0507509940     2.2258096736    -0.9628145539
   12      C      -0.0090961649    -0.1521427810     1.1802006440
   13      H      -0.0756410796    -0.6568461618     2.1306902581
 ----------------------------------------------------------------
 Nuclear Repulsion Energy =   280.6504207162 hartrees
 There are       25 alpha and       24 beta electrons

                       Distance Matrix (Angstroms)
             C (  1)   C (  2)   C (  3)   C (  4)   C (  5)   N (  6)
   C (  2)  1.532128
   C (  3)  2.405585  1.382985
   C (  4)  2.263558  2.242661  1.534407
   C (  5)  2.194916  2.767306  2.431852  1.531778
   N (  6)  1.481236  2.520425  2.837128  2.349401  1.281005
   H (  7)  1.088119  2.239134  3.382977  3.320600  3.156915  2.166832
   H (  8)  2.281190  1.082144  2.222562  3.291635  3.817864  3.402819
   H (  9)  3.460816  2.242409  1.085474  2.374949  3.261980  3.790312
   H ( 10)  3.307143  3.219664  2.263599  1.089504  2.258202  3.304146
   H ( 11)  3.249768  3.749799  3.205322  2.327871  1.088388  2.076145
   C ( 12)  1.488359  1.953092  2.211671  1.542153  2.331240  2.383569
   H ( 13)  2.342848  2.687122  2.999108  2.397318  3.350978  3.389061
             H (  7)   H (  8)   H (  9)   H ( 10)   H ( 11)   C ( 12)
   H (  8)  2.566632
   H (  9)  4.397522  2.763335
   H ( 10)  4.328884  4.209925  2.762525
   H ( 11)  4.157147  4.782048  3.815033  2.694376
   C ( 12)  2.252869  2.808869  3.237010  2.296087  3.366336
   H ( 13)  2.771059  3.291452  3.907431  2.828927  4.339391  1.078232

 
 Applying Cartesian multipole field
    Component          Value
    ---------          -----
     (2,0,0)        1.00000E-11
     (0,2,0)        2.00000E-11
     (0,0,2)       -3.00000E-11
 Nucleus-field energy     =     0.0000000025 hartrees
 Requested basis set is 6-31+G(d,p)
 There are 53 shells and 163 basis functions
 A cutoff of  1.0D-14 yielded   1406 shell pairs
 There are     13518 function pairs
 Smallest overlap matrix eigenvalue = 2.64E-05
 Guess MOs from core Hamiltonian diagonalization
 Mixing HOMO and LUMO in initial guess
 Adding  50% of the LUMO to the HOMO
 An unrestricted hybrid HF-DFT SCF calculation will be
 performed using Pulay DIIS extrapolation
 Exchange:     0.2000 Hartree-Fock + 0.0800 Slater + 0.7200 B88
 Correlation:  0.1900 VWN1RPA + 0.8100 LYP
 Using SG-1 standard quadrature grid
 SCF converges when DIIS error is below 1.0E-08
 using 4 threads for integral computing
 -------------------------------------------------------
 OpenMP Integral computing Module                
 Release: version 1.0, May 2013, Q-Chem Inc. Pittsburgh 
 -------------------------------------------------------
 -------------------------------------------------------
 OpenMP BLAS3 based DFT computing Module                
 Release: version 1.0, May 2013, Q-Chem Inc. Pittsburgh 
 -------------------------------------------------------
 ---------------------------------------
  Cycle       Energy         DIIS Error
 ---------------------------------------
    1    -235.4477772838      9.89E-02
    2    -211.8784597156      7.24E-02
    3    -254.5897534524      7.64E-02
    4    -280.3337764001      3.72E-02
    5    -282.4576506236      3.10E-02
    6    -285.6950997006      1.65E-02
    7    -286.6364560219      7.05E-03
    8    -286.7673159027      4.69E-03
    9    -286.8447103597      7.72E-04
   10    -286.8474113365      5.15E-04
   11    -286.8486294214      2.13E-04
   12    -286.8489624571      1.12E-04
   13    -286.8491083956      6.00E-05
   14    -286.8492183625      1.55E-05
   15    -286.8492251363      8.64E-06
   16    -286.8492259480      2.63E-06
   17    -286.8492263519      5.88E-07
   18    -286.8492264395      3.31E-07
   19    -286.8492264909      1.32E-07
   20    -286.8492265023      2.96E-08
   21    -286.8492265025      1.37E-08
   22    -286.8492265026      3.77E-09 Convergence criterion met
 ---------------------------------------
 <S^2> = 0.7813
 SCF time:  CPU 109.53 s  wall 27.74 s
 SCF   energy in the final basis set = -286.84922650
 Total energy in the final basis set = -286.84922650
 
 --------------------------------------------------------------
 
                    Orbital Energies (a.u.)
 --------------------------------------------------------------
 
 Alpha MOs
 -- Occupied --
-14.331 -10.234 -10.231 -10.226 -10.221 -10.218 -10.209  -0.970
 -0.846  -0.746  -0.702  -0.599  -0.585  -0.546  -0.522  -0.473
 -0.442  -0.425  -0.405  -0.382  -0.357  -0.296  -0.284  -0.276
 -0.160
 -- Virtual --
 -0.027  -0.009   0.002   0.019   0.027   0.032   0.047   0.048
  0.063   0.070   0.074   0.095   0.101   0.106   0.109   0.118
  0.124   0.129   0.140   0.152   0.165   0.177   0.180   0.186
  0.194   0.197   0.206   0.218   0.226   0.233   0.239   0.250
  0.259   0.267   0.281   0.287   0.308   0.317   0.333   0.362
  0.372   0.388   0.409   0.454   0.628   0.667   0.685   0.695
  0.702   0.715   0.726   0.736   0.747   0.752   0.774   0.793
  0.807   0.819   0.857   0.897   0.920   0.937   0.954   1.003
  1.024   1.035   1.044   1.071   1.081   1.092   1.101   1.125
  1.205   1.222   1.323   1.341   1.377   1.415   1.433   1.483
  1.544   1.617   1.624   1.691   1.715   1.759   1.821   1.874
  1.888   1.911   1.954   1.985   2.037   2.085   2.100   2.112
  2.147   2.208   2.232   2.276   2.297   2.327   2.365   2.399
  2.412   2.434   2.448   2.487   2.500   2.509   2.539   2.547
  2.572   2.605   2.631   2.652   2.679   2.712   2.741   2.778
  2.844   2.866   2.974   3.075   3.085   3.292   3.324   3.330
  3.503   3.602   3.694   4.164   4.403   4.491   4.580   4.613
  4.715   4.824
 
 Beta MOs
 -- Occupied --
-14.330 -10.234 -10.231 -10.228 -10.222 -10.208 -10.201  -0.966
 -0.838  -0.744  -0.689  -0.595  -0.574  -0.539  -0.520  -0.465
 -0.439  -0.420  -0.403  -0.377  -0.352  -0.289  -0.273  -0.265
 -- Virtual --
 -0.053  -0.015  -0.003   0.003   0.019   0.030   0.035   0.047
  0.049   0.064   0.072   0.077   0.096   0.101   0.107   0.109
  0.119   0.128   0.131   0.141   0.153   0.165   0.178   0.181
  0.190   0.196   0.198   0.206   0.224   0.229   0.236   0.240
  0.254   0.260   0.271   0.282   0.289   0.311   0.319   0.336
  0.365   0.377   0.390   0.412   0.456   0.631   0.676   0.685
  0.700   0.712   0.726   0.738   0.746   0.753   0.759   0.780
  0.798   0.808   0.822   0.858   0.902   0.922   0.940   0.957
  1.006   1.027   1.039   1.047   1.073   1.087   1.097   1.107
  1.132   1.211   1.226   1.326   1.346   1.378   1.419   1.439
  1.487   1.552   1.623   1.634   1.698   1.722   1.763   1.831
  1.881   1.893   1.914   1.956   1.989   2.046   2.094   2.105
  2.117   2.156   2.218   2.239   2.284   2.302   2.329   2.369
  2.403   2.420   2.440   2.452   2.492   2.502   2.514   2.541
  2.552   2.578   2.613   2.634   2.661   2.685   2.715   2.743
  2.781   2.849   2.868   2.976   3.077   3.087   3.294   3.325
  3.332   3.504   3.606   3.697   4.166   4.412   4.491   4.597
  4.618   4.716   4.827
 --------------------------------------------------------------
 
          Ground-State Mulliken Net Atomic Charges

     Atom                 Charge (a.u.)    Spin (a.u.)
  --------------------------------------------------------
      1 C                    -0.086691      -0.050191
      2 C                    -0.111534      -0.227916
      3 C                    -0.141706       0.573705
      4 C                     0.009968      -0.098660
      5 C                    -0.075045      -0.019883
      6 N                    -0.183694       0.061372
      7 H                     0.136615       0.004529
      8 H                     0.139329       0.011927
      9 H                     0.140261      -0.021645
     10 H                     0.129081       0.008406
     11 H                     0.133237       0.001553
     12 C                    -0.235537       0.792687
     13 H                     0.145716      -0.035886
  --------------------------------------------------------
  Sum of atomic charges =     0.000000
  Sum of spin   charges =     1.000000

 -----------------------------------------------------------------
                    Cartesian Multipole Moments
 -----------------------------------------------------------------
    Charge (ESU x 10^10)
                -0.0000
    Dipole Moment (Debye)
         X      -1.3469      Y      -2.1319      Z       0.6259
       Tot       2.5983
    Quadrupole Moments (Debye-Ang)
        XX     -38.7935     XY      -4.9811     YY     -44.7481
        XZ       2.4567     YZ       0.3471     ZZ     -41.8166
    Octopole Moments (Debye-Ang^2)
       XXX      -9.5889    XXY     -10.6553    XYY     -10.6876
       YYY     -26.6733    XXZ       3.5858    XYZ       2.8106
       YYZ      -1.7236    XZZ      -5.3992    YZZ     -10.6079
       ZZZ       8.4257
    Hexadecapole Moments (Debye-Ang^3)
      XXXX    -224.2328   XXXY      -9.1842   XXYY     -93.9501
      XYYY     -26.6705   YYYY    -323.8892   XXXZ      -5.9968
      XXYZ       4.1911   XYYZ       3.9060   YYYZ       2.4856
      XXZZ     -68.4401   XYZZ      -0.3992   YYZZ     -78.5021
      XZZZ      -7.8695   YZZZ      -4.9752   ZZZZ    -177.3375
 -----------------------------------------------------------------
 Calculating analytic gradient of the SCF energy
 Gradient of SCF Energy
            1           2           3           4           5           6
    1   0.0004953  -0.0045686  -0.0005361  -0.0013530   0.0029103  -0.0031843
    2   0.0045884  -0.0013263   0.0037389  -0.0004398   0.0001932   0.0018065
    3   0.0001028   0.0102054  -0.0014176  -0.0004228   0.0004030  -0.0003513
            7           8           9          10          11          12
    1   0.0013175  -0.0021348  -0.0013500   0.0000082  -0.0002489   0.0068801
    2   0.0010183   0.0014787  -0.0000556   0.0003965  -0.0002323  -0.0128237
    3   0.0000398   0.0053338  -0.0030845   0.0010790  -0.0005202  -0.0107098
           13
    1   0.0017642
    2   0.0016572
    3  -0.0006576
 Max gradient component =       1.282E-02
 RMS gradient           =       3.832E-03
 Gradient time:  CPU 17.89 s  wall 4.57 s
rPathMan2.  file_steps = 951
 IRC --- Status = 3.  Assess initial corrector step
 IRC --- bisector search: b =  0.000000 E =     -286.849254 G.B =  -0.001501
 IRC --- bisector search: b =  0.015000 E =     -286.849227 G.B =   0.005180
 IRC --- performed gradient/energy interpolation
 IRC --- bisector search:  estimate b(min) =   3.376466095684404E-003
 ----------------------------------------------------------------
             Standard Nuclear Orientation (Angstroms)
    I     Atom           X                Y                Z
 ----------------------------------------------------------------
    1      C       1.1714219229     0.2666754464     0.3725215093
    2      C       0.7778146959    -0.9965953171    -0.3961100648
    3      C      -0.5405471668    -0.9361356576    -0.8191005133
    4      C      -1.0755086767     0.1605158099     0.1103750811
    5      C      -0.4835319391     1.4648649909    -0.4303428107
    6      N       0.7936482195     1.5195528211    -0.3175678348
    7      H       2.1696966716     0.2793628594     0.8042562746
    8      H       1.4868144049    -1.8048734253    -0.5291918784
    9      H      -1.0711153313    -1.5445889771    -1.5422862871
   10      H      -2.1347506311     0.1470994075     0.3653217737
   11      H      -1.0507310094     2.2257212508    -0.9629008655
   12      C      -0.0104814334    -0.1536704881     1.1809893834
   13      H      -0.0761024229    -0.6561829886     2.1329922689
 ----------------------------------------------------------------
 Nuclear Repulsion Energy =   280.5570862928 hartrees
 There are       25 alpha and       24 beta electrons

                       Distance Matrix (Angstroms)
             C (  1)   C (  2)   C (  3)   C (  4)   C (  5)   N (  6)
   C (  2)  1.530220
   C (  3)  2.407811  1.385877
   C (  4)  2.264661  2.242820  1.533869
   C (  5)  2.195250  2.766036  2.432938  1.531058
   N (  6)  1.479405  2.517423  2.839369  2.350290  1.283315
   H (  7)  1.087708  2.237473  3.384988  3.320686  3.157415  2.165657
   H (  8)  2.281200  1.083377  2.224623  3.292006  3.818799  3.402510
   H (  9)  3.460656  2.243337  1.083843  2.374593  3.261669  3.790283
   H ( 10)  3.308342  3.220381  2.262242  1.089574  2.257457  3.305372
   H ( 11)  3.249489  3.748087  3.205980  2.327576  1.088226  2.077706
   C ( 12)  1.492383  1.954271  2.212144  1.542469  2.332343  2.385786
   H ( 13)  2.346751  2.690987  3.001489  2.399331  3.351944  3.390507
             H (  7)   H (  8)   H (  9)   H ( 10)   H ( 11)   C ( 12)
   H (  8)  2.566798
   H (  9)  4.397263  2.763533
   H ( 10)  4.328790  4.210236  2.762625
   H ( 11)  4.157200  4.782566  3.814622  2.694428
   C ( 12)  2.254467  2.809464  3.236639  2.295277  3.367475
   H ( 13)  2.772075  3.293846  3.909858  2.829833  4.340487  1.078487

 
 Applying Cartesian multipole field
    Component          Value
    ---------          -----
     (2,0,0)        1.00000E-11
     (0,2,0)        2.00000E-11
     (0,0,2)       -3.00000E-11
 Nucleus-field energy     =     0.0000000025 hartrees
 Requested basis set is 6-31+G(d,p)
 There are 53 shells and 163 basis functions
 A cutoff of  1.0D-14 yielded   1406 shell pairs
 There are     13518 function pairs
 Smallest overlap matrix eigenvalue = 2.64E-05
 Guess MOs from core Hamiltonian diagonalization
 Mixing HOMO and LUMO in initial guess
 Adding  50% of the LUMO to the HOMO
 An unrestricted hybrid HF-DFT SCF calculation will be
 performed using Pulay DIIS extrapolation
 Exchange:     0.2000 Hartree-Fock + 0.0800 Slater + 0.7200 B88
 Correlation:  0.1900 VWN1RPA + 0.8100 LYP
 Using SG-1 standard quadrature grid
 SCF converges when DIIS error is below 1.0E-08
 using 4 threads for integral computing
 -------------------------------------------------------
 OpenMP Integral computing Module                
 Release: version 1.0, May 2013, Q-Chem Inc. Pittsburgh 
 -------------------------------------------------------
 -------------------------------------------------------
 OpenMP BLAS3 based DFT computing Module                
 Release: version 1.0, May 2013, Q-Chem Inc. Pittsburgh 
 -------------------------------------------------------
 ---------------------------------------
  Cycle       Energy         DIIS Error
 ---------------------------------------
    1    -235.4828129545      9.89E-02
    2    -211.9165909770      7.24E-02
    3    -254.5622710764      7.64E-02
    4    -280.3186269765      3.72E-02
    5    -282.4737194837      3.09E-02
    6    -285.6855857319      1.66E-02
    7    -286.6341214242      7.08E-03
    8    -286.7644433481      4.77E-03
    9    -286.8446209033      7.83E-04
   10    -286.8473077780      5.44E-04
   11    -286.8486291425      2.21E-04
   12    -286.8489810069      1.13E-04
   13    -286.8491345158      6.02E-05
   14    -286.8492478465      1.58E-05
   15    -286.8492550167      8.83E-06
   16    -286.8492559265      2.72E-06
   17    -286.8492563770      5.94E-07
   18    -286.8492564712      3.40E-07
   19    -286.8492565263      1.36E-07
   20    -286.8492565386      3.06E-08
   21    -286.8492565388      1.43E-08
   22    -286.8492565389      4.07E-09 Convergence criterion met
 ---------------------------------------
 <S^2> = 0.7817
 SCF time:  CPU 108.81 s  wall 27.38 s
 SCF   energy in the final basis set = -286.84925654
 Total energy in the final basis set = -286.84925654
 
 --------------------------------------------------------------
 
                    Orbital Energies (a.u.)
 --------------------------------------------------------------
 
 Alpha MOs
 -- Occupied --
-14.331 -10.234 -10.231 -10.226 -10.221 -10.219 -10.209  -0.970
 -0.845  -0.747  -0.701  -0.599  -0.585  -0.546  -0.522  -0.473
 -0.442  -0.425  -0.406  -0.381  -0.357  -0.295  -0.283  -0.276
 -0.161
 -- Virtual --
 -0.027  -0.009   0.002   0.018   0.027   0.032   0.047   0.048
  0.063   0.070   0.074   0.095   0.101   0.106   0.109   0.118
  0.124   0.129   0.140   0.152   0.165   0.177   0.179   0.186
  0.194   0.197   0.206   0.218   0.226   0.233   0.239   0.250
  0.259   0.267   0.281   0.287   0.308   0.317   0.333   0.362
  0.371   0.388   0.408   0.453   0.628   0.667   0.685   0.695
  0.702   0.715   0.726   0.735   0.746   0.752   0.774   0.793
  0.807   0.818   0.857   0.897   0.920   0.938   0.954   1.003
  1.023   1.035   1.044   1.071   1.081   1.091   1.101   1.125
  1.205   1.222   1.322   1.341   1.376   1.414   1.433   1.483
  1.544   1.617   1.625   1.691   1.714   1.759   1.820   1.873
  1.888   1.911   1.955   1.984   2.036   2.083   2.098   2.113
  2.146   2.207   2.231   2.275   2.296   2.327   2.365   2.399
  2.412   2.433   2.447   2.486   2.499   2.509   2.539   2.546
  2.572   2.604   2.630   2.652   2.678   2.712   2.741   2.777
  2.843   2.863   2.973   3.074   3.085   3.294   3.324   3.330
  3.502   3.601   3.692   4.164   4.402   4.491   4.580   4.612
  4.714   4.823
 
 Beta MOs
 -- Occupied --
-14.330 -10.234 -10.231 -10.229 -10.222 -10.208 -10.201  -0.966
 -0.837  -0.744  -0.688  -0.596  -0.575  -0.539  -0.520  -0.464
 -0.439  -0.420  -0.403  -0.377  -0.352  -0.288  -0.273  -0.265
 -- Virtual --
 -0.053  -0.016  -0.003   0.003   0.019   0.030   0.035   0.047
  0.049   0.064   0.072   0.077   0.096   0.101   0.107   0.109
  0.119   0.128   0.131   0.141   0.153   0.165   0.178   0.181
  0.190   0.196   0.198   0.207   0.224   0.229   0.236   0.240
  0.254   0.260   0.271   0.282   0.289   0.311   0.319   0.336
  0.366   0.377   0.390   0.411   0.456   0.631   0.676   0.685
  0.700   0.712   0.726   0.738   0.746   0.752   0.759   0.780
  0.797   0.808   0.821   0.858   0.901   0.922   0.940   0.957
  1.006   1.026   1.039   1.046   1.072   1.087   1.096   1.107
  1.132   1.211   1.227   1.325   1.346   1.378   1.419   1.439
  1.487   1.552   1.623   1.635   1.698   1.722   1.762   1.830
  1.880   1.893   1.915   1.957   1.988   2.045   2.092   2.103
  2.118   2.155   2.217   2.238   2.283   2.302   2.329   2.369
  2.403   2.421   2.439   2.451   2.491   2.501   2.514   2.540
  2.551   2.578   2.612   2.633   2.661   2.685   2.716   2.743
  2.781   2.849   2.866   2.975   3.076   3.086   3.295   3.326
  3.332   3.503   3.604   3.695   4.166   4.411   4.490   4.597
  4.617   4.716   4.826
 --------------------------------------------------------------
 
          Ground-State Mulliken Net Atomic Charges

     Atom                 Charge (a.u.)    Spin (a.u.)
  --------------------------------------------------------
      1 C                    -0.087140      -0.050470
      2 C                    -0.109664      -0.229549
      3 C                    -0.143896       0.576486
      4 C                     0.011797      -0.098723
      5 C                    -0.075641      -0.020011
      6 N                    -0.183501       0.061850
      7 H                     0.136497       0.004453
      8 H                     0.139552       0.011993
      9 H                     0.140133      -0.021552
     10 H                     0.129083       0.008409
     11 H                     0.133470       0.001562
     12 C                    -0.236436       0.791348
     13 H                     0.145746      -0.035796
  --------------------------------------------------------
  Sum of atomic charges =     0.000000
  Sum of spin   charges =     1.000000

 -----------------------------------------------------------------
                    Cartesian Multipole Moments
 -----------------------------------------------------------------
    Charge (ESU x 10^10)
                 0.0000
    Dipole Moment (Debye)
         X      -1.3468      Y      -2.1284      Z       0.6286
       Tot       2.5960
    Quadrupole Moments (Debye-Ang)
        XX     -38.8079     XY      -4.9858     YY     -44.7601
        XZ       2.4579     YZ       0.3503     ZZ     -41.8052
    Octopole Moments (Debye-Ang^2)
       XXX      -9.5923    XXY     -10.6466    XYY     -10.6959
       YYY     -26.6554    XXZ       3.6020    XYZ       2.8120
       YYZ      -1.7344    XZZ      -5.4085    YZZ     -10.6145
       ZZZ       8.5018
    Hexadecapole Moments (Debye-Ang^3)
      XXXX    -224.6682   XXXY      -9.2539   XXYY     -94.0147
      XYYY     -26.7868   YYYY    -323.8241   XXXZ      -5.9170
      XXYZ       4.1894   XYYZ       3.9440   YYYZ       2.5011
      XXZZ     -68.5146   XYZZ      -0.4275   YYZZ     -78.4919
      XZZZ      -7.8182   YZZZ      -4.9354   ZZZZ    -177.2546
 -----------------------------------------------------------------
 Calculating analytic gradient of the SCF energy
 Gradient of SCF Energy
            1           2           3           4           5           6
    1   0.0019283  -0.0027961  -0.0036009  -0.0006956   0.0000759  -0.0002433
    2   0.0050624   0.0003491   0.0025950  -0.0001394   0.0001641   0.0013542
    3  -0.0013217   0.0104808  -0.0025215  -0.0009808   0.0003639   0.0000088
            7           8           9          10          11          12
    1   0.0010044  -0.0016990  -0.0007236   0.0000314  -0.0002238   0.0051652
    2   0.0009846   0.0007714   0.0005549   0.0002796  -0.0002893  -0.0133313
    3   0.0000531   0.0052993  -0.0023989   0.0011079  -0.0005358  -0.0090952
           13
    1   0.0017771
    2   0.0016448
    3  -0.0004598
 Max gradient component =       1.333E-02
 RMS gradient           =       3.629E-03
 Gradient time:  CPU 17.50 s  wall 4.44 s
rPathMan2.  file_steps = 951
 IRC --- Status = 4.  Checking bisector search.
 IRC --- Bisector search finished successfully.
 ------------------------------------------------------------------------
 Reaction path following.  The coordinates are cartesian              
 Step   2 E=    -286.849257 |G|=  0.022661 S_lin= 0.1498 S_tot= 0.1498
 ------------------------------------------------------------------------
  IRC -- SD step length =   0.150000000000000     
 ----------------------------------------------------------------
             Standard Nuclear Orientation (Angstroms)
    I     Atom           X                Y                Z
 ----------------------------------------------------------------
    1      C       1.1646674757     0.2489429118     0.3771510718
    2      C       0.7876087685    -0.9978182598    -0.4328219920
    3      C      -0.5279341376    -0.9452252261    -0.8102682005
    4      C      -1.0730720887     0.1610042344     0.1138105090
    5      C      -0.4837977118     1.4642901453    -0.4316173998
    6      N       0.7945003531     1.5148095362    -0.3175984974
    7      H       2.1661785513     0.2759138918     0.8040703846
    8      H       1.4927654491    -1.8075753062    -0.5477542983
    9      H      -1.0685807139    -1.5465326718    -1.5338834305
   10      H      -2.1348604483     0.1461200123     0.3614412249
   11      H      -1.0499471468     2.2267347484    -0.9610240783
   12      C      -0.0285738717    -0.1069738272     1.2128479912
   13      H      -0.0823271747    -0.6619444566     2.1346027517
 ----------------------------------------------------------------
 Nuclear Repulsion Energy =   279.9865148841 hartrees
 There are       25 alpha and       24 beta electrons

                       Distance Matrix (Angstroms)
             C (  1)   C (  2)   C (  3)   C (  4)   C (  5)   N (  6)
   C (  2)  1.533833
   C (  3)  2.387656  1.369629
   C (  4)  2.254897  2.259161  1.541052
   C (  5)  2.201957  2.771002  2.439485  1.530781
   N (  6)  1.490677  2.515278  2.836076  2.346642  1.284367
   H (  7)  1.089042  2.247833  3.369794  3.313972  3.156190  2.162060
   H (  8)  2.278676  1.079890  2.212643  3.300984  3.824316  3.402762
   H (  9)  3.444297  2.226851  1.085121  2.372888  3.259143  3.784473
   H ( 10)  3.301167  3.237325  2.268513  1.090384  2.256662  3.303871
   H ( 11)  3.256822  3.748780  3.218160  2.328744  1.087253  2.079139
   C ( 12)  1.499630  2.041565  2.246113  1.539699  2.319562  2.376952
   H ( 13)  2.339519  2.731532  2.991835  2.396335  3.356715  3.394168
             H (  7)   H (  8)   H (  9)   H ( 10)   H ( 11)   C ( 12)
   H (  8)  2.573294
   H (  9)  4.387597  2.757007
   H ( 10)  4.325703  4.219388  2.755772
   H ( 11)  4.155084  4.786631  3.816551  2.693494
   C ( 12)  2.265092  2.882055  3.270853  2.285912  3.348898
   H ( 13)  2.775909  3.314880  3.900382  2.830188  4.343232  1.077271

 
 Applying Cartesian multipole field
    Component          Value
    ---------          -----
     (2,0,0)        1.00000E-11
     (0,2,0)        2.00000E-11
     (0,0,2)       -3.00000E-11
 Nucleus-field energy     =     0.0000000024 hartrees
 Requested basis set is 6-31+G(d,p)
 There are 53 shells and 163 basis functions
 A cutoff of  1.0D-14 yielded   1406 shell pairs
 There are     13518 function pairs
 Smallest overlap matrix eigenvalue = 2.54E-05
 Guess MOs from core Hamiltonian diagonalization
 Mixing HOMO and LUMO in initial guess
 Adding  50% of the LUMO to the HOMO
 An unrestricted hybrid HF-DFT SCF calculation will be
 performed using Pulay DIIS extrapolation
 Exchange:     0.2000 Hartree-Fock + 0.0800 Slater + 0.7200 B88
 Correlation:  0.1900 VWN1RPA + 0.8100 LYP
 Using SG-1 standard quadrature grid
 SCF converges when DIIS error is below 1.0E-08
 using 4 threads for integral computing
 -------------------------------------------------------
 OpenMP Integral computing Module                
 Release: version 1.0, May 2013, Q-Chem Inc. Pittsburgh 
 -------------------------------------------------------
 -------------------------------------------------------
 OpenMP BLAS3 based DFT computing Module                
 Release: version 1.0, May 2013, Q-Chem Inc. Pittsburgh 
 -------------------------------------------------------
 ---------------------------------------
  Cycle       Energy         DIIS Error
 ---------------------------------------
    1    -235.8231041505      9.88E-02
    2    -212.6577367572      7.18E-02
    3    -254.0459196955      7.67E-02
    4    -280.4971785333      3.66E-02
    5    -281.7811103700      3.22E-02
    6    -285.7347523026      1.62E-02
    7    -286.6631611075      7.26E-03
    8    -286.7697048271      5.13E-03
    9    -286.8451171188      1.56E-03
   10    -286.8509057560      8.79E-04
   11    -286.8536086351      1.89E-04
   12    -286.8537796080      5.75E-05
   13    -286.8538082964      3.11E-05
   14    -286.8538255341      8.98E-06
   15    -286.8538302734      2.41E-06
   16    -286.8538311644      1.87E-06
   17    -286.8538318127      1.19E-06
   18    -286.8538322820      4.45E-07
   19    -286.8538323492      9.05E-08
   20    -286.8538323495      4.06E-08
   21    -286.8538323496      8.30E-09 Convergence criterion met
 ---------------------------------------
 <S^2> = 0.7726
 SCF time:  CPU 104.78 s  wall 27.16 s
 SCF   energy in the final basis set = -286.85383235
 Total energy in the final basis set = -286.85383235
 
 --------------------------------------------------------------
 
                    Orbital Energies (a.u.)
 --------------------------------------------------------------
 
 Alpha MOs
 -- Occupied --
-14.333 -10.232 -10.232 -10.222 -10.222 -10.213 -10.212  -0.967
 -0.841  -0.743  -0.706  -0.597  -0.584  -0.544  -0.521  -0.474
 -0.440  -0.425  -0.401  -0.383  -0.358  -0.296  -0.282  -0.275
 -0.168
 -- Virtual --
 -0.035  -0.008   0.002   0.019   0.026   0.032   0.047   0.048
  0.064   0.070   0.074   0.095   0.101   0.106   0.109   0.118
  0.123   0.130   0.139   0.152   0.166   0.176   0.180   0.188
  0.194   0.197   0.205   0.219   0.227   0.232   0.239   0.250
  0.260   0.266   0.281   0.287   0.307   0.321   0.336   0.356
  0.368   0.392   0.410   0.452   0.625   0.667   0.691   0.696
  0.705   0.717   0.727   0.737   0.748   0.750   0.773   0.792
  0.807   0.822   0.856   0.893   0.919   0.940   0.953   1.003
  1.025   1.031   1.049   1.071   1.078   1.089   1.100   1.117
  1.211   1.231   1.308   1.351   1.368   1.409   1.431   1.478
  1.531   1.615   1.620   1.689   1.706   1.756   1.820   1.873
  1.894   1.924   1.955   1.990   2.023   2.071   2.091   2.103
  2.136   2.196   2.239   2.276   2.291   2.324   2.366   2.392
  2.414   2.431   2.459   2.479   2.493   2.503   2.531   2.548
  2.579   2.607   2.639   2.652   2.671   2.723   2.742   2.780
  2.832   2.868   2.961   3.068   3.090   3.301   3.326   3.344
  3.496   3.589   3.698   4.156   4.394   4.493   4.578   4.611
  4.731   4.817
 
 Beta MOs
 -- Occupied --
-14.332 -10.233 -10.232 -10.223 -10.222 -10.206 -10.201  -0.963
 -0.833  -0.741  -0.692  -0.594  -0.572  -0.538  -0.520  -0.466
 -0.437  -0.421  -0.400  -0.378  -0.352  -0.290  -0.272  -0.265
 -- Virtual --
 -0.053  -0.022  -0.004   0.003   0.019   0.029   0.034   0.047
  0.049   0.066   0.071   0.076   0.095   0.102   0.107   0.109
  0.120   0.128   0.131   0.140   0.153   0.166   0.176   0.181
  0.190   0.197   0.199   0.206   0.225   0.230   0.236   0.240
  0.253   0.261   0.268   0.281   0.290   0.311   0.322   0.338
  0.359   0.375   0.394   0.412   0.454   0.628   0.676   0.693
  0.701   0.712   0.724   0.738   0.746   0.753   0.761   0.782
  0.798   0.808   0.825   0.857   0.898   0.923   0.941   0.957
  1.006   1.028   1.035   1.051   1.072   1.085   1.092   1.105
  1.122   1.215   1.237   1.311   1.355   1.371   1.413   1.439
  1.484   1.537   1.622   1.630   1.696   1.713   1.760   1.829
  1.880   1.897   1.927   1.957   1.993   2.036   2.082   2.095
  2.110   2.145   2.207   2.246   2.286   2.294   2.326   2.371
  2.398   2.422   2.434   2.461   2.485   2.495   2.506   2.532
  2.554   2.586   2.615   2.646   2.659   2.676   2.726   2.744
  2.783   2.836   2.871   2.963   3.070   3.092   3.302   3.326
  3.347   3.497   3.593   3.700   4.158   4.402   4.493   4.596
  4.617   4.733   4.820
 --------------------------------------------------------------
 
          Ground-State Mulliken Net Atomic Charges

     Atom                 Charge (a.u.)    Spin (a.u.)
  --------------------------------------------------------
      1 C                    -0.050267      -0.075114
      2 C                    -0.119336      -0.161846
      3 C                    -0.143305       0.406939
      4 C                     0.017825      -0.090866
      5 C                    -0.079852      -0.034109
      6 N                    -0.188690       0.056562
      7 H                     0.134271       0.004320
      8 H                     0.139892       0.009781
      9 H                     0.141143      -0.014227
     10 H                     0.129060       0.006159
     11 H                     0.134466       0.001355
     12 C                    -0.259027       0.932433
     13 H                     0.143820      -0.041385
  --------------------------------------------------------
  Sum of atomic charges =     0.000000
  Sum of spin   charges =     1.000000

 -----------------------------------------------------------------
                    Cartesian Multipole Moments
 -----------------------------------------------------------------
    Charge (ESU x 10^10)
                -0.0000
    Dipole Moment (Debye)
         X      -1.4345      Y      -2.1648      Z       0.3961
       Tot       2.6270
    Quadrupole Moments (Debye-Ang)
        XX     -38.7796     XY      -4.8881     YY     -44.5872
        XZ       2.6726     YZ       0.1328     ZZ     -41.9940
    Octopole Moments (Debye-Ang^2)
       XXX      -9.8673    XXY     -10.8161    XYY     -10.8458
       YYY     -26.8600    XXZ       3.3189    XYZ       2.6743
       YYZ      -1.9138    XZZ      -5.6212    YZZ     -10.9259
       ZZZ       6.9265
    Hexadecapole Moments (Debye-Ang^3)
      XXXX    -224.3235   XXXY      -8.4936   XXYY     -93.4908
      XYYY     -25.9640   YYYY    -321.9833   XXXZ      -4.3374
      XXYZ       3.5186   XYYZ       4.7255   YYYZ       0.3899
      XXZZ     -68.9691   XYZZ       0.1276   YYZZ     -79.1637
      XZZZ      -5.1529   YZZZ      -7.2321   ZZZZ    -181.1397
 -----------------------------------------------------------------
 Calculating analytic gradient of the SCF energy
 Gradient of SCF Energy
            1           2           3           4           5           6
    1   0.0045373  -0.0045638  -0.0060638  -0.0000300  -0.0038221   0.0029035
    2   0.0079539   0.0005270   0.0027180  -0.0002503   0.0009334   0.0025274
    3  -0.0032807   0.0144712  -0.0052392  -0.0017170   0.0003616   0.0002626
            7           8           9          10          11          12
    1   0.0017591  -0.0035592  -0.0005982  -0.0002909   0.0000315   0.0064667
    2   0.0019757   0.0016110   0.0017058   0.0005195  -0.0010430  -0.0230674
    3  -0.0000045   0.0101399  -0.0042464   0.0022102  -0.0006265  -0.0120700
           13
    1   0.0032299
    2   0.0038891
    3  -0.0002612
 Max gradient component =       2.307E-02
 RMS gradient           =       5.837E-03
 Gradient time:  CPU 17.50 s  wall 4.44 s
rPathMan2.  file_steps = 951
 IRC --- Status = 2.  Assess steepest descent step
 IRC --- Previous SD length =   0.150000
 IRC --- Point 1 E =     -286.849257 |G| =   0.022661 G.D1 =  -0.022661
 IRC --- Point 2 E =     -286.853832 |G| =   0.036450 G.D1 =  -0.035611
 IRC --- Angle(G1/G2) =   12.31 Deg.  Curvature =  -0.0863
 IRC --- Corrector step required
 IRC --- equal length displacement: B_eq =   0.032171
 IRC --- chosen bisector length  : B_len =   0.016085
 ----------------------------------------------------------------
             Standard Nuclear Orientation (Angstroms)
    I     Atom           X                Y                Z
 ----------------------------------------------------------------
    1      C       1.1631042512     0.2491485693     0.3784084381
    2      C       0.7876810633    -0.9977805776    -0.4302230265
    3      C      -0.5276381290    -0.9436399408    -0.8089796985
    4      C      -1.0742576862     0.1610326058     0.1139623456
    5      C      -0.4795030927     1.4635612733    -0.4313738516
    6      N       0.7909127718     1.5144292401    -0.3178690824
    7      H       2.1660221653     0.2754871189     0.8041682726
    8      H       1.4936653539    -1.8079785240    -0.5495138671
    9      H      -1.0691966796    -1.5474181798    -1.5334611186
   10      H      -2.1344888155     0.1460440858     0.3609749289
   11      H      -1.0503733842     2.2273636189    -0.9612802698
   12      C      -0.0265688793    -0.1052052184     1.2100610878
   13      H      -0.0827316349    -0.6632983390     2.1340818778
 ----------------------------------------------------------------
 Nuclear Repulsion Energy =   280.2418745883 hartrees
 There are       25 alpha and       24 beta electrons

                       Distance Matrix (Angstroms)
             C (  1)   C (  2)   C (  3)   C (  4)   C (  5)   N (  6)
   C (  2)  1.532860
   C (  3)  2.385633  1.369837
   C (  4)  2.254658  2.259602  1.539778
   C (  5)  2.197431  2.768386  2.437113  1.532222
   N (  6)  1.491397  2.514723  2.832291  2.344573  1.276490
   H (  7)  1.089867  2.246054  3.368133  3.314951  3.152283  2.164456
   H (  8)  2.280807  1.081233  2.213611  3.303246  3.822345  3.403809
   H (  9)  3.444715  2.228729  1.087523  2.373359  3.260112  3.783197
   H ( 10)  3.299251  3.236264  2.266754  1.088729  2.258904  3.300194
   H ( 11)  3.256929  3.749936  3.217408  2.329472  1.090911  2.076677
   C ( 12)  1.494167  2.037210  2.242893  1.539470  2.315272  2.371932
   H ( 13)  2.338174  2.728581  2.989673  2.396566  3.355968  3.393791
             H (  7)   H (  8)   H (  9)   H ( 10)   H ( 11)   C ( 12)
   H (  8)  2.573975
   H (  9)  4.387953  2.757591
   H ( 10)  4.325225  4.220272  2.755277
   H ( 11)  4.155939  4.788076  3.817947  2.693614
   C ( 12)  2.262108  2.882126  3.270163  2.286351  3.347204
   H ( 13)  2.776127  3.316173  3.899443  2.829956  4.344367  1.080942

 
 Applying Cartesian multipole field
    Component          Value
    ---------          -----
     (2,0,0)        1.00000E-11
     (0,2,0)        2.00000E-11
     (0,0,2)       -3.00000E-11
 Nucleus-field energy     =     0.0000000024 hartrees
 Requested basis set is 6-31+G(d,p)
 There are 53 shells and 163 basis functions
 A cutoff of  1.0D-14 yielded   1406 shell pairs
 There are     13518 function pairs
 Smallest overlap matrix eigenvalue = 2.53E-05
 Guess MOs from core Hamiltonian diagonalization
 Mixing HOMO and LUMO in initial guess
 Adding  50% of the LUMO to the HOMO
 An unrestricted hybrid HF-DFT SCF calculation will be
 performed using Pulay DIIS extrapolation
 Exchange:     0.2000 Hartree-Fock + 0.0800 Slater + 0.7200 B88
 Correlation:  0.1900 VWN1RPA + 0.8100 LYP
 Using SG-1 standard quadrature grid
 SCF converges when DIIS error is below 1.0E-08
 using 4 threads for integral computing
 -------------------------------------------------------
 OpenMP Integral computing Module                
 Release: version 1.0, May 2013, Q-Chem Inc. Pittsburgh 
 -------------------------------------------------------
 -------------------------------------------------------
 OpenMP BLAS3 based DFT computing Module                
 Release: version 1.0, May 2013, Q-Chem Inc. Pittsburgh 
 -------------------------------------------------------
 ---------------------------------------
  Cycle       Energy         DIIS Error
 ---------------------------------------
    1    -235.6433916123      9.89E-02
    2    -212.4630304459      7.20E-02
    3    -253.9973870376      7.67E-02
    4    -280.5042103998      3.65E-02
    5    -281.7071031124      3.24E-02
    6    -285.7540700246      1.61E-02
    7    -286.6667028967      7.21E-03
    8    -286.7733659902      5.03E-03
    9    -286.8454971692      1.52E-03
   10    -286.8510484251      8.46E-04
   11    -286.8535544525      1.88E-04
   12    -286.8537234504      5.58E-05
   13    -286.8537516222      3.04E-05
   14    -286.8537686242      8.81E-06
   15    -286.8537734095      2.38E-06
   16    -286.8537743298      1.88E-06
   17    -286.8537749998      1.21E-06
   18    -286.8537754627      4.36E-07
   19    -286.8537755232      8.64E-08
   20    -286.8537755235      3.98E-08
   21    -286.8537755236      8.35E-09 Convergence criterion met
 ---------------------------------------
 <S^2> = 0.7727
 SCF time:  CPU 104.13 s  wall 26.34 s
 SCF   energy in the final basis set = -286.85377552
 Total energy in the final basis set = -286.85377552
 
 --------------------------------------------------------------
 
                    Orbital Energies (a.u.)
 --------------------------------------------------------------
 
 Alpha MOs
 -- Occupied --
-14.333 -10.232 -10.232 -10.222 -10.221 -10.213 -10.212  -0.969
 -0.842  -0.743  -0.706  -0.596  -0.584  -0.544  -0.521  -0.475
 -0.441  -0.425  -0.402  -0.383  -0.358  -0.297  -0.283  -0.274
 -0.168
 -- Virtual --
 -0.034  -0.007   0.002   0.019   0.026   0.032   0.047   0.048
  0.064   0.070   0.074   0.095   0.101   0.106   0.109   0.118
  0.123   0.129   0.139   0.152   0.166   0.176   0.180   0.188
  0.195   0.197   0.205   0.219   0.227   0.232   0.239   0.250
  0.260   0.265   0.281   0.288   0.307   0.321   0.336   0.356
  0.369   0.392   0.412   0.454   0.626   0.668   0.692   0.695
  0.706   0.717   0.726   0.738   0.748   0.752   0.773   0.793
  0.807   0.822   0.856   0.893   0.918   0.939   0.953   1.002
  1.026   1.032   1.049   1.071   1.078   1.090   1.099   1.118
  1.212   1.231   1.310   1.351   1.370   1.409   1.431   1.479
  1.532   1.615   1.619   1.690   1.710   1.756   1.821   1.873
  1.895   1.924   1.954   1.992   2.024   2.074   2.093   2.104
  2.138   2.198   2.242   2.278   2.292   2.324   2.364   2.391
  2.413   2.432   2.459   2.479   2.494   2.502   2.531   2.549
  2.580   2.608   2.639   2.653   2.670   2.723   2.742   2.781
  2.833   2.872   2.962   3.070   3.089   3.296   3.324   3.340
  3.494   3.588   3.697   4.158   4.395   4.495   4.579   4.610
  4.732   4.818
 
 Beta MOs
 -- Occupied --
-14.331 -10.232 -10.232 -10.223 -10.222 -10.206 -10.201  -0.965
 -0.835  -0.741  -0.692  -0.593  -0.572  -0.538  -0.520  -0.466
 -0.437  -0.420  -0.400  -0.378  -0.353  -0.291  -0.271  -0.265
 -- Virtual --
 -0.053  -0.021  -0.003   0.003   0.019   0.029   0.034   0.047
  0.049   0.066   0.071   0.076   0.095   0.102   0.107   0.109
  0.120   0.128   0.131   0.140   0.153   0.166   0.176   0.181
  0.190   0.197   0.199   0.206   0.225   0.230   0.236   0.240
  0.253   0.261   0.268   0.281   0.290   0.310   0.322   0.338
  0.359   0.376   0.394   0.414   0.456   0.629   0.677   0.694
  0.701   0.712   0.724   0.739   0.747   0.754   0.761   0.782
  0.799   0.808   0.825   0.857   0.897   0.922   0.941   0.956
  1.006   1.028   1.036   1.052   1.072   1.085   1.093   1.105
  1.124   1.215   1.237   1.312   1.355   1.372   1.413   1.438
  1.484   1.538   1.622   1.629   1.697   1.716   1.760   1.830
  1.880   1.898   1.927   1.956   1.994   2.038   2.085   2.097
  2.110   2.147   2.208   2.249   2.288   2.295   2.326   2.370
  2.398   2.422   2.436   2.461   2.486   2.495   2.505   2.533
  2.555   2.587   2.616   2.645   2.660   2.675   2.726   2.744
  2.784   2.837   2.874   2.965   3.072   3.091   3.298   3.324
  3.343   3.495   3.592   3.699   4.160   4.404   4.494   4.596
  4.616   4.734   4.821
 --------------------------------------------------------------
 
          Ground-State Mulliken Net Atomic Charges

     Atom                 Charge (a.u.)    Spin (a.u.)
  --------------------------------------------------------
      1 C                    -0.050334      -0.075055
      2 C                    -0.120938      -0.163028
      3 C                    -0.142410       0.411071
      4 C                     0.015624      -0.091469
      5 C                    -0.077458      -0.032969
      6 N                    -0.187924       0.055271
      7 H                     0.134539       0.004465
      8 H                     0.139887       0.010001
      9 H                     0.141203      -0.014424
     10 H                     0.128949       0.006232
     11 H                     0.133833       0.001362
     12 C                    -0.259209       0.929907
     13 H                     0.144237      -0.041365
  --------------------------------------------------------
  Sum of atomic charges =    -0.000000
  Sum of spin   charges =     1.000000

 -----------------------------------------------------------------
                    Cartesian Multipole Moments
 -----------------------------------------------------------------
    Charge (ESU x 10^10)
                -0.0000
    Dipole Moment (Debye)
         X      -1.4227      Y      -2.1558      Z       0.3974
       Tot       2.6133
    Quadrupole Moments (Debye-Ang)
        XX     -38.7591     XY      -4.8592     YY     -44.5812
        XZ       2.6513     YZ       0.1434     ZZ     -42.0083
    Octopole Moments (Debye-Ang^2)
       XXX      -9.8497    XXY     -10.8032    XYY     -10.7708
       YYY     -26.8340    XXZ       3.3094    XYZ       2.6632
       YYZ      -1.8831    XZZ      -5.5954    YZZ     -10.9099
       ZZZ       6.8647
    Hexadecapole Moments (Debye-Ang^3)
      XXXX    -223.8281   XXXY      -8.3760   XXYY     -93.3851
      XYYY     -25.7320   YYYY    -321.8087   XXXZ      -4.4624
      XXYZ       3.5396   XYYZ       4.6141   YYYZ       0.5409
      XXZZ     -68.8770   XYZZ       0.1686   YYZZ     -79.1136
      XZZZ      -5.2929   YZZZ      -7.2333   ZZZZ    -181.0555
 -----------------------------------------------------------------
 Calculating analytic gradient of the SCF energy
 Gradient of SCF Energy
            1           2           3           4           5           6
    1   0.0018199  -0.0049958  -0.0047194  -0.0022956   0.0073669  -0.0063067
    2   0.0076681   0.0011366   0.0044587  -0.0004131  -0.0010001   0.0021205
    3  -0.0022430   0.0152410  -0.0037804  -0.0012674   0.0026369  -0.0004200
            7           8           9          10          11          12
    1   0.0023264  -0.0029549  -0.0014686   0.0006283  -0.0012660   0.0089906
    2   0.0017407   0.0008674   0.0007547   0.0003713   0.0004247  -0.0206114
    3   0.0000676   0.0097400  -0.0052106   0.0018805  -0.0016375  -0.0169363
           13
    1   0.0028749
    2   0.0024820
    3   0.0019293
 Max gradient component =       2.061E-02
 RMS gradient           =       6.114E-03
 Gradient time:  CPU 17.97 s  wall 4.68 s
rPathMan2.  file_steps = 951
 IRC --- Status = 3.  Assess initial corrector step
 IRC --- bisector search: b =  0.000000 E =     -286.853832 G.B =  -0.003909
 IRC --- bisector search: b =  0.016085 E =     -286.853776 G.B =   0.011049
 IRC --- performed gradient/energy interpolation
 IRC --- bisector search:  estimate b(min) =   4.224534295807058E-003
 ----------------------------------------------------------------
             Standard Nuclear Orientation (Angstroms)
    I     Atom           X                Y                Z
 ----------------------------------------------------------------
    1      C       1.1642569245     0.2489969239     0.3774812951
    2      C       0.7876277553    -0.9978083633    -0.4321394231
    3      C      -0.5278563966    -0.9448088811    -0.8099298000
    4      C      -1.0733834633     0.1610116856     0.1138503860
    5      C      -0.4826698118     1.4640987210    -0.4315534365
    6      N       0.7935581432     1.5147096587    -0.3176695614
    7      H       2.1661374795     0.2758018080     0.8040960930
    8      H       1.4930017920    -1.8076812037    -0.5482164156
    9      H      -1.0687424856    -1.5467652337    -1.5337725183
   10      H      -2.1347628460     0.1461000716     0.3613187611
   11      H      -1.0500590899     2.2268999093    -0.9610913621
   12      C      -0.0280472986    -0.1065093357     1.2121160640
   13      H      -0.0824333985    -0.6623000281     2.1344659541
 ----------------------------------------------------------------
 Nuclear Repulsion Energy =   280.0534245472 hartrees
 There are       25 alpha and       24 beta electrons

                       Distance Matrix (Angstroms)
             C (  1)   C (  2)   C (  3)   C (  4)   C (  5)   N (  6)
   C (  2)  1.533577
   C (  3)  2.387125  1.369684
   C (  4)  2.254834  2.259277  1.540717
   C (  5)  2.200767  2.770315  2.438862  1.531158
   N (  6)  1.490866  2.515131  2.835082  2.346099  1.282298
   H (  7)  1.089258  2.247365  3.369358  3.314229  3.155164  2.162689
   H (  8)  2.279235  1.080241  2.212896  3.301578  3.823798  3.403036
   H (  9)  3.444407  2.227344  1.085752  2.373012  3.259397  3.784138
   H ( 10)  3.300664  3.237046  2.268051  1.089949  2.257250  3.302905
   H ( 11)  3.256850  3.749083  3.217962  2.328935  1.088213  2.078492
   C ( 12)  1.498195  2.040421  2.245267  1.539637  2.318435  2.375633
   H ( 13)  2.339165  2.730757  2.991267  2.396396  3.356518  3.394068
             H (  7)   H (  8)   H (  9)   H ( 10)   H ( 11)   C ( 12)
   H (  8)  2.573473
   H (  9)  4.387691  2.757160
   H ( 10)  4.325577  4.219620  2.755642
   H ( 11)  4.155309  4.787010  3.816918  2.693525
   C ( 12)  2.264308  2.882073  3.270671  2.286027  3.348453
   H ( 13)  2.775967  3.315219  3.900136  2.830127  4.343530  1.078235

 
 Applying Cartesian multipole field
    Component          Value
    ---------          -----
     (2,0,0)        1.00000E-11
     (0,2,0)        2.00000E-11
     (0,0,2)       -3.00000E-11
 Nucleus-field energy     =     0.0000000024 hartrees
 Requested basis set is 6-31+G(d,p)
 There are 53 shells and 163 basis functions
 A cutoff of  1.0D-14 yielded   1406 shell pairs
 There are     13518 function pairs
 Smallest overlap matrix eigenvalue = 2.54E-05
 Guess MOs from core Hamiltonian diagonalization
 Mixing HOMO and LUMO in initial guess
 Adding  50% of the LUMO to the HOMO
 An unrestricted hybrid HF-DFT SCF calculation will be
 performed using Pulay DIIS extrapolation
 Exchange:     0.2000 Hartree-Fock + 0.0800 Slater + 0.7200 B88
 Correlation:  0.1900 VWN1RPA + 0.8100 LYP
 Using SG-1 standard quadrature grid
 SCF converges when DIIS error is below 1.0E-08
 using 4 threads for integral computing
 -------------------------------------------------------
 OpenMP Integral computing Module                
 Release: version 1.0, May 2013, Q-Chem Inc. Pittsburgh 
[...]
 
 Alpha MOs
 -- Occupied --
-14.334 -10.234 -10.230 -10.220 -10.219 -10.219 -10.216  -0.979
 -0.867  -0.759  -0.674  -0.615  -0.580  -0.544  -0.524  -0.475
 -0.448  -0.415  -0.410  -0.366  -0.346  -0.309  -0.285  -0.267
 -0.188
 -- Virtual --
 -0.018   0.002   0.016   0.020   0.032   0.045   0.047   0.059
  0.072   0.074   0.080   0.092   0.103   0.109   0.111   0.115
  0.125   0.138   0.146   0.162   0.165   0.175   0.183   0.186
  0.188   0.194   0.211   0.216   0.227   0.240   0.246   0.254
  0.260   0.264   0.283   0.293   0.300   0.321   0.332   0.338
  0.358   0.386   0.421   0.456   0.617   0.663   0.674   0.689
  0.706   0.724   0.731   0.744   0.751   0.764   0.788   0.793
  0.803   0.812   0.833   0.872   0.903   0.919   0.932   0.982
  0.991   1.030   1.042   1.044   1.079   1.088   1.103   1.154
  1.229   1.260   1.325   1.388   1.414   1.470   1.484   1.495
  1.545   1.579   1.645   1.686   1.690   1.776   1.801   1.850
  1.908   1.914   1.959   1.979   2.021   2.080   2.119   2.144
  2.162   2.183   2.229   2.304   2.347   2.361   2.368   2.399
  2.416   2.449   2.464   2.482   2.499   2.512   2.543   2.561
  2.566   2.587   2.617   2.641   2.684   2.716   2.765   2.804
  2.822   2.875   2.997   3.046   3.094   3.271   3.333   3.360
  3.528   3.552   3.660   4.180   4.428   4.456   4.601   4.616
  4.659   4.877
 
 Beta MOs
 -- Occupied --
-14.333 -10.232 -10.229 -10.221 -10.220 -10.217 -10.204  -0.975
 -0.861  -0.751  -0.662  -0.611  -0.576  -0.537  -0.518  -0.469
 -0.444  -0.412  -0.404  -0.358  -0.342  -0.302  -0.274  -0.262
 -- Virtual --
 -0.075  -0.007   0.003   0.016   0.020   0.035   0.046   0.048
  0.060   0.073   0.078   0.082   0.094   0.104   0.109   0.112
  0.117   0.128   0.140   0.148   0.162   0.167   0.177   0.184
  0.187   0.191   0.195   0.212   0.220   0.233   0.242   0.249
  0.256   0.263   0.266   0.286   0.296   0.303   0.323   0.334
  0.341   0.362   0.389   0.426   0.461   0.620   0.669   0.687
  0.698   0.710   0.729   0.742   0.751   0.756   0.773   0.790
  0.801   0.808   0.815   0.839   0.874   0.906   0.921   0.935
  0.984   0.995   1.032   1.046   1.047   1.082   1.092   1.110
  1.162   1.231   1.265   1.330   1.391   1.417   1.478   1.495
  1.501   1.550   1.585   1.648   1.689   1.699   1.783   1.807
  1.863   1.912   1.924   1.967   1.985   2.025   2.086   2.133
  2.154   2.170   2.187   2.232   2.308   2.352   2.363   2.373
  2.403   2.420   2.458   2.467   2.487   2.506   2.518   2.546
  2.564   2.573   2.593   2.623   2.647   2.687   2.722   2.772
  2.808   2.825   2.878   3.000   3.049   3.096   3.272   3.335
  3.365   3.529   3.556   3.665   4.182   4.445   4.458   4.604
  4.620   4.664   4.882
 --------------------------------------------------------------
 
          Ground-State Mulliken Net Atomic Charges

     Atom                 Charge (a.u.)    Spin (a.u.)
  --------------------------------------------------------
      1 C                    -0.289922       0.103147
      2 C                    -0.054868      -0.154496
      3 C                    -0.152401       0.979653
      4 C                    -0.027697      -0.115312
      5 C                    -0.052386       0.053654
      6 N                    -0.171369       0.035732
      7 H                     0.144208       0.003578
      8 H                     0.138557       0.005195
      9 H                     0.130806      -0.023181
     10 H                     0.133586       0.023478
     11 H                     0.131163       0.001074
     12 C                    -0.062952       0.087170
     13 H                     0.133275       0.000309
  --------------------------------------------------------
  Sum of atomic charges =    -0.000000
  Sum of spin   charges =     1.000000

 -----------------------------------------------------------------
                    Cartesian Multipole Moments
 -----------------------------------------------------------------
    Charge (ESU x 10^10)
                 0.0000
    Dipole Moment (Debye)
         X      -1.2282      Y      -1.7241      Z       0.9055
       Tot       2.3024
    Quadrupole Moments (Debye-Ang)
        XX     -39.2347     XY      -5.2035     YY     -45.4273
        XZ       2.5015     YZ       0.6475     ZZ     -40.3812
    Octopole Moments (Debye-Ang^2)
       XXX      -6.8054    XXY      -7.5043    XYY      -8.3772
       YYY     -22.7887    XXZ       4.6200    XYZ       2.9262
       YYZ       0.7251    XZZ      -5.2471    YZZ      -8.9284
       ZZZ       7.7601
    Hexadecapole Moments (Debye-Ang^3)
      XXXX    -225.3757   XXXY     -10.2752   XXYY     -96.1214
      XYYY     -30.1834   YYYY    -333.6023   XXXZ     -12.9306
      XXYZ       4.9068   XYYZ       0.8387   YYYZ       8.8665
      XXZZ     -66.6167   XYZZ      -2.0644   YYZZ     -77.8481
      XZZZ     -14.1154   YZZZ       8.9969   ZZZZ    -153.9629
 -----------------------------------------------------------------
 Calculating analytic gradient of the SCF energy
 Gradient of SCF Energy
            1           2           3           4           5           6
    1  -0.0000052  -0.0003280   0.0001064  -0.0005213   0.0000806   0.0002667
    2   0.0000319   0.0005351  -0.0002465   0.0002097  -0.0001350   0.0001709
    3  -0.0000081  -0.0001017  -0.0004406   0.0000422   0.0001402   0.0000744
            7           8           9          10          11          12
    1   0.0000020   0.0003244  -0.0002733   0.0003032   0.0000131   0.0001322
    2   0.0000498  -0.0001680  -0.0005869   0.0000557   0.0002749  -0.0001359
    3   0.0001428  -0.0001397   0.0005960  -0.0002314  -0.0000342   0.0002931
           13
    1  -0.0001007
    2  -0.0000558
    3  -0.0003329
 Max gradient component =       5.960E-04
 RMS gradient           =       2.563E-04
 Gradient time:  CPU 17.54 s  wall 4.44 s
rPathMan2.  file_steps = 952
 IRC --- Status = 3.  Assess initial corrector step
 IRC --- bisector search: b =  0.000000 E =     -286.859314 G.B =  -0.001256
 IRC --- bisector search: b =  0.003204 E =     -286.859314 G.B =   0.001455
 IRC --- performed gradient/energy interpolation
 IRC --- bisector search:  estimate b(min) =   1.484243670506977E-003
 ----------------------------------------------------------------
             Standard Nuclear Orientation (Angstroms)
    I     Atom           X                Y                Z
 ----------------------------------------------------------------
    1      C       1.2021836298     0.3466432740     0.3387889532
    2      C       0.6763705658    -1.0731286654    -0.1698006981
    3      C      -0.6077635729    -0.9447310753    -0.8411542555
    4      C      -1.0826436766     0.1386130139     0.1234786209
    5      C      -0.5237536701     1.4416878625    -0.4370880176
    6      N       0.7559918498     1.5268882471    -0.3560758842
    7      H       2.2173837101     0.3416874042     0.7200685661
    8      H       1.3905995254    -1.8874418650    -0.2245230636
    9      H      -0.9715011541    -1.2549975544    -1.8159233980
   10      H      -2.1218135764     0.1373495766     0.4572986770
   11      H      -1.1133928295     2.1811957038    -0.9748460558
   12      C       0.0926455378    -0.3314683238     1.0563862784
   13      H       0.0423209700    -0.6505518579     2.0923463195
 ----------------------------------------------------------------
 Nuclear Repulsion Energy =   282.0277921246 hartrees
 There are       25 alpha and       24 beta electrons

                       Distance Matrix (Angstroms)
             C (  1)   C (  2)   C (  3)   C (  4)   C (  5)   N (  6)
   C (  2)  1.597152
   C (  3)  2.517106  1.454717
   C (  4)  2.304359  2.156029  1.526323
   C (  5)  2.186314  2.799293  2.421843  1.524663
   N (  6)  1.440452  2.607897  2.864268  2.353266  1.285134
   H (  7)  1.084449  2.273388  3.474730  3.359664  3.172199  2.167592
   H (  8)  2.311700  1.084538  2.293991  3.216043  3.846172  3.475296
   H (  9)  3.454409  2.336296  1.085700  2.390770  3.061662  3.585286
   H ( 10)  3.332687  3.112611  2.269191  1.091472  2.248337  3.297599
   H ( 11)  3.233128  3.800260  3.169377  2.319355  1.087994  2.074992
   C ( 12)  1.485212  1.547362  2.113605  1.572450  2.398853  2.426637
   H ( 13)  2.326939  2.387027  3.019036  2.400993  3.331058  3.353408
             H (  7)   H (  8)   H (  9)   H ( 10)   H ( 11)   C ( 12)
   H (  8)  2.558289
   H (  9)  4.376031  2.917544
   H ( 10)  4.351946  4.111169  2.903341
   H ( 11)  4.165405  4.835987  3.540476  2.691702
   C ( 12)  2.254054  2.397179  3.199293  2.341479  3.448755
   H ( 13)  2.756553  2.952226  4.082617  2.824473  4.331528  1.085154

 
 Applying Cartesian multipole field
    Component          Value
    ---------          -----
     (2,0,0)        1.00000E-11
     (0,2,0)        2.00000E-11
     (0,0,2)       -3.00000E-11
 Nucleus-field energy     =     0.0000000027 hartrees
 Requested basis set is 6-31+G(d,p)
 There are 53 shells and 163 basis functions
 A cutoff of  1.0D-14 yielded   1403 shell pairs
 There are     13511 function pairs
 Smallest overlap matrix eigenvalue = 2.39E-05
 Guess MOs from core Hamiltonian diagonalization
 Mixing HOMO and LUMO in initial guess
 Adding  50% of the LUMO to the HOMO
 An unrestricted hybrid HF-DFT SCF calculation will be
 performed using Pulay DIIS extrapolation
 Exchange:     0.2000 Hartree-Fock + 0.0800 Slater + 0.7200 B88
 Correlation:  0.1900 VWN1RPA + 0.8100 LYP
 Using SG-1 standard quadrature grid
 SCF converges when DIIS error is below 1.0E-08
 using 4 threads for integral computing
 -------------------------------------------------------
 OpenMP Integral computing Module                
 Release: version 1.0, May 2013, Q-Chem Inc. Pittsburgh 
 -------------------------------------------------------
 -------------------------------------------------------
 OpenMP BLAS3 based DFT computing Module                
 Release: version 1.0, May 2013, Q-Chem Inc. Pittsburgh 
 -------------------------------------------------------
 ---------------------------------------
  Cycle       Energy         DIIS Error
 ---------------------------------------
    1    -235.8953005253      9.79E-02
    2    -209.9748465721      7.15E-02
    3    -255.9333471751      7.71E-02
    4    -279.7393910618      3.95E-02
    5    -283.7018188642      2.87E-02
    6    -286.3086421514      1.13E-02
    7    -286.6842364925      6.95E-03
    8    -286.8475149081      1.80E-03
    9    -286.8535971957      1.17E-03
   10    -286.8589822075      2.68E-04
   11    -286.8591984332      1.38E-04
   12    -286.8592954967      3.00E-05
   13    -286.8593107025      1.79E-05
   14    -286.8593137099      4.74E-06
   15    -286.8593146365      1.65E-06
   16    -286.8593149530      8.08E-07
   17    -286.8593150654      3.33E-07
   18    -286.8593151206      1.70E-07
   19    -286.8593151491      6.30E-08
   20    -286.8593151534      1.47E-08
   21    -286.8593151535      5.25E-09 Convergence criterion met
 ---------------------------------------
 <S^2> = 0.7568
 SCF time:  CPU 105.95 s  wall 27.51 s
 SCF   energy in the final basis set = -286.85931515
 Total energy in the final basis set = -286.85931515
 
 --------------------------------------------------------------
 
                    Orbital Energies (a.u.)
 --------------------------------------------------------------
 
 Alpha MOs
 -- Occupied --
-14.334 -10.234 -10.230 -10.220 -10.219 -10.219 -10.216  -0.979
 -0.867  -0.759  -0.673  -0.616  -0.580  -0.544  -0.524  -0.475
 -0.448  -0.415  -0.410  -0.366  -0.346  -0.309  -0.285  -0.267
 -0.188
 -- Virtual --
 -0.018   0.002   0.016   0.020   0.032   0.045   0.047   0.059
  0.072   0.074   0.080   0.092   0.103   0.108   0.111   0.115
  0.125   0.138   0.146   0.162   0.165   0.175   0.183   0.186
  0.188   0.194   0.211   0.216   0.227   0.240   0.246   0.254
  0.260   0.264   0.283   0.293   0.300   0.321   0.332   0.338
  0.358   0.386   0.421   0.457   0.617   0.663   0.674   0.689
  0.706   0.724   0.731   0.744   0.751   0.764   0.788   0.793
  0.804   0.812   0.833   0.872   0.903   0.919   0.932   0.982
  0.991   1.030   1.042   1.044   1.079   1.088   1.103   1.154
  1.229   1.260   1.325   1.388   1.414   1.470   1.484   1.495
  1.545   1.579   1.645   1.686   1.690   1.777   1.800   1.850
  1.908   1.914   1.959   1.979   2.021   2.080   2.119   2.144
  2.162   2.183   2.229   2.304   2.347   2.361   2.368   2.399
  2.416   2.449   2.464   2.482   2.499   2.512   2.543   2.561
  2.566   2.587   2.617   2.641   2.684   2.717   2.765   2.804
  2.822   2.875   2.997   3.046   3.094   3.271   3.333   3.360
  3.528   3.552   3.660   4.180   4.428   4.456   4.601   4.616
  4.659   4.877
 
 Beta MOs
 -- Occupied --
-14.333 -10.232 -10.229 -10.221 -10.220 -10.217 -10.204  -0.975
 -0.861  -0.751  -0.662  -0.611  -0.576  -0.537  -0.518  -0.469
 -0.444  -0.412  -0.404  -0.358  -0.342  -0.302  -0.274  -0.262
 -- Virtual --
 -0.075  -0.007   0.003   0.016   0.020   0.035   0.046   0.048
  0.060   0.073   0.078   0.082   0.094   0.104   0.109   0.112
  0.117   0.128   0.140   0.148   0.162   0.167   0.177   0.184
  0.187   0.191   0.195   0.212   0.220   0.233   0.242   0.250
  0.256   0.263   0.266   0.286   0.296   0.303   0.323   0.334
  0.342   0.362   0.389   0.426   0.462   0.620   0.669   0.688
  0.698   0.710   0.729   0.742   0.751   0.756   0.773   0.790
  0.801   0.808   0.814   0.839   0.874   0.906   0.921   0.935
  0.984   0.995   1.033   1.046   1.047   1.082   1.092   1.110
  1.162   1.231   1.265   1.330   1.391   1.417   1.478   1.495
  1.501   1.550   1.585   1.648   1.689   1.699   1.783   1.807
  1.863   1.912   1.924   1.967   1.985   2.025   2.086   2.133
  2.154   2.170   2.187   2.232   2.308   2.352   2.363   2.372
  2.403   2.420   2.458   2.467   2.487   2.506   2.518   2.546
  2.564   2.573   2.593   2.623   2.647   2.687   2.722   2.772
  2.808   2.824   2.878   3.000   3.050   3.096   3.272   3.335
  3.365   3.530   3.556   3.664   4.182   4.445   4.458   4.604
  4.620   4.664   4.882
 --------------------------------------------------------------
 
          Ground-State Mulliken Net Atomic Charges

     Atom                 Charge (a.u.)    Spin (a.u.)
  --------------------------------------------------------
      1 C                    -0.289896       0.103176
      2 C                    -0.055577      -0.154474
      3 C                    -0.152121       0.979542
      4 C                    -0.027510      -0.115422
      5 C                    -0.052450       0.053711
      6 N                    -0.171402       0.035775
      7 H                     0.144217       0.003572
      8 H                     0.138516       0.005182
      9 H                     0.130788      -0.023156
     10 H                     0.133613       0.023574
     11 H                     0.131163       0.001080
     12 C                    -0.062679       0.087134
     13 H                     0.133337       0.000306
  --------------------------------------------------------
  Sum of atomic charges =    -0.000000
  Sum of spin   charges =     1.000000

 -----------------------------------------------------------------
                    Cartesian Multipole Moments
 -----------------------------------------------------------------
    Charge (ESU x 10^10)
                -0.0000
    Dipole Moment (Debye)
         X      -1.2264      Y      -1.7230      Z       0.9055
       Tot       2.3006
    Quadrupole Moments (Debye-Ang)
        XX     -39.2357     XY      -5.2068     YY     -45.4243
        XZ       2.5015     YZ       0.6459     ZZ     -40.3827
    Octopole Moments (Debye-Ang^2)
       XXX      -6.7957    XXY      -7.5029    XYY      -8.3743
       YYY     -22.7820    XXZ       4.6193    XYZ       2.9284
       YYZ       0.7243    XZZ      -5.2446    YZZ      -8.9244
       ZZZ       7.7596
    Hexadecapole Moments (Debye-Ang^3)
      XXXX    -225.3699   XXXY     -10.2793   XXYY     -96.1141
      XYYY     -30.1923   YYYY    -333.5748   XXXZ     -12.9292
      XXYZ       4.9047   XYYZ       0.8373   YYYZ       8.8672
      XXZZ     -66.6178   XYZZ      -2.0676   YYZZ     -77.8455
      XZZZ     -14.1166   YZZZ       8.9956   ZZZZ    -153.9649
 -----------------------------------------------------------------
 Calculating analytic gradient of the SCF energy
 Gradient of SCF Energy
            1           2           3           4           5           6
    1   0.0000248   0.0001361   0.0000390   0.0001066   0.0000590   0.0000123
    2   0.0000539   0.0000251   0.0000895   0.0000237   0.0001548   0.0000786
    3   0.0000436  -0.0001122   0.0000330  -0.0001107  -0.0000169   0.0001116
            7           8           9          10          11          12
    1  -0.0000134   0.0000450  -0.0003566  -0.0000484   0.0001271  -0.0000414
    2   0.0000290   0.0001580  -0.0006951   0.0000699   0.0001210   0.0000420
    3   0.0001227  -0.0001264   0.0002996  -0.0001268   0.0000737  -0.0001134
           13
    1  -0.0000902
    2  -0.0001503
    3  -0.0000778
 Max gradient component =       6.951E-04
 RMS gradient           =       1.593E-04
 Gradient time:  CPU 17.61 s  wall 4.47 s
rPathMan2.  file_steps = 952
 IRC --- Status = 4.  Checking bisector search.
 IRC --- Bisector search finished successfully.
 ------------------------------------------------------------------------
 Reaction path following.  The coordinates are cartesian              
 Step  42 E=    -286.859315 |G|=  0.000995 S_lin= 1.1940 S_tot= 1.6821
 ------------------------------------------------------------------------
  IRC -- convergence criterion reached.
 ----------------------------------------------------------------
             Standard Nuclear Orientation (Angstroms)
    I     Atom           X                Y                Z
 ----------------------------------------------------------------
    1      C       1.1779031116     0.2840944244     0.3689960102
    2      C       0.7676713006    -0.9972239665    -0.3571738784
    3      C      -0.5530491205    -0.9266570571    -0.8295145818
    4      C      -1.0772296443     0.1603414448     0.1071820102
    5      C      -0.4849925830     1.4655012319    -0.4297986839
    6      N       0.7935087085     1.5245718443    -0.3171320011
    7      H       2.1730474453     0.2829729468     0.8041510424
    8      H       1.4809258936    -1.8021782831    -0.5110664618
    9      H      -1.0736281102    -1.5425663514    -1.5493331602
   10      H      -2.1346407866     0.1481677277     0.3693341658
   11      H      -1.0515168464     2.2247759025    -0.9646693744
   12      C       0.0078438060    -0.1986748046     1.1496575872
   13      H      -0.0692158692    -0.6513793268     2.1283233625
 ----------------------------------------------------------------
 Nuclear Repulsion Energy =   281.0251900598 hartrees
 There are       25 alpha and       24 beta electrons
 Here is where we should summarize the reaction path
Archival summary:
1\1\c8-73\JobtypUnspecified\ProcedureUnspecified\6-31+G**\166(2)\hpark21\FriMar415:05:332022FriMar415:05:332022\0\\#,JobtypUnspecified,ProcedureUnspecified,6-31+G**,\\0,2\N\C,1,1.28481\H,2,1.0879,1,121.952\C,1,1.46878,2,105.222,3,-175.731,0\H,4,1.08613,1,115.329,2,-163.1,0\C,4,1.48712,1,108.269,2,-24.4471,0\H,6,1.08105,4,131.856,1,-140.882,0\C,4,1.52885,1,114.564,2,58.668,0\H,8,1.08645,4,120.802,1,131.585,0\C,8,1.40442,4,111.714,1,-44.8091,0\H,10,1.08097,8,130.407,4,164.967,0\C,10,1.52766,8,98.755,4,-21.9225,0\H,12,1.08949,10,118.204,8,-150.662,0\\\@

 Total job time:  7434.95s(wall), 28876.10s(cpu) 
 Fri Mar  4 15:05:33 2022

        *************************************************************
        *                                                           *
        *  Thank you very much for using Q-Chem.  Have a nice day.  *
        *                                                           *
        *************************************************************


