
Running Job 1 of 1 qcts2.in
qchem qcts2.in_4440.0 ./qcts2.d/ 1
/home/leeping/opt/qchem/5.0.2-openmp/exe/qcprog.exe_s qcts2.in_4440.0 ./qcts2.d/
Check license passed

                  Welcome to Q-Chem
     A Quantum Leap Into The Future Of Chemistry


 Q-Chem 5.0, Q-Chem, Inc., Pleasanton, CA (2017)

 Yihan Shao,  Zhengting Gan,  E. Epifanovsky,  A. T. B. Gilbert,  M. Wormit,  
 J. Kussmann,  A. W. Lange,  A. Behn,  Jia Deng,  Xintian Feng,  D. Ghosh,  
 M. Goldey,  P. R. Horn,  L. D. Jacobson,  I. Kaliman,  T. Kus,  A. Landau,  
 Jie Liu,  E. I. Proynov,  R. M. Richard,  R. P. Steele,  E. J. Sundstrom,  
 H. L. Woodcock III,  P. M. Zimmerman,  D. Zuev,  B. Albrecht,  E. Alguire,  
 S. A. Baeppler,  D. Barton,  Z. Benda,  Y. A. Bernard,  E. J. Berquist,  
 K. B. Bravaya,  H. Burton,  D. Casanova,  Chun-Min Chang,  Yunqing Chen,  
 A. Chien,  K. D. Closser,  M. P. Coons,  S. Dasgupta,  A. L. Dempwolff,  
 M. Diedenhofen,  Hainam Do,  R. G. Edgar,  Po-Tung Fang,  S. Fatehi,  
 Qingguo Feng,  J. Fosso-Tande,  Qinghui Ge,  A. Ghysels,  G. Gidofalvi,  
 J. Gomes,  J. Gonthier,  A. Gunina,  M. W. D. Hanson-Heine,  
 P. H. P. Harbach,  A. W. Hauser,  J. E. Herr,  E. G. Hohenstein,  
 Z. C. Holden,  Kerwin Hui,  T.-C. Jagau,  Hyunjun Ji,  B. Kaduk,  
 K. Khistyaev,  Jaehoon Kim,  P. Klunzinger,  K. Koh,  D. Kosenkov,  
 L. Koulias,  T. Kowalczyk,  C. M. Krauter,  A. Kunitsa,  Ka Un Lao,  
 A. Laurent,  K. V. Lawler,  Joonho Lee,  D. Lefrancois,  S. Lehtola,  
 D. S. Levine,  Yi-Pei Li,  You-Sheng Lin,  Fenglai Liu,  E. Livshits,  
 A. Luenser,  P. Manohar,  E. Mansoor,  S. F. Manzer,  Shan-Ping Mao,  
 Yuezhi Mao,  N. Mardirossian,  A. V. Marenich,  T. Markovich,  
 L. A. Martinez-Martinez,  S. A. Maurer,  N. J. Mayhall,  S. C. McKenzie,  
 J.-M. Mewes,  A. F. Morrison,  J. W. Mullinax,  K. Nanda,  
 T. S. Nguyen-Beck,  R. Olivares-Amaya,  J. A. Parkhill,  T. M. Perrine,  
 F. Plasser,  S. Prager,  A. Prociuk,  E. Ramos,  D. R. Rehn,  F. Rob,  
 M. Schneider,  N. Sergueev,  S. M. Sharada,  S. Sharma,  D. W. Small,  
 T. Stauch,  T. Stein,  Yu-Chuan Su,  A. J. W. Thom,  A. Tkatchenko,  
 T. Tsuchimochi,  L. Vogt,  O. Vydrov,  M. A. Watson,  J. Wenzel,  
 M. de Wergifosse,  T. A. Wesolowski,  A. White,  J. Witte,  A. Yamada,  
 Jun Yang,  K. Yao,  S. Yeganeh,  S. R. Yost,  Zhi-Qiang You,  A. Zech,  
 Igor Ying Zhang,  Xing Zhang,  Yan Zhao,  Ying Zhu,  B. R. Brooks,  
 G. K. L. Chan,  C. J. Cramer,  M. S. Gordon,  W. J. Hehre,  A. Klamt,  
 M. W. Schmidt,  C. D. Sherrill,  D. G. Truhlar,  A. Aspuru-Guzik,  R. Baer,  
 A. T. Bell,  N. A. Besley,  Jeng-Da Chai,  R. A. DiStasio Jr.,  A. Dreuw,  
 B. D. Dunietz,  T. R. Furlani,  Chao-Ping Hsu,  Yousung Jung,  Jing Kong,  
 D. S. Lambrecht,  WanZhen Liang,  C. Ochsenfeld,  V. A. Rassolov,  
 L. V. Slipchenko,  J. E. Subotnik,  T. Van Voorhis,  J. M. Herbert,  
 A. I. Krylov,  P. M. W. Gill,  M. Head-Gordon

 Contributors to earlier versions of Q-Chem not listed above: 
 R. D. Adamson,  B. Austin,  J. Baker,  G. J. O. Beran,  K. Brandhorst,  
 S. T. Brown,  E. F. C. Byrd,  A. K. Chakraborty,  C.-L. Cheng,  
 Siu Hung Chien,  D. M. Chipman,  D. L. Crittenden,  H. Dachsel,  
 R. J. Doerksen,  A. D. Dutoi,  L. Fusti-Molnar,  W. A. Goddard III,  
 A. Golubeva-Zadorozhnaya,  S. R. Gwaltney,  G. Hawkins,  A. Heyden,  
 S. Hirata,  G. Kedziora,  F. J. Keil,  C. Kelley,  Jihan Kim,  R. A. King,  
 R. Z. Khaliullin,  P. P. Korambath,  W. Kurlancheek,  A. M. Lee,  M. S. Lee,  
 S. V. Levchenko,  Ching Yeh Lin,  D. Liotard,  R. C. Lochan,  I. Lotan,  
 P. E. Maslen,  N. Nair,  D. P. O'Neill,  D. Neuhauser,  E. Neuscamman,  
 C. M. Oana,  R. Olson,  B. Peters,  R. Peverati,  P. A. Pieniazek,  
 Y. M. Rhee,  J. Ritchie,  M. A. Rohrdanz,  E. Rosta,  N. J. Russ,  
 H. F. Schaefer III,  N. E. Schultz,  N. Shenvi,  A. C. Simmonett,  A. Sodt,  
 D. Stuck,  K. S. Thanthiriwatte,  V. Vanovschi,  Tao Wang,  A. Warshel,  
 C. F. Williams,  Q. Wu,  X. Xu,  W. Zhang

 Please cite Q-Chem as follows:
 Y. Shao et al., Mol. Phys. 113, 184-215 (2015)
 DOI: 10.1080/00268976.2014.952696

 Q-Chem 5.0.2 for Intel X86 EM64T Linux

 Parts of Q-Chem use Armadillo 5.200.1 (Boston Tea Smuggler).
 http://arma.sourceforge.net/

 Q-Chem begins on Fri Mar  4 12:52:11 2022  

Host: 
0

     Scratch files written to ./qcts2.d//
 Dec517 15110_ 26548  26544 5633   
Processing $rem in /home/leeping/opt/qchem/5.0.2-openmp/config/preferences.
 MEM_STATIC 2000
 MEM_TOTAL  8000
 SYMMETRY   OFF
 SYM_IGNORE TRUE 

Checking the input file for inconsistencies... 	...done.

--------------------------------------------------------------
User input:
--------------------------------------------------------------
$molecule
0 2
C        1.1779031116    0.2840944244    0.3689960102
C        0.7676713006   -0.9972239665   -0.3571738784
C       -0.5530491205   -0.9266570571   -0.8295145818
C       -1.0772296443    0.1603414448    0.1071820102
C       -0.4849925830    1.4655012319   -0.4297986839
N        0.7935087085    1.5245718443   -0.3171320011
H        2.1730474453    0.2829729468    0.8041510424
H        1.4809258936   -1.8021782831   -0.5110664618
H       -1.0736281102   -1.5425663514   -1.5493331602
H       -2.1346407866    0.1481677277    0.3693341658
H       -1.0515168464    2.2247759025   -0.9646693744
C        0.0078438060   -0.1986748046    1.1496575872
H       -0.0692158692   -0.6513793268    2.1283233625
$end

$rem
method                b3lyp
basis                 6-31+g(d,p)
unrestricted          true
symmetry              off
sym_ignore            true
incdft                false
incfock               0
scf_convergence       8
thresh                14
jobtype               freq
scf_guess             read
scf_algorithm         diis
max_scf_cycles        100
$end

--------------------------------------------------------------
 ----------------------------------------------------------------
             Standard Nuclear Orientation (Angstroms)
    I     Atom           X                Y                Z
 ----------------------------------------------------------------
    1      C       1.1779031116     0.2840944244     0.3689960102
    2      C       0.7676713006    -0.9972239665    -0.3571738784
    3      C      -0.5530491205    -0.9266570571    -0.8295145818
    4      C      -1.0772296443     0.1603414448     0.1071820102
    5      C      -0.4849925830     1.4655012319    -0.4297986839
    6      N       0.7935087085     1.5245718443    -0.3171320011
    7      H       2.1730474453     0.2829729468     0.8041510424
    8      H       1.4809258936    -1.8021782831    -0.5110664618
    9      H      -1.0736281102    -1.5425663514    -1.5493331602
   10      H      -2.1346407866     0.1481677277     0.3693341658
   11      H      -1.0515168464     2.2247759025    -0.9646693744
   12      C       0.0078438060    -0.1986748046     1.1496575872
   13      H      -0.0692158692    -0.6513793268     2.1283233625
 ----------------------------------------------------------------
 Nuclear Repulsion Energy =   281.0251900598 hartrees
 There are       25 alpha and       24 beta electrons
 Requested basis set is 6-31+G(d,p)
 There are 53 shells and 163 basis functions

 Total QAlloc Memory Limit   8000 MB
 Mega-Array Size      1956 MB
 MEM_STATIC part      2000 MB

                       Distance Matrix (Angstroms)
             C (  1)   C (  2)   C (  3)   C (  4)   C (  5)   N (  6)
   C (  2)  1.528852
   C (  3)  2.428692  1.404417
   C (  4)  2.273650  2.226936  1.527656
   C (  5)  2.190666  2.763957  2.426278  1.530534
   N (  6)  1.468780  2.522246  2.843286  2.353897  1.284815
   H (  7)  1.086128  2.227703  3.400540  3.326425  3.160092  2.168403
   H (  8)  2.284484  1.086447  2.237186  3.282967  3.814337  3.402561
   H (  9)  3.476502  2.260315  1.080965  2.375700  3.263176  3.796295
   H ( 10)  3.315332  3.203615  2.256971  1.089491  2.257282  3.307534
   H ( 11)  3.242718  3.749637  3.193472  2.326245  1.087904  2.076947
   C ( 12)  1.487124  1.866965  2.182128  1.546943  2.346711  2.395479
   H ( 13)  2.350670  2.645314  3.009764  2.399999  3.346348  3.385160
             H (  7)   H (  8)   H (  9)   H ( 10)   H ( 11)   C ( 12)
   H (  8)  2.560602
   H (  9)  4.405949  2.769683
   H ( 10)  4.331676  4.201342  2.768685
   H ( 11)  4.158983  4.778638  3.812504  2.695371
   C ( 12)  2.244876  2.738466  3.203151  2.306392  3.386109
   H ( 13)  2.766621  3.270116  3.915127  2.828303  4.336333  1.081049

 
 A cutoff of  1.0D-14 yielded   1405 shell pairs
 There are     13515 function pairs
 Smallest overlap matrix eigenvalue = 2.76E-05
 Guess MOs from SCF MO coefficient file
 Reading MOs from coefficient file
 Reading MOs from coefficient file
 An unrestricted hybrid HF-DFT SCF calculation will be
 performed using Pulay DIIS extrapolation
 Exchange:     0.2000 Hartree-Fock + 0.0800 Slater + 0.7200 B88
 Correlation:  0.1900 VWN1RPA + 0.8100 LYP
 Using SG-1 standard quadrature grid
 SCF converges when DIIS error is below 1.0E-08
Using Q-Chem read-in guess as SCF_GUESS READ specified.

 -------------------------------------------------------
 OpenMP BLAS3 based DFT computing Module                
 -------------------------------------------------------
 ---------------------------------------
  Cycle       Energy         DIIS Error
 ---------------------------------------
    1    -286.8475423808      3.16E-10
    2    -286.8475423808      5.52E-10 Convergence criterion met
 ---------------------------------------
 <S^2> = 0.7773
 SCF time:  CPU 6.98 s  wall 7.24 s
 SCF   energy in the final basis set = -286.84754238
 Total energy in the final basis set = -286.84754238
 
 --------------------------------------------------------------
 
                    Orbital Energies (a.u.)
 --------------------------------------------------------------
 
 Alpha MOs
 -- Occupied --
-14.330 -10.235 -10.230 -10.229 -10.226 -10.221 -10.206  -0.972
 -0.849  -0.751  -0.696  -0.601  -0.585  -0.548  -0.522  -0.472
 -0.444  -0.424  -0.409  -0.378  -0.356  -0.296  -0.284  -0.277
 -0.157
 -- Virtual --
 -0.017  -0.010   0.001   0.018   0.029   0.033   0.046   0.048
  0.062   0.071   0.074   0.095   0.100   0.107   0.109   0.118
  0.124   0.129   0.141   0.153   0.165   0.178   0.180   0.185
  0.192   0.197   0.207   0.218   0.225   0.234   0.240   0.251
  0.259   0.268   0.281   0.287   0.309   0.313   0.331   0.368
  0.372   0.382   0.407   0.455   0.629   0.668   0.675   0.695
  0.699   0.713   0.725   0.734   0.744   0.753   0.778   0.793
  0.806   0.814   0.858   0.901   0.917   0.936   0.955   1.002
  1.015   1.033   1.047   1.070   1.082   1.094   1.104   1.139
  1.202   1.217   1.326   1.340   1.384   1.419   1.437   1.487
  1.558   1.622   1.626   1.691   1.724   1.768   1.817   1.864
  1.878   1.908   1.952   1.980   2.042   2.093   2.105   2.126
  2.156   2.212   2.220   2.277   2.304   2.327   2.363   2.397
  2.404   2.437   2.447   2.485   2.504   2.520   2.534   2.553
  2.569   2.606   2.618   2.655   2.686   2.703   2.745   2.777
  2.852   2.857   2.981   3.071   3.083   3.291   3.316   3.326
  3.508   3.599   3.687   4.171   4.413   4.487   4.569   4.620
  4.694   4.831
 
 Beta MOs
 -- Occupied --
-14.329 -10.235 -10.231 -10.230 -10.222 -10.217 -10.197  -0.968
 -0.842  -0.747  -0.684  -0.598  -0.577  -0.541  -0.519  -0.463
 -0.441  -0.419  -0.407  -0.373  -0.351  -0.287  -0.275  -0.265
 -- Virtual --
 -0.054  -0.009  -0.002   0.003   0.019   0.031   0.038   0.047
  0.049   0.063   0.072   0.077   0.096   0.101   0.108   0.109
  0.119   0.128   0.132   0.142   0.153   0.164   0.179   0.181
  0.188   0.195   0.197   0.208   0.223   0.228   0.237   0.242
  0.254   0.260   0.273   0.282   0.288   0.312   0.315   0.333
  0.372   0.376   0.385   0.411   0.457   0.633   0.674   0.678
  0.699   0.711   0.727   0.734   0.744   0.749   0.759   0.784
  0.796   0.808   0.817   0.859   0.905   0.919   0.939   0.958
  1.005   1.019   1.036   1.049   1.071   1.087   1.102   1.109
  1.147   1.207   1.221   1.330   1.346   1.387   1.425   1.442
  1.491   1.566   1.627   1.636   1.698   1.732   1.771   1.828
  1.870   1.885   1.913   1.955   1.984   2.048   2.102   2.109
  2.130   2.166   2.220   2.229   2.283   2.310   2.330   2.367
  2.403   2.405   2.443   2.454   2.489   2.508   2.526   2.542
  2.556   2.573   2.614   2.620   2.664   2.692   2.706   2.748
  2.782   2.857   2.861   2.983   3.074   3.085   3.292   3.318
  3.327   3.509   3.602   3.692   4.173   4.423   4.487   4.581
  4.626   4.696   4.835
 --------------------------------------------------------------
 
          Ground-State Mulliken Net Atomic Charges

     Atom                 Charge (a.u.)    Spin (a.u.)
  --------------------------------------------------------
      1 C                    -0.133191      -0.021292
      2 C                    -0.103043      -0.233743
      3 C                    -0.141175       0.728697
      4 C                     0.002612      -0.101964
      5 C                    -0.070296      -0.002356
      6 N                    -0.179666       0.062412
      7 H                     0.138959       0.004313
      8 H                     0.139224       0.010302
      9 H                     0.139082      -0.028844
     10 H                     0.129090       0.010582
     11 H                     0.132712       0.001552
     12 C                    -0.200204       0.594697
     13 H                     0.145896      -0.024357
  --------------------------------------------------------
  Sum of atomic charges =    -0.000000
  Sum of spin   charges =     1.000000

 -----------------------------------------------------------------
                    Cartesian Multipole Moments
 -----------------------------------------------------------------
    Charge (ESU x 10^10)
                -0.0000
    Dipole Moment (Debye)
         X      -1.2887      Y      -2.0808      Z       0.8788
       Tot       2.6005
    Quadrupole Moments (Debye-Ang)
        XX     -38.8854     XY      -5.0411     YY     -44.9107
        XZ       2.2464     YZ       0.6036     ZZ     -41.5565
    Octopole Moments (Debye-Ang^2)
       XXX      -9.3274    XXY     -10.4640    XYY     -10.6370
       YYY     -26.5015    XXZ       3.8817    XYZ       2.9401
       YYZ      -1.5691    XZZ      -5.1706    YZZ     -10.2798
       ZZZ      10.1197
    Hexadecapole Moments (Debye-Ang^3)
      XXXX    -225.3333   XXXY      -9.9518   XXYY     -94.5920
      XYYY     -27.5180   YYYY    -325.7520   XXXZ      -7.5367
      XXYZ       4.8517   XYYZ       3.1307   YYYZ       4.6333
      XXZZ     -68.1347   XYZZ      -0.9662   YYZZ     -77.7068
      XZZZ     -10.5392   YZZZ      -2.2503   ZZZZ    -172.8001
 -----------------------------------------------------------------
 Calculating MO derivatives via CPSCF
   1         3          39      0.295594    0.058847
   2         3          39      0.037787    0.007024
   3         3          39      0.004758    0.000902
   4         3          39      0.000731    0.000160
   5        26          16      0.000061    0.000014
   6        40           2      0.000003    0.000001
   7        42           0      0.000000    0.000000    Roots Converged
 Time for AOints: 19.5 s (CPU) 19.5 s (wall)
 ------------------------------------------------------------------------------
                     AOints        : Timing summary (seconds)
 ------------------------------------------------------------------------------
     job step          cpu (% of tot)      sys (% of tot)     wall (% of tot)
 ------------------------------------------------------------------------------
  cpscf_lag         0.1174E+03 (28.0)   0.3800E-04 (35.8)   0.1178E+03 (28.1)
  iterzp            0.2818E+03 (67.3)   0.6400E-04 (60.4)   0.2821E+03 (67.2)
  make_fx           0.0000E+00 ( 0.0)   0.0000E+00 ( 0.0)   0.0000E+00 ( 0.0)
  AOints            0.1950E+02 ( 4.7)   0.2000E-05 ( 1.9)   0.1952E+02 ( 4.7)
 ------------------------------------------------------------------------------
   Grand Totals     0.4191E+03          0.1060E-03          0.4197E+03
 ------------------------------------------------------------------------------
 Calculating analytic Hessian of the SCF energy
 Polarizability Matrix (a.u.)
            1           2           3
    1 -71.6595578   1.7186490  -4.3680168
    2   1.7186490 -74.5376789  -2.6416732
    3  -4.3680168  -2.6416732 -70.9949451
 
 Direct stationary perturbation theory relativistic correction:
 
 rels  =       0.069332916479
 relv  =      -0.341428536383
 rel2e =       0.159087023582
 E_rel =      -0.113008596322
 
 Hessian of the SCF Energy
            1           2           3           4           5           6
    1   0.7178492   0.0196556   0.1361171  -0.0757003  -0.0206501  -0.0436935
    2   0.0196556   0.3478644  -0.0399827   0.0121968  -0.1309259  -0.0961943
    3   0.1361171  -0.0399827   0.3605023  -0.0153492  -0.0363859  -0.0536182
    4  -0.0757003   0.0121968  -0.0153492   0.6081637  -0.2067554   0.0727459
    5  -0.0206501  -0.1309259  -0.0363859  -0.2067554   0.4796059   0.0956866
    6  -0.0436935  -0.0961943  -0.0536182   0.0727459   0.0956866   0.1050654
    7  -0.0108402  -0.0033389  -0.0230771  -0.2974527   0.0426360  -0.0216717
    8  -0.0232073  -0.0048463  -0.0073012   0.0159479  -0.0834377  -0.0333941
    9  -0.0134831   0.0008149  -0.0060096  -0.0931546  -0.0112825  -0.0552749
   10  -0.0498042   0.0049304  -0.0097070  -0.0335558   0.0359397   0.0215254
   11  -0.0044648  -0.0137256  -0.0029891   0.0466135  -0.0150978  -0.0001169
   12  -0.0048453  -0.0038409  -0.0057045   0.0085227  -0.0048956   0.0042266
   13  -0.0419956   0.0515305  -0.0214768  -0.0189085  -0.0063367  -0.0047750
   14   0.0393585  -0.0114011   0.0129363   0.0026916  -0.0080064  -0.0007451
   15  -0.0229440   0.0146102  -0.0121177  -0.0015544   0.0002984   0.0065090
   16  -0.0836329   0.0131360  -0.0295565   0.0100576   0.0173189   0.0022444
   17   0.0013806  -0.1132375   0.0351254  -0.0116770  -0.0411511   0.0004912
   18  -0.0099076   0.0299117  -0.0894677   0.0139224  -0.0051276   0.0120121
   19  -0.2912414  -0.0043442  -0.1073548   0.0008902   0.0009264   0.0011979
   20  -0.0058633  -0.0473972   0.0019751  -0.0225574   0.0014376  -0.0067983
   21  -0.1062494   0.0044398  -0.0906409  -0.0179843   0.0007853  -0.0070584
   22   0.0084814  -0.0090029  -0.0014407  -0.1735517   0.1459233   0.0204230
   23   0.0141302  -0.0133422  -0.0002934   0.1502499  -0.2053508  -0.0346151
   24   0.0058344  -0.0132025  -0.0036376   0.0158751  -0.0363280  -0.0618083
   25  -0.0035452   0.0022989  -0.0031445  -0.0028193  -0.0179530  -0.0125432
   26   0.0013572  -0.0022490  -0.0022600   0.0026166   0.0061827  -0.0017672
   27   0.0017376   0.0030778   0.0030041   0.0022853  -0.0020321   0.0035281
   28  -0.0022403   0.0004127  -0.0011374  -0.0002134   0.0003937   0.0015215
   29  -0.0003167  -0.0019702   0.0021635   0.0014717  -0.0040135  -0.0038655
   30  -0.0046535   0.0016012  -0.0036076   0.0001405  -0.0034140  -0.0039419
   31  -0.0059570  -0.0021139  -0.0015854   0.0007164  -0.0006007  -0.0001351
   32  -0.0010235   0.0049411   0.0063232  -0.0005488   0.0009879   0.0003046
   33  -0.0002686   0.0067285   0.0089275  -0.0015049   0.0019123   0.0007090
   34  -0.1656396  -0.0790821   0.0614609  -0.0154267   0.0136434  -0.0364994
   35  -0.0299746  -0.0126434   0.0307531   0.0108998  -0.0081505   0.0881693
   36   0.0638046   0.0940540  -0.1054555   0.0149505  -0.0029674   0.0537624
   37   0.0042661  -0.0062789   0.0162513  -0.0021995  -0.0044853  -0.0003401
   38   0.0096184  -0.0010671  -0.0000643  -0.0011492   0.0079197  -0.0071552
   39  -0.0014487  -0.0020177  -0.0021748   0.0011050   0.0037505  -0.0041110
            7           8           9          10          11          12
    1  -0.0108402  -0.0232073  -0.0134831  -0.0498042  -0.0044648  -0.0048453
    2  -0.0033389  -0.0048463   0.0008149   0.0049304  -0.0137256  -0.0038409
    3  -0.0230771  -0.0073012  -0.0060096  -0.0097070  -0.0029891  -0.0057045
    4  -0.2974527   0.0159479  -0.0931546  -0.0335558   0.0466135   0.0085227
    5   0.0426360  -0.0834377  -0.0112825   0.0359397  -0.0150978  -0.0048956
    6  -0.0216717  -0.0333941  -0.0552749   0.0215254  -0.0001169   0.0042266
    7   0.5043613   0.0555425   0.1944409  -0.0939354   0.0084810   0.0292049
    8   0.0555425   0.3367372   0.2552658   0.0303374  -0.0917304  -0.0606984
    9   0.1944409   0.2552658   0.3774678   0.0208658  -0.0480979  -0.0942832
   10  -0.0939354   0.0303374   0.0208658   0.7100646  -0.0138315  -0.0738957
   11   0.0084810  -0.0917304  -0.0480979  -0.0138315   0.3420838  -0.0122831
   12   0.0292049  -0.0606984  -0.0942832  -0.0738957  -0.0122831   0.3292083
   13   0.0114516  -0.0075415  -0.0044202  -0.0892961  -0.0152085   0.0126447
   14   0.0086395  -0.0356144  -0.0065717  -0.0195606  -0.1212674   0.0394755
   15  -0.0071329  -0.0089364   0.0019610   0.0074461   0.0317372  -0.0758339
   16  -0.0117848  -0.0021686  -0.0029047  -0.0362135  -0.0375586   0.0070362
   17   0.0072953  -0.0029122   0.0060881  -0.0311314   0.0004526   0.0106491
   18  -0.0068255  -0.0012189   0.0032914   0.0054351   0.0050885   0.0151749
   19   0.0006289   0.0007395   0.0004107  -0.0027500  -0.0014525   0.0015637
   20  -0.0010272  -0.0031912  -0.0025860  -0.0007699  -0.0010955   0.0015665
   21  -0.0003082  -0.0038860  -0.0018969   0.0046420   0.0018846  -0.0010053
   22  -0.0113816   0.0188735   0.0070559  -0.0052810   0.0027279  -0.0025862
   23  -0.0073906   0.0045282   0.0008640  -0.0006193   0.0016662  -0.0025625
   24   0.0087319   0.0063196   0.0115979  -0.0024216  -0.0048604   0.0035489
   25  -0.1223730  -0.0755897  -0.1072031   0.0086896   0.0074048   0.0070397
   26  -0.0757884  -0.1378856  -0.1371431  -0.0105502  -0.0047680  -0.0043829
   27  -0.1138806  -0.1400329  -0.1585336  -0.0050111  -0.0006797  -0.0027586
   28  -0.0037856   0.0010609   0.0009538  -0.3121679  -0.0034698   0.0637067
   29   0.0233508   0.0010835  -0.0019130  -0.0024814  -0.0449656   0.0045638
   30   0.0195260   0.0023439  -0.0008548   0.0658457   0.0041252  -0.0671520
   31  -0.0007549   0.0003829   0.0008107   0.0085505  -0.0084222   0.0056911
   32  -0.0012430   0.0012106   0.0005761   0.0104162  -0.0061350   0.0092679
   33  -0.0005091   0.0011958  -0.0001937  -0.0053838   0.0016689   0.0012551
   34   0.0358552  -0.0152898  -0.0029305  -0.1132520   0.0125825  -0.0404015
   35  -0.0566899   0.0182110  -0.0573620   0.0012781  -0.0431207   0.0239196
   36  -0.0775098  -0.0075568  -0.0780246  -0.0348016   0.0241952  -0.1056693
   37   0.0000113   0.0009124  -0.0004417   0.0089512   0.0065982  -0.0136811
   38  -0.0004670  -0.0021527   0.0013472  -0.0039574  -0.0022966  -0.0007792
   39  -0.0009889  -0.0021004   0.0007531   0.0054606   0.0003274  -0.0010071
           13          14          15          16          17          18
    1  -0.0419956   0.0393585  -0.0229440  -0.0836329   0.0013806  -0.0099076
    2   0.0515305  -0.0114011   0.0146102   0.0131360  -0.1132375   0.0299117
    3  -0.0214768   0.0129363  -0.0121177  -0.0295565   0.0351254  -0.0894677
    4  -0.0189085   0.0026916  -0.0015544   0.0100576  -0.0116770   0.0139224
    5  -0.0063367  -0.0080064   0.0002984   0.0173189  -0.0411511  -0.0051276
    6  -0.0047750  -0.0007451   0.0065090   0.0022444   0.0004912   0.0120121
    7   0.0114516   0.0086395  -0.0071329  -0.0117848   0.0072953  -0.0068255
    8  -0.0075415  -0.0356144  -0.0089364  -0.0021686  -0.0029122  -0.0012189
    9  -0.0044202  -0.0065717   0.0019610  -0.0029047   0.0060881   0.0032914
   10  -0.0892961  -0.0195606   0.0074461  -0.0362135  -0.0311314   0.0054351
   11  -0.0152085  -0.1212674   0.0317372  -0.0375586   0.0004526   0.0050885
   12   0.0126447   0.0394755  -0.0758339   0.0070362   0.0106491   0.0151749
   13   0.8058664  -0.0985042   0.1409334  -0.5426287  -0.0046702  -0.0511569
   14  -0.0985042   0.4861282  -0.1982158  -0.0396986  -0.0919132   0.0215047
   15   0.1409334  -0.1982158   0.2806319  -0.0378188   0.0225114  -0.0700499
   16  -0.5426287  -0.0396986  -0.0378188   0.6928248   0.0321662   0.0567793
   17  -0.0046702  -0.0919132   0.0225114   0.0321662   0.2762417  -0.0935412
   18  -0.0511569   0.0215047  -0.0700499   0.0567793  -0.0935412   0.1597828
   19   0.0000294   0.0001537  -0.0008174  -0.0019456   0.0013255  -0.0004199
   20   0.0019139  -0.0051888   0.0036453   0.0269107  -0.0000158   0.0105646
   21  -0.0007662   0.0036056  -0.0011991  -0.0122881  -0.0010301  -0.0062435
   22  -0.0011807  -0.0017499   0.0007335   0.0014959  -0.0010695  -0.0015212
   23   0.0001336  -0.0007715   0.0001166   0.0000390  -0.0006976  -0.0024323
   24   0.0018942   0.0000392   0.0011609  -0.0010355   0.0011986  -0.0014833
   25  -0.0009249  -0.0008022   0.0013022   0.0008775   0.0004643  -0.0001967
   26   0.0017480   0.0005692  -0.0017997  -0.0018308   0.0003102  -0.0002072
   27  -0.0007858   0.0004000  -0.0001444   0.0016302  -0.0005222   0.0005108
   28  -0.0042194   0.0016015  -0.0010833  -0.0014127  -0.0004890   0.0006055
   29  -0.0261033   0.0070305   0.0015807  -0.0045953  -0.0055997   0.0012973
   30   0.0089273  -0.0030854  -0.0017098   0.0009701   0.0025346   0.0002020
   31  -0.1192117   0.0928422  -0.0689069  -0.0205966   0.0259901  -0.0169305
   32   0.0989733  -0.1972222   0.1056880   0.0014747   0.0052623  -0.0054142
   33  -0.0746182   0.1089768  -0.1113059   0.0006082  -0.0031646  -0.0033451
   34   0.0034701   0.0165650  -0.0081610  -0.0061632  -0.0196983   0.0080464
   35   0.0051777  -0.0208786   0.0261204  -0.0060159  -0.0217046   0.0355725
   36  -0.0069055   0.0204408  -0.0179540   0.0154476   0.0212253  -0.0211127
   37  -0.0024520  -0.0015363  -0.0019966  -0.0008777   0.0001134   0.0021697
   38  -0.0011128  -0.0014643   0.0026438   0.0008224  -0.0050351   0.0040020
   39   0.0005051   0.0012390   0.0000521  -0.0011124  -0.0015656   0.0007280
           19          20          21          22          23          24
    1  -0.2912414  -0.0058633  -0.1062494   0.0084814   0.0141302   0.0058344
    2  -0.0043442  -0.0473972   0.0044398  -0.0090029  -0.0133422  -0.0132025
    3  -0.1073548   0.0019751  -0.0906409  -0.0014407  -0.0002934  -0.0036376
    4   0.0008902  -0.0225574  -0.0179843  -0.1735517   0.1502499   0.0158751
    5   0.0009264   0.0014376   0.0007853   0.1459233  -0.2053508  -0.0363280
    6   0.0011979  -0.0067983  -0.0070584   0.0204230  -0.0346151  -0.0618083
    7   0.0006289  -0.0010272  -0.0003082  -0.0113816  -0.0073906   0.0087319
    8   0.0007395  -0.0031912  -0.0038860   0.0188735   0.0045282   0.0063196
    9   0.0004107  -0.0025860  -0.0018969   0.0070559   0.0008640   0.0115979
   10  -0.0027500  -0.0007699   0.0046420  -0.0052810  -0.0006193  -0.0024216
   11  -0.0014525  -0.0010955   0.0018846   0.0027279   0.0016662  -0.0048604
   12   0.0015637   0.0015665  -0.0010053  -0.0025862  -0.0025625   0.0035489
   13   0.0000294   0.0019139  -0.0007662  -0.0011807   0.0001336   0.0018942
   14   0.0001537  -0.0051888   0.0036056  -0.0017499  -0.0007715   0.0000392
   15  -0.0008174   0.0036453  -0.0011991   0.0007335   0.0001166   0.0011609
   16  -0.0019456   0.0269107  -0.0122881   0.0014959   0.0000390  -0.0010355
   17   0.0013255  -0.0000158  -0.0010301  -0.0010695  -0.0006976   0.0011986
   18  -0.0004199   0.0105646  -0.0062435  -0.0015212  -0.0024323  -0.0014833
   19   0.3082545   0.0020371   0.1151241   0.0001166  -0.0005604  -0.0000826
   20   0.0020371   0.0549147  -0.0038791   0.0005609   0.0009465   0.0004520
   21   0.1151241  -0.0038791   0.0934266   0.0010062   0.0007803   0.0004863
   22   0.0001166   0.0005609   0.0010062   0.1813693  -0.1544894  -0.0212207
   23  -0.0005604   0.0009465   0.0007803  -0.1544894   0.2128868   0.0403438
   24  -0.0000826   0.0004520   0.0004863  -0.0212207   0.0403438   0.0359346
   25   0.0002175  -0.0009598  -0.0008048   0.0002729   0.0003729   0.0006034
   26   0.0000030   0.0004632   0.0001628  -0.0011346  -0.0007426   0.0010604
   27   0.0001812   0.0000805   0.0001818   0.0004916   0.0007013  -0.0013468
   28  -0.0002379   0.0001125   0.0006200  -0.0001276  -0.0003486   0.0000226
   29  -0.0000250   0.0002701  -0.0002392   0.0011903   0.0000851   0.0006040
   30  -0.0008692  -0.0001791   0.0012064   0.0003417  -0.0000024   0.0009844
   31  -0.0001517   0.0015732  -0.0007130   0.0001965   0.0002023  -0.0002229
   32   0.0000206  -0.0002970   0.0000323   0.0002347   0.0005377   0.0001059
   33  -0.0000404  -0.0004269   0.0007284  -0.0000689   0.0003642   0.0010355
   34  -0.0144059  -0.0020361   0.0187246  -0.0010252  -0.0021362  -0.0073390
   35   0.0009815  -0.0010393  -0.0022036  -0.0020770   0.0005172   0.0024125
   36  -0.0092993  -0.0044543   0.0118987  -0.0032543  -0.0026592   0.0126993
   37   0.0005954   0.0001055  -0.0010030   0.0006151   0.0004167  -0.0006392
   38   0.0001948   0.0001927  -0.0004528   0.0000129  -0.0002631   0.0018548
   39   0.0004061   0.0000397   0.0001159   0.0000401  -0.0006054   0.0008282
           25          26          27          28          29          30
    1  -0.0035452   0.0013572   0.0017376  -0.0022403  -0.0003167  -0.0046535
    2   0.0022989  -0.0022490   0.0030778   0.0004127  -0.0019702   0.0016012
    3  -0.0031445  -0.0022600   0.0030041  -0.0011374   0.0021635  -0.0036076
    4  -0.0028193   0.0026166   0.0022853  -0.0002134   0.0014717   0.0001405
    5  -0.0179530   0.0061827  -0.0020321   0.0003937  -0.0040135  -0.0034140
    6  -0.0125432  -0.0017672   0.0035281   0.0015215  -0.0038655  -0.0039419
    7  -0.1223730  -0.0757884  -0.1138806  -0.0037856   0.0233508   0.0195260
    8  -0.0755897  -0.1378856  -0.1400329   0.0010609   0.0010835   0.0023439
    9  -0.1072031  -0.1371431  -0.1585336   0.0009538  -0.0019130  -0.0008548
   10   0.0086896  -0.0105502  -0.0050111  -0.3121679  -0.0024814   0.0658457
   11   0.0074048  -0.0047680  -0.0006797  -0.0034698  -0.0449656   0.0041252
   12   0.0070397  -0.0043829  -0.0027586   0.0637067   0.0045638  -0.0671520
   13  -0.0009249   0.0017480  -0.0007858  -0.0042194  -0.0261033   0.0089273
   14  -0.0008022   0.0005692   0.0004000   0.0016015   0.0070305  -0.0030854
   15   0.0013022  -0.0017997  -0.0001444  -0.0010833   0.0015807  -0.0017098
   16   0.0008775  -0.0018308   0.0016302  -0.0014127  -0.0045953   0.0009701
   17   0.0004643   0.0003102  -0.0005222  -0.0004890  -0.0055997   0.0025346
   18  -0.0001967  -0.0002072   0.0005108   0.0006055   0.0012973   0.0002020
   19   0.0002175   0.0000030   0.0001812  -0.0002379  -0.0000250  -0.0008692
   20  -0.0009598   0.0004632   0.0000805   0.0001125   0.0002701  -0.0001791
   21  -0.0008048   0.0001628   0.0001818   0.0006200  -0.0002392   0.0012064
   22   0.0002729  -0.0011346   0.0004916  -0.0001276   0.0011903   0.0003417
   23   0.0003729  -0.0007426   0.0007013  -0.0003486   0.0000851  -0.0000024
   24   0.0006034   0.0010604  -0.0013468   0.0000226   0.0006040   0.0009844
   25   0.1196665   0.0857421   0.1134095   0.0001748  -0.0009659  -0.0006225
   26   0.0857421   0.1356860   0.1417446   0.0004691   0.0006615   0.0004986
   27   0.1134095   0.1417446   0.1652894  -0.0000683   0.0002118   0.0002065
   28   0.0001748   0.0004691  -0.0000683   0.3316772   0.0034980  -0.0712601
   29  -0.0009659   0.0006615   0.0002118   0.0034980   0.0476202  -0.0006780
   30  -0.0006225   0.0004986   0.0002065  -0.0712601  -0.0006780   0.0613618
   31   0.0002201  -0.0001203  -0.0000976  -0.0000096   0.0011494  -0.0003423
   32   0.0001305  -0.0003207  -0.0001150  -0.0004839   0.0001666  -0.0000260
   33  -0.0001143   0.0002029  -0.0000664   0.0003062  -0.0001252   0.0000459
   34  -0.0008545  -0.0018376   0.0002703  -0.0076994   0.0040598  -0.0190143
   35  -0.0001070   0.0020012  -0.0019202  -0.0026659  -0.0006979  -0.0037634
   36   0.0019289   0.0039331  -0.0090516   0.0061822  -0.0036198   0.0128922
   37   0.0003977  -0.0006743  -0.0001623   0.0002618  -0.0002323   0.0010106
   38  -0.0000359   0.0000920  -0.0009140  -0.0000911   0.0003296   0.0000448
   39   0.0003454  -0.0000423  -0.0008192  -0.0003694   0.0000195   0.0003670
           31          32          33          34          35          36
    1  -0.0059570  -0.0010235  -0.0002686  -0.1656396  -0.0299746   0.0638046
    2  -0.0021139   0.0049411   0.0067285  -0.0790821  -0.0126434   0.0940540
    3  -0.0015854   0.0063232   0.0089275   0.0614609   0.0307531  -0.1054555
    4   0.0007164  -0.0005488  -0.0015049  -0.0154267   0.0108998   0.0149505
    5  -0.0006007   0.0009879   0.0019123   0.0136434  -0.0081505  -0.0029674
    6  -0.0001351   0.0003046   0.0007090  -0.0364994   0.0881693   0.0537624
    7  -0.0007549  -0.0012430  -0.0005091   0.0358552  -0.0566899  -0.0775098
    8   0.0003829   0.0012106   0.0011958  -0.0152898   0.0182110  -0.0075568
    9   0.0008107   0.0005761  -0.0001937  -0.0029305  -0.0573620  -0.0780246
   10   0.0085505   0.0104162  -0.0053838  -0.1132520   0.0012781  -0.0348016
   11  -0.0084222  -0.0061350   0.0016689   0.0125825  -0.0431207   0.0241952
   12   0.0056911   0.0092679   0.0012551  -0.0404015   0.0239196  -0.1056693
   13  -0.1192117   0.0989733  -0.0746182   0.0034701   0.0051777  -0.0069055
   14   0.0928422  -0.1972222   0.1089768   0.0165650  -0.0208786   0.0204408
   15  -0.0689069   0.1056880  -0.1113059  -0.0081610   0.0261204  -0.0179540
   16  -0.0205966   0.0014747   0.0006082  -0.0061632  -0.0060159   0.0154476
   17   0.0259901   0.0052623  -0.0031646  -0.0196983  -0.0217046   0.0212253
   18  -0.0169305  -0.0054142  -0.0033451   0.0080464   0.0355725  -0.0211127
   19  -0.0001517   0.0000206  -0.0000404  -0.0144059   0.0009815  -0.0092993
   20   0.0015732  -0.0002970  -0.0004269  -0.0020361  -0.0010393  -0.0044543
   21  -0.0007130   0.0000323   0.0007284   0.0187246  -0.0022036   0.0118987
   22   0.0001965   0.0002347  -0.0000689  -0.0010252  -0.0020770  -0.0032543
   23   0.0002023   0.0005377   0.0003642  -0.0021362   0.0005172  -0.0026592
   24  -0.0002229   0.0001059   0.0010355  -0.0073390   0.0024125   0.0126993
   25   0.0002201   0.0001305  -0.0001143  -0.0008545  -0.0001070   0.0019289
   26  -0.0001203  -0.0003207   0.0002029  -0.0018376   0.0020012   0.0039331
   27  -0.0000976  -0.0001150  -0.0000664   0.0002703  -0.0019202  -0.0090516
   28  -0.0000096  -0.0004839   0.0003062  -0.0076994  -0.0026659   0.0061822
   29   0.0011494   0.0001666  -0.0001252   0.0040598  -0.0006979  -0.0036198
   30  -0.0003423  -0.0000260   0.0000459  -0.0190143  -0.0037634   0.0128922
   31   0.1368583  -0.1083985   0.0810232  -0.0005667  -0.0022332   0.0012327
   32  -0.1083985   0.1943875  -0.1160913  -0.0003138  -0.0031803  -0.0005053
   33   0.0810232  -0.1160913   0.1042269   0.0007446  -0.0012772  -0.0015258
   34  -0.0005667  -0.0003138   0.0007446   0.3383649   0.0867958   0.0074816
   35  -0.0022332  -0.0031803  -0.0012772   0.0867958   0.1599903  -0.2825095
   36   0.0012327  -0.0005053  -0.0015258   0.0074816  -0.2825095   0.5465022
   37   0.0007063   0.0007615  -0.0001740  -0.0526571  -0.0053694   0.0207423
   38  -0.0002513  -0.0003385   0.0000358  -0.0132524  -0.0693044   0.1404241
   39   0.0001761  -0.0001461  -0.0004915   0.0176172   0.1420885  -0.2989614
           37          38          39
    1   0.0042661   0.0096184  -0.0014487
    2  -0.0062789  -0.0010671  -0.0020177
    3   0.0162513  -0.0000643  -0.0021748
    4  -0.0021995  -0.0011492   0.0011050
    5  -0.0044853   0.0079197   0.0037505
    6  -0.0003401  -0.0071552  -0.0041110
    7   0.0000113  -0.0004670  -0.0009889
    8   0.0009124  -0.0021527  -0.0021004
    9  -0.0004417   0.0013472   0.0007531
   10   0.0089512  -0.0039574   0.0054606
   11   0.0065982  -0.0022966   0.0003274
   12  -0.0136811  -0.0007792  -0.0010071
   13  -0.0024520  -0.0011128   0.0005051
   14  -0.0015363  -0.0014643   0.0012390
   15  -0.0019966   0.0026438   0.0000521
   16  -0.0008777   0.0008224  -0.0011124
   17   0.0001134  -0.0050351  -0.0015656
   18   0.0021697   0.0040020   0.0007280
   19   0.0005954   0.0001948   0.0004061
   20   0.0001055   0.0001927   0.0000397
   21  -0.0010030  -0.0004528   0.0001159
   22   0.0006151   0.0000129   0.0000401
   23   0.0004167  -0.0002631  -0.0006054
   24  -0.0006392   0.0018548   0.0008282
   25   0.0003977  -0.0000359   0.0003454
   26  -0.0006743   0.0000920  -0.0000423
   27  -0.0001623  -0.0009140  -0.0008192
   28   0.0002618  -0.0000911  -0.0003694
   29  -0.0002323   0.0003296   0.0000195
   30   0.0010106   0.0000448   0.0003670
   31   0.0007063  -0.0002513   0.0001761
   32   0.0007615  -0.0003385  -0.0001461
   33  -0.0001740   0.0000358  -0.0004915
   34  -0.0526571  -0.0132524   0.0176172
   35  -0.0053694  -0.0693044   0.1420885
   36   0.0207423   0.1404241  -0.2989614
   37   0.0423814   0.0096687  -0.0217360
   38   0.0096687   0.0733878  -0.1409871
   39  -0.0217360  -0.1409871   0.3047207
 Gradient time:  CPU 550.63 s  wall 551.77 s
 **********************************************************************
 **                                                                  **
 **                       VIBRATIONAL ANALYSIS                       **
 **                       --------------------                       **
 **                                                                  **
 **        VIBRATIONAL FREQUENCIES (CM**-1) AND NORMAL MODES         **
 **     FORCE CONSTANTS (mDYN/ANGSTROM) AND REDUCED MASSES (AMU)     **
 **                  INFRARED INTENSITIES (KM/MOL)                   **
 **                                                                  **
 **********************************************************************
 

 Mode:                 1                      2                      3
 Frequency:      -652.54                 332.72                 392.69
 Force Cnst:      1.3574                 0.0764                 0.1031
 Red. Mass:       5.4108                 1.1718                 1.1344
 IR Active:          YES                    YES                    YES
 IR Intens:       34.217                 21.629                 29.675
 Raman Active:       YES                    YES                    YES
               X      Y      Z        X      Y      Z        X      Y      Z
 C          0.057  0.163 -0.021   -0.012 -0.017 -0.022   -0.021 -0.028  0.004
 C         -0.093 -0.004  0.370   -0.001 -0.031  0.001    0.005 -0.050  0.005
 C         -0.113  0.070 -0.075    0.033  0.033 -0.070    0.030  0.037 -0.032
 C         -0.014  0.011 -0.015    0.011 -0.002 -0.033    0.009 -0.015  0.022
 C         -0.012  0.005 -0.011   -0.003  0.032  0.029   -0.019 -0.003  0.023
 N         -0.005  0.040 -0.012   -0.006  0.027  0.024   -0.013 -0.022 -0.034
 H          0.052  0.102 -0.017   -0.013 -0.018 -0.021   -0.023 -0.008  0.009
 H         -0.125 -0.080  0.626   -0.028 -0.064  0.062    0.043  0.014 -0.156
 H          0.005  0.183 -0.248   -0.219 -0.545  0.621    0.121  0.352 -0.370
 H          0.017  0.041  0.117    0.005 -0.033 -0.061    0.006 -0.062  0.005
 H         -0.009 -0.045 -0.084   -0.012  0.075  0.099   -0.038  0.011  0.063
 C          0.168 -0.318 -0.262    0.002 -0.033 -0.010    0.001 -0.004  0.023
 H          0.200  0.102 -0.050    0.001  0.426  0.208    0.015  0.734  0.372
 TransDip   0.037  0.043  0.178   -0.049 -0.036  0.136   -0.007  0.170 -0.038

 Mode:                 4                      5                      6
 Frequency:       439.25                 482.98                 606.65
 Force Cnst:      0.4247                 0.5179                 0.9997
 Red. Mass:       3.7356                 3.7683                 4.6105
 IR Active:          YES                    YES                    YES
 IR Intens:        7.176                  6.258                 15.051
 Raman Active:       YES                    YES                    YES
               X      Y      Z        X      Y      Z        X      Y      Z
 C         -0.009  0.023  0.129   -0.004  0.050  0.031    0.084 -0.061 -0.082
 C         -0.003  0.145 -0.055   -0.050  0.059 -0.130   -0.129 -0.177  0.067
 C          0.014  0.279 -0.102   -0.158 -0.176  0.118    0.013  0.111 -0.191
 C         -0.015 -0.001  0.153    0.012 -0.017 -0.016    0.081 -0.055 -0.024
 C          0.011 -0.178 -0.153    0.087 -0.086 -0.181   -0.059 -0.132 -0.100
 N         -0.001 -0.112 -0.057    0.040  0.168  0.228   -0.092  0.107  0.206
 H         -0.007  0.020  0.122    0.007 -0.098  0.009    0.177 -0.113 -0.292
 H         -0.034  0.145 -0.165    0.043  0.179 -0.324   -0.269 -0.361  0.370
 H         -0.169 -0.025  0.304   -0.113 -0.030 -0.045   -0.098  0.180 -0.166
 H         -0.016  0.001  0.141    0.029  0.169  0.064    0.088 -0.112  0.006
 H          0.047 -0.447 -0.569    0.111 -0.225 -0.405   -0.103 -0.194 -0.139
 C          0.013 -0.104  0.098    0.053 -0.071 -0.049    0.125  0.255  0.116
 H          0.050 -0.082  0.115    0.070  0.528  0.235    0.117 -0.185 -0.093
 TransDip  -0.031 -0.067  0.043    0.012  0.052 -0.060   -0.045 -0.098 -0.062

 Mode:                 7                      8                      9
 Frequency:       740.73                 784.95                 826.50
 Force Cnst:      1.9204                 2.5500                 0.8693
 Red. Mass:       5.9406                 7.0244                 2.1599
 IR Active:          YES                    YES                    YES
 IR Intens:        3.406                  5.090                 17.261
 Raman Active:       YES                    YES                    YES
               X      Y      Z        X      Y      Z        X      Y      Z
 C          0.076  0.151  0.056   -0.190  0.087  0.146   -0.023 -0.011 -0.073
 C         -0.142  0.251  0.005   -0.174 -0.107  0.024   -0.069  0.097  0.086
 C         -0.133 -0.099 -0.189   -0.045 -0.138 -0.225    0.009  0.004  0.011
 C         -0.109 -0.222 -0.055    0.216 -0.147  0.094   -0.047 -0.003 -0.120
 C          0.100 -0.172  0.223    0.101  0.094  0.035    0.018  0.015 -0.076
 N          0.144 -0.141 -0.019    0.129  0.308 -0.251   -0.009 -0.052  0.023
 H          0.080 -0.085  0.052   -0.121 -0.051 -0.020    0.128 -0.072 -0.418
 H         -0.083  0.276  0.181    0.129  0.192 -0.142    0.121  0.334 -0.243
 H          0.093 -0.338 -0.153   -0.186 -0.091 -0.168    0.148 -0.050 -0.037
 H         -0.066 -0.074  0.117    0.208 -0.041  0.061   -0.121  0.084 -0.409
 H          0.129 -0.096  0.317   -0.249 -0.172  0.015    0.047  0.290  0.284
 C          0.016  0.254 -0.060   -0.032 -0.099  0.233    0.071 -0.078  0.198
 H          0.112  0.344 -0.011   -0.083 -0.408  0.091    0.272 -0.134  0.202
 TransDip   0.003 -0.006  0.059   -0.052 -0.050 -0.007    0.033  0.073 -0.107

 Mode:                10                     11                     12
 Frequency:       853.04                 882.61                 893.43
 Force Cnst:      1.7208                 1.0166                 0.6949
 Red. Mass:       4.0136                 2.2150                 1.4777
 IR Active:          YES                    YES                    YES
 IR Intens:        9.324                  8.251                  2.763
 Raman Active:       YES                    YES                    YES
               X      Y      Z        X      Y      Z        X      Y      Z
 C          0.051 -0.087 -0.160    0.052  0.058  0.141   -0.036 -0.030 -0.002
 C          0.047  0.030  0.094    0.005  0.002 -0.087    0.054  0.050 -0.093
 C          0.015  0.161  0.126   -0.067 -0.001  0.037   -0.021  0.015  0.036
 C         -0.088 -0.128  0.030    0.122  0.089 -0.131   -0.077 -0.070 -0.017
 C          0.095 -0.221 -0.010   -0.037 -0.135  0.011    0.021  0.050  0.007
 N          0.092  0.225 -0.052   -0.049 -0.019 -0.048    0.029  0.046 -0.028
 H         -0.053 -0.142  0.074    0.056  0.200  0.140   -0.075 -0.024  0.088
 H         -0.070 -0.019 -0.201   -0.200 -0.226  0.157   -0.291 -0.392  0.636
 H          0.004  0.166  0.142   -0.260  0.167  0.035    0.032  0.094 -0.071
 H         -0.152  0.070 -0.218    0.078  0.292 -0.310   -0.131 -0.117 -0.224
 H         -0.304 -0.083  0.617   -0.296  0.047  0.555    0.067 -0.012 -0.141
 C         -0.158 -0.015 -0.049    0.048 -0.035  0.032    0.024 -0.032  0.066
 H         -0.239 -0.015 -0.055   -0.164  0.031  0.051    0.403  0.031  0.131
 TransDip  -0.077 -0.056  0.021   -0.031  0.018  0.085    0.002 -0.049  0.020

 Mode:                13                     14                     15
 Frequency:       914.23                 925.08                 958.06
 Force Cnst:      0.9836                 0.8275                 1.0834
 Red. Mass:       1.9974                 1.6412                 2.0033
 IR Active:          YES                    YES                    YES
 IR Intens:        1.337                 20.231                  2.692
 Raman Active:       YES                    YES                    YES
               X      Y      Z        X      Y      Z        X      Y      Z
 C         -0.057 -0.058 -0.075    0.018  0.010 -0.068   -0.139  0.116 -0.049
 C          0.028  0.108 -0.019   -0.012 -0.000  0.009    0.024 -0.134 -0.013
 C          0.041 -0.088 -0.089    0.028 -0.019  0.017    0.044 -0.012 -0.043
 C          0.041  0.135  0.122    0.009  0.087 -0.059   -0.073  0.083  0.053
 C          0.009 -0.073 -0.042   -0.016 -0.049  0.184    0.048 -0.093  0.016
 N         -0.014  0.002  0.020    0.002  0.023 -0.017    0.041 -0.026  0.039
 H          0.003 -0.161 -0.224    0.092 -0.071 -0.236   -0.291  0.229  0.289
 H          0.009 -0.014  0.552    0.015  0.030 -0.011    0.183  0.024 -0.122
 H          0.312 -0.208 -0.191    0.054 -0.007 -0.011   -0.090  0.022  0.021
 H          0.081  0.386  0.286   -0.066  0.256 -0.363   -0.135  0.310 -0.187
 H         -0.118  0.045  0.268   -0.030 -0.585 -0.560   -0.002 -0.024  0.178
 C         -0.058 -0.035  0.017   -0.027 -0.026  0.032    0.021  0.032 -0.021
 H         -0.129  0.074  0.062   -0.091  0.018  0.051    0.662 -0.103 -0.038
 TransDip   0.002  0.015  0.034    0.016 -0.097 -0.105   -0.039  0.007  0.034

 Mode:                16                     17                     18
 Frequency:       972.80                1026.57                1083.71
 Force Cnst:      1.1272                 1.2867                 1.2155
 Red. Mass:       2.0216                 2.0723                 1.7565
 IR Active:          YES                    YES                    YES
 IR Intens:        2.491                  3.889                  5.270
 Raman Active:       YES                    YES                    YES
               X      Y      Z        X      Y      Z        X      Y      Z
 C         -0.139  0.077 -0.114    0.085  0.198 -0.044   -0.095  0.048 -0.043
 C          0.028  0.033 -0.007    0.001 -0.097 -0.065   -0.126  0.037 -0.011
 C         -0.018  0.032  0.051    0.023 -0.011 -0.020    0.067  0.047  0.088
 C          0.156 -0.070 -0.001   -0.097 -0.019  0.069    0.136 -0.021 -0.011
 C          0.038 -0.005  0.008    0.038 -0.001 -0.020    0.013 -0.005  0.005
 N          0.019 -0.087  0.058    0.035 -0.022  0.026    0.007 -0.038  0.024
 H         -0.078  0.015 -0.273    0.235  0.459 -0.377   -0.167  0.083  0.099
 H          0.253  0.167  0.381   -0.215 -0.307 -0.012   -0.547 -0.280 -0.244
 H         -0.519  0.392  0.118    0.097 -0.044 -0.056    0.578 -0.238 -0.022
 H          0.138 -0.279 -0.114   -0.117 -0.041  0.009    0.147 -0.150 -0.012
 H          0.085  0.010 -0.010    0.213  0.165  0.031   -0.051 -0.053  0.012
 C         -0.061  0.006 -0.012   -0.067 -0.065  0.076   -0.007 -0.008 -0.039
 H         -0.190  0.031 -0.016   -0.493  0.001  0.088    0.084 -0.000 -0.036
 TransDip  -0.021  0.020 -0.041   -0.017  0.016 -0.058   -0.011 -0.065 -0.033

 Mode:                19                     20                     21
 Frequency:      1140.63                1175.88                1215.38
 Force Cnst:      1.2946                 1.4804                 1.3394
 Red. Mass:       1.6889                 1.8172                 1.5390
 IR Active:          YES                    YES                    YES
 IR Intens:       15.424                  1.884                  5.877
 Raman Active:       YES                    YES                    YES
               X      Y      Z        X      Y      Z        X      Y      Z
 C          0.064 -0.049 -0.128   -0.134  0.003  0.033    0.057  0.019  0.054
 C          0.047  0.043  0.046    0.068 -0.050 -0.011    0.024  0.020  0.032
 C         -0.087 -0.008 -0.048   -0.014  0.086  0.047    0.034 -0.022 -0.010
 C          0.066 -0.073 -0.018   -0.055 -0.077 -0.142    0.047 -0.056 -0.001
 C          0.010  0.046  0.008    0.026 -0.010  0.033   -0.002  0.041 -0.016
 N         -0.040 -0.024  0.020    0.009  0.006 -0.007   -0.021 -0.018  0.007
 H         -0.226  0.574  0.541    0.010  0.013 -0.314    0.256 -0.038 -0.392
 H         -0.049 -0.022 -0.084    0.068 -0.060  0.022   -0.220 -0.161 -0.177
 H         -0.047 -0.036 -0.062    0.158 -0.030  0.030   -0.223  0.133  0.046
 H          0.090  0.441  0.099    0.141  0.511  0.691    0.084  0.340  0.150
 H          0.077  0.001 -0.139    0.022 -0.053 -0.026   -0.114 -0.029 -0.003
 C         -0.036 -0.012  0.080    0.078  0.010  0.016   -0.169 -0.001 -0.037
 H         -0.053 -0.015  0.087   -0.171 -0.018 -0.018    0.629  0.006  0.027
 TransDip   0.025  0.123 -0.007    0.004  0.001  0.044    0.054  0.038 -0.040

 Mode:                22                     23                     24
 Frequency:      1242.02                1272.51                1318.94
 Force Cnst:      1.4522                 1.2015                 1.5264
 Red. Mass:       1.5978                 1.2593                 1.4893
 IR Active:          YES                    YES                    YES
 IR Intens:        6.779                  1.018                  9.334
 Raman Active:       YES                    YES                    YES
               X      Y      Z        X      Y      Z        X      Y      Z
 C         -0.009  0.010  0.044   -0.020  0.039 -0.020   -0.035 -0.092  0.061
 C          0.000 -0.038 -0.025    0.002  0.039  0.025   -0.002 -0.002  0.003
 C         -0.031  0.048  0.015    0.081 -0.046 -0.014   -0.046  0.024  0.008
 C          0.036 -0.127  0.114   -0.000 -0.018  0.013    0.045  0.017  0.019
 C         -0.002  0.071 -0.028   -0.029 -0.047  0.023    0.034 -0.089  0.045
 N         -0.035 -0.030  0.006   -0.044  0.025 -0.027   -0.064  0.061 -0.035
 H          0.052 -0.185 -0.096   -0.103 -0.454  0.165    0.115  0.508 -0.294
 H          0.145  0.068  0.090   -0.276 -0.168 -0.165    0.098  0.080  0.032
 H          0.231 -0.136 -0.016   -0.266  0.182  0.049    0.143 -0.100 -0.024
 H         -0.149  0.601 -0.600   -0.005  0.246  0.000    0.016 -0.106 -0.138
 H         -0.058  0.053 -0.010    0.555  0.311 -0.085    0.643  0.270 -0.071
 C          0.043  0.033 -0.066    0.039 -0.005  0.009   -0.022  0.015 -0.049
 H         -0.184  0.044 -0.094   -0.150 -0.013 -0.009    0.168  0.012 -0.047
 TransDip   0.046  0.056 -0.041   -0.029 -0.013  0.005    0.096 -0.017  0.003

 Mode:                25                     26                     27
 Frequency:      1321.74                1404.35                1626.36
 Force Cnst:      1.8429                 3.1353                11.6788
 Red. Mass:       1.7904                 2.6982                 7.4940
 IR Active:          YES                    YES                    YES
 IR Intens:       12.937                  1.569                 44.219
 Raman Active:       YES                    YES                    YES
               X      Y      Z        X      Y      Z        X      Y      Z
 C         -0.109 -0.094  0.032   -0.051  0.072 -0.012    0.038  0.051 -0.004
 C          0.057  0.088  0.069    0.257 -0.018  0.080   -0.031 -0.017 -0.015
 C          0.036 -0.074 -0.051   -0.241  0.027 -0.063    0.035 -0.013  0.001
 C         -0.051  0.008  0.052    0.057  0.054  0.007   -0.060  0.020 -0.009
 C          0.043  0.033 -0.010    0.002 -0.018  0.006    0.569  0.068  0.032
 N          0.025 -0.010  0.018   -0.011 -0.013  0.007   -0.457 -0.024 -0.043
 H          0.013  0.440 -0.279   -0.008 -0.495 -0.116   -0.031 -0.319  0.150
 H         -0.391 -0.240 -0.300   -0.142 -0.335 -0.379   -0.001 -0.004  0.039
 H         -0.320  0.142  0.015    0.219 -0.317 -0.154   -0.039  0.052  0.003
 H         -0.122 -0.021 -0.202    0.023 -0.330 -0.159   -0.033 -0.237  0.114
 H         -0.269 -0.171  0.024    0.041  0.002  0.006   -0.158 -0.430  0.189
 C          0.107  0.036 -0.044   -0.025  0.025  0.041    0.010 -0.002  0.005
 H         -0.258  0.024 -0.093    0.034 -0.042  0.015   -0.045 -0.003 -0.001
 TransDip  -0.107  0.039 -0.017    0.018  0.035 -0.008    0.140  0.160  0.000

 Mode:                28                     29                     30
 Frequency:      3146.92                3184.26                3185.81
 Force Cnst:      6.3604                 6.5260                 6.5306
 Red. Mass:       1.0901                 1.0924                 1.0921
 IR Active:          YES                    YES                    YES
 IR Intens:       17.786                 21.866                  4.761
 Raman Active:       YES                    YES                    YES
               X      Y      Z        X      Y      Z        X      Y      Z
 C          0.000 -0.000  0.000    0.029  0.001  0.012   -0.060  0.001 -0.025
 C          0.001 -0.001 -0.000   -0.011  0.012  0.002    0.031 -0.033 -0.005
 C          0.002  0.001  0.001   -0.001 -0.001 -0.002    0.000  0.003  0.002
 C         -0.083 -0.001  0.020    0.010  0.002 -0.003    0.006  0.001 -0.001
 C          0.007 -0.007  0.005    0.043 -0.055  0.038    0.020 -0.025  0.017
 N         -0.000  0.000  0.000   -0.003 -0.000 -0.000   -0.001 -0.000  0.000
 H          0.001  0.001 -0.000   -0.336 -0.001 -0.146    0.683 -0.001  0.295
 H         -0.010  0.011  0.002    0.124 -0.136 -0.026   -0.344  0.382  0.070
 H         -0.018 -0.017 -0.023    0.018  0.020  0.024   -0.022 -0.029 -0.033
 H          0.957  0.011 -0.237   -0.109 -0.007  0.028   -0.058 -0.004  0.016
 H         -0.070  0.089 -0.062   -0.467  0.630 -0.441   -0.209  0.282 -0.197
 C          0.002  0.001 -0.002   -0.001  0.000 -0.001   -0.000 -0.001  0.003
 H         -0.006 -0.016  0.033    0.001 -0.001  0.005    0.003  0.021 -0.048
 TransDip  -0.133 -0.003  0.025    0.112 -0.078  0.061   -0.014 -0.065 -0.021

 Mode:                31                     32                     33
 Frequency:      3195.31                3257.86                3263.40
 Force Cnst:      6.5739                 6.8474                 6.8802
 Red. Mass:       1.0928                 1.0950                 1.0965
 IR Active:          YES                    YES                    YES
 IR Intens:       19.653                  1.122                  0.548
 Raman Active:       YES                    YES                    YES
               X      Y      Z        X      Y      Z        X      Y      Z
 C          0.044  0.001  0.019   -0.001  0.000  0.000   -0.009 -0.002 -0.001
 C          0.049 -0.053 -0.009    0.011 -0.007 -0.001   -0.004  0.004  0.000
 C          0.001  0.005  0.005   -0.043 -0.048 -0.055    0.013  0.013  0.016
 C          0.000  0.000 -0.000   -0.002  0.002  0.002    0.006 -0.001  0.001
 C         -0.003  0.004 -0.002   -0.000  0.001 -0.000    0.001 -0.001  0.001
 N         -0.000  0.000 -0.000    0.000 -0.000  0.000   -0.001 -0.000  0.000
 H         -0.502 -0.004 -0.220    0.010  0.000  0.003    0.068  0.001  0.027
 H         -0.540  0.607  0.112   -0.072  0.077  0.010    0.036 -0.040 -0.008
 H         -0.051 -0.063 -0.072    0.466  0.544  0.628   -0.128 -0.151 -0.173
 H         -0.012 -0.000  0.003    0.019 -0.002 -0.008   -0.044  0.001  0.008
 H          0.026 -0.035  0.025    0.004 -0.007  0.004   -0.009  0.012 -0.009
 C         -0.001  0.003 -0.004    0.001  0.011 -0.020    0.006  0.037 -0.077
 H         -0.003 -0.027  0.056   -0.020 -0.117  0.243   -0.068 -0.407  0.861
 TransDip   0.124 -0.067  0.013   -0.012 -0.007 -0.031    0.016  0.014  0.010

 STANDARD THERMODYNAMIC QUANTITIES AT   298.15 K  AND     1.00 ATM

   This Molecule has  1 Imaginary Frequencies
   Zero point vibrational energy:       62.997 kcal/mol

   Atom    1 Element C  Has Mass   12.00000
   Atom    2 Element C  Has Mass   12.00000
   Atom    3 Element C  Has Mass   12.00000
   Atom    4 Element C  Has Mass   12.00000
   Atom    5 Element C  Has Mass   12.00000
   Atom    6 Element N  Has Mass   14.00307
   Atom    7 Element H  Has Mass    1.00783
   Atom    8 Element H  Has Mass    1.00783
   Atom    9 Element H  Has Mass    1.00783
   Atom   10 Element H  Has Mass    1.00783
   Atom   11 Element H  Has Mass    1.00783
   Atom   12 Element C  Has Mass   12.00000
   Atom   13 Element H  Has Mass    1.00783
   Molecular Mass:    92.050050 amu
   Principal axes and moments of inertia in amu*Bohr^2:
                             1           2           3
    Eigenvalues --      376.98728   456.61253   566.62130
          X               0.10535     0.95417    -0.28010
          Y               0.99440    -0.09884     0.03732
          Z              -0.00792     0.28246     0.95925
   Rotational Symmetry Number is   1
   The Molecule is an Asymmetric Top
   Translational Enthalpy:        0.889 kcal/mol
   Rotational Enthalpy:           0.889 kcal/mol
   Vibrational Enthalpy:         64.346 kcal/mol
   gas constant (RT):             0.592 kcal/mol
   Translational Entropy:        39.471  cal/mol.K
   Rotational Entropy:           26.081  cal/mol.K
   Vibrational Entropy:           6.237  cal/mol.K

   Total Enthalpy:               66.716 kcal/mol
   Total Entropy:                71.788  cal/mol.K
Archival summary:
1\1\c8-73\FREQ\ProcedureUnspecified\6-31+G**\166(2)\hpark21\FriMar413:01:312022FriMar413:01:312022\0\\#,FREQ,ProcedureUnspecified,6-31+G**,\\0,2\N\C,1,1.28481\H,2,1.0879,1,121.952\C,1,1.46878,2,105.222,3,-175.731,0\H,4,1.08613,1,115.329,2,-163.1,0\C,4,1.48712,1,108.269,2,-24.4471,0\H,6,1.08105,4,131.856,1,-140.882,0\C,4,1.52885,1,114.564,2,58.668,0\H,8,1.08645,4,120.802,1,131.585,0\C,8,1.40442,4,111.714,1,-44.8091,0\H,10,1.08097,8,130.407,4,164.967,0\C,10,1.52766,8,98.755,4,-21.9225,0\H,12,1.08949,10,118.204,8,-150.662,0\\\@

 Total job time:  559.85s(wall), 557.81s(cpu) 
 Fri Mar  4 13:01:31 2022

        *************************************************************
        *                                                           *
        *  Thank you very much for using Q-Chem.  Have a nice day.  *
        *                                                           *
        *************************************************************


