
Running Job 1 of 1 qcts2.in
qchem qcts2.in_3974.0 ./qcts2.d/ 1
/home/leeping/opt/qchem/5.0.2-openmp/exe/qcprog.exe_s qcts2.in_3974.0 ./qcts2.d/
Check license passed

                  Welcome to Q-Chem
     A Quantum Leap Into The Future Of Chemistry


 Q-Chem 5.0, Q-Chem, Inc., Pleasanton, CA (2017)

 Yihan Shao,  Zhengting Gan,  E. Epifanovsky,  A. T. B. Gilbert,  M. Wormit,  
 J. Kussmann,  A. W. Lange,  A. Behn,  Jia Deng,  Xintian Feng,  D. Ghosh,  
 M. Goldey,  P. R. Horn,  L. D. Jacobson,  I. Kaliman,  T. Kus,  A. Landau,  
 Jie Liu,  E. I. Proynov,  R. M. Richard,  R. P. Steele,  E. J. Sundstrom,  
 H. L. Woodcock III,  P. M. Zimmerman,  D. Zuev,  B. Albrecht,  E. Alguire,  
 S. A. Baeppler,  D. Barton,  Z. Benda,  Y. A. Bernard,  E. J. Berquist,  
 K. B. Bravaya,  H. Burton,  D. Casanova,  Chun-Min Chang,  Yunqing Chen,  
 A. Chien,  K. D. Closser,  M. P. Coons,  S. Dasgupta,  A. L. Dempwolff,  
 M. Diedenhofen,  Hainam Do,  R. G. Edgar,  Po-Tung Fang,  S. Fatehi,  
 Qingguo Feng,  J. Fosso-Tande,  Qinghui Ge,  A. Ghysels,  G. Gidofalvi,  
 J. Gomes,  J. Gonthier,  A. Gunina,  M. W. D. Hanson-Heine,  
 P. H. P. Harbach,  A. W. Hauser,  J. E. Herr,  E. G. Hohenstein,  
 Z. C. Holden,  Kerwin Hui,  T.-C. Jagau,  Hyunjun Ji,  B. Kaduk,  
 K. Khistyaev,  Jaehoon Kim,  P. Klunzinger,  K. Koh,  D. Kosenkov,  
 L. Koulias,  T. Kowalczyk,  C. M. Krauter,  A. Kunitsa,  Ka Un Lao,  
 A. Laurent,  K. V. Lawler,  Joonho Lee,  D. Lefrancois,  S. Lehtola,  
 D. S. Levine,  Yi-Pei Li,  You-Sheng Lin,  Fenglai Liu,  E. Livshits,  
 A. Luenser,  P. Manohar,  E. Mansoor,  S. F. Manzer,  Shan-Ping Mao,  
 Yuezhi Mao,  N. Mardirossian,  A. V. Marenich,  T. Markovich,  
 L. A. Martinez-Martinez,  S. A. Maurer,  N. J. Mayhall,  S. C. McKenzie,  
 J.-M. Mewes,  A. F. Morrison,  J. W. Mullinax,  K. Nanda,  
 T. S. Nguyen-Beck,  R. Olivares-Amaya,  J. A. Parkhill,  T. M. Perrine,  
 F. Plasser,  S. Prager,  A. Prociuk,  E. Ramos,  D. R. Rehn,  F. Rob,  
 M. Schneider,  N. Sergueev,  S. M. Sharada,  S. Sharma,  D. W. Small,  
 T. Stauch,  T. Stein,  Yu-Chuan Su,  A. J. W. Thom,  A. Tkatchenko,  
 T. Tsuchimochi,  L. Vogt,  O. Vydrov,  M. A. Watson,  J. Wenzel,  
 M. de Wergifosse,  T. A. Wesolowski,  A. White,  J. Witte,  A. Yamada,  
 Jun Yang,  K. Yao,  S. Yeganeh,  S. R. Yost,  Zhi-Qiang You,  A. Zech,  
 Igor Ying Zhang,  Xing Zhang,  Yan Zhao,  Ying Zhu,  B. R. Brooks,  
 G. K. L. Chan,  C. J. Cramer,  M. S. Gordon,  W. J. Hehre,  A. Klamt,  
 M. W. Schmidt,  C. D. Sherrill,  D. G. Truhlar,  A. Aspuru-Guzik,  R. Baer,  
 A. T. Bell,  N. A. Besley,  Jeng-Da Chai,  R. A. DiStasio Jr.,  A. Dreuw,  
 B. D. Dunietz,  T. R. Furlani,  Chao-Ping Hsu,  Yousung Jung,  Jing Kong,  
 D. S. Lambrecht,  WanZhen Liang,  C. Ochsenfeld,  V. A. Rassolov,  
 L. V. Slipchenko,  J. E. Subotnik,  T. Van Voorhis,  J. M. Herbert,  
 A. I. Krylov,  P. M. W. Gill,  M. Head-Gordon

 Contributors to earlier versions of Q-Chem not listed above: 
 R. D. Adamson,  B. Austin,  J. Baker,  G. J. O. Beran,  K. Brandhorst,  
 S. T. Brown,  E. F. C. Byrd,  A. K. Chakraborty,  C.-L. Cheng,  
 Siu Hung Chien,  D. M. Chipman,  D. L. Crittenden,  H. Dachsel,  
 R. J. Doerksen,  A. D. Dutoi,  L. Fusti-Molnar,  W. A. Goddard III,  
 A. Golubeva-Zadorozhnaya,  S. R. Gwaltney,  G. Hawkins,  A. Heyden,  
 S. Hirata,  G. Kedziora,  F. J. Keil,  C. Kelley,  Jihan Kim,  R. A. King,  
 R. Z. Khaliullin,  P. P. Korambath,  W. Kurlancheek,  A. M. Lee,  M. S. Lee,  
 S. V. Levchenko,  Ching Yeh Lin,  D. Liotard,  R. C. Lochan,  I. Lotan,  
 P. E. Maslen,  N. Nair,  D. P. O'Neill,  D. Neuhauser,  E. Neuscamman,  
 C. M. Oana,  R. Olson,  B. Peters,  R. Peverati,  P. A. Pieniazek,  
 Y. M. Rhee,  J. Ritchie,  M. A. Rohrdanz,  E. Rosta,  N. J. Russ,  
 H. F. Schaefer III,  N. E. Schultz,  N. Shenvi,  A. C. Simmonett,  A. Sodt,  
 D. Stuck,  K. S. Thanthiriwatte,  V. Vanovschi,  Tao Wang,  A. Warshel,  
 C. F. Williams,  Q. Wu,  X. Xu,  W. Zhang

 Please cite Q-Chem as follows:
 Y. Shao et al., Mol. Phys. 113, 184-215 (2015)
 DOI: 10.1080/00268976.2014.952696

 Q-Chem 5.0.2 for Intel X86 EM64T Linux

 Parts of Q-Chem use Armadillo 5.200.1 (Boston Tea Smuggler).
 http://arma.sourceforge.net/

 Q-Chem begins on Fri Mar  4 12:47:26 2022  

Host: 
0

     Scratch files written to ./qcts2.d//
 Dec517 15110_ 26548  26544 5633   
Processing $rem in /home/leeping/opt/qchem/5.0.2-openmp/config/preferences.
 MEM_STATIC 2000
 MEM_TOTAL  8000
 SYMMETRY   OFF
 SYM_IGNORE TRUE 

Checking the input file for inconsistencies... 	...done.

--------------------------------------------------------------
User input:
--------------------------------------------------------------
$molecule
0 2
C        1.1765739846    0.2841915378    0.3673198532
C        0.7645724161   -0.9992421186   -0.3524262301
C       -0.5556124114   -0.9322060329   -0.8198171957
C       -1.0775357045    0.1591578107    0.1126633696
C       -0.4838009420    1.4614867737   -0.4308332550
N        0.7935170019    1.5227590369   -0.3250521132
H        2.1730477493    0.2851892528    0.8020325173
H        1.4794242213   -1.8037937785   -0.5077299310
H       -1.0651906309   -1.5244964285   -1.5678084166
H       -2.1351799942    0.1486692953    0.3774027606
H       -1.0525514937    2.2177302121   -0.9695750721
C        0.0071944864   -0.1893181727    1.1559297967
H       -0.0678313775   -0.6583816552    2.1268499531
$end

$rem
method                b3lyp
basis                 6-31+g(d,p)
unrestricted          true
symmetry              off
sym_ignore            true
incdft                false
incfock               0
scf_convergence       8
thresh                14
jobtype               ts
scf_guess             read
scf_algorithm         diis
max_scf_cycles        100
geom_opt_max_cycles   500
geom_opt_dmax         100
geom_opt_tol_gradient 10
geom_opt_hessian      read
$end

--------------------------------------------------------------
 ----------------------------------------------------------------
             Standard Nuclear Orientation (Angstroms)
    I     Atom           X                Y                Z
 ----------------------------------------------------------------
    1      C       1.1765739846     0.2841915378     0.3673198532
    2      C       0.7645724161    -0.9992421186    -0.3524262301
    3      C      -0.5556124114    -0.9322060329    -0.8198171957
    4      C      -1.0775357045     0.1591578107     0.1126633696
    5      C      -0.4838009420     1.4614867737    -0.4308332550
    6      N       0.7935170019     1.5227590369    -0.3250521132
    7      H       2.1730477493     0.2851892528     0.8020325173
    8      H       1.4794242213    -1.8037937785    -0.5077299310
    9      H      -1.0651906309    -1.5244964285    -1.5678084166
   10      H      -2.1351799942     0.1486692953     0.3774027606
   11      H      -1.0525514937     2.2177302121    -0.9695750721
   12      C       0.0071944864    -0.1893181727     1.1559297967
   13      H      -0.0678313775    -0.6583816552     2.1268499531
 ----------------------------------------------------------------
 Nuclear Repulsion Energy =   281.0873408153 hartrees
 There are       25 alpha and       24 beta electrons
 Requested basis set is 6-31+G(d,p)
 There are 53 shells and 163 basis functions

 Total QAlloc Memory Limit   8000 MB
 Mega-Array Size      1956 MB
 MEM_STATIC part      2000 MB
 A cutoff of  1.0D-14 yielded   1405 shell pairs
 There are     13515 function pairs
 
 -------------------------------------------------------
 OpenMP Integral Computing Module                       
 Release: version 1.0, May 2013, Q-Chem Inc. Pittsburgh 
 -------------------------------------------------------
 Integral Job Info:
 Integral job number is                      11
 Integral operator is                         1
 short-range coefficients                     0
 long-range coefficients              100000000
 Omega coefficients                           0
 if combine SR and LR in K                    0
 Integral screening is                        0
 Integral computing path is                   2
 max size of driver memory is            800000
 size of driver memory is                593474
 size of scratch memory is              2361544
 max col of scratch BK array               1296
 max len of scratch array in speh3          155
 max len of scratch index in speh4           18
 max int batch size is                      520
 min int batch size is                       52
 fixed nKL is                                52
 max L of basis functions is                  2
 order of int derivative is                   0
 number of shells is                         53
 number of basis is                         163
 number of cartesian basis is               163
 number of contracted shell pairs          1405
 number of primitive shell pairs           4832
 maxK2 (contraction) of shell pair           36
 max number of K2 of shell pair               1
 max number of CS2 of shell pair            126
 max number of PS2 of shell pair            702
 mem total for path MDJ                  535308
 -------------------------------------------------------
 Smallest overlap matrix eigenvalue = 2.74E-05

 Scale SEOQF with 1.000000e-01/1.000000e-01/1.000000e-01

 Standard Electronic Orientation quadrupole field applied
 Nucleus-field energy     =     0.0000000025 hartrees
 Guess MOs from SCF MO coefficient file
 Reading MOs from coefficient file
 Reading MOs from coefficient file
 An unrestricted hybrid HF-DFT SCF calculation will be
 performed using Pulay DIIS extrapolation
 Exchange:     0.2000 Hartree-Fock + 0.0800 Slater + 0.7200 B88
 Correlation:  0.1900 VWN1RPA + 0.8100 LYP
 Using SG-1 standard quadrature grid
 SCF converges when DIIS error is below 1.0E-08
Using Q-Chem read-in guess as SCF_GUESS READ specified.

 using 4 threads for integral computing
 -------------------------------------------------------
 OpenMP Integral computing Module                
 Release: version 1.0, May 2013, Q-Chem Inc. Pittsburgh 
 -------------------------------------------------------
 -------------------------------------------------------
 OpenMP BLAS3 based DFT computing Module                
 Release: version 1.0, May 2013, Q-Chem Inc. Pittsburgh 
 -------------------------------------------------------
 ---------------------------------------
  Cycle       Energy         DIIS Error
 ---------------------------------------
    1    -286.8475023277      6.51E-10
    2    -286.8475023277      9.37E-10 Convergence criterion met
 ---------------------------------------
 <S^2> = 0.7779
 SCF time:  CPU 9.96 s  wall 2.50 s
 SCF   energy in the final basis set = -286.84750233
 Total energy in the final basis set = -286.84750233
 
 --------------------------------------------------------------
 
                    Orbital Energies (a.u.)
 --------------------------------------------------------------
 
 Alpha MOs
 -- Occupied --
-14.330 -10.235 -10.230 -10.228 -10.225 -10.221 -10.207  -0.973
 -0.850  -0.750  -0.696  -0.601  -0.585  -0.547  -0.522  -0.473
 -0.444  -0.425  -0.408  -0.378  -0.356  -0.296  -0.284  -0.278
 -0.158
 -- Virtual --
 -0.017  -0.010   0.001   0.018   0.028   0.033   0.046   0.048
  0.062   0.071   0.074   0.095   0.100   0.107   0.109   0.118
  0.124   0.129   0.141   0.153   0.165   0.178   0.180   0.185
  0.192   0.196   0.207   0.218   0.225   0.234   0.241   0.251
  0.259   0.267   0.281   0.287   0.309   0.314   0.332   0.368
  0.372   0.383   0.407   0.455   0.629   0.668   0.676   0.695
  0.699   0.716   0.725   0.735   0.745   0.753   0.776   0.793
  0.807   0.814   0.858   0.898   0.917   0.935   0.954   1.001
  1.017   1.034   1.048   1.068   1.083   1.087   1.103   1.141
  1.201   1.216   1.336   1.340   1.385   1.423   1.436   1.485
  1.555   1.616   1.625   1.692   1.723   1.762   1.818   1.869
  1.882   1.908   1.952   1.976   2.044   2.091   2.103   2.129
  2.152   2.212   2.219   2.278   2.306   2.327   2.363   2.400
  2.407   2.438   2.448   2.484   2.506   2.516   2.536   2.554
  2.568   2.602   2.618   2.654   2.686   2.704   2.743   2.780
  2.848   2.858   2.980   3.072   3.082   3.293   3.317   3.326
  3.506   3.599   3.682   4.171   4.412   4.486   4.571   4.618
  4.694   4.831
 
 Beta MOs
 -- Occupied --
-14.329 -10.235 -10.231 -10.230 -10.222 -10.217 -10.197  -0.969
 -0.842  -0.747  -0.684  -0.597  -0.577  -0.541  -0.519  -0.464
 -0.441  -0.419  -0.406  -0.373  -0.351  -0.287  -0.275  -0.265
 -- Virtual --
 -0.055  -0.009  -0.002   0.003   0.019   0.031   0.038   0.047
  0.049   0.063   0.072   0.077   0.096   0.101   0.108   0.109
  0.119   0.128   0.131   0.142   0.153   0.164   0.179   0.181
  0.188   0.195   0.197   0.208   0.223   0.228   0.237   0.242
  0.254   0.260   0.272   0.282   0.288   0.312   0.316   0.334
  0.372   0.376   0.385   0.411   0.457   0.633   0.674   0.679
  0.699   0.711   0.728   0.734   0.746   0.749   0.759   0.783
  0.796   0.809   0.817   0.859   0.903   0.919   0.938   0.956
  1.005   1.021   1.037   1.050   1.070   1.087   1.093   1.109
  1.149   1.207   1.220   1.339   1.346   1.387   1.429   1.441
  1.489   1.563   1.622   1.634   1.698   1.731   1.765   1.828
  1.874   1.889   1.914   1.956   1.980   2.050   2.101   2.108
  2.132   2.161   2.220   2.228   2.284   2.312   2.330   2.367
  2.405   2.411   2.445   2.454   2.487   2.509   2.522   2.543
  2.557   2.572   2.610   2.620   2.663   2.693   2.707   2.746
  2.784   2.853   2.861   2.982   3.075   3.084   3.294   3.320
  3.328   3.507   3.602   3.686   4.173   4.422   4.486   4.584
  4.625   4.696   4.835
 --------------------------------------------------------------
 
          Ground-State Mulliken Net Atomic Charges

     Atom                 Charge (a.u.)    Spin (a.u.)
  --------------------------------------------------------
      1 C                    -0.134962      -0.019399
      2 C                    -0.100666      -0.236943
      3 C                    -0.145413       0.721023
      4 C                     0.007898      -0.101899
      5 C                    -0.071584      -0.001888
      6 N                    -0.178999       0.062512
      7 H                     0.138685       0.004555
      8 H                     0.138984       0.010779
      9 H                     0.138625      -0.026685
     10 H                     0.129377       0.011032
     11 H                     0.132185       0.001598
     12 C                    -0.200985       0.600915
     13 H                     0.146855      -0.025599
  --------------------------------------------------------
  Sum of atomic charges =    -0.000000
  Sum of spin   charges =     1.000000

 -----------------------------------------------------------------
                    Cartesian Multipole Moments
 -----------------------------------------------------------------
    Charge (ESU x 10^10)
                -0.0000
    Dipole Moment (Debye)
         X      -1.2819      Y      -2.0710      Z       0.8464
       Tot       2.5785
    Quadrupole Moments (Debye-Ang)
        XX     -38.9296     XY      -5.0436     YY     -44.9881
        XZ       2.2691     YZ       0.5908     ZZ     -41.4689
    Octopole Moments (Debye-Ang^2)
       XXX      -9.2220    XXY     -10.3340    XYY     -10.3959
       YYY     -26.2527    XXZ       3.8205    XYZ       2.9668
       YYZ      -1.5009    XZZ      -5.2565    YZZ     -10.4247
       ZZZ       9.4903
    Hexadecapole Moments (Debye-Ang^3)
      XXXX    -225.3017   XXXY     -10.0675   XXYY     -94.6861
      XYYY     -27.6111   YYYY    -325.8299   XXXZ      -7.3764
      XXYZ       4.8694   XYYZ       3.1462   YYYZ       4.7517
      XXZZ     -68.1048   XYZZ      -0.9845   YYZZ     -77.6449
      XZZZ     -10.0431   YZZZ      -1.9952   ZZZZ    -172.3842
 -----------------------------------------------------------------
 Calculating analytic gradient of the SCF energy
 Gradient of SCF Energy
            1           2           3           4           5           6
    1  -0.0016828  -0.0020948   0.0006014   0.0006843   0.0033196  -0.0012099
    2   0.0004259   0.0006448   0.0001799  -0.0007437  -0.0015376   0.0013856
    3  -0.0014442   0.0011748   0.0000958  -0.0000428   0.0016531  -0.0010933
            7           8           9          10          11          12
    1   0.0005417   0.0003271   0.0001731  -0.0004950  -0.0001609   0.0000126
    2   0.0001343  -0.0004451   0.0001698  -0.0002006   0.0003043  -0.0001405
    3   0.0003581   0.0001093  -0.0004960   0.0002646  -0.0003618  -0.0002213
           13
    1  -0.0000163
    2  -0.0001772
    3   0.0000036
 Max gradient component =       3.320E-03
 RMS gradient           =       9.497E-04
 Gradient time:  CPU 17.63 s  wall 4.47 s
 Geometry Optimization Parameters
   NAtoms,    NIC,     NZ,  NCons,   NDum,   NFix, NCnnct, MaxDiis
       13     128       0       0       0       0       0       0

 Cartesian Hessian read from HESS file


** GEOMETRY OPTIMIZATION IN DELOCALIZED INTERNAL COORDINATES **
   Searching for a Transition State

   Optimization Cycle:   1

                       Coordinates (Angstroms)
     ATOM                X               Y               Z
      1  C         1.1765739846    0.2841915378    0.3673198532
      2  C         0.7645724161   -0.9992421186   -0.3524262301
      3  C        -0.5556124114   -0.9322060329   -0.8198171957
      4  C        -1.0775357045    0.1591578107    0.1126633696
      5  C        -0.4838009420    1.4614867737   -0.4308332550
      6  N         0.7935170019    1.5227590369   -0.3250521132
      7  H         2.1730477493    0.2851892528    0.8020325173
      8  H         1.4794242213   -1.8037937785   -0.5077299310
      9  H        -1.0651906309   -1.5244964285   -1.5678084166
     10  H        -2.1351799942    0.1486692953    0.3774027606
     11  H        -1.0525514937    2.2177302121   -0.9695750721
     12  C         0.0071944864   -0.1893181727    1.1559297967
     13  H        -0.0678313775   -0.6583816552    2.1268499531
   Point Group: c1    Number of degrees of freedom:    33


   Energy is   -286.847502328


 Attempting to Generate Delocalized Internal Coordinates

 Transforming Cartesian Hessian to Internal Coordinates
 Hessian Transformation does not Include Derivative of B-matrix

 33 Hessian modes will be used to form the next step
  Hessian Eigenvalues:
    -0.047080    0.001645    0.002543    0.010215    0.015755    0.021198
     0.024484    0.030560    0.033851    0.036738    0.037239    0.040613
     0.042001    0.065362    0.084776    0.092667    0.109966    0.127170
     0.138076    0.147102    0.149145    0.175333    0.193893    0.260304
     0.275179    0.327383    0.348449    0.355114    0.356545    0.357568
     0.371542    0.373966    0.567509

 Transition State Search - Taking P-RFO Step
 Searching for Lamda that Maximizes Along the Lowest mode
 Value Taken    Lamda =   0.00001102
 Searching for Lamda that Minimizes Along All other modes
 Value Taken    Lamda =  -0.00008641
 Calculated Step too Large.  Step scaled by  0.731224
 Step Taken.  Stepsize is  0.100000

                             Maximum     Tolerance    Cnvgd?
         Gradient           0.001919      0.000010      NO
         Displacement       0.074186      0.001200      NO
         Energy change     *********      0.000001      NO


 New Cartesian Coordinates Obtained by Inverse Iteration

 Displacement from previous Coordinates is:  0.043689
 ----------------------------------------------------------------
             Standard Nuclear Orientation (Angstroms)
    I     Atom           X                Y                Z
 ----------------------------------------------------------------
    1      C       1.1775617458     0.2841608358     0.3685383589
    2      C       0.7666295798    -0.9980330309    -0.3553591665
    3      C      -0.5541785648    -0.9289440197    -0.8257416905
    4      C      -1.0773945468     0.1599094524     0.1092058186
    5      C      -0.4847962242     1.4640176734    -0.4303354255
    6      N       0.7934166059     1.5237116863    -0.3198150925
    7      H       2.1731538188     0.2837704496     0.8033624409
    8      H       1.4804364885    -1.8027589919    -0.5097343747
    9      H      -1.0705935219    -1.5355210486    -1.5567028371
   10      H      -2.1347844129     0.1484546501     0.3724272584
   11      H      -1.0520047045     2.2221481607    -0.9666209295
   12      C       0.0078021446    -0.1956684550     1.1517437261
   13      H      -0.0686211028    -0.6535016292     2.1279879501
 ----------------------------------------------------------------
 Nuclear Repulsion Energy =   281.0445318738 hartrees
 There are       25 alpha and       24 beta electrons
 Applying Cartesian multipole field
    Component          Value
    ---------          -----
     (2,0,0)        1.00000E-11
     (0,2,0)        2.00000E-11
     (0,0,2)       -3.00000E-11
 Nucleus-field energy     =     0.0000000025 hartrees
 Requested basis set is 6-31+G(d,p)
 There are 53 shells and 163 basis functions
 A cutoff of  1.0D-14 yielded   1405 shell pairs
 There are     13515 function pairs
 Smallest overlap matrix eigenvalue = 2.76E-05
 Guess MOs from SCF MO coefficient file
 Reading MOs from coefficient file
 Reading MOs from coefficient file
 An unrestricted hybrid HF-DFT SCF calculation will be
 performed using Pulay DIIS extrapolation
 Exchange:     0.2000 Hartree-Fock + 0.0800 Slater + 0.7200 B88
 Correlation:  0.1900 VWN1RPA + 0.8100 LYP
 Using SG-1 standard quadrature grid
 SCF converges when DIIS error is below 1.0E-08
 Geometry optimization detected.  Setting ReadMinima to 0
 Setting SaveMinima to 0
Using Q-Chem read-in guess as SCF_GUESS READ specified.

 using 4 threads for integral computing
 -------------------------------------------------------
 OpenMP Integral computing Module                
 Release: version 1.0, May 2013, Q-Chem Inc. Pittsburgh 
 -------------------------------------------------------
 -------------------------------------------------------
 OpenMP BLAS3 based DFT computing Module                
 Release: version 1.0, May 2013, Q-Chem Inc. Pittsburgh 
 -------------------------------------------------------
 ---------------------------------------
  Cycle       Energy         DIIS Error
 ---------------------------------------
    1    -286.8474015642      1.91E-04
    2    -286.8475277570      4.20E-05
    3    -286.8475254630      5.87E-05
    4    -286.8475374213      9.91E-06
    5    -286.8475378813      4.55E-06
    6    -286.8475380381      2.40E-06
    7    -286.8475381128      1.11E-06
    8    -286.8475381342      4.27E-07
    9    -286.8475381418      3.34E-07
   10    -286.8475381441      9.65E-08
   11    -286.8475381445      2.68E-08
   12    -286.8475381445      1.52E-08
   13    -286.8475381445      3.40E-09 Convergence criterion met
 ---------------------------------------
 <S^2> = 0.7774
 SCF time:  CPU 64.73 s  wall 16.45 s
 SCF   energy in the final basis set = -286.84753814
 Total energy in the final basis set = -286.84753814
 
 --------------------------------------------------------------
 
                    Orbital Energies (a.u.)
 --------------------------------------------------------------
 
 Alpha MOs
 -- Occupied --
-14.330 -10.235 -10.230 -10.229 -10.226 -10.221 -10.206  -0.973
 -0.850  -0.751  -0.696  -0.601  -0.585  -0.547  -0.522  -0.472
 -0.444  -0.424  -0.409  -0.378  -0.356  -0.296  -0.284  -0.277
 -0.157
 -- Virtual --
 -0.017  -0.010   0.001   0.018   0.029   0.033   0.046   0.048
  0.062   0.071   0.074   0.095   0.100   0.107   0.109   0.118
  0.124   0.129   0.141   0.153   0.165   0.178   0.180   0.185
  0.192   0.196   0.207   0.218   0.225   0.234   0.240   0.251
  0.259   0.268   0.281   0.287   0.309   0.313   0.331   0.368
  0.372   0.382   0.407   0.455   0.629   0.668   0.676   0.695
  0.699   0.714   0.725   0.734   0.744   0.753   0.778   0.793
  0.807   0.814   0.858   0.900   0.917   0.935   0.955   1.002
  1.016   1.033   1.048   1.069   1.083   1.091   1.104   1.140
  1.202   1.217   1.330   1.340   1.384   1.421   1.437   1.487
  1.557   1.619   1.626   1.691   1.724   1.766   1.817   1.866
  1.880   1.908   1.952   1.978   2.043   2.092   2.104   2.127
  2.155   2.212   2.220   2.277   2.305   2.327   2.363   2.398
  2.405   2.437   2.447   2.485   2.505   2.519   2.535   2.553
  2.569   2.604   2.618   2.654   2.686   2.703   2.744   2.778
  2.851   2.857   2.980   3.072   3.083   3.292   3.316   3.326
  3.508   3.599   3.686   4.171   4.413   4.486   4.570   4.619
  4.694   4.831
 
 Beta MOs
 -- Occupied --
-14.329 -10.235 -10.231 -10.230 -10.222 -10.217 -10.197  -0.968
 -0.842  -0.747  -0.684  -0.597  -0.577  -0.541  -0.519  -0.464
 -0.441  -0.419  -0.406  -0.373  -0.351  -0.287  -0.275  -0.265
 -- Virtual --
 -0.055  -0.009  -0.002   0.003   0.019   0.031   0.038   0.047
  0.049   0.063   0.072   0.077   0.096   0.101   0.108   0.109
  0.119   0.128   0.131   0.142   0.153   0.164   0.179   0.181
  0.188   0.195   0.197   0.208   0.223   0.228   0.237   0.242
  0.254   0.260   0.273   0.282   0.288   0.312   0.316   0.333
  0.372   0.376   0.385   0.411   0.457   0.633   0.674   0.679
  0.699   0.711   0.727   0.734   0.745   0.749   0.759   0.784
  0.796   0.808   0.817   0.859   0.904   0.919   0.938   0.957
  1.005   1.020   1.036   1.050   1.071   1.087   1.098   1.109
  1.148   1.207   1.220   1.334   1.345   1.387   1.426   1.442
  1.490   1.565   1.625   1.635   1.698   1.731   1.769   1.828
  1.871   1.886   1.913   1.956   1.983   2.049   2.102   2.108
  2.131   2.164   2.220   2.228   2.284   2.311   2.330   2.367
  2.404   2.407   2.444   2.454   2.489   2.508   2.525   2.542
  2.556   2.572   2.613   2.620   2.663   2.693   2.707   2.747
  2.783   2.856   2.861   2.983   3.074   3.084   3.293   3.319
  3.328   3.509   3.602   3.690   4.173   4.423   4.486   4.582
  4.626   4.696   4.835
 --------------------------------------------------------------
 
          Ground-State Mulliken Net Atomic Charges

     Atom                 Charge (a.u.)    Spin (a.u.)
  --------------------------------------------------------
      1 C                    -0.133974      -0.020351
      2 C                    -0.102188      -0.234850
      3 C                    -0.142708       0.726589
      4 C                     0.004573      -0.101961
      5 C                    -0.070819      -0.002051
      6 N                    -0.179454       0.062509
      7 H                     0.138870       0.004404
      8 H                     0.139140       0.010467
      9 H                     0.138905      -0.028054
     10 H                     0.129174       0.010770
     11 H                     0.132558       0.001569
     12 C                    -0.200287       0.595709
     13 H                     0.146209      -0.024749
  --------------------------------------------------------
  Sum of atomic charges =    -0.000000
  Sum of spin   charges =     1.000000

 -----------------------------------------------------------------
                    Cartesian Multipole Moments
 -----------------------------------------------------------------
    Charge (ESU x 10^10)
                -0.0000
    Dipole Moment (Debye)
         X      -1.2855      Y      -2.0756      Z       0.8673
       Tot       2.5909
    Quadrupole Moments (Debye-Ang)
        XX     -38.9005     XY      -5.0454     YY     -44.9427
        XZ       2.2557     YZ       0.6007     ZZ     -41.5185
    Octopole Moments (Debye-Ang^2)
       XXX      -9.2805    XXY     -10.4086    XYY     -10.5468
       YYY     -26.3881    XXZ       3.8586    XYZ       2.9516
       YYZ      -1.5488    XZZ      -5.2028    YZZ     -10.3255
       ZZZ       9.8894
    Hexadecapole Moments (Debye-Ang^3)
      XXXX    -225.3414   XXXY      -9.9952   XXYY     -94.6318
      XYYY     -27.5618   YYYY    -325.7963   XXXZ      -7.4899
      XXYZ       4.8591   XYYZ       3.1307   YYYZ       4.6747
      XXZZ     -68.1209   XYZZ      -0.9711   YYZZ     -77.6764
      XZZZ     -10.3725   YZZZ      -2.1366   ZZZZ    -172.5903
 -----------------------------------------------------------------
 Calculating analytic gradient of the SCF energy
 Gradient of SCF Energy
            1           2           3           4           5           6
    1  -0.0004604  -0.0005822   0.0001608   0.0001921   0.0009149  -0.0003342
    2   0.0001278   0.0001865  -0.0000059  -0.0002124  -0.0004130   0.0003654
    3  -0.0003925   0.0002999   0.0000475  -0.0000145   0.0004480  -0.0002899
            7           8           9          10          11          12
    1   0.0001390   0.0000927   0.0000747  -0.0001340  -0.0000416   0.0000000
    2   0.0000435  -0.0001160   0.0000756  -0.0000580   0.0000764  -0.0000214
    3   0.0001082   0.0000402  -0.0001527   0.0000616  -0.0001033  -0.0000416
           13
    1  -0.0000218
    2  -0.0000484
    3  -0.0000109
 Max gradient component =       9.149E-04
 RMS gradient           =       2.599E-04
 Gradient time:  CPU 17.47 s  wall 4.42 s
 Geometry Optimization Parameters
   NAtoms,    NIC,     NZ,  NCons,   NDum,   NFix, NCnnct, MaxDiis
       13     128       0       0       0       0       0       0

 Cartesian Hessian Update
 Hessian Updated using Powell/Murtagh-Sargent Update
  Mixing factors:     0.983202 Powell
                      0.016798 Murtagh-Sargent


** GEOMETRY OPTIMIZATION IN DELOCALIZED INTERNAL COORDINATES **
   Searching for a Transition State

   Optimization Cycle:   2

                       Coordinates (Angstroms)
     ATOM                X               Y               Z
      1  C         1.1775617458    0.2841608358    0.3685383589
      2  C         0.7666295798   -0.9980330309   -0.3553591665
      3  C        -0.5541785648   -0.9289440197   -0.8257416905
      4  C        -1.0773945468    0.1599094524    0.1092058186
      5  C        -0.4847962242    1.4640176734   -0.4303354255
      6  N         0.7934166059    1.5237116863   -0.3198150925
      7  H         2.1731538188    0.2837704496    0.8033624409
      8  H         1.4804364885   -1.8027589919   -0.5097343747
      9  H        -1.0705935219   -1.5355210486   -1.5567028371
     10  H        -2.1347844129    0.1484546501    0.3724272584
     11  H        -1.0520047045    2.2221481607   -0.9666209295
     12  C         0.0078021446   -0.1956684550    1.1517437261
     13  H        -0.0686211028   -0.6535016292    2.1279879501
   Point Group: c1    Number of degrees of freedom:    33


   Energy is   -286.847538145

 Hessian Updated using Powell/Murtagh-Sargent Update
  Mixing factors:     0.929461 Powell
                      0.070539 Murtagh-Sargent

 33 Hessian modes will be used to form the next step
  Hessian Eigenvalues:
    -0.047096    0.001602    0.002500    0.010215    0.015756    0.021200
     0.024484    0.030560    0.033852    0.036736    0.037237    0.040609
     0.042000    0.065361    0.084775    0.092668    0.109965    0.127167
     0.138071    0.147102    0.149145    0.175334    0.193878    0.260281
     0.275171    0.327369    0.348449    0.355114    0.356545    0.357568
     0.371521    0.373961    0.567461

 Transition State Search - Taking P-RFO Step
 Searching for Lamda that Maximizes Along the Lowest mode
 Value Taken    Lamda =   0.00000074
 Searching for Lamda that Minimizes Along All other modes
 Value Taken    Lamda =  -0.00000857
 Step Taken.  Stepsize is  0.052332

                             Maximum     Tolerance    Cnvgd?
         Gradient           0.000514      0.000010      NO
         Displacement       0.036010      0.001200      NO
         Energy change     -0.000036      0.000001      NO


 New Cartesian Coordinates Obtained by Inverse Iteration

 Displacement from previous Coordinates is:  0.023309
 ----------------------------------------------------------------
             Standard Nuclear Orientation (Angstroms)
    I     Atom           X                Y                Z
 ----------------------------------------------------------------
    1      C       1.1779127911     0.2841176102     0.3689822968
    2      C       0.7675670026    -0.9973425708    -0.3569501873
    3      C      -0.5532498160    -0.9269885951    -0.8290401174
    4      C      -1.0772623937     0.1602832720     0.1074095481
    5      C      -0.4850450349     1.4653304244    -0.4298922172
    6      N       0.7934685054     1.5244249766    -0.3173566755
    7      H       2.1730991236     0.2830463410     0.8040394152
    8      H       1.4808636214    -1.8022554422    -0.5108795435
    9      H      -1.0732493313    -1.5416630255    -1.5503454904
   10      H      -2.1346367803     0.1482181803     0.3697247743
   11      H      -1.0516087829     2.2244801262    -0.9648969291
   12      C       0.0079196805    -0.1984958836     1.1498034348
   13      H      -0.0691512800    -0.6514096808     2.1283577281
 ----------------------------------------------------------------
 Nuclear Repulsion Energy =   281.0263729166 hartrees
 There are       25 alpha and       24 beta electrons
 Applying Cartesian multipole field
    Component          Value
    ---------          -----
     (2,0,0)        1.00000E-11
     (0,2,0)        2.00000E-11
     (0,0,2)       -3.00000E-11
 Nucleus-field energy     =     0.0000000026 hartrees
 Requested basis set is 6-31+G(d,p)
 There are 53 shells and 163 basis functions
 A cutoff of  1.0D-14 yielded   1405 shell pairs
 There are     13515 function pairs
 Smallest overlap matrix eigenvalue = 2.76E-05
 Guess MOs from SCF MO coefficient file
 Reading MOs from coefficient file
 Reading MOs from coefficient file
 An unrestricted hybrid HF-DFT SCF calculation will be
 performed using Pulay DIIS extrapolation
 Exchange:     0.2000 Hartree-Fock + 0.0800 Slater + 0.7200 B88
 Correlation:  0.1900 VWN1RPA + 0.8100 LYP
 Using SG-1 standard quadrature grid
 SCF converges when DIIS error is below 1.0E-08
 Geometry optimization detected.  Setting ReadMinima to 0
 Setting SaveMinima to 0
Using Q-Chem read-in guess as SCF_GUESS READ specified.

 using 4 threads for integral computing
 -------------------------------------------------------
 OpenMP Integral computing Module                
 Release: version 1.0, May 2013, Q-Chem Inc. Pittsburgh 
 -------------------------------------------------------
 -------------------------------------------------------
 OpenMP BLAS3 based DFT computing Module                
 Release: version 1.0, May 2013, Q-Chem Inc. Pittsburgh 
 -------------------------------------------------------
 ---------------------------------------
  Cycle       Energy         DIIS Error
 ---------------------------------------
    1    -286.8474884616      8.92E-05
    2    -286.8475401673      1.82E-05
    3    -286.8475400028      2.50E-05
    4    -286.8475422049      4.11E-06
    5    -286.8475422956      1.83E-06
    6    -286.8475423218      1.17E-06
    7    -286.8475423344      4.15E-07
    8    -286.8475423374      1.89E-07
    9    -286.8475423386      1.32E-07
   10    -286.8475423389      4.47E-08
   11    -286.8475423390      1.31E-08
   12    -286.8475423390      6.83E-09 Convergence criterion met
 ---------------------------------------
 <S^2> = 0.7773
 SCF time:  CPU 60.23 s  wall 15.78 s
 SCF   energy in the final basis set = -286.84754234
 Total energy in the final basis set = -286.84754234
 
 --------------------------------------------------------------
 
                    Orbital Energies (a.u.)
 --------------------------------------------------------------
 
 Alpha MOs
 -- Occupied --
-14.330 -10.235 -10.230 -10.229 -10.226 -10.221 -10.206  -0.972
 -0.849  -0.751  -0.696  -0.601  -0.585  -0.548  -0.522  -0.472
 -0.444  -0.424  -0.409  -0.378  -0.356  -0.296  -0.284  -0.277
 -0.157
 -- Virtual --
 -0.017  -0.010   0.001   0.018   0.029   0.033   0.046   0.048
  0.062   0.071   0.074   0.095   0.100   0.107   0.109   0.118
  0.124   0.129   0.141   0.153   0.165   0.178   0.180   0.185
  0.192   0.197   0.207   0.218   0.225   0.234   0.240   0.251
  0.259   0.268   0.281   0.287   0.309   0.313   0.331   0.368
  0.372   0.382   0.407   0.455   0.629   0.668   0.675   0.695
  0.699   0.714   0.725   0.734   0.744   0.753   0.778   0.793
  0.806   0.814   0.858   0.901   0.917   0.936   0.955   1.002
  1.015   1.033   1.047   1.070   1.082   1.094   1.104   1.139
  1.202   1.217   1.326   1.340   1.384   1.419   1.437   1.487
  1.558   1.621   1.626   1.691   1.724   1.767   1.817   1.864
  1.879   1.908   1.952   1.980   2.042   2.093   2.105   2.126
  2.156   2.212   2.220   2.277   2.304   2.327   2.363   2.397
  2.404   2.437   2.447   2.485   2.504   2.520   2.534   2.553
  2.569   2.606   2.618   2.655   2.686   2.703   2.745   2.777
  2.852   2.857   2.981   3.071   3.083   3.291   3.316   3.326
  3.508   3.599   3.687   4.171   4.413   4.487   4.569   4.620
  4.694   4.831
 
 Beta MOs
 -- Occupied --
-14.329 -10.235 -10.231 -10.230 -10.222 -10.217 -10.197  -0.968
 -0.842  -0.747  -0.684  -0.598  -0.577  -0.541  -0.519  -0.463
 -0.441  -0.419  -0.407  -0.373  -0.351  -0.287  -0.275  -0.265
 -- Virtual --
 -0.054  -0.009  -0.002   0.003   0.019   0.031   0.038   0.047
  0.049   0.063   0.072   0.077   0.096   0.101   0.108   0.109
  0.119   0.128   0.132   0.142   0.153   0.164   0.179   0.181
  0.188   0.195   0.197   0.208   0.223   0.228   0.237   0.242
  0.254   0.260   0.273   0.282   0.288   0.312   0.315   0.333
  0.372   0.376   0.385   0.411   0.457   0.633   0.674   0.678
  0.699   0.711   0.727   0.734   0.744   0.749   0.759   0.784
  0.796   0.808   0.817   0.859   0.905   0.919   0.939   0.958
  1.005   1.019   1.036   1.049   1.071   1.087   1.101   1.109
  1.147   1.207   1.221   1.330   1.346   1.387   1.425   1.442
  1.491   1.566   1.626   1.636   1.698   1.732   1.770   1.828
  1.870   1.885   1.913   1.956   1.984   2.048   2.102   2.109
  2.130   2.165   2.220   2.229   2.283   2.310   2.330   2.367
  2.403   2.406   2.443   2.454   2.489   2.508   2.526   2.542
  2.556   2.573   2.614   2.620   2.664   2.693   2.706   2.748
  2.782   2.856   2.861   2.983   3.074   3.085   3.293   3.318
  3.328   3.509   3.602   3.691   4.173   4.423   4.486   4.582
  4.626   4.696   4.835
 --------------------------------------------------------------
 
          Ground-State Mulliken Net Atomic Charges

     Atom                 Charge (a.u.)    Spin (a.u.)
  --------------------------------------------------------
      1 C                    -0.133331      -0.021098
      2 C                    -0.102950      -0.233831
      3 C                    -0.141330       0.728732
      4 C                     0.002836      -0.101962
      5 C                    -0.070370      -0.002283
      6 N                    -0.179649       0.062437
      7 H                     0.138953       0.004323
      8 H                     0.139216       0.010316
      9 H                     0.139057      -0.028756
     10 H                     0.129095       0.010610
     11 H                     0.132706       0.001554
     12 C                    -0.200147       0.594325
     13 H                     0.145915      -0.024369
  --------------------------------------------------------
  Sum of atomic charges =     0.000000
  Sum of spin   charges =     1.000000

 -----------------------------------------------------------------
                    Cartesian Multipole Moments
 -----------------------------------------------------------------
    Charge (ESU x 10^10)
                 0.0000
    Dipole Moment (Debye)
         X      -1.2880      Y      -2.0796      Z       0.8778
       Tot       2.5989
    Quadrupole Moments (Debye-Ang)
        XX     -38.8870     XY      -5.0427     YY     -44.9154
        XZ       2.2473     YZ       0.6041     ZZ     -41.5504
    Octopole Moments (Debye-Ang^2)
       XXX      -9.3192    XXY     -10.4549    XYY     -10.6262
       YYY     -26.4816    XXZ       3.8794    XYZ       2.9421
       YYZ      -1.5682    XZZ      -5.1741    YZZ     -10.2819
       ZZZ      10.0953
    Hexadecapole Moments (Debye-Ang^3)
      XXXX    -225.3400   XXXY      -9.9577   XXYY     -94.5987
      XYYY     -27.5269   YYYY    -325.7631   XXXZ      -7.5361
      XXYZ       4.8520   XYYZ       3.1282   YYYZ       4.6375
      XXZZ     -68.1325   XYZZ      -0.9667   YYZZ     -77.7018
      XZZZ     -10.5270   YZZZ      -2.2303   ZZZZ    -172.7561
 -----------------------------------------------------------------
 Calculating analytic gradient of the SCF energy
 Gradient of SCF Energy
            1           2           3           4           5           6
    1  -0.0000083  -0.0000110   0.0000038   0.0000035   0.0000118  -0.0000016
    2   0.0000115   0.0000032  -0.0000257  -0.0000126  -0.0000036   0.0000001
    3   0.0000044  -0.0000198   0.0000136  -0.0000059   0.0000022   0.0000061
            7           8           9          10          11          12
    1  -0.0000075   0.0000073   0.0000297  -0.0000029   0.0000021  -0.0000047
    2   0.0000064   0.0000042   0.0000110  -0.0000066  -0.0000035   0.0000154
    3   0.0000167   0.0000113  -0.0000157  -0.0000162  -0.0000071   0.0000166
           13
    1  -0.0000223
    2   0.0000004
    3  -0.0000062
 Max gradient component =       2.974E-05
 RMS gradient           =       1.164E-05
 Gradient time:  CPU 17.58 s  wall 4.47 s
 Geometry Optimization Parameters
   NAtoms,    NIC,     NZ,  NCons,   NDum,   NFix, NCnnct, MaxDiis
       13     128       0       0       0       0       0       0

 Cartesian Hessian Update
 Hessian Updated using Powell/Murtagh-Sargent Update
  Mixing factors:     0.986080 Powell
                      0.013920 Murtagh-Sargent


** GEOMETRY OPTIMIZATION IN DELOCALIZED INTERNAL COORDINATES **
   Searching for a Transition State

   Optimization Cycle:   3

                       Coordinates (Angstroms)
     ATOM                X               Y               Z
      1  C         1.1779127911    0.2841176102    0.3689822968
      2  C         0.7675670026   -0.9973425708   -0.3569501873
      3  C        -0.5532498160   -0.9269885951   -0.8290401174
      4  C        -1.0772623937    0.1602832720    0.1074095481
      5  C        -0.4850450349    1.4653304244   -0.4298922172
      6  N         0.7934685054    1.5244249766   -0.3173566755
      7  H         2.1730991236    0.2830463410    0.8040394152
      8  H         1.4808636214   -1.8022554422   -0.5108795435
      9  H        -1.0732493313   -1.5416630255   -1.5503454904
     10  H        -2.1346367803    0.1482181803    0.3697247743
     11  H        -1.0516087829    2.2244801262   -0.9648969291
     12  C         0.0079196805   -0.1984958836    1.1498034348
     13  H        -0.0691512800   -0.6514096808    2.1283577281
   Point Group: c1    Number of degrees of freedom:    33


   Energy is   -286.847542339

 Hessian Updated using Powell/Murtagh-Sargent Update
  Mixing factors:     0.884707 Powell
                      0.115293 Murtagh-Sargent

 33 Hessian modes will be used to form the next step
  Hessian Eigenvalues:
    -0.047159    0.001486    0.002461    0.010216    0.015757    0.021203
     0.024484    0.030561    0.033851    0.036734    0.037237    0.040598
     0.041994    0.065360    0.084769    0.092661    0.109965    0.127164
     0.138068    0.147102    0.149142    0.175333    0.193857    0.260236
     0.275162    0.327333    0.348449    0.355115    0.356545    0.357567
     0.371500    0.373956    0.567423

 Transition State Search - Taking P-RFO Step
 Searching for Lamda that Maximizes Along the Lowest mode
 Value Taken    Lamda =   0.00000000
 Searching for Lamda that Minimizes Along All other modes
 Value Taken    Lamda =   0.00000000
 Step Taken.  Stepsize is  0.007096

                             Maximum     Tolerance    Cnvgd?
         Gradient           0.000018      0.000010      NO
         Displacement       0.003743      0.001200      NO
         Energy change     -0.000004      0.000001      NO


 New Cartesian Coordinates Obtained by Inverse Iteration

 Displacement from previous Coordinates is:  0.003295
 ----------------------------------------------------------------
             Standard Nuclear Orientation (Angstroms)
    I     Atom           X                Y                Z
 ----------------------------------------------------------------
    1      C       1.1779031116     0.2840944244     0.3689960102
    2      C       0.7676713006    -0.9972239665    -0.3571738784
    3      C      -0.5530491205    -0.9266570571    -0.8295145818
    4      C      -1.0772296443     0.1603414448     0.1071820102
    5      C      -0.4849925830     1.4655012319    -0.4297986839
    6      N       0.7935087085     1.5245718443    -0.3171320011
    7      H       2.1730474453     0.2829729468     0.8041510424
    8      H       1.4809258936    -1.8021782831    -0.5110664618
    9      H      -1.0736281102    -1.5425663514    -1.5493331602
   10      H      -2.1346407866     0.1481677277     0.3693341658
   11      H      -1.0515168464     2.2247759025    -0.9646693744
   12      C       0.0078438060    -0.1986748046     1.1496575872
   13      H      -0.0692158692    -0.6513793268     2.1283233625
 ----------------------------------------------------------------
 Nuclear Repulsion Energy =   281.0251900650 hartrees
 There are       25 alpha and       24 beta electrons
 Applying Cartesian multipole field
    Component          Value
    ---------          -----
     (2,0,0)        1.00000E-11
     (0,2,0)        2.00000E-11
     (0,0,2)       -3.00000E-11
 Nucleus-field energy     =     0.0000000026 hartrees
 Requested basis set is 6-31+G(d,p)
 There are 53 shells and 163 basis functions
 A cutoff of  1.0D-14 yielded   1405 shell pairs
 There are     13515 function pairs
 Smallest overlap matrix eigenvalue = 2.76E-05
 Guess MOs from SCF MO coefficient file
 Reading MOs from coefficient file
 Reading MOs from coefficient file
 An unrestricted hybrid HF-DFT SCF calculation will be
 performed using Pulay DIIS extrapolation
 Exchange:     0.2000 Hartree-Fock + 0.0800 Slater + 0.7200 B88
 Correlation:  0.1900 VWN1RPA + 0.8100 LYP
 Using SG-1 standard quadrature grid
 SCF converges when DIIS error is below 1.0E-08
 Geometry optimization detected.  Setting ReadMinima to 0
 Setting SaveMinima to 0
Using Q-Chem read-in guess as SCF_GUESS READ specified.

 using 4 threads for integral computing
 -------------------------------------------------------
 OpenMP Integral computing Module                
 Release: version 1.0, May 2013, Q-Chem Inc. Pittsburgh 
 -------------------------------------------------------
 -------------------------------------------------------
 OpenMP BLAS3 based DFT computing Module                
 Release: version 1.0, May 2013, Q-Chem Inc. Pittsburgh 
 -------------------------------------------------------
 ---------------------------------------
  Cycle       Energy         DIIS Error
 ---------------------------------------
    1    -286.8475376934      1.02E-05
    2    -286.8475423555      1.69E-06
    3    -286.8475423635      2.11E-06
    4    -286.8475423794      4.45E-07
    5    -286.8475423805      2.32E-07
    6    -286.8475423807      1.16E-07
    7    -286.8475423808      3.26E-08
    8    -286.8475423808      1.51E-08
    9    -286.8475423808      5.86E-09 Convergence criterion met
 ---------------------------------------
 <S^2> = 0.7773
 SCF time:  CPU 45.81 s  wall 12.68 s
 SCF   energy in the final basis set = -286.84754238
 Total energy in the final basis set = -286.84754238
 
 --------------------------------------------------------------
 
                    Orbital Energies (a.u.)
 --------------------------------------------------------------
 
 Alpha MOs
 -- Occupied --
-14.330 -10.235 -10.230 -10.229 -10.226 -10.221 -10.206  -0.972
 -0.849  -0.751  -0.696  -0.601  -0.585  -0.548  -0.522  -0.472
 -0.444  -0.424  -0.409  -0.378  -0.356  -0.296  -0.284  -0.277
 -0.157
 -- Virtual --
 -0.017  -0.010   0.001   0.018   0.029   0.033   0.046   0.048
  0.062   0.071   0.074   0.095   0.100   0.107   0.109   0.118
  0.124   0.129   0.141   0.153   0.165   0.178   0.180   0.185
  0.192   0.197   0.207   0.218   0.225   0.234   0.240   0.251
  0.259   0.268   0.281   0.287   0.309   0.313   0.331   0.368
  0.372   0.382   0.407   0.455   0.629   0.668   0.675   0.695
  0.699   0.713   0.725   0.734   0.744   0.753   0.778   0.793
  0.806   0.814   0.858   0.901   0.917   0.936   0.955   1.002
  1.015   1.033   1.047   1.070   1.082   1.094   1.104   1.139
  1.202   1.217   1.326   1.340   1.384   1.419   1.437   1.487
  1.558   1.622   1.626   1.691   1.724   1.768   1.817   1.864
  1.878   1.908   1.952   1.980   2.042   2.093   2.105   2.126
  2.156   2.212   2.220   2.277   2.304   2.327   2.363   2.397
  2.404   2.437   2.447   2.485   2.504   2.520   2.534   2.553
  2.569   2.606   2.618   2.655   2.686   2.703   2.745   2.777
  2.852   2.857   2.981   3.071   3.083   3.291   3.316   3.326
  3.508   3.599   3.687   4.171   4.413   4.487   4.569   4.620
  4.694   4.831
 
 Beta MOs
 -- Occupied --
-14.329 -10.235 -10.231 -10.230 -10.222 -10.217 -10.197  -0.968
 -0.842  -0.747  -0.684  -0.598  -0.577  -0.541  -0.519  -0.463
 -0.441  -0.419  -0.407  -0.373  -0.351  -0.287  -0.275  -0.265
 -- Virtual --
 -0.054  -0.009  -0.002   0.003   0.019   0.031   0.038   0.047
  0.049   0.063   0.072   0.077   0.096   0.101   0.108   0.109
  0.119   0.128   0.132   0.142   0.153   0.164   0.179   0.181
  0.188   0.195   0.197   0.208   0.223   0.228   0.237   0.242
  0.254   0.260   0.273   0.282   0.288   0.312   0.315   0.333
  0.372   0.376   0.385   0.411   0.457   0.633   0.674   0.678
  0.699   0.711   0.727   0.734   0.744   0.749   0.759   0.784
  0.796   0.808   0.817   0.859   0.905   0.919   0.939   0.958
  1.005   1.019   1.036   1.049   1.071   1.087   1.102   1.109
  1.147   1.207   1.221   1.330   1.346   1.387   1.425   1.442
  1.491   1.566   1.627   1.636   1.698   1.732   1.771   1.828
  1.870   1.885   1.913   1.955   1.984   2.048   2.102   2.109
  2.130   2.166   2.220   2.229   2.283   2.310   2.330   2.367
  2.403   2.405   2.443   2.454   2.489   2.508   2.526   2.542
  2.556   2.573   2.614   2.620   2.664   2.692   2.706   2.748
  2.782   2.857   2.861   2.983   3.074   3.085   3.292   3.318
  3.327   3.509   3.602   3.692   4.173   4.423   4.487   4.581
  4.626   4.696   4.835
 --------------------------------------------------------------
 
          Ground-State Mulliken Net Atomic Charges

     Atom                 Charge (a.u.)    Spin (a.u.)
  --------------------------------------------------------
      1 C                    -0.133191      -0.021292
      2 C                    -0.103043      -0.233740
      3 C                    -0.141175       0.728695
      4 C                     0.002612      -0.101964
      5 C                    -0.070296      -0.002356
      6 N                    -0.179666       0.062413
      7 H                     0.138959       0.004313
      8 H                     0.139224       0.010302
      9 H                     0.139082      -0.028844
     10 H                     0.129090       0.010582
     11 H                     0.132712       0.001552
     12 C                    -0.200204       0.594695
     13 H                     0.145897      -0.024357
  --------------------------------------------------------
  Sum of atomic charges =    -0.000000
  Sum of spin   charges =     1.000000

 -----------------------------------------------------------------
                    Cartesian Multipole Moments
 -----------------------------------------------------------------
    Charge (ESU x 10^10)
                -0.0000
    Dipole Moment (Debye)
         X      -1.2887      Y      -2.0808      Z       0.8788
       Tot       2.6005
    Quadrupole Moments (Debye-Ang)
        XX     -38.8854     XY      -5.0411     YY     -44.9107
        XZ       2.2464     YZ       0.6036     ZZ     -41.5565
    Octopole Moments (Debye-Ang^2)
       XXX      -9.3274    XXY     -10.4640    XYY     -10.6370
       YYY     -26.5015    XXZ       3.8817    XYZ       2.9401
       YYZ      -1.5691    XZZ      -5.1706    YZZ     -10.2798
       ZZZ      10.1197
    Hexadecapole Moments (Debye-Ang^3)
      XXXX    -225.3333   XXXY      -9.9518   XXYY     -94.5920
      XYYY     -27.5180   YYYY    -325.7520   XXXZ      -7.5368
      XXYZ       4.8517   XYYZ       3.1307   YYYZ       4.6333
      XXZZ     -68.1347   XYZZ      -0.9662   YYZZ     -77.7068
      XZZZ     -10.5392   YZZZ      -2.2503   ZZZZ    -172.8001
 -----------------------------------------------------------------
 Calculating analytic gradient of the SCF energy
 Gradient of SCF Energy
            1           2           3           4           5           6
    1  -0.0000040   0.0000051   0.0000097  -0.0000014  -0.0000004  -0.0000007
    2   0.0000026   0.0000008  -0.0000025  -0.0000041  -0.0000014   0.0000025
    3   0.0000091   0.0000025  -0.0000054  -0.0000078  -0.0000027   0.0000065
            7           8           9          10          11          12
    1  -0.0000067   0.0000088   0.0000165  -0.0000034   0.0000013  -0.0000107
    2   0.0000056   0.0000042  -0.0000016  -0.0000059  -0.0000023   0.0000041
    3   0.0000167   0.0000100  -0.0000077  -0.0000162  -0.0000071   0.0000030
           13
    1  -0.0000142
    2  -0.0000020
    3  -0.0000007
 Max gradient component =       1.672E-05
 RMS gradient           =       7.169E-06
 Gradient time:  CPU 17.33 s  wall 4.62 s
 Geometry Optimization Parameters
   NAtoms,    NIC,     NZ,  NCons,   NDum,   NFix, NCnnct, MaxDiis
       13     128       0       0       0       0       0       0

 Cartesian Hessian Update
 Hessian Updated using Powell/Murtagh-Sargent Update
**WARNING** Small Scalar Product
 Hessian Update Skipped this cycle


** GEOMETRY OPTIMIZATION IN DELOCALIZED INTERNAL COORDINATES **
   Searching for a Transition State

   Optimization Cycle:   4

                       Coordinates (Angstroms)
     ATOM                X               Y               Z
      1  C         1.1779031116    0.2840944244    0.3689960102
      2  C         0.7676713006   -0.9972239665   -0.3571738784
      3  C        -0.5530491205   -0.9266570571   -0.8295145818
      4  C        -1.0772296443    0.1603414448    0.1071820102
      5  C        -0.4849925830    1.4655012319   -0.4297986839
      6  N         0.7935087085    1.5245718443   -0.3171320011
      7  H         2.1730474453    0.2829729468    0.8041510424
      8  H         1.4809258936   -1.8021782831   -0.5110664618
      9  H        -1.0736281102   -1.5425663514   -1.5493331602
     10  H        -2.1346407866    0.1481677277    0.3693341658
     11  H        -1.0515168464    2.2247759025   -0.9646693744
     12  C         0.0078438060   -0.1986748046    1.1496575872
     13  H        -0.0692158692   -0.6513793268    2.1283233625
   Point Group: c1    Number of degrees of freedom:    33


   Energy is   -286.847542381

 Hessian Updated using Powell/Murtagh-Sargent Update
**WARNING** Small Scalar Product
 Hessian Update Skipped this cycle

 33 Hessian modes will be used to form the next step
  Hessian Eigenvalues:
    -0.047159    0.001486    0.002461    0.010216    0.015757    0.021203
     0.024484    0.030561    0.033851    0.036734    0.037237    0.040598
     0.041994    0.065360    0.084769    0.092661    0.109965    0.127164
     0.138068    0.147102    0.149142    0.175333    0.193857    0.260236
     0.275162    0.327333    0.348449    0.355115    0.356545    0.357567
     0.371500    0.373956    0.567423

 Transition State Search - Taking P-RFO Step
 Searching for Lamda that Maximizes Along the Lowest mode
 Value Taken    Lamda =   0.00000000
 Searching for Lamda that Minimizes Along All other modes
 Value Taken    Lamda =   0.00000000
 Step Taken.  Stepsize is  0.000192

                             Maximum     Tolerance    Cnvgd?
         Gradient           0.000001      0.000010     YES
         Displacement       0.000113      0.001200     YES
         Energy change     -0.000000      0.000001     YES


                       Distance Matrix (Angstroms)
             C (  1)   C (  2)   C (  3)   C (  4)   C (  5)   N (  6)
   C (  2)  1.528852
   C (  3)  2.428692  1.404417
   C (  4)  2.273650  2.226936  1.527656
   C (  5)  2.190666  2.763957  2.426278  1.530534
   N (  6)  1.468780  2.522246  2.843286  2.353897  1.284815
   H (  7)  1.086128  2.227703  3.400540  3.326425  3.160092  2.168403
   H (  8)  2.284484  1.086447  2.237186  3.282967  3.814337  3.402561
   H (  9)  3.476502  2.260315  1.080965  2.375700  3.263176  3.796295
   H ( 10)  3.315332  3.203615  2.256971  1.089491  2.257282  3.307534
   H ( 11)  3.242718  3.749637  3.193472  2.326245  1.087904  2.076947
   C ( 12)  1.487124  1.866965  2.182128  1.546943  2.346711  2.395479
   H ( 13)  2.350670  2.645314  3.009764  2.399999  3.346348  3.385160
             H (  7)   H (  8)   H (  9)   H ( 10)   H ( 11)   C ( 12)
   H (  8)  2.560602
   H (  9)  4.405949  2.769683
   H ( 10)  4.331676  4.201342  2.768685
   H ( 11)  4.158983  4.778638  3.812504  2.695371
   C ( 12)  2.244876  2.738466  3.203151  2.306392  3.386109
   H ( 13)  2.766621  3.270116  3.915127  2.828303  4.336333  1.081049

 
 Final energy is   -286.847542380843     


 ******************************
 **  OPTIMIZATION CONVERGED  **
 ******************************

                       Coordinates (Angstroms)
     ATOM                X               Y               Z
      1  C         1.1779031116    0.2840944244    0.3689960102
      2  C         0.7676713006   -0.9972239665   -0.3571738784
      3  C        -0.5530491205   -0.9266570571   -0.8295145818
      4  C        -1.0772296443    0.1603414448    0.1071820102
      5  C        -0.4849925830    1.4655012319   -0.4297986839
      6  N         0.7935087085    1.5245718443   -0.3171320011
      7  H         2.1730474453    0.2829729468    0.8041510424
      8  H         1.4809258936   -1.8021782831   -0.5110664618
      9  H        -1.0736281102   -1.5425663514   -1.5493331602
     10  H        -2.1346407866    0.1481677277    0.3693341658
     11  H        -1.0515168464    2.2247759025   -0.9646693744
     12  C         0.0078438060   -0.1986748046    1.1496575872
     13  H        -0.0692158692   -0.6513793268    2.1283233625

Z-matrix Print:
$molecule
0 2
N 
C  1 1.284815
H  2 1.087904 1 121.952460
C  1 1.468780 2 105.221927 3 -175.730950 0
H  4 1.086128 1 115.329183 2 -163.099821 0
C  4 1.487124 1 108.269427 2 -24.447050 0
H  6 1.081049 4 131.855951 1 -140.881820 0
C  4 1.528852 1 114.564415 2 58.668014 0
H  8 1.086447 4 120.801745 1 131.585021 0
C  8 1.404417 4 111.713841 1 -44.809126 0
H  10 1.080965 8 130.407355 4 164.967342 0
C  10 1.527656 8 98.755042 4 -21.922512 0
H  12 1.089491 10 118.203937 8 -150.661873 0
$end

 
 --------------------------------------------------------------
 
                    Orbital Energies (a.u.)
 --------------------------------------------------------------
 
 Alpha MOs
 -- Occupied --
-14.330 -10.235 -10.230 -10.229 -10.226 -10.221 -10.206  -0.972
 -0.849  -0.751  -0.696  -0.601  -0.585  -0.548  -0.522  -0.472
 -0.444  -0.424  -0.409  -0.378  -0.356  -0.296  -0.284  -0.277
 -0.157
 -- Virtual --
 -0.017  -0.010   0.001   0.018   0.029   0.033   0.046   0.048
  0.062   0.071   0.074   0.095   0.100   0.107   0.109   0.118
  0.124   0.129   0.141   0.153   0.165   0.178   0.180   0.185
  0.192   0.197   0.207   0.218   0.225   0.234   0.240   0.251
  0.259   0.268   0.281   0.287   0.309   0.313   0.331   0.368
  0.372   0.382   0.407   0.455   0.629   0.668   0.675   0.695
  0.699   0.713   0.725   0.734   0.744   0.753   0.778   0.793
  0.806   0.814   0.858   0.901   0.917   0.936   0.955   1.002
  1.015   1.033   1.047   1.070   1.082   1.094   1.104   1.139
  1.202   1.217   1.326   1.340   1.384   1.419   1.437   1.487
  1.558   1.622   1.626   1.691   1.724   1.768   1.817   1.864
  1.878   1.908   1.952   1.980   2.042   2.093   2.105   2.126
  2.156   2.212   2.220   2.277   2.304   2.327   2.363   2.397
  2.404   2.437   2.447   2.485   2.504   2.520   2.534   2.553
  2.569   2.606   2.618   2.655   2.686   2.703   2.745   2.777
  2.852   2.857   2.981   3.071   3.083   3.291   3.316   3.326
  3.508   3.599   3.687   4.171   4.413   4.487   4.569   4.620
  4.694   4.831
 
 Beta MOs
 -- Occupied --
-14.329 -10.235 -10.231 -10.230 -10.222 -10.217 -10.197  -0.968
 -0.842  -0.747  -0.684  -0.598  -0.577  -0.541  -0.519  -0.463
 -0.441  -0.419  -0.407  -0.373  -0.351  -0.287  -0.275  -0.265
 -- Virtual --
 -0.054  -0.009  -0.002   0.003   0.019   0.031   0.038   0.047
  0.049   0.063   0.072   0.077   0.096   0.101   0.108   0.109
  0.119   0.128   0.132   0.142   0.153   0.164   0.179   0.181
  0.188   0.195   0.197   0.208   0.223   0.228   0.237   0.242
  0.254   0.260   0.273   0.282   0.288   0.312   0.315   0.333
  0.372   0.376   0.385   0.411   0.457   0.633   0.674   0.678
  0.699   0.711   0.727   0.734   0.744   0.749   0.759   0.784
  0.796   0.808   0.817   0.859   0.905   0.919   0.939   0.958
  1.005   1.019   1.036   1.049   1.071   1.087   1.102   1.109
  1.147   1.207   1.221   1.330   1.346   1.387   1.425   1.442
  1.491   1.566   1.627   1.636   1.698   1.732   1.771   1.828
  1.870   1.885   1.913   1.955   1.984   2.048   2.102   2.109
  2.130   2.166   2.220   2.229   2.283   2.310   2.330   2.367
  2.403   2.405   2.443   2.454   2.489   2.508   2.526   2.542
  2.556   2.573   2.614   2.620   2.664   2.692   2.706   2.748
  2.782   2.857   2.861   2.983   3.074   3.085   3.292   3.318
  3.327   3.509   3.602   3.692   4.173   4.423   4.487   4.581
  4.626   4.696   4.835
 --------------------------------------------------------------
 
          Ground-State Mulliken Net Atomic Charges

     Atom                 Charge (a.u.)    Spin (a.u.)
  --------------------------------------------------------
      1 C                    -0.133191      -0.021292
      2 C                    -0.103043      -0.233740
      3 C                    -0.141175       0.728695
      4 C                     0.002612      -0.101964
      5 C                    -0.070296      -0.002356
      6 N                    -0.179666       0.062413
      7 H                     0.138959       0.004313
      8 H                     0.139224       0.010302
      9 H                     0.139082      -0.028844
     10 H                     0.129090       0.010582
     11 H                     0.132712       0.001552
     12 C                    -0.200204       0.594695
     13 H                     0.145897      -0.024357
  --------------------------------------------------------
  Sum of atomic charges =    -0.000000
  Sum of spin   charges =     1.000000

 -----------------------------------------------------------------
                    Cartesian Multipole Moments
 -----------------------------------------------------------------
    Charge (ESU x 10^10)
                -0.0000
    Dipole Moment (Debye)
         X      -1.2887      Y      -2.0808      Z       0.8788
       Tot       2.6005
    Quadrupole Moments (Debye-Ang)
        XX     -38.8854     XY      -5.0411     YY     -44.9107
        XZ       2.2464     YZ       0.6036     ZZ     -41.5565
    Octopole Moments (Debye-Ang^2)
       XXX      -9.3274    XXY     -10.4640    XYY     -10.6370
       YYY     -26.5015    XXZ       3.8817    XYZ       2.9401
       YYZ      -1.5691    XZZ      -5.1706    YZZ     -10.2798
       ZZZ      10.1197
    Hexadecapole Moments (Debye-Ang^3)
      XXXX    -225.3333   XXXY      -9.9518   XXYY     -94.5920
      XYYY     -27.5180   YYYY    -325.7520   XXXZ      -7.5368
      XXYZ       4.8517   XYYZ       3.1307   YYYZ       4.6333
      XXZZ     -68.1347   XYZZ      -0.9662   YYZZ     -77.7068
      XZZZ     -10.5392   YZZZ      -2.2503   ZZZZ    -172.8001
 -----------------------------------------------------------------
Archival summary:
1\1\c8-73\TS\ProcedureUnspecified\6-31+G**\166(2)\hpark21\FriMar412:48:332022FriMar412:48:332022\0\\#,TS,ProcedureUnspecified,6-31+G**,\\0,2\N\C,1,1.28481\H,2,1.0879,1,121.952\C,1,1.46878,2,105.222,3,-175.731,0\H,4,1.08613,1,115.329,2,-163.1,0\C,4,1.48712,1,108.269,2,-24.4471,0\H,6,1.08105,4,131.856,1,-140.882,0\C,4,1.52885,1,114.564,2,58.668,0\H,8,1.08645,4,120.802,1,131.585,0\C,8,1.40442,4,111.714,1,-44.8091,0\H,10,1.08097,8,130.407,4,164.967,0\C,10,1.52766,8,98.755,4,-21.9225,0\H,12,1.08949,10,118.204,8,-150.662,0\\\@

 Total job time:  67.18s(wall), 255.61s(cpu) 
 Fri Mar  4 12:48:33 2022

        *************************************************************
        *                                                           *
        *  Thank you very much for using Q-Chem.  Have a nice day.  *
        *                                                           *
        *************************************************************


