
Running Job 1 of 1 qcts1.in
qchem qcts1.in_2654.0 ./qcts1.d/ 1
/home/leeping/opt/qchem/5.0.2-openmp/exe/qcprog.exe_s qcts1.in_2654.0 ./qcts1.d/
Check license passed

                  Welcome to Q-Chem
     A Quantum Leap Into The Future Of Chemistry


 Q-Chem 5.0, Q-Chem, Inc., Pleasanton, CA (2017)

 Yihan Shao,  Zhengting Gan,  E. Epifanovsky,  A. T. B. Gilbert,  M. Wormit,  
 J. Kussmann,  A. W. Lange,  A. Behn,  Jia Deng,  Xintian Feng,  D. Ghosh,  
 M. Goldey,  P. R. Horn,  L. D. Jacobson,  I. Kaliman,  T. Kus,  A. Landau,  
 Jie Liu,  E. I. Proynov,  R. M. Richard,  R. P. Steele,  E. J. Sundstrom,  
 H. L. Woodcock III,  P. M. Zimmerman,  D. Zuev,  B. Albrecht,  E. Alguire,  
 S. A. Baeppler,  D. Barton,  Z. Benda,  Y. A. Bernard,  E. J. Berquist,  
 K. B. Bravaya,  H. Burton,  D. Casanova,  Chun-Min Chang,  Yunqing Chen,  
 A. Chien,  K. D. Closser,  M. P. Coons,  S. Dasgupta,  A. L. Dempwolff,  
 M. Diedenhofen,  Hainam Do,  R. G. Edgar,  Po-Tung Fang,  S. Fatehi,  
 Qingguo Feng,  J. Fosso-Tande,  Qinghui Ge,  A. Ghysels,  G. Gidofalvi,  
 J. Gomes,  J. Gonthier,  A. Gunina,  M. W. D. Hanson-Heine,  
 P. H. P. Harbach,  A. W. Hauser,  J. E. Herr,  E. G. Hohenstein,  
 Z. C. Holden,  Kerwin Hui,  T.-C. Jagau,  Hyunjun Ji,  B. Kaduk,  
 K. Khistyaev,  Jaehoon Kim,  P. Klunzinger,  K. Koh,  D. Kosenkov,  
 L. Koulias,  T. Kowalczyk,  C. M. Krauter,  A. Kunitsa,  Ka Un Lao,  
 A. Laurent,  K. V. Lawler,  Joonho Lee,  D. Lefrancois,  S. Lehtola,  
 D. S. Levine,  Yi-Pei Li,  You-Sheng Lin,  Fenglai Liu,  E. Livshits,  
 A. Luenser,  P. Manohar,  E. Mansoor,  S. F. Manzer,  Shan-Ping Mao,  
 Yuezhi Mao,  N. Mardirossian,  A. V. Marenich,  T. Markovich,  
 L. A. Martinez-Martinez,  S. A. Maurer,  N. J. Mayhall,  S. C. McKenzie,  
 J.-M. Mewes,  A. F. Morrison,  J. W. Mullinax,  K. Nanda,  
 T. S. Nguyen-Beck,  R. Olivares-Amaya,  J. A. Parkhill,  T. M. Perrine,  
 F. Plasser,  S. Prager,  A. Prociuk,  E. Ramos,  D. R. Rehn,  F. Rob,  
 M. Schneider,  N. Sergueev,  S. M. Sharada,  S. Sharma,  D. W. Small,  
 T. Stauch,  T. Stein,  Yu-Chuan Su,  A. J. W. Thom,  A. Tkatchenko,  
 T. Tsuchimochi,  L. Vogt,  O. Vydrov,  M. A. Watson,  J. Wenzel,  
 M. de Wergifosse,  T. A. Wesolowski,  A. White,  J. Witte,  A. Yamada,  
 Jun Yang,  K. Yao,  S. Yeganeh,  S. R. Yost,  Zhi-Qiang You,  A. Zech,  
 Igor Ying Zhang,  Xing Zhang,  Yan Zhao,  Ying Zhu,  B. R. Brooks,  
 G. K. L. Chan,  C. J. Cramer,  M. S. Gordon,  W. J. Hehre,  A. Klamt,  
 M. W. Schmidt,  C. D. Sherrill,  D. G. Truhlar,  A. Aspuru-Guzik,  R. Baer,  
 A. T. Bell,  N. A. Besley,  Jeng-Da Chai,  R. A. DiStasio Jr.,  A. Dreuw,  
 B. D. Dunietz,  T. R. Furlani,  Chao-Ping Hsu,  Yousung Jung,  Jing Kong,  
 D. S. Lambrecht,  WanZhen Liang,  C. Ochsenfeld,  V. A. Rassolov,  
 L. V. Slipchenko,  J. E. Subotnik,  T. Van Voorhis,  J. M. Herbert,  
 A. I. Krylov,  P. M. W. Gill,  M. Head-Gordon

 Contributors to earlier versions of Q-Chem not listed above: 
 R. D. Adamson,  B. Austin,  J. Baker,  G. J. O. Beran,  K. Brandhorst,  
 S. T. Brown,  E. F. C. Byrd,  A. K. Chakraborty,  C.-L. Cheng,  
 Siu Hung Chien,  D. M. Chipman,  D. L. Crittenden,  H. Dachsel,  
 R. J. Doerksen,  A. D. Dutoi,  L. Fusti-Molnar,  W. A. Goddard III,  
 A. Golubeva-Zadorozhnaya,  S. R. Gwaltney,  G. Hawkins,  A. Heyden,  
 S. Hirata,  G. Kedziora,  F. J. Keil,  C. Kelley,  Jihan Kim,  R. A. King,  
 R. Z. Khaliullin,  P. P. Korambath,  W. Kurlancheek,  A. M. Lee,  M. S. Lee,  
 S. V. Levchenko,  Ching Yeh Lin,  D. Liotard,  R. C. Lochan,  I. Lotan,  
 P. E. Maslen,  N. Nair,  D. P. O'Neill,  D. Neuhauser,  E. Neuscamman,  
 C. M. Oana,  R. Olson,  B. Peters,  R. Peverati,  P. A. Pieniazek,  
 Y. M. Rhee,  J. Ritchie,  M. A. Rohrdanz,  E. Rosta,  N. J. Russ,  
 H. F. Schaefer III,  N. E. Schultz,  N. Shenvi,  A. C. Simmonett,  A. Sodt,  
 D. Stuck,  K. S. Thanthiriwatte,  V. Vanovschi,  Tao Wang,  A. Warshel,  
 C. F. Williams,  Q. Wu,  X. Xu,  W. Zhang

 Please cite Q-Chem as follows:
 Y. Shao et al., Mol. Phys. 113, 184-215 (2015)
 DOI: 10.1080/00268976.2014.952696

 Q-Chem 5.0.2 for Intel X86 EM64T Linux

 Parts of Q-Chem use Armadillo 5.200.1 (Boston Tea Smuggler).
 http://arma.sourceforge.net/

 Q-Chem begins on Fri Mar  4 12:20:27 2022  

Host: 
0

     Scratch files written to ./qcts1.d//
 Dec517 15110_ 26548  26544 5633   
Processing $rem in /home/leeping/opt/qchem/5.0.2-openmp/config/preferences.
 MEM_STATIC 2000
 MEM_TOTAL  8000
 SYMMETRY   OFF
 SYM_IGNORE TRUE 

Checking the input file for inconsistencies... 	...done.

--------------------------------------------------------------
User input:
--------------------------------------------------------------
$molecule
0 2
C        1.1448619693    0.2990204162    0.3318043357
C        0.7015740380   -1.0530624457   -0.2849181546
C       -0.6006330937   -1.1336764146   -0.8281514810
C       -1.1225918345    0.2586374771    0.1745699249
C       -0.5028003934    1.4800157619   -0.4267679966
N        0.7877521199    1.4829284343   -0.3928005104
H        2.1150813374    0.2901460171    0.8052963072
H        1.5469438729   -1.6940171163   -0.5365776852
H       -0.8251969367   -1.7653182510   -1.7139319785
H       -2.1218070397    0.4374985998    0.6211094714
H       -1.0314989926    2.3190617285   -0.8968015336
C       -0.0165339895   -0.2528354337    1.0686326778
H       -0.1185237522   -0.6966530407    2.0474926599
$end

$rem
method                b3lyp
basis                 6-31g(d)
unrestricted          true
symmetry              off
sym_ignore            true
incdft                false
incfock               0
scf_convergence       6
thresh                14
jobtype               sp
scf_guess             read
scf_algorithm         diis
max_scf_cycles        100
stability_analysis    true
max_cis_cycles        100
cis_n_roots           4
$end

--------------------------------------------------------------
 ----------------------------------------------------------------
             Standard Nuclear Orientation (Angstroms)
    I     Atom           X                Y                Z
 ----------------------------------------------------------------
    1      C       1.1448619693     0.2990204162     0.3318043357
    2      C       0.7015740380    -1.0530624457    -0.2849181546
    3      C      -0.6006330937    -1.1336764146    -0.8281514810
    4      C      -1.1225918345     0.2586374771     0.1745699249
    5      C      -0.5028003934     1.4800157619    -0.4267679966
    6      N       0.7877521199     1.4829284343    -0.3928005104
    7      H       2.1150813374     0.2901460171     0.8052963072
    8      H       1.5469438729    -1.6940171163    -0.5365776852
    9      H      -0.8251969367    -1.7653182510    -1.7139319785
   10      H      -2.1218070397     0.4374985998     0.6211094714
   11      H      -1.0314989926     2.3190617285    -0.8968015336
   12      C      -0.0165339895    -0.2528354337     1.0686326778
   13      H      -0.1185237522    -0.6966530407     2.0474926599
 ----------------------------------------------------------------
 Nuclear Repulsion Energy =   278.6418483130 hartrees
 There are       25 alpha and       24 beta electrons
 Requested basis set is 6-31G(d)
 There are 40 shells and 117 basis functions

 Total QAlloc Memory Limit   8000 MB
 Mega-Array Size      1956 MB
 MEM_STATIC part      2000 MB

                       Distance Matrix (Angstroms)
             C (  1)   C (  2)   C (  3)   C (  4)   C (  5)   N (  6)
   C (  2)  1.550799
   C (  3)  2.538675  1.413274
   C (  4)  2.273258  2.293309  1.793441
   C (  5)  2.164480  2.808402  2.646142  1.495832
   N (  6)  1.433254  2.539747  2.993955  2.338848  1.291003
   H (  7)  1.079629  2.234005  3.474266  3.298687  3.128430  2.149411
   H (  8)  2.210872  1.090324  2.238545  3.383048  3.779946  3.269561
   H (  9)  3.511077  2.209167  1.110859  2.784112  3.506127  3.859806
   H ( 10)  3.282377  3.318756  2.623532  1.108972  2.192275  3.253686
   H ( 11)  3.213501  3.840464  3.480195  2.324109  1.097475  2.064657
   C ( 12)  1.481992  1.728624  2.171369  1.511396  2.339968  2.407393
   H ( 13)  2.351828  2.497945  2.948347  2.329930  3.317758  3.395135
             H (  7)   H (  8)   H (  9)   H ( 10)   H ( 11)   C ( 12)
   H (  8)  2.461770
   H (  9)  4.383683  2.649207
   H ( 10)  4.243449  4.398106  3.462083
   H ( 11)  4.112737  4.783611  4.170422  2.652000
   C ( 12)  2.215391  2.664239  3.268670  2.260313  3.392306
   H ( 13)  2.739674  3.232017  3.973632  2.708138  4.312416  1.079603

 
 A cutoff of  1.0D-14 yielded    813 shell pairs
 There are      7085 function pairs
 Smallest overlap matrix eigenvalue = 1.90E-03

 Scale SEOQF with 1.000000e-01/1.000000e-01/1.000000e-01

 Standard Electronic Orientation quadrupole field applied
 Nucleus-field energy     =     0.0000000029 hartrees
 Guess MOs from SCF MO coefficient file
 Reading MOs from coefficient file
 Reading MOs from coefficient file
 An unrestricted hybrid HF-DFT SCF calculation will be
 performed using Pulay DIIS extrapolation
 Exchange:     0.2000 Hartree-Fock + 0.0800 Slater + 0.7200 B88
 Correlation:  0.1900 VWN1RPA + 0.8100 LYP
 Using SG-1 standard quadrature grid
 SCF converges when DIIS error is below 1.0E-06
Using Q-Chem read-in guess as SCF_GUESS READ specified.

 -------------------------------------------------------
 OpenMP BLAS3 based DFT computing Module                
 -------------------------------------------------------
 ---------------------------------------
  Cycle       Energy         DIIS Error
 ---------------------------------------
    1    -286.7943188304      2.06E-09
    2    -286.7943188304      2.11E-09 Convergence criterion met
 ---------------------------------------
 <S^2> = 0.7649
 SCF time:  CPU 3.38 s  wall 3.78 s
 SCF   energy in the final basis set = -286.79431883
 Total energy in the final basis set = -286.79431883
 
 Direct TDDFT/TDA calculation will be performed
 Exchange:     0.2000 Hartree-Fock + 0.0800 Slater + 0.7200 B88
 Correlation:  0.1900 VWN1RPA + 0.8100 LYP
 Using SG-1 standard quadrature grid
 CIS energy converged when residual is below 10e- 6
 ---------------------------------------------------
 Iter    Rts Conv    Rts Left    Ttl Dev     Max Dev
 ---------------------------------------------------
   1         0           4      0.005746    0.001667
   2         0           4      0.001718    0.000593
   3         0           4      0.001217    0.000554
   4         0           4      0.000608    0.000293
   5         0           4      0.000279    0.000171
   6         0           4      0.000095    0.000066
   7         1           3      0.000024    0.000017
   8         2           2      0.000007    0.000005
   9         3           1      0.000002    0.000001
  10         4           0      0.000001    0.000000    Roots Converged
 ---------------------------------------------------
 
 ---------------------------------------------------
         TDDFT/TDA Excitation Energies              
 ---------------------------------------------------

 Excited state   1: excitation energy (eV) =    2.7104
 Total energy for state  1:                  -286.69471313 au
    <S**2>     :  0.8009
    Trans. Mom.: -0.0723 X   0.4016 Y   0.0104 Z
    Strength   :     0.0110629485
    S(  1) --> V(  1) amplitude =  0.9648 alpha
    S(  1) --> V(  2) amplitude =  0.1830 alpha

 Excited state   2: excitation energy (eV) =    3.7464
 Total energy for state  2:                  -286.65664255 au
    <S**2>     :  0.8604
    Trans. Mom.:  0.0091 X  -0.2070 Y   0.2181 Z
    Strength   :     0.0083053942
    S(  1) --> V(  1) amplitude = -0.1995 alpha
    S(  1) --> V(  2) amplitude =  0.9135 alpha
    D( 22) --> S(  1) amplitude =  0.2120 beta
    D( 24) --> S(  1) amplitude = -0.2085 beta

 Excited state   3: excitation energy (eV) =    4.1961
 Total energy for state  3:                  -286.64011557 au
    <S**2>     :  1.7708
    Trans. Mom.: -0.0239 X   0.0640 Y   0.1059 Z
    Strength   :     0.0016335388
    D( 23) --> V(  1) amplitude = -0.2566 alpha
    D( 24) --> V(  1) amplitude = -0.3404 alpha
    D( 23) --> S(  1) amplitude =  0.5087 beta
    D( 23) --> V(  1) amplitude =  0.2099 beta
    D( 24) --> S(  1) amplitude =  0.6014 beta
    D( 24) --> V(  1) amplitude =  0.1963 beta

 Excited state   4: excitation energy (eV) =    4.3299
 Total energy for state  4:                  -286.63519914 au
    <S**2>     :  1.4938
    Trans. Mom.:  0.0617 X   0.0835 Y   0.0598 Z
    Strength   :     0.0015236957
    D( 23) --> V(  1) amplitude =  0.3497 alpha
    S(  1) --> V(  3) amplitude =  0.2090 alpha
    D( 23) --> S(  1) amplitude = -0.5805 beta
    D( 23) --> V(  1) amplitude = -0.2142 beta
    D( 24) --> S(  1) amplitude =  0.6084 beta
    D( 24) --> V(  1) amplitude =  0.1579 beta
 
 ---------------------------------------------------

 Stability analysis will be performed
 ---------------------------------------------------
 Iter    Rts Conv    Rts Left    Ttl Dev     Max Dev
 ---------------------------------------------------
   1         0           8      0.005829    0.000885
   2         0           8      0.003369    0.001173
   3         0           8      0.001332    0.000396
   4         1           7      0.000634    0.000199
   5         3           5      0.000376    0.000159
   6         3           5      0.000157    0.000082
   7         4           4      0.000056    0.000031
   8         4           4      0.000018    0.000010
   9         6           2      0.000007    0.000004
  10         7           1      0.000004    0.000001
  11         8           0      0.000003    0.000001    Roots Converged
 UKS-> UKS   stable,    smallest eigenvalue:      0.0927572
 UKS->CUKS   stable,    smallest eigenvalue:      0.0985589
 ---------------------------------------------------
  SETman timing summary (seconds)
  CPU time                86.28s
  System time              0.00s
  Wall time               88.53s
 
 --------------------------------------------------------------
 
                    Orbital Energies (a.u.)
 --------------------------------------------------------------
 
 Alpha MOs
 -- Occupied --
-14.316 -10.225 -10.224 -10.220 -10.217 -10.216 -10.214  -0.963
 -0.839  -0.734  -0.692  -0.590  -0.580  -0.536  -0.513  -0.462
 -0.425  -0.407  -0.398  -0.373  -0.330  -0.289  -0.269  -0.264
 -0.157
 -- Virtual --
 -0.008   0.034   0.087   0.098   0.139   0.151   0.155   0.165
  0.173   0.193   0.214   0.266   0.288   0.298   0.346   0.397
  0.499   0.503   0.512   0.531   0.567   0.579   0.591   0.600
  0.629   0.651   0.663   0.682   0.696   0.735   0.768   0.786
  0.807   0.824   0.828   0.838   0.862   0.893   0.908   0.919
  0.965   0.989   1.053   1.083   1.162   1.248   1.276   1.367
  1.409   1.450   1.476   1.516   1.576   1.585   1.639   1.685
  1.738   1.830   1.850   1.870   1.918   1.958   1.996   2.038
  2.057   2.124   2.164   2.205   2.240   2.287   2.321   2.350
  2.434   2.464   2.495   2.539   2.548   2.589   2.653   2.676
  2.693   2.783   2.804   2.908   2.972   3.950   4.121   4.244
  4.318   4.411   4.522   4.568
 
 Beta MOs
 -- Occupied --
-14.315 -10.226 -10.223 -10.217 -10.217 -10.215 -10.202  -0.959
 -0.832  -0.732  -0.679  -0.584  -0.574  -0.531  -0.508  -0.454
 -0.421  -0.402  -0.396  -0.369  -0.317  -0.279  -0.263  -0.254
 -- Virtual --
 -0.043   0.007   0.042   0.096   0.107   0.143   0.154   0.157
  0.169   0.177   0.195   0.217   0.268   0.291   0.301   0.355
  0.400   0.505   0.508   0.520   0.547   0.569   0.584   0.596
  0.601   0.633   0.669   0.672   0.688   0.703   0.739   0.773
  0.789   0.809   0.825   0.832   0.843   0.867   0.895   0.910
  0.924   0.969   0.991   1.058   1.097   1.166   1.252   1.281
  1.371   1.414   1.459   1.482   1.525   1.581   1.598   1.645
  1.694   1.747   1.835   1.857   1.876   1.928   1.970   2.007
  2.044   2.070   2.130   2.168   2.212   2.256   2.299   2.328
  2.358   2.447   2.470   2.500   2.545   2.555   2.594   2.661
  2.680   2.696   2.786   2.811   2.910   2.974   3.951   4.136
  4.248   4.329   4.412   4.525   4.572
 --------------------------------------------------------------
 
          Ground-State Mulliken Net Atomic Charges

     Atom                 Charge (a.u.)    Spin (a.u.)
  --------------------------------------------------------
      1 C                     0.003550       0.037487
      2 C                    -0.166433      -0.147812
      3 C                    -0.101729       0.795389
      4 C                    -0.255211      -0.074576
      5 C                     0.084997       0.043450
      6 N                    -0.340228       0.025069
      7 H                     0.149626       0.004176
      8 H                     0.156359       0.005485
      9 H                     0.137324       0.003378
     10 H                     0.142548       0.006326
     11 H                     0.142782      -0.001145
     12 C                    -0.117621       0.316445
     13 H                     0.164038      -0.013670
  --------------------------------------------------------
  Sum of atomic charges =    -0.000000
  Sum of spin   charges =     1.000000

 -----------------------------------------------------------------
                    Cartesian Multipole Moments
 -----------------------------------------------------------------
    Charge (ESU x 10^10)
                -0.0000
    Dipole Moment (Debye)
         X      -0.7819      Y      -1.4334      Z       1.1147
       Tot       1.9770
    Quadrupole Moments (Debye-Ang)
        XX     -39.0373     XY      -5.2784     YY     -43.0567
        XZ       1.1807     YZ       1.2805     ZZ     -39.3414
    Octopole Moments (Debye-Ang^2)
       XXX      -3.1124    XXY      -6.4354    XYY      -7.8569
       YYY     -18.1858    XXZ       5.3697    XYZ       2.8529
       YYZ      -0.8502    XZZ      -3.6461    YZZ      -9.2937
       ZZZ       9.0370
    Hexadecapole Moments (Debye-Ang^3)
      XXXX    -217.9909   XXXY     -10.8307   XXYY     -93.3445
      XYYY     -20.6004   YYYY    -322.4547   XXXZ      -8.5358
      XXYZ       3.9164   XYYZ       2.9899   YYYZ       3.8876
      XXZZ     -63.0906   XYZZ      -0.6387   YYZZ     -73.0718
      XZZZ      -7.9872   YZZZ      -0.1081   ZZZZ    -147.1083
 -----------------------------------------------------------------
Archival summary:
1\1\c8-73\SP\ProcedureUnspecified\6-31G*\166(2)\hpark21\FriMar412:22:002022FriMar412:22:002022\0\\#,ProcedureUnspecified,6-31G*,\\0,2\N\C,1,1.291\H,2,1.09748,1,119.414\C,1,1.43325,2,105.1,3,177.376,0\H,4,1.07963,1,116.899,2,-156.905,0\C,4,1.48199,1,111.327,2,-15.6758,0\H,6,1.0796,4,132.68,1,-140.43,0\C,2,1.49583,1,113.92,3,178.358,0\H,8,1.10897,2,113.798,1,150.249,0\C,4,1.5508,1,116.61,2,61.2752,0\H,10,1.09032,4,112.501,1,118.226,0\C,10,1.41327,4,117.773,1,-42.2575,0\H,12,1.11086,10,121.682,4,146.23,0\\\@

 Total job time:  92.94s(wall), 89.84s(cpu) 
 Fri Mar  4 12:22:00 2022

        *************************************************************
        *                                                           *
        *  Thank you very much for using Q-Chem.  Have a nice day.  *
        *                                                           *
        *************************************************************


