13   
From optimize.out: Frame 1 / 2, Energy=    -286.8377615165
C       -0.0968170000   -0.0451000000    0.0000000000
C       -0.0924840000    0.0328070000    0.0000000000
C       -0.0788370000   -0.0015210000    0.0000000000
C       -0.1749840000    0.0860740000   -0.0000000000
C        0.0153840000   -0.0639970000   -0.0000000000
N       -0.3075440000    0.8303780000    0.0000000000
H        0.1431230000    0.0113140000   -0.0000000000
H        0.1391230000   -0.0002930000    0.0000000000
H        0.1373870000    0.0045180000    0.0000000000
H        0.1480220000    0.0013040000   -0.0000000000
H        0.1515260000    0.0010270000   -0.0000000000
C       -0.1393470000    0.1352130000   -0.0000000000
H        0.1554480000    0.0082750000   -0.0000000000
