13   
Frame   0 IRC: Energy =  -286.8969880000 ; +0.0000 kcal/mol
C       -0.2149070000   -0.0611490000    0.0000000000
C       -0.0754170000    0.0493240000   -0.0000000000
C       -0.1576710000    0.0253100000   -0.0000000000
C       -0.0700920000    0.7565850000    0.0000000000
C       -0.1103240000   -0.2554710000   -0.0000000000
N       -0.1759330000    0.5187180000   -0.0000000000
H        0.1482970000    0.0285360000    0.0000000000
H        0.1309990000    0.0032490000   -0.0000000000
H        0.1277350000    0.0065970000   -0.0000000000
H        0.1360630000   -0.0324660000    0.0000000000
H        0.1306930000    0.0073770000   -0.0000000000
C       -0.0160190000   -0.0742070000    0.0000000000
H        0.1465760000    0.0275970000    0.0000000000
13   
Frame   1 IRC: Energy =  -286.8969840000 ; +0.0025 kcal/mol
C       -0.2146580000   -0.0610960000    0.0000000000
C       -0.0754030000    0.0493310000   -0.0000000000
C       -0.1579100000    0.0253500000   -0.0000000000
C       -0.0699340000    0.7571420000    0.0000000000
C       -0.1101200000   -0.2554040000   -0.0000000000
N       -0.1759860000    0.5182470000   -0.0000000000
H        0.1483170000    0.0284640000    0.0000000000
H        0.1309790000    0.0032390000   -0.0000000000
H        0.1277090000    0.0065730000   -0.0000000000
H        0.1360650000   -0.0324930000    0.0000000000
H        0.1306870000    0.0073720000   -0.0000000000
C       -0.0163530000   -0.0742400000    0.0000000000
H        0.1466070000    0.0275140000    0.0000000000
13   
Frame   2 IRC: Energy =  -286.8968730000 ; +0.0722 kcal/mol
C       -0.2122110000   -0.0613000000    0.0000000000
C       -0.0734550000    0.0454580000   -0.0000000000
C       -0.1577950000    0.0271240000   -0.0000000000
C       -0.0646730000    0.7565460000    0.0000000000
C       -0.1137210000   -0.2551340000   -0.0000000000
N       -0.1766590000    0.5182920000   -0.0000000000
H        0.1480740000    0.0294350000    0.0000000000
H        0.1309050000    0.0031010000   -0.0000000000
H        0.1278010000    0.0068110000   -0.0000000000
H        0.1360460000   -0.0324240000    0.0000000000
H        0.1307430000    0.0074200000   -0.0000000000
C       -0.0215960000   -0.0722510000    0.0000000000
H        0.1465410000    0.0269220000    0.0000000000
13   
Frame   3 IRC: Energy =  -286.8968690000 ; +0.0747 kcal/mol
C       -0.2122220000   -0.0611750000    0.0000000000
C       -0.0731940000    0.0453630000   -0.0000000000
C       -0.1576970000    0.0272100000   -0.0000000000
C       -0.0646770000    0.7575660000    0.0000000000
C       -0.1133950000   -0.2549570000   -0.0000000000
N       -0.1767930000    0.5172230000   -0.0000000000
H        0.1480640000    0.0293850000    0.0000000000
H        0.1309070000    0.0031090000   -0.0000000000
H        0.1277900000    0.0068180000   -0.0000000000
H        0.1360280000   -0.0324680000    0.0000000000
H        0.1307260000    0.0074100000   -0.0000000000
C       -0.0220970000   -0.0723390000    0.0000000000
H        0.1465600000    0.0268550000    0.0000000000
13   
Frame   4 IRC: Energy =  -286.8968330000 ; +0.0973 kcal/mol
C       -0.2116720000   -0.0612970000    0.0000000000
C       -0.0729520000    0.0446360000   -0.0000000000
C       -0.1578780000    0.0274980000   -0.0000000000
C       -0.0635180000    0.7564910000    0.0000000000
C       -0.1144920000   -0.2550890000   -0.0000000000
N       -0.1768000000    0.5182670000   -0.0000000000
H        0.1480350000    0.0296160000    0.0000000000
H        0.1308910000    0.0030660000   -0.0000000000
H        0.1278180000    0.0068560000   -0.0000000000
H        0.1360560000   -0.0324150000    0.0000000000
H        0.1307550000    0.0074340000   -0.0000000000
C       -0.0227680000   -0.0718340000    0.0000000000
H        0.1465250000    0.0267720000    0.0000000000
13   
Frame   5 IRC: Energy =  -286.8968260000 ; +0.1017 kcal/mol
C       -0.2116420000   -0.0611520000    0.0000000000
C       -0.0726520000    0.0444860000   -0.0000000000
C       -0.1578230000    0.0276370000   -0.0000000000
C       -0.0634800000    0.7576860000    0.0000000000
C       -0.1141260000   -0.2548830000   -0.0000000000
N       -0.1769480000    0.5170120000   -0.0000000000
H        0.1480240000    0.0295660000    0.0000000000
H        0.1308880000    0.0030720000   -0.0000000000
H        0.1278010000    0.0068610000   -0.0000000000
H        0.1360370000   -0.0324670000    0.0000000000
H        0.1307360000    0.0074230000   -0.0000000000
C       -0.0233650000   -0.0719280000    0.0000000000
H        0.1465490000    0.0266880000    0.0000000000
13   
Frame   6 IRC: Energy =  -286.8968010000 ; +0.1173 kcal/mol
C       -0.2112850000   -0.0612820000    0.0000000000
C       -0.0725950000    0.0440430000   -0.0000000000
C       -0.1579300000    0.0277730000   -0.0000000000
C       -0.0627080000    0.7564880000    0.0000000000
C       -0.1150290000   -0.2550590000   -0.0000000000
N       -0.1769010000    0.5182190000   -0.0000000000
H        0.1480100000    0.0297400000    0.0000000000
H        0.1308820000    0.0030400000   -0.0000000000
H        0.1278290000    0.0068880000   -0.0000000000
H        0.1360650000   -0.0324110000    0.0000000000
H        0.1307640000    0.0074440000   -0.0000000000
C       -0.0236130000   -0.0715480000    0.0000000000
H        0.1465110000    0.0266650000    0.0000000000
13   
Frame   7 IRC: Energy =  -286.8967910000 ; +0.1236 kcal/mol
C       -0.2112370000   -0.0611260000    0.0000000000
C       -0.0722470000    0.0438580000   -0.0000000000
C       -0.1579110000    0.0279340000   -0.0000000000
C       -0.0626210000    0.7577630000    0.0000000000
C       -0.1146680000   -0.2548370000   -0.0000000000
N       -0.1770530000    0.5168740000   -0.0000000000
H        0.1479990000    0.0296940000    0.0000000000
H        0.1308770000    0.0030440000   -0.0000000000
H        0.1278090000    0.0068930000   -0.0000000000
H        0.1360450000   -0.0324660000    0.0000000000
H        0.1307450000    0.0074320000   -0.0000000000
C       -0.0242750000   -0.0716310000    0.0000000000
H        0.1465370000    0.0265680000    0.0000000000
13   
Frame   8 IRC: Energy =  -286.8967690000 ; +0.1374 kcal/mol
C       -0.2109070000   -0.0612560000    0.0000000000
C       -0.0722670000    0.0434810000   -0.0000000000
C       -0.1579690000    0.0280390000   -0.0000000000
C       -0.0619570000    0.7565320000    0.0000000000
C       -0.1155190000   -0.2550260000   -0.0000000000
N       -0.1769990000    0.5181250000   -0.0000000000
H        0.1479870000    0.0298530000    0.0000000000
H        0.1308750000    0.0030160000   -0.0000000000
H        0.1278400000    0.0069180000   -0.0000000000
H        0.1360730000   -0.0324090000    0.0000000000
H        0.1307710000    0.0074530000   -0.0000000000
C       -0.0244260000   -0.0712900000    0.0000000000
H        0.1464970000    0.0265630000    0.0000000000
13   
Frame   9 IRC: Energy =  -286.8967560000 ; +0.1456 kcal/mol
C       -0.2108680000   -0.0610830000    0.0000000000
C       -0.0718350000    0.0432460000   -0.0000000000
C       -0.1579900000    0.0282200000   -0.0000000000
C       -0.0618140000    0.7579060000    0.0000000000
C       -0.1151830000   -0.2548040000   -0.0000000000
N       -0.1771440000    0.5167050000   -0.0000000000
H        0.1479760000    0.0298070000    0.0000000000
H        0.1308660000    0.0030170000   -0.0000000000
H        0.1278130000    0.0069220000   -0.0000000000
H        0.1360550000   -0.0324690000    0.0000000000
H        0.1307550000    0.0074430000   -0.0000000000
C       -0.0251550000   -0.0713620000    0.0000000000
H        0.1465230000    0.0264520000    0.0000000000
13   
Frame  10 IRC: Energy =  -286.8967340000 ; +0.1594 kcal/mol
C       -0.2104890000   -0.0612250000    0.0000000000
C       -0.0719530000    0.0429060000   -0.0000000000
C       -0.1580000000    0.0283280000   -0.0000000000
C       -0.0611900000    0.7565780000    0.0000000000
C       -0.1160070000   -0.2549790000   -0.0000000000
N       -0.1771110000    0.5179950000   -0.0000000000
H        0.1479680000    0.0299720000    0.0000000000
H        0.1308710000    0.0029920000   -0.0000000000
H        0.1278550000    0.0069510000   -0.0000000000
H        0.1360820000   -0.0324070000    0.0000000000
H        0.1307750000    0.0074630000   -0.0000000000
C       -0.0252820000   -0.0710340000    0.0000000000
H        0.1464810000    0.0264580000    0.0000000000
13   
Frame  11 IRC: Energy =  -286.8967140000 ; +0.1719 kcal/mol
C       -0.2104460000   -0.0610210000    0.0000000000
C       -0.0713650000    0.0425540000   -0.0000000000
C       -0.1580870000    0.0285260000   -0.0000000000
C       -0.0608790000    0.7580620000    0.0000000000
C       -0.1158120000   -0.2548010000   -0.0000000000
N       -0.1772190000    0.5165760000   -0.0000000000
H        0.1479530000    0.0299270000    0.0000000000
H        0.1308510000    0.0029840000   -0.0000000000
H        0.1278100000    0.0069480000   -0.0000000000
H        0.1360780000   -0.0324740000    0.0000000000
H        0.1307700000    0.0074570000   -0.0000000000
C       -0.0261550000   -0.0710610000    0.0000000000
H        0.1465010000    0.0263220000    0.0000000000
13   
Frame  12 IRC: Energy =  -286.8966920000 ; +0.1857 kcal/mol
C       -0.2098980000   -0.0612180000    0.0000000000
C       -0.0717070000    0.0422990000   -0.0000000000
C       -0.1580830000    0.0287090000   -0.0000000000
C       -0.0604380000    0.7565380000    0.0000000000
C       -0.1163920000   -0.2548690000   -0.0000000000
N       -0.1772770000    0.5178130000   -0.0000000000
H        0.1479550000    0.0301160000    0.0000000000
H        0.1308760000    0.0029690000   -0.0000000000
H        0.1278710000    0.0069890000   -0.0000000000
H        0.1360670000   -0.0323990000    0.0000000000
H        0.1307740000    0.0074730000   -0.0000000000
C       -0.0262200000   -0.0707540000    0.0000000000
H        0.1464720000    0.0263340000    0.0000000000
13   
Frame  13 IRC: Energy =  -286.8966640000 ; +0.2033 kcal/mol
C       -0.2092300000   -0.0608540000    0.0000000000
C       -0.0712120000    0.0417290000   -0.0000000000
C       -0.1582600000    0.0288740000   -0.0000000000
C       -0.0590030000    0.7587930000    0.0000000000
C       -0.1172530000   -0.2549430000   -0.0000000000
N       -0.1772770000    0.5161640000   -0.0000000000
H        0.1479210000    0.0300120000    0.0000000000
H        0.1308560000    0.0029440000   -0.0000000000
H        0.1278260000    0.0069670000   -0.0000000000
H        0.1362760000   -0.0325130000    0.0000000000
H        0.1307600000    0.0074750000   -0.0000000000
C       -0.0278540000   -0.0708430000    0.0000000000
H        0.1464510000    0.0261950000    0.0000000000
13   
Frame  14 IRC: Energy =  -286.8966480000 ; +0.2134 kcal/mol
C       -0.2089240000   -0.0606600000    0.0000000000
C       -0.0709100000    0.0415740000   -0.0000000000
C       -0.1587180000    0.0290370000   -0.0000000000
C       -0.0585250000    0.7601500000    0.0000000000
C       -0.1171350000   -0.2548690000   -0.0000000000
N       -0.1772880000    0.5150590000   -0.0000000000
H        0.1479390000    0.0298810000    0.0000000000
H        0.1308140000    0.0029320000   -0.0000000000
H        0.1277570000    0.0069160000   -0.0000000000
H        0.1363260000   -0.0325810000    0.0000000000
H        0.1307540000    0.0074680000   -0.0000000000
C       -0.0285750000   -0.0709730000    0.0000000000
H        0.1464870000    0.0260660000    0.0000000000
13   
Frame  15 IRC: Energy =  -286.8963170000 ; +0.4211 kcal/mol
C       -0.2058230000   -0.0602330000    0.0000000000
C       -0.0699950000    0.0373790000   -0.0000000000
C       -0.1570630000    0.0312810000   -0.0000000000
C       -0.0546740000    0.7594500000    0.0000000000
C       -0.1202250000   -0.2546370000   -0.0000000000
N       -0.1780280000    0.5148000000   -0.0000000000
H        0.1479720000    0.0307750000    0.0000000000
H        0.1308640000    0.0027270000   -0.0000000000
H        0.1278910000    0.0072410000   -0.0000000000
H        0.1361260000   -0.0325150000    0.0000000000
H        0.1308260000    0.0075700000   -0.0000000000
C       -0.0339990000   -0.0693210000    0.0000000000
H        0.1461280000    0.0254850000    0.0000000000
13   
Frame  16 IRC: Energy =  -286.8962910000 ; +0.4374 kcal/mol
C       -0.2059950000   -0.0600260000    0.0000000000
C       -0.0691220000    0.0372390000   -0.0000000000
C       -0.1570180000    0.0315760000   -0.0000000000
C       -0.0546330000    0.7606190000    0.0000000000
C       -0.1197140000   -0.2542840000   -0.0000000000
N       -0.1782400000    0.5132380000   -0.0000000000
H        0.1479770000    0.0307340000    0.0000000000
H        0.1308820000    0.0027530000   -0.0000000000
H        0.1278520000    0.0072650000   -0.0000000000
H        0.1360600000   -0.0325660000    0.0000000000
H        0.1308080000    0.0075550000   -0.0000000000
C       -0.0349970000   -0.0694230000    0.0000000000
H        0.1461400000    0.0253180000    0.0000000000
13   
Frame  17 IRC: Energy =  -286.8960910000 ; +0.5629 kcal/mol
C       -0.2032430000   -0.0595980000    0.0000000000
C       -0.0696150000    0.0350530000   -0.0000000000
C       -0.1564310000    0.0325000000   -0.0000000000
C       -0.0516970000    0.7610170000    0.0000000000
C       -0.1224690000   -0.2546730000   -0.0000000000
N       -0.1783610000    0.5133020000   -0.0000000000
H        0.1480130000    0.0310380000    0.0000000000
H        0.1309050000    0.0026030000   -0.0000000000
H        0.1279070000    0.0073580000   -0.0000000000
H        0.1362500000   -0.0325930000    0.0000000000
H        0.1308480000    0.0076320000   -0.0000000000
C       -0.0380070000   -0.0687450000    0.0000000000
H        0.1459000000    0.0251060000    0.0000000000
13   
Frame  18 IRC: Energy =  -286.8960600000 ; +0.5823 kcal/mol
C       -0.2030510000   -0.0596490000    0.0000000000
C       -0.0701170000    0.0349130000   -0.0000000000
C       -0.1557650000    0.0323090000   -0.0000000000
C       -0.0516590000    0.7605530000    0.0000000000
C       -0.1230820000   -0.2548650000   -0.0000000000
N       -0.1783610000    0.5138500000   -0.0000000000
H        0.1479770000    0.0311650000    0.0000000000
H        0.1309380000    0.0025860000   -0.0000000000
H        0.1279740000    0.0074230000   -0.0000000000
H        0.1362900000   -0.0325690000    0.0000000000
H        0.1308550000    0.0076500000   -0.0000000000
C       -0.0378220000   -0.0686020000    0.0000000000
H        0.1458230000    0.0252380000    0.0000000000
13   
Frame  19 IRC: Energy =  -286.8955550000 ; +0.8992 kcal/mol
C       -0.1985050000   -0.0579200000    0.0000000000
C       -0.0685410000    0.0308470000   -0.0000000000
C       -0.1549260000    0.0350100000   -0.0000000000
C       -0.0470570000    0.7651370000    0.0000000000
C       -0.1257490000   -0.2544990000   -0.0000000000
N       -0.1790910000    0.5089360000   -0.0000000000
H        0.1481980000    0.0313900000    0.0000000000
H        0.1310160000    0.0023660000   -0.0000000000
H        0.1278960000    0.0075920000   -0.0000000000
H        0.1362740000   -0.0328120000    0.0000000000
H        0.1308720000    0.0077530000   -0.0000000000
C       -0.0457950000   -0.0680540000    0.0000000000
H        0.1454090000    0.0242550000    0.0000000000
13   
Frame  20 IRC: Energy =  -286.8954830000 ; +0.9444 kcal/mol
C       -0.1974800000   -0.0579190000    0.0000000000
C       -0.0699660000    0.0304200000   -0.0000000000
C       -0.1539470000    0.0349880000   -0.0000000000
C       -0.0468550000    0.7649230000    0.0000000000
C       -0.1265630000   -0.2547260000   -0.0000000000
N       -0.1791150000    0.5092370000   -0.0000000000
H        0.1481810000    0.0315680000    0.0000000000
H        0.1310070000    0.0023130000   -0.0000000000
H        0.1280000000    0.0076840000   -0.0000000000
H        0.1363310000   -0.0328030000    0.0000000000
H        0.1308680000    0.0077850000   -0.0000000000
C       -0.0457740000   -0.0678370000    0.0000000000
H        0.1453140000    0.0243660000    0.0000000000
13   
Frame  21 IRC: Energy =  -286.8952570000 ; +1.0862 kcal/mol
C       -0.1961650000   -0.0569510000    0.0000000000
C       -0.0680400000    0.0289600000   -0.0000000000
C       -0.1542500000    0.0360400000   -0.0000000000
C       -0.0449250000    0.7674720000    0.0000000000
C       -0.1273990000   -0.2544910000   -0.0000000000
N       -0.1793350000    0.5065860000   -0.0000000000
H        0.1482770000    0.0315210000    0.0000000000
H        0.1310820000    0.0022460000   -0.0000000000
H        0.1278770000    0.0076970000   -0.0000000000
H        0.1363220000   -0.0329490000    0.0000000000
H        0.1308830000    0.0078190000   -0.0000000000
C       -0.0494910000   -0.0678230000    0.0000000000
H        0.1451650000    0.0238750000    0.0000000000
13   
Frame  22 IRC: Energy =  -286.8951180000 ; +1.1734 kcal/mol
C       -0.1946670000   -0.0568100000    0.0000000000
C       -0.0698520000    0.0282520000   -0.0000000000
C       -0.1531330000    0.0363650000   -0.0000000000
C       -0.0443650000    0.7676830000    0.0000000000
C       -0.1284530000   -0.2546460000   -0.0000000000
N       -0.1794320000    0.5062250000   -0.0000000000
H        0.1482980000    0.0317360000    0.0000000000
H        0.1310860000    0.0021800000   -0.0000000000
H        0.1280540000    0.0078370000   -0.0000000000
H        0.1364140000   -0.0329620000    0.0000000000
H        0.1308220000    0.0078600000   -0.0000000000
C       -0.0498030000   -0.0676500000    0.0000000000
H        0.1450300000    0.0239300000    0.0000000000
13   
Frame  23 IRC: Energy =  -286.8942130000 ; +1.7413 kcal/mol
C       -0.1909270000   -0.0549950000    0.0000000000
C       -0.0650810000    0.0241540000   -0.0000000000
C       -0.1539680000    0.0397990000   -0.0000000000
C       -0.0418690000    0.7728720000    0.0000000000
C       -0.1305650000   -0.2545750000   -0.0000000000
N       -0.1791790000    0.5006210000   -0.0000000000
H        0.1483520000    0.0318240000    0.0000000000
H        0.1313150000    0.0019250000   -0.0000000000
H        0.1279140000    0.0080520000   -0.0000000000
H        0.1366420000   -0.0333210000    0.0000000000
H        0.1308640000    0.0080760000   -0.0000000000
C       -0.0581400000   -0.0673140000    0.0000000000
H        0.1446430000    0.0228820000    0.0000000000
13   
Frame  24 IRC: Energy =  -286.8940320000 ; +1.8549 kcal/mol
C       -0.1890310000   -0.0548990000    0.0000000000
C       -0.0674040000    0.0234880000   -0.0000000000
C       -0.1523370000    0.0395530000   -0.0000000000
C       -0.0418820000    0.7732290000    0.0000000000
C       -0.1315930000   -0.2550820000   -0.0000000000
N       -0.1791190000    0.5009070000   -0.0000000000
H        0.1483160000    0.0319010000    0.0000000000
H        0.1312780000    0.0018270000   -0.0000000000
H        0.1280780000    0.0081720000   -0.0000000000
H        0.1367710000   -0.0333410000    0.0000000000
H        0.1308730000    0.0081490000   -0.0000000000
C       -0.0584730000   -0.0669490000    0.0000000000
H        0.1445230000    0.0230440000    0.0000000000
13   
Frame  25 IRC: Energy =  -286.8928000000 ; +2.6280 kcal/mol
C       -0.1906960000   -0.0542160000    0.0000000000
C       -0.0592680000    0.0204780000   -0.0000000000
C       -0.1559850000    0.0451160000   -0.0000000000
C       -0.0441720000    0.7744180000    0.0000000000
C       -0.1289820000   -0.2539860000   -0.0000000000
N       -0.1787850000    0.4968320000   -0.0000000000
H        0.1483580000    0.0317810000    0.0000000000
H        0.1316220000    0.0017920000   -0.0000000000
H        0.1282100000    0.0083800000   -0.0000000000
H        0.1368710000   -0.0334990000    0.0000000000
H        0.1308840000    0.0082930000   -0.0000000000
C       -0.0625130000   -0.0674950000    0.0000000000
H        0.1444580000    0.0221050000    0.0000000000
13   
Frame  26 IRC: Energy =  -286.8923940000 ; +2.8828 kcal/mol
C       -0.1901390000   -0.0545810000    0.0000000000
C       -0.0619660000    0.0194670000   -0.0000000000
C       -0.1550790000    0.0454550000   -0.0000000000
C       -0.0454190000    0.7730670000    0.0000000000
C       -0.1288640000   -0.2545400000   -0.0000000000
N       -0.1787100000    0.4988430000   -0.0000000000
H        0.1484360000    0.0318160000    0.0000000000
H        0.1315610000    0.0016800000   -0.0000000000
H        0.1287080000    0.0084780000   -0.0000000000
H        0.1370120000   -0.0334320000    0.0000000000
H        0.1308670000    0.0083920000   -0.0000000000
C       -0.0607150000   -0.0668750000    0.0000000000
H        0.1443070000    0.0222290000    0.0000000000
13   
Frame  27 IRC: Energy =  -286.8905100000 ; +4.0650 kcal/mol
C       -0.1916930000   -0.0535070000    0.0000000000
C       -0.0542240000    0.0165250000   -0.0000000000
C       -0.1577270000    0.0522850000   -0.0000000000
C       -0.0529440000    0.7746950000    0.0000000000
C       -0.1230360000   -0.2533370000   -0.0000000000
N       -0.1784890000    0.4938720000   -0.0000000000
H        0.1483390000    0.0311690000    0.0000000000
H        0.1320220000    0.0017790000   -0.0000000000
H        0.1290360000    0.0087350000   -0.0000000000
H        0.1367330000   -0.0335290000    0.0000000000
H        0.1314470000    0.0084930000   -0.0000000000
C       -0.0640060000   -0.0687280000    0.0000000000
H        0.1445400000    0.0215480000    0.0000000000
13   
Frame  28 IRC: Energy =  -286.8874690000 ; +5.9733 kcal/mol
C       -0.1886400000   -0.0534020000    0.0000000000
C       -0.0585940000    0.0120380000   -0.0000000000
C       -0.1583850000    0.0631710000   -0.0000000000
C       -0.0619270000    0.7702930000    0.0000000000
C       -0.1179810000   -0.2526560000   -0.0000000000
N       -0.1787640000    0.4938580000   -0.0000000000
H        0.1486330000    0.0300350000    0.0000000000
H        0.1326090000    0.0020150000   -0.0000000000
H        0.1317120000    0.0093300000   -0.0000000000
H        0.1367180000   -0.0332170000    0.0000000000
H        0.1321850000    0.0086250000   -0.0000000000
C       -0.0620230000   -0.0713040000    0.0000000000
H        0.1444560000    0.0212140000    0.0000000000
13   
Frame  29 IRC: Energy =  -286.8831300000 ; +8.6960 kcal/mol
C       -0.1677190000   -0.0528300000    0.0000000000
C       -0.0677070000    0.0068220000   -0.0000000000
C       -0.1612960000    0.0885020000   -0.0000000000
C       -0.0612680000    0.7562190000    0.0000000000
C       -0.1175140000   -0.2483510000   -0.0000000000
N       -0.1814040000    0.4888210000   -0.0000000000
H        0.1488990000    0.0293340000    0.0000000000
H        0.1332770000    0.0030990000   -0.0000000000
H        0.1342580000    0.0109620000   -0.0000000000
H        0.1367730000   -0.0325420000    0.0000000000
H        0.1325780000    0.0084580000   -0.0000000000
C       -0.0737860000   -0.0795910000    0.0000000000
H        0.1449100000    0.0210980000    0.0000000000
13   
Frame  30 IRC: Energy =  -286.8770180000 ; +12.5314 kcal/mol
C       -0.1291620000   -0.0511590000    0.0000000000
C       -0.0811840000   -0.0021090000   -0.0000000000
C       -0.1682080000    0.1356230000   -0.0000000000
C       -0.0516300000    0.7319870000    0.0000000000
C       -0.1209760000   -0.2406000000   -0.0000000000
N       -0.1859810000    0.4767330000   -0.0000000000
H        0.1492700000    0.0286470000    0.0000000000
H        0.1338570000    0.0052300000   -0.0000000000
H        0.1362930000    0.0134200000   -0.0000000000
H        0.1369570000   -0.0315590000    0.0000000000
H        0.1327470000    0.0081200000   -0.0000000000
C       -0.0983650000   -0.0957050000    0.0000000000
H        0.1463810000    0.0213730000    0.0000000000
13   
Frame  31 IRC: Energy =  -286.8697600000 ; +17.0858 kcal/mol
C       -0.0752350000   -0.0464500000    0.0000000000
C       -0.0940800000   -0.0184510000   -0.0000000000
C       -0.1802420000    0.2224150000   -0.0000000000
C       -0.0332180000    0.6943840000    0.0000000000
C       -0.1272360000   -0.2272690000   -0.0000000000
N       -0.1930780000    0.4486390000   -0.0000000000
H        0.1498450000    0.0273440000    0.0000000000
H        0.1347100000    0.0093890000   -0.0000000000
H        0.1376440000    0.0165550000   -0.0000000000
H        0.1369880000   -0.0301180000    0.0000000000
H        0.1326950000    0.0075980000   -0.0000000000
C       -0.1378500000   -0.1261810000    0.0000000000
H        0.1490580000    0.0221430000    0.0000000000
13   
Frame  32 IRC: Energy =  -286.8627850000 ; +21.4627 kcal/mol
C       -0.0160770000   -0.0372660000    0.0000000000
C       -0.1051900000   -0.0457440000   -0.0000000000
C       -0.1961470000    0.3659150000   -0.0000000000
C       -0.0098560000    0.6314550000    0.0000000000
C       -0.1345970000   -0.2065290000   -0.0000000000
N       -0.2024350000    0.4002120000   -0.0000000000
H        0.1510670000    0.0245100000    0.0000000000
H        0.1363260000    0.0165490000   -0.0000000000
H        0.1387690000    0.0196460000   -0.0000000000
H        0.1366850000   -0.0276650000    0.0000000000
H        0.1324750000    0.0069270000   -0.0000000000
C       -0.1834300000   -0.1712650000    0.0000000000
H        0.1524110000    0.0232560000    0.0000000000
13   
Frame  33 IRC: Energy =  -286.8579890000 ; +24.4723 kcal/mol
C        0.0340120000   -0.0233880000    0.0000000000
C       -0.1131410000   -0.0835740000   -0.0000000000
C       -0.2125600000    0.5619690000   -0.0000000000
C        0.0130940000    0.5285080000    0.0000000000
C       -0.1400770000   -0.1727540000   -0.0000000000
N       -0.2126600000    0.3222540000   -0.0000000000
H        0.1530780000    0.0194540000    0.0000000000
H        0.1392710000    0.0272520000   -0.0000000000
H        0.1396500000    0.0208170000   -0.0000000000
H        0.1357200000   -0.0235860000    0.0000000000
H        0.1319930000    0.0059020000   -0.0000000000
C       -0.2237070000   -0.2063400000    0.0000000000
H        0.1553270000    0.0234860000    0.0000000000
13   
Frame  34 IRC: Energy =  -286.8564680000 ; +25.4267 kcal/mol (Transition State)
C        0.0604670000   -0.0107290000    0.0000000000
C       -0.1175400000   -0.1215380000   -0.0000000000
C       -0.2258470000    0.7439990000   -0.0000000000
C        0.0278610000    0.3924960000    0.0000000000
C       -0.1428990000   -0.1292720000   -0.0000000000
N       -0.2208160000    0.2357260000   -0.0000000000
H        0.1554950000    0.0134520000    0.0000000000
H        0.1428060000    0.0386740000   -0.0000000000
H        0.1410260000    0.0183360000   -0.0000000000
H        0.1345790000   -0.0182130000    0.0000000000
H        0.1314820000    0.0045730000   -0.0000000000
C       -0.2428280000   -0.1879540000    0.0000000000
H        0.1562160000    0.0204490000    0.0000000000
13   
Frame  35 IRC: Energy =  -286.8574900000 ; +24.7854 kcal/mol
C        0.0667680000   -0.0005520000    0.0000000000
C       -0.1187220000   -0.1547480000   -0.0000000000
C       -0.2363160000    0.8792170000   -0.0000000000
C        0.0338180000    0.2520200000    0.0000000000
C       -0.1430360000   -0.0838700000   -0.0000000000
N       -0.2258080000    0.1561850000   -0.0000000000
H        0.1573930000    0.0081720000    0.0000000000
H        0.1460700000    0.0485970000   -0.0000000000
H        0.1431560000    0.0128790000   -0.0000000000
H        0.1335390000   -0.0126610000    0.0000000000
H        0.1309560000    0.0031180000   -0.0000000000
C       -0.2428260000   -0.1234070000    0.0000000000
H        0.1550080000    0.0150500000    0.0000000000
13   
Frame  36 IRC: Energy =  -286.8594930000 ; +23.5285 kcal/mol
C        0.0619530000    0.0098070000    0.0000000000
C       -0.1194160000   -0.1813840000   -0.0000000000
C       -0.2422580000    0.9611710000   -0.0000000000
C        0.0320260000    0.1500400000    0.0000000000
C       -0.1426030000   -0.0517990000   -0.0000000000
N       -0.2283220000    0.1052240000   -0.0000000000
H        0.1587940000    0.0045240000    0.0000000000
H        0.1482780000    0.0553480000   -0.0000000000
H        0.1464980000    0.0071470000   -0.0000000000
H        0.1332450000   -0.0086210000    0.0000000000
H        0.1308560000    0.0020810000   -0.0000000000
C       -0.2318590000   -0.0636560000    0.0000000000
H        0.1528080000    0.0101190000    0.0000000000
13   
Frame  37 IRC: Energy =  -286.8604340000 ; +22.9380 kcal/mol
C        0.0579950000    0.0146160000    0.0000000000
C       -0.1186380000   -0.1924450000   -0.0000000000
C       -0.2443650000    0.9899340000   -0.0000000000
C        0.0297470000    0.1111260000    0.0000000000
C       -0.1401410000   -0.0381750000   -0.0000000000
N       -0.2282220000    0.0832600000   -0.0000000000
H        0.1588690000    0.0031420000    0.0000000000
H        0.1491470000    0.0583120000   -0.0000000000
H        0.1477590000    0.0044540000   -0.0000000000
H        0.1327090000   -0.0070500000    0.0000000000
H        0.1306550000    0.0016050000   -0.0000000000
C       -0.2272370000   -0.0370420000    0.0000000000
H        0.1517240000    0.0082630000    0.0000000000
13   
Frame  38 IRC: Energy =  -286.8621420000 ; +21.8662 kcal/mol
C        0.0510310000    0.0249010000    0.0000000000
C       -0.1203740000   -0.2096690000   -0.0000000000
C       -0.2455640000    1.0266290000   -0.0000000000
C        0.0267290000    0.0617210000    0.0000000000
C       -0.1411960000   -0.0230890000   -0.0000000000
N       -0.2293740000    0.0610610000   -0.0000000000
H        0.1596640000    0.0013580000    0.0000000000
H        0.1502980000    0.0613280000   -0.0000000000
H        0.1507460000    0.0010350000   -0.0000000000
H        0.1333390000   -0.0050450000    0.0000000000
H        0.1309180000    0.0011080000   -0.0000000000
C       -0.2163150000   -0.0069670000    0.0000000000
H        0.1500980000    0.0056300000    0.0000000000
13   