13   
Frame   0 IRC: Energy =  -286.8969880000 ; +0.0000 kcal/mol
C        1.0042836072    0.2216049221    0.3323543011
C        1.1840799552   -1.0722923328   -0.4629398147
C       -0.0157230430   -1.5629760734   -0.1229705744
C       -1.3127637842    0.6651087789    0.1016386642
C       -0.5104712838    1.6121197592   -0.5576667805
N        0.8035442258    1.4226712253   -0.4715778154
H        1.7326939383    0.4028295862    1.1311373369
H        1.9962824410   -1.4190895109   -1.0936373288
H       -0.5522783367   -2.4767347369   -0.3612575711
H       -2.3971702726    0.6587032431    0.1180217809
H       -0.8933306861    2.4501726519   -1.1360278187
C       -0.4152361736   -0.3466265136    0.7332454093
H       -0.6239105870   -0.5554909989    1.7896802110
13   
Frame   1 IRC: Energy =  -286.8969840000 ; +0.0025 kcal/mol
C        1.0045661556    0.2217211128    0.3325019164
C        1.1845148649   -1.0722271061   -0.4630985773
C       -0.0161754549   -1.5634453374   -0.1230578193
C       -1.3127071859    0.6651403642    0.1016145014
C       -0.5103434791    1.6122531118   -0.5577674097
N        0.8033404436    1.4226553860   -0.4716562182
H        1.7325672439    0.4028321520    1.1310379377
H        1.9963021157   -1.4191271550   -1.0935169243
H       -0.5521791658   -2.4764996093   -0.3612743119
H       -2.3973152116    0.6587461671    0.1181217165
H       -0.8933303048    2.4500936064   -1.1359861193
C       -0.4154109241   -0.3466676047    0.7336917798
H       -0.6238290977   -0.5554750879    1.7893895281
13   
Frame   2 IRC: Energy =  -286.8968730000 ; +0.0722 kcal/mol
C        1.0019370616    0.2200578573    0.3290603612
C        1.1927218509   -1.0771246213   -0.4558618955
C       -0.0139872287   -1.5628053116   -0.1339915041
C       -1.3159706155    0.6709622533    0.1090014144
C       -0.5141169471    1.6093621958   -0.5631670094
N        0.7995614722    1.4127659692   -0.4879045705
H        1.7224692217    0.4167488961    1.1317532681
H        2.0157129111   -1.4300942655   -1.0687687700
H       -0.5493388937   -2.4750825025   -0.3816797784
H       -2.3990836985    0.6867239737    0.1581129697
H       -0.8972955450    2.4468973301   -1.1424151407
C       -0.4181811013   -0.3488282873    0.7255727403
H       -0.6244284876   -0.5695834874    1.7802879148
13   
Frame   3 IRC: Energy =  -286.8968690000 ; +0.0747 kcal/mol
C        1.0020692336    0.2201084327    0.3290275672
C        1.1926536161   -1.0773216932   -0.4556598222
C       -0.0137635625   -1.5628864637   -0.1343725619
C       -1.3159407830    0.6710213118    0.1091435081
C       -0.5139040540    1.6095055562   -0.5634089796
N        0.7991364290    1.4125726025   -0.4882089334
H        1.7222130685    0.4169892937    1.1317347465
H        2.0161320953   -1.4303144503   -1.0683154750
H       -0.5492569368   -2.4749855974   -0.3820415759
H       -2.3991949504    0.6872618643    0.1588924287
H       -0.8973545063    2.4467442409   -1.1424710800
C       -0.4184053145   -0.3488980950    0.7258219129
H       -0.6243843350   -0.5697970025    1.7798582646
13   
Frame   4 IRC: Energy =  -286.8968330000 ; +0.0973 kcal/mol
C        1.0014182847    0.2197105013    0.3283782684
C        1.1944891895   -1.0780984237   -0.4544045418
C       -0.0135747325   -1.5627867607   -0.1362646624
C       -1.3166718381    0.6722017693    0.1105015874
C       -0.5149055197    1.6087649625   -0.5643130735
N        0.7987525747    1.4106894948   -0.4912966585
H        1.7202495377    0.4195967155    1.1318833766
H        2.0197121741   -1.4322806076   -1.0636479661
H       -0.5485887044   -2.4748723690   -0.3858382218
H       -2.3993385862    0.6927096194    0.1665719731
H       -0.8980855344    2.4462209979   -1.1437850821
C       -0.4188274261   -0.3493253657    0.7239209556
H       -0.6246294193   -0.5725305339    1.7782940450
13   
Frame   5 IRC: Energy =  -286.8968260000 ; +0.1017 kcal/mol
C        1.0015441265    0.2197798583    0.3283191653
C        1.1945712225   -1.0783481003   -0.4541565742
C       -0.0133932876   -1.5629642288   -0.1367888322
C       -1.3166605315    0.6723132512    0.1107210181
C       -0.5146815806    1.6089074420   -0.5646401659
N        0.7982275655    1.4103784229   -0.4917759457
H        1.7198571354    0.4199756280    1.1318672351
H        2.0203255495   -1.4325995634   -1.0629210837
H       -0.5484235899   -2.4747309820   -0.3863951295
H       -2.3994681979    0.6935814217    0.1678136467
H       -0.8981811503    2.4460199980   -1.1439075050
C       -0.4191209198   -0.3494224993    0.7241590953
H       -0.6245963419   -0.5728906484    1.7777050758
13   
Frame   6 IRC: Energy =  -286.8968010000 ; +0.1173 kcal/mol
C        1.0010428341    0.2194577856    0.3278969138
C        1.1957242137   -1.0787696060   -0.4533940572
C       -0.0132672169   -1.5627928001   -0.1378538250
C       -1.3171651311    0.6730745634    0.1115404867
C       -0.5154501591    1.6083474806   -0.5651285731
N        0.7981762242    1.4092276748   -0.4936696749
H        1.7186567496    0.4215685702    1.1319839029
H        2.0224959035   -1.4337621632   -1.0600895364
H       -0.5479963648   -2.4747843153   -0.3887072601
H       -2.3994782301    0.6969792439    0.1725565106
H       -0.8986213904    2.4457430551   -1.1447623669
C       -0.4193034300   -0.3496876897    0.7227536462
H       -0.6248140027   -0.5746017995    1.7768738335
13   
Frame   7 IRC: Energy =  -286.8967910000 ; +0.1236 kcal/mol
C        1.0011466434    0.2195334190    0.3278101474
C        1.1959170946   -1.0790713726   -0.4530884261
C       -0.0130987746   -1.5630260062   -0.1385048766
C       -1.3171812014    0.6732387726    0.1118373921
C       -0.5152398219    1.6084716611   -0.5655276067
N        0.7975899936    1.4088073652   -0.4943206160
H        1.7181351731    0.4220811319    1.1319745806
H        2.0233044767   -1.4341732351   -1.0591097967
H       -0.5477514219   -2.4746197690   -0.3894516598
H       -2.3996188143    0.6981816996    0.1742482478
H       -0.8987523096    2.4455061996   -1.1449592831
C       -0.4196499080   -0.3498228695    0.7229407656
H       -0.6248011296   -0.5751069966    1.7761511313
13   
Frame   8 IRC: Energy =  -286.8967690000 ; +0.1374 kcal/mol
C        1.0006796222    0.2192176831    0.3274452344
C        1.1968814301   -1.0793854739   -0.4524631891
C       -0.0129636481   -1.5628193179   -0.1393345937
C       -1.3176283030    0.6738917526    0.1124977275
C       -0.5159465975    1.6079612088   -0.5659014121
N        0.7976209029    1.4078532097   -0.4958774317
H        1.7171412124    0.4233843927    1.1320868753
H        2.0250770152   -1.4351002594   -1.0567992400
H       -0.5473873074   -2.4747531647   -0.3913442549
H       -2.3995804444    0.7010293438    0.1781875084
H       -0.8991024836    2.4452890097   -1.1456875639
C       -0.4197678107   -0.3500292330    0.7216618473
H       -0.6250235880   -0.5765391514    1.7755284924
13   
Frame   9 IRC: Energy =  -286.8967560000 ; +0.1456 kcal/mol
C        1.0007842839    0.2192822238    0.3273217648
C        1.1971496201   -1.0797499840   -0.4520948059
C       -0.0127980919   -1.5630952261   -0.1401075761
C       -1.3176730000    0.6740952879    0.1128889138
C       -0.5157484840    1.6080638781   -0.5663738184
N        0.7969965935    1.4073447449   -0.4966961412
H        1.7164932950    0.4240244013    1.1320902409
H        2.0260653217   -1.4355839360   -1.0555774101
H       -0.5470408222   -2.4745462021   -0.3922522292
H       -2.3997454760    0.7025605033    0.1803140473
H       -0.8992710575    2.4450387878   -1.1459744156
C       -0.4201748794   -0.3502604334    0.7217859756
H       -0.6250373032   -0.5771740453    1.7746754540
13   
Frame  10 IRC: Energy =  -286.8967340000 ; +0.1594 kcal/mol
C        1.0002701032    0.2189888779    0.3270039120
C        1.1980806448   -1.0799934719   -0.4515252252
C       -0.0126263504   -1.5628679456   -0.1408400555
C       -1.3181144536    0.6747411190    0.1134411100
C       -0.5164548178    1.6075666391   -0.5666905747
N        0.7970196115    1.4064184095   -0.4981196537
H        1.7155704022    0.4252000290    1.1321964668
H        2.0277143446   -1.4364330767   -1.0535012408
H       -0.5467233475   -2.4747983495   -0.3939971218
H       -2.3996503845    0.7052311663    0.1839764100
H       -0.8995576562    2.4447952990   -1.1466309870
C       -0.4202555315   -0.3503251791    0.7205562708
H       -0.6252725647   -0.5785235170    1.7741306892
13   
Frame  11 IRC: Energy =  -286.8967140000 ; +0.1719 kcal/mol
C        1.0004304616    0.2189577949    0.3267606096
C        1.1985272116   -1.0804813969   -0.4510142883
C       -0.0124557984   -1.5631857014   -0.1418574648
C       -1.3182541711    0.6750345249    0.1140515707
C       -0.5163180772    1.6075971725   -0.5672983551
N        0.7963889315    1.4057528603   -0.4992913397
H        1.7146751477    0.4261120888    1.1322436796
H        2.0290365468   -1.4370490795   -1.0517548844
H       -0.5461656031   -2.4744836316   -0.3952342182
H       -2.3999185290    0.7074433036    0.1869970604
H       -0.8998150225    2.4445523373   -1.1471335140
C       -0.4207781157   -0.3508296752    0.7204687185
H       -0.6253529822   -0.5794205977    1.7730624257
13   
Frame  12 IRC: Energy =  -286.8966920000 ; +0.1857 kcal/mol
C        0.9996542273    0.2188154848    0.3267101602
C        1.1995909632   -1.0805692727   -0.4505659984
C       -0.0123552493   -1.5630319350   -0.1424555968
C       -1.3186138546    0.6756878928    0.1144229186
C       -0.5171085323    1.6071311767   -0.5675227850
N        0.7961391228    1.4046903525   -0.5004573504
H        1.7139014936    0.4270696756    1.1322852912
H        2.0305558509   -1.4378673177   -1.0500882680
H       -0.5459458649   -2.4748980990   -0.3967687417
H       -2.3995368165    0.7098435537    0.1902000793
H       -0.8999492108    2.4442060435   -1.1476211923
C       -0.4207997660   -0.3504666099    0.7194061986
H       -0.6255323635   -0.5806109453    1.7724552848
13   
Frame  13 IRC: Energy =  -286.8966640000 ; +0.2033 kcal/mol
C        1.0007024924    0.2185867474    0.3258780738
C        1.2000210684   -1.0815139554   -0.4500619157
C       -0.0121764246   -1.5634128362   -0.1435907248
C       -1.3194272415    0.6762274419    0.1152131512
C       -0.5164533479    1.6070895174   -0.5684190406
N        0.7964080229    1.4044613879   -0.5022397578
H        1.7129412114    0.4283680465    1.1328702952
H        2.0323198966   -1.4384369093   -1.0478900355
H       -0.5452252734   -2.4746591184   -0.3983651319
H       -2.4012970581    0.7125811902    0.1942211188
H       -0.9005054042    2.4439624132   -1.1482903299
C       -0.4214850372   -0.3513724444    0.7190633994
H       -0.6258229047   -0.5818814808    1.7716108978
13   
Frame  14 IRC: Energy =  -286.8966480000 ; +0.2134 kcal/mol
C        1.0014076132    0.2187263028    0.3257938339
C        1.2005666177   -1.0816627112   -0.4501594709
C       -0.0127898352   -1.5642807336   -0.1439926947
C       -1.3195059451    0.6763038372    0.1153557601
C       -0.5160477111    1.6072832032   -0.5687534137
N        0.7962819256    1.4044912452   -0.5026301557
H        1.7126098555    0.4285835800    1.1329087970
H        2.0325696715   -1.4384858286   -1.0473692955
H       -0.5448229574   -2.4741664884   -0.3985455874
H       -2.4019164531    0.7131041078    0.1950423776
H       -0.9006345258    2.4438680525   -1.1483787859
C       -0.4219091991   -0.3517211929    0.7196298373
H       -0.6258090567   -0.5820433740    1.7710987979
13   
Frame  15 IRC: Energy =  -286.8963170000 ; +0.4211 kcal/mol
C        0.9959454816    0.2166976632    0.3234754582
C        1.2074542441   -1.0840974466   -0.4449113150
C       -0.0088509003   -1.5650414752   -0.1528961141
C       -1.3217822480    0.6817508295    0.1204793569
C       -0.5195523642    1.6042050692   -0.5745740807
N        0.7922387245    1.3943170377   -0.5161514003
H        1.6996032822    0.4382913027    1.1348346563
H        2.0479497837   -1.4426485705   -1.0301160869
H       -0.5358685188   -2.4794676080   -0.4117659114
H       -2.3979409850    0.7457520151    0.2367218295
H       -0.9018291702    2.4402350065   -1.1568750958
C       -0.4259013543   -0.3544883075    0.7108223635
H       -0.6314659752   -0.5955055161    1.7609563396
13   
Frame  16 IRC: Energy =  -286.8962910000 ; +0.4374 kcal/mol
C        0.9959470907    0.2170371172    0.3235183532
C        1.2071800552   -1.0844876984   -0.4444776334
C       -0.0082103552   -1.5656143765   -0.1539138817
C       -1.3217122126    0.6819932518    0.1206631490
C       -0.5193699114    1.6043630808   -0.5750897509
N        0.7914204222    1.3936231915   -0.5167764444
H        1.6987471537    0.4387120351    1.1348047767
H        2.0489158097   -1.4429220670   -1.0293090553
H       -0.5352535100   -2.4794362433   -0.4123368619
H       -2.3977274032    0.7474880407    0.2389477080
H       -0.9018350667    2.4398660755   -1.1571896058
C       -0.4264636771   -0.3545341990    0.7113272601
H       -0.6316383954   -0.5960882083    1.7598319862
13   
Frame  17 IRC: Energy =  -286.8960910000 ; +0.5629 kcal/mol
C        0.9942549033    0.2155816932    0.3220253623
C        1.2109800247   -1.0855125088   -0.4426387020
C       -0.0070415229   -1.5660375239   -0.1573164590
C       -1.3235320731    0.6846521253    0.1230724190
C       -0.5205341510    1.6027875434   -0.5778515288
N        0.7907650908    1.3896941625   -0.5230810873
H        1.6927557280    0.4428202835    1.1365307759
H        2.0554337258   -1.4438406344   -1.0222946257
H       -0.5304786684   -2.4824662641   -0.4175416000
H       -2.3968563233    0.7625965783    0.2582604804
H       -0.9023049887    2.4383243993   -1.1614572596
C       -0.4284432898   -0.3564177713    0.7066327430
H       -0.6349984553   -0.6021820831    1.7556594819
13   
Frame  18 IRC: Energy =  -286.8960600000 ; +0.5823 kcal/mol
C        0.9936615975    0.2151099245    0.3217001295
C        1.2108116419   -1.0857332467   -0.4423588762
C       -0.0062227268   -1.5649514209   -0.1572414172
C       -1.3238668572    0.6848065822    0.1234052755
C       -0.5207823567    1.6024864970   -0.5779609932
N        0.7910552939    1.3894518847   -0.5235899497
H        1.6924923013    0.4432292071    1.1368563801
H        2.0559629405   -1.4438964734   -1.0217661065
H       -0.5304053022   -2.4832708717   -0.4181204151
H       -2.3966957980    0.7637932522    0.2597470748
H       -0.9023682055    2.4383011271   -1.1618767485
C       -0.4282454868   -0.3565456407    0.7053163716
H       -0.6353970418   -0.6027808215    1.7558892750
13   
Frame  19 IRC: Energy =  -286.8955550000 ; +0.8992 kcal/mol
C        0.9900386561    0.2136116343    0.3201015988
C        1.2164486622   -1.0872523027   -0.4387123664
C       -0.0030923233   -1.5701005836   -0.1647626944
C       -1.3260789593    0.6893761291    0.1264811405
C       -0.5218983400    1.5998729464   -0.5845924285
N        0.7874127685    1.3805817006   -0.5347901081
H        1.6786961291    0.4497596700    1.1397441455
H        2.0675098505   -1.4427345582   -1.0111745276
H       -0.5168499511   -2.4908617913   -0.4266139866
H       -2.3915938437    0.7974904762    0.2989100316
H       -0.9025423575    2.4342105540   -1.1703478955
C       -0.4343434607   -0.3606692787    0.7000491013
H       -0.6437068308   -0.6132845961    1.7457079894
13   
Frame  20 IRC: Energy =  -286.8954830000 ; +0.9444 kcal/mol
C        0.9887269904    0.2129708543    0.3198118988
C        1.2175825621   -1.0875186877   -0.4385896774
C       -0.0024001922   -1.5692556517   -0.1648833780
C       -1.3265997139    0.6898227111    0.1269718580
C       -0.5222709780    1.5992789193   -0.5851256924
N        0.7874726540    1.3796452105   -0.5360975251
H        1.6774199435    0.4505804354    1.1402683609
H        2.0684784873   -1.4424643340   -1.0098524005
H       -0.5157517658   -2.4926793769   -0.4278499551
H       -2.3908071385    0.8013274888    0.3032518558
H       -0.9025810692    2.4338646123   -1.1714042994
C       -0.4344081476   -0.3609085143    0.6981097061
H       -0.6448616322   -0.6146636670    1.7453892482
13   
Frame  21 IRC: Energy =  -286.8952570000 ; +1.0862 kcal/mol
C        0.9880597149    0.2125536152    0.3191308818
C        1.2187315481   -1.0880795498   -0.4368761807
C       -0.0011847925   -1.5721603922   -0.1677798749
C       -1.3274462736    0.6914046784    0.1279520562
C       -0.5224917478    1.5983954246   -0.5877191647
N        0.7859369057    1.3764875877   -0.5399460350
H        1.6722296768    0.4527909464    1.1412681901
H        2.0726577407   -1.4416010918   -1.0066484272
H       -0.5099313614   -2.4951265089   -0.4306170863
H       -2.3886429778    0.8141297778    0.3174200101
H       -0.9025592344    2.4323039377   -1.1744886942
C       -0.4373683519   -0.3629900520    0.6969069255
H       -0.6479908469   -0.6181083730    1.7413973993
13   
Frame  22 IRC: Energy =  -286.8951180000 ; +1.1734 kcal/mol
C        0.9859459883    0.2119962136    0.3189007967
C        1.2207815268   -1.0882722793   -0.4364487630
C       -0.0001162417   -1.5719383488   -0.1683276237
C       -1.3283881913    0.6922654063    0.1283065784
C       -0.5227976043    1.5974786070   -0.5887324869
N        0.7857466803    1.3747379607   -0.5421493419
H        1.6696227089    0.4539582972    1.1418014648
H        2.0743823604   -1.4409855716   -1.0048196616
H       -0.5076089957   -2.4984190740   -0.4327001750
H       -2.3872320132    0.8212592479    0.3251232076
H       -0.9024746361    2.4312638608   -1.1760707679
C       -0.4378081541   -0.3629506484    0.6946922358
H       -0.6500534284   -0.6203936714    1.7404245367
13   
Frame  23 IRC: Energy =  -286.8942130000 ; +1.7413 kcal/mol
C        0.9790512287    0.2075161335    0.3180028081
C        1.2207918918   -1.0892185975   -0.4307723116
C        0.0015919847   -1.5804090963   -0.1731334711
C       -1.3334498245    0.7013385498    0.1374545025
C       -0.5243883975    1.5944441614   -0.5938388278
N        0.7805918595    1.3596683948   -0.5556356934
H        1.6607922781    0.4579549092    1.1392514761
H        2.0812912489   -1.4310665973   -0.9955361972
H       -0.4770967466   -2.5170096238   -0.4497816482
H       -2.3842851974    0.8624977268    0.3579808925
H       -0.8968094320    2.4280501922   -1.1862473401
C       -0.4487921867   -0.3686997361    0.6934740658
H       -0.6592887070   -0.6250664166    1.7387817445
13   
Frame  24 IRC: Energy =  -286.8940320000 ; +1.8549 kcal/mol
C        0.9773923612    0.2060167353    0.3178485069
C        1.2219880523   -1.0894920921   -0.4306753561
C        0.0016715393   -1.5791126873   -0.1722567772
C       -1.3347129358    0.7026014374    0.1392147436
C       -0.5249346286    1.5936387429   -0.5942570776
N        0.7805004694    1.3577839311   -0.5576453070
H        1.6600195072    0.4586084290    1.1390296814
H        2.0815000029   -1.4293409904   -0.9938559994
H       -0.4733368961   -2.5210300735   -0.4526860894
H       -2.3836567118    0.8680769350    0.3621392270
H       -0.8960358818    2.4279269005   -1.1878663011
C       -0.4496155098   -0.3698353047    0.6911017767
H       -0.6607793684   -0.6258419632    1.7399089725
13   
Frame  25 IRC: Energy =  -286.8928000000 ; +2.6280 kcal/mol
C        0.9694716342    0.2020631468    0.3174879612
C        1.2159444719   -1.0900900290   -0.4239753447
C        0.0001875650   -1.5912861476   -0.1769490684
C       -1.3373293184    0.7166563358    0.1530616707
C       -0.5245940863    1.5948377712   -0.5943887751
N        0.7757807712    1.3421031079   -0.5701755823
H        1.6568187620    0.4595237520    1.1306515243
H        2.0840925190   -1.4164468793   -0.9853778297
H       -0.4398671053   -2.5427093119   -0.4731856494
H       -2.3847660639    0.8967984971    0.3796137309
H       -0.8881097219    2.4246209107   -1.1973036684
C       -0.4604126995   -0.3708643836    0.6968857378
H       -0.6672167279   -0.6252067700    1.7436552931
13   
Frame  26 IRC: Energy =  -286.8923940000 ; +2.8828 kcal/mol
C        0.9668263821    0.2005866942    0.3176617963
C        1.2179174413   -1.0891704037   -0.4234004344
C       -0.0021516653   -1.5913383474   -0.1755636284
C       -1.3384770799    0.7210555204    0.1560237768
C       -0.5251922788    1.5949071809   -0.5939480042
N        0.7752164613    1.3382935064   -0.5730156101
H        1.6562891091    0.4595739788    1.1282978708
H        2.0836532262   -1.4132533382   -0.9829811906
H       -0.4331209277   -2.5503253022   -0.4788424289
H       -2.3847215296    0.9028457588    0.3830927080
H       -0.8861582624    2.4235816686   -1.1993192657
C       -0.4610721817   -0.3713601939    0.6954374647
H       -0.6690086946   -0.6253967226    1.7465569456
13   
Frame  27 IRC: Energy =  -286.8905100000 ; +4.0650 kcal/mol
C        0.9597131488    0.1946890963    0.3172779584
C        1.2062890422   -1.0933452645   -0.4173517099
C       -0.0042739630   -1.6060642718   -0.1804351689
C       -1.3371704153    0.7373085374    0.1759207389
C       -0.5233528141    1.6007612051   -0.5918859384
N        0.7716111242    1.3257015495   -0.5840438587
H        1.6570423900    0.4605824095    1.1192200286
H        2.0838145638   -1.3982744861   -0.9741171095
H       -0.4008217847   -2.5723938192   -0.5000163227
H       -2.3865565355    0.9212168443    0.3911585283
H       -0.8803038382    2.4236929608   -1.2118229772
C       -0.4718788513   -0.3719059465    0.7033646572
H       -0.6741120669   -0.6219688149    1.7527311739
13   
Frame  28 IRC: Energy =  -286.8874690000 ; +5.9733 kcal/mol
C        0.9528073254    0.1907678919    0.3184991607
C        1.2000522170   -1.0964161222   -0.4125968858
C       -0.0104246202   -1.6253945730   -0.1852721568
C       -1.3347177569    0.7632103173    0.1978986322
C       -0.5219725109    1.6082162356   -0.5931603088
N        0.7697297494    1.3168574166   -0.5947503031
H        1.6595278600    0.4615484368    1.1108359849
H        2.0840255262   -1.3827617111   -0.9659018288
H       -0.3751031009   -2.6099951191   -0.5266048256
H       -2.3902863447    0.9335265684    0.3962773318
H       -0.8760479357    2.4248425893   -1.2248579575
C       -0.4762157876   -0.3638288456    0.7138013607
H       -0.6813746213   -0.6205730850    1.7658317961
13   
Frame  29 IRC: Energy =  -286.8831300000 ; +8.6960 kcal/mol
C        0.9467805531    0.1894240964    0.3199576212
C        1.1927973402   -1.0992607758   -0.4081901987
C       -0.0067260749   -1.6522280381   -0.1974778447
C       -1.3330119626    0.7861603246    0.2151142605
C       -0.5199789594    1.6134552260   -0.5964377951
N        0.7686451237    1.3117070626   -0.6024496274
H        1.6612020182    0.4618061464    1.1047850476
H        2.0845353386   -1.3711559388   -0.9606481424
H       -0.3601074084   -2.6478863325   -0.5498349527
H       -2.3931253515    0.9400866836    0.3996513413
H       -0.8731705959    2.4253415997   -1.2340103452
C       -0.4797336785   -0.3345963775    0.7336393855
H       -0.6881063427   -0.6228536765    1.7759012500
13   
Frame  30 IRC: Energy =  -286.8770180000 ; +12.5314 kcal/mol
C        0.9407027670    0.1894081151    0.3215507458
C        1.1881406270   -1.1010070487   -0.4051467239
C        0.0006718492   -1.6834582933   -0.2129109542
C       -1.3319984168    0.8045705085    0.2288029720
C       -0.5175878979    1.6167525543   -0.6002750856
N        0.7681717028    1.3084282361   -0.6082172611
H        1.6619237222    0.4615037058    1.1000625210
H        2.0839335156   -1.3621153709   -0.9566199077
H       -0.3510873047   -2.6820178840   -0.5693315467
H       -2.3949227176    0.9437663393    0.4022960037
H       -0.8709649414    2.4253504040   -1.2404854636
C       -0.4829408636   -0.2936957657    0.7578210217
H       -0.6940420419   -0.6274855004    1.7824536787
13   
Frame  31 IRC: Energy =  -286.8697600000 ; +17.0858 kcal/mol
C        0.9341788587    0.1901156226    0.3229875652
C        1.1830150432   -1.1026161693   -0.4025925325
C        0.0121820102   -1.7169223160   -0.2307721932
C       -1.3312222412    0.8163859090    0.2402467524
C       -0.5138036958    1.6186867624   -0.6044041540
N        0.7675695873    1.3066083066   -0.6124134876
H        1.6617760565    0.4607974257    1.0965325870
H        2.0827948583   -1.3552955084   -0.9537316983
H       -0.3458934903   -2.7096591194   -0.5845745508
H       -2.3957993257    0.9457788224    0.4044907362
H       -0.8692624803    2.4252158154   -1.2449401125
C       -0.4867368365   -0.2457758889    0.7850981784
H       -0.6987983443   -0.6333196622    1.7840729097
13   
Frame  32 IRC: Energy =  -286.8627850000 ; +21.4627 kcal/mol
C        0.9270039215    0.1911181282    0.3246415926
C        1.1779212516   -1.1039354977   -0.4003043496
C        0.0253124731   -1.7512624682   -0.2494197434
C       -1.3304272448    0.8244292596    0.2506243822
C       -0.5092356689    1.6200019082   -0.6087127432
N        0.7668716219    1.3055340625   -0.6158414815
H        1.6610728513    0.4597884977    1.0934286037
H        2.0811888347   -1.3495683798   -0.9512821758
H       -0.3424574874   -2.7335702233   -0.5975141989
H       -2.3963220093    0.9471713802    0.4065748192
H       -0.8677874881    2.4250542239   -1.2484306033
C       -0.4902106519   -0.1950861550    0.8132861284
H       -0.7029304039   -0.6396747363    1.7829497696
13   
Frame  33 IRC: Energy =  -286.8579890000 ; +24.4723 kcal/mol
C        0.9192980953    0.1920013910    0.3259804510
C        1.1717194017   -1.1056741718   -0.3978656106
C        0.0397504429   -1.7856985483   -0.2684716995
C       -1.3295225566    0.8283596690    0.2614337087
C       -0.5032477342    1.6212293793   -0.6132222565
N        0.7655628332    1.3052161646   -0.6187661011
H        1.6604288469    0.4586352277    1.0908178021
H        2.0794215600   -1.3443333940   -0.9490136068
H       -0.3394944346   -2.7542640737   -0.6088158861
H       -2.3961249374    0.9484362201    0.4085783881
H       -0.8665163235    2.4250459597   -1.2515447595
C       -0.4948896810   -0.1430441786    0.8413940482
H       -0.7063855128   -0.6459096451    1.7794955221
13   
Frame  34 IRC: Energy =  -286.8564680000 ; +25.4267 kcal/mol (Transition State)
C        0.9106125688    0.1936326454    0.3288951973
C        1.1643763170   -1.1080317510   -0.3950643215
C        0.0547334679   -1.8207373500   -0.2876456395
C       -1.3285325868    0.8342362121    0.2720246628
C       -0.4982523731    1.6229841854   -0.6178658107
N        0.7642837613    1.3046466981   -0.6216701308
H        1.6603449850    0.4570966974    1.0876042839
H        2.0769022960   -1.3381162239   -0.9458182129
H       -0.3362457943   -2.7766592735   -0.6209612300
H       -2.3965705172    0.9503460162    0.4108088895
H       -0.8652029395    2.4253196158   -1.2552871486
C       -0.4967270611   -0.0936293099    0.8703756595
H       -0.7097221239   -0.6510881618    1.7746038011
13   
Frame  35 IRC: Energy =  -286.8574900000 ; +24.7854 kcal/mol
C        0.9017296080    0.1955636191    0.3321643519
C        1.1564873149   -1.1108054327   -0.3922104776
C        0.0702297938   -1.8553876718   -0.3068222178
C       -1.3281168651    0.8412985844    0.2820873823
C       -0.4937245574    1.6248293322   -0.6224607408
N        0.7632854271    1.3039867454   -0.6246305251
H        1.6602980817    0.4554775765    1.0842447427
H        2.0742932259   -1.3317000105   -0.9424665105
H       -0.3330339713   -2.7996545850   -0.6333935785
H       -2.3970377033    0.9523161336    0.4130820335
H       -0.8638644385    2.4256206214   -1.2591058016
C       -0.4975338855   -0.0456987325    0.9003455854
H       -0.7130120303   -0.6558461800    1.7691657561
13   
Frame  36 IRC: Energy =  -286.8594930000 ; +23.5285 kcal/mol
C        0.8927895664    0.1987991179    0.3381582024
C        1.1477761353   -1.1141503008   -0.3888208233
C        0.0846249413   -1.8892557261   -0.3247614924
C       -1.3271535783    0.8552594115    0.2914761822
C       -0.4925413910    1.6274446562   -0.6264496580
N        0.7625782090    1.3019008655   -0.6277609233
H        1.6617249524    0.4533421178    1.0794207376
H        2.0705026322   -1.3228264141   -0.9371234472
H       -0.3287003855   -2.8278334825   -0.6484140063
H       -2.3992048600    0.9556749503    0.4157297804
H       -0.8623291241    2.4263559726   -1.2645719644
C       -0.4936797289   -0.0067550547    0.9296753652
H       -0.7163873688   -0.6579561136    1.7634420471
13   
Frame  37 IRC: Energy =  -286.8604340000 ; +22.9380 kcal/mol
C        0.8898425379    0.1984730971    0.3386735063
C        1.1422256532   -1.1156439029   -0.3861694243
C        0.0896874225   -1.9045510632   -0.3322489389
C       -1.3276965854    0.8595218839    0.2989205038
C       -0.4900761048    1.6293097565   -0.6279837079
N        0.7607493536    1.3008665482   -0.6291745062
H        1.6639949661    0.4526413203    1.0776780980
H        2.0692274042   -1.3176499476   -0.9342132284
H       -0.3241117086   -2.8401037931   -0.6557051881
H       -2.3981086056    0.9579541733    0.4169245112
H       -0.8616626556    2.4265840807   -1.2678514644
C       -0.4960604649    0.0107071171    0.9388028582
H       -0.7180112128   -0.6581092703    1.7623469807
13   
Frame  38 IRC: Energy =  -286.8621420000 ; +21.8662 kcal/mol
C        0.8814615382    0.2010654037    0.3453279667
C        1.1341926465   -1.1202668761   -0.3834411372
C        0.0997616569   -1.9321014194   -0.3456410858
C       -1.3248967616    0.8763681345    0.3061346058
C       -0.4915610375    1.6324377462   -0.6289519981
N        0.7602298842    1.2971058920   -0.6328242924
H        1.6663912773    0.4496887591    1.0708827691
H        2.0642701681   -1.3066039101   -0.9266935800
H       -0.3143283450   -2.8682794741   -0.6719685390
H       -2.4017611367    0.9642307097    0.4209143515
H       -0.8597356037    2.4267087983   -1.2742892679
C       -0.4922963812    0.0360722218    0.9609474893
H       -0.7217279056   -0.6564259857    1.7596027179
13   