13   
Frame   0 IRC: Energy =  -286.8969880000 ; +0.0000 kcal/mol
C        1.0042836072    0.2216049221    0.3323543011
C        1.1840799552   -1.0722923328   -0.4629398147
C       -0.0157230430   -1.5629760734   -0.1229705744
C       -1.3127637842    0.6651087789    0.1016386642
C       -0.5104712838    1.6121197592   -0.5576667805
N        0.8035442258    1.4226712253   -0.4715778154
H        1.7326939383    0.4028295862    1.1311373369
H        1.9962824410   -1.4190895109   -1.0936373288
H       -0.5522783367   -2.4767347369   -0.3612575711
H       -2.3971702726    0.6587032431    0.1180217809
H       -0.8933306861    2.4501726519   -1.1360278187
C       -0.4152361736   -0.3466265136    0.7332454093
H       -0.6239105870   -0.5554909989    1.7896802110
