
Running Job 1 of 1 qcfsm.in
qchem qcfsm.in_24954.0 ./qcfsm.d/ 1
/home/leeping/opt/qchem/5.0.2-openmp/exe/qcprog.exe_s qcfsm.in_24954.0 ./qcfsm.d/
Check license passed

                  Welcome to Q-Chem
     A Quantum Leap Into The Future Of Chemistry


 Q-Chem 5.0, Q-Chem, Inc., Pleasanton, CA (2017)

 Yihan Shao,  Zhengting Gan,  E. Epifanovsky,  A. T. B. Gilbert,  M. Wormit,  
 J. Kussmann,  A. W. Lange,  A. Behn,  Jia Deng,  Xintian Feng,  D. Ghosh,  
 M. Goldey,  P. R. Horn,  L. D. Jacobson,  I. Kaliman,  T. Kus,  A. Landau,  
 Jie Liu,  E. I. Proynov,  R. M. Richard,  R. P. Steele,  E. J. Sundstrom,  
 H. L. Woodcock III,  P. M. Zimmerman,  D. Zuev,  B. Albrecht,  E. Alguire,  
 S. A. Baeppler,  D. Barton,  Z. Benda,  Y. A. Bernard,  E. J. Berquist,  
 K. B. Bravaya,  H. Burton,  D. Casanova,  Chun-Min Chang,  Yunqing Chen,  
 A. Chien,  K. D. Closser,  M. P. Coons,  S. Dasgupta,  A. L. Dempwolff,  
 M. Diedenhofen,  Hainam Do,  R. G. Edgar,  Po-Tung Fang,  S. Fatehi,  
 Qingguo Feng,  J. Fosso-Tande,  Qinghui Ge,  A. Ghysels,  G. Gidofalvi,  
 J. Gomes,  J. Gonthier,  A. Gunina,  M. W. D. Hanson-Heine,  
 P. H. P. Harbach,  A. W. Hauser,  J. E. Herr,  E. G. Hohenstein,  
 Z. C. Holden,  Kerwin Hui,  T.-C. Jagau,  Hyunjun Ji,  B. Kaduk,  
 K. Khistyaev,  Jaehoon Kim,  P. Klunzinger,  K. Koh,  D. Kosenkov,  
 L. Koulias,  T. Kowalczyk,  C. M. Krauter,  A. Kunitsa,  Ka Un Lao,  
 A. Laurent,  K. V. Lawler,  Joonho Lee,  D. Lefrancois,  S. Lehtola,  
 D. S. Levine,  Yi-Pei Li,  You-Sheng Lin,  Fenglai Liu,  E. Livshits,  
 A. Luenser,  P. Manohar,  E. Mansoor,  S. F. Manzer,  Shan-Ping Mao,  
 Yuezhi Mao,  N. Mardirossian,  A. V. Marenich,  T. Markovich,  
 L. A. Martinez-Martinez,  S. A. Maurer,  N. J. Mayhall,  S. C. McKenzie,  
 J.-M. Mewes,  A. F. Morrison,  J. W. Mullinax,  K. Nanda,  
 T. S. Nguyen-Beck,  R. Olivares-Amaya,  J. A. Parkhill,  T. M. Perrine,  
 F. Plasser,  S. Prager,  A. Prociuk,  E. Ramos,  D. R. Rehn,  F. Rob,  
 M. Schneider,  N. Sergueev,  S. M. Sharada,  S. Sharma,  D. W. Small,  
 T. Stauch,  T. Stein,  Yu-Chuan Su,  A. J. W. Thom,  A. Tkatchenko,  
 T. Tsuchimochi,  L. Vogt,  O. Vydrov,  M. A. Watson,  J. Wenzel,  
 M. de Wergifosse,  T. A. Wesolowski,  A. White,  J. Witte,  A. Yamada,  
 Jun Yang,  K. Yao,  S. Yeganeh,  S. R. Yost,  Zhi-Qiang You,  A. Zech,  
 Igor Ying Zhang,  Xing Zhang,  Yan Zhao,  Ying Zhu,  B. R. Brooks,  
 G. K. L. Chan,  C. J. Cramer,  M. S. Gordon,  W. J. Hehre,  A. Klamt,  
 M. W. Schmidt,  C. D. Sherrill,  D. G. Truhlar,  A. Aspuru-Guzik,  R. Baer,  
 A. T. Bell,  N. A. Besley,  Jeng-Da Chai,  R. A. DiStasio Jr.,  A. Dreuw,  
 B. D. Dunietz,  T. R. Furlani,  Chao-Ping Hsu,  Yousung Jung,  Jing Kong,  
 D. S. Lambrecht,  WanZhen Liang,  C. Ochsenfeld,  V. A. Rassolov,  
 L. V. Slipchenko,  J. E. Subotnik,  T. Van Voorhis,  J. M. Herbert,  
 A. I. Krylov,  P. M. W. Gill,  M. Head-Gordon

 Contributors to earlier versions of Q-Chem not listed above: 
 R. D. Adamson,  B. Austin,  J. Baker,  G. J. O. Beran,  K. Brandhorst,  
 S. T. Brown,  E. F. C. Byrd,  A. K. Chakraborty,  C.-L. Cheng,  
 Siu Hung Chien,  D. M. Chipman,  D. L. Crittenden,  H. Dachsel,  
 R. J. Doerksen,  A. D. Dutoi,  L. Fusti-Molnar,  W. A. Goddard III,  
 A. Golubeva-Zadorozhnaya,  S. R. Gwaltney,  G. Hawkins,  A. Heyden,  
 S. Hirata,  G. Kedziora,  F. J. Keil,  C. Kelley,  Jihan Kim,  R. A. King,  
 R. Z. Khaliullin,  P. P. Korambath,  W. Kurlancheek,  A. M. Lee,  M. S. Lee,  
 S. V. Levchenko,  Ching Yeh Lin,  D. Liotard,  R. C. Lochan,  I. Lotan,  
 P. E. Maslen,  N. Nair,  D. P. O'Neill,  D. Neuhauser,  E. Neuscamman,  
 C. M. Oana,  R. Olson,  B. Peters,  R. Peverati,  P. A. Pieniazek,  
 Y. M. Rhee,  J. Ritchie,  M. A. Rohrdanz,  E. Rosta,  N. J. Russ,  
 H. F. Schaefer III,  N. E. Schultz,  N. Shenvi,  A. C. Simmonett,  A. Sodt,  
 D. Stuck,  K. S. Thanthiriwatte,  V. Vanovschi,  Tao Wang,  A. Warshel,  
 C. F. Williams,  Q. Wu,  X. Xu,  W. Zhang

 Please cite Q-Chem as follows:
 Y. Shao et al., Mol. Phys. 113, 184-215 (2015)
 DOI: 10.1080/00268976.2014.952696

 Q-Chem 5.0.2 for Intel X86 EM64T Linux

 Parts of Q-Chem use Armadillo 5.200.1 (Boston Tea Smuggler).
 http://arma.sourceforge.net/

 Q-Chem begins on Wed Mar  2 16:50:05 2022  

Host: 
0

     Scratch files written to ./qcfsm.d//
 Dec517 15110_ 26548  26544 5633   
Processing $rem in /home/leeping/opt/qchem/5.0.2-openmp/config/preferences.
 MEM_STATIC 2000
 MEM_TOTAL  8000
 SYMMETRY   OFF
 SYM_IGNORE TRUE 
 Now reading second FSM geometry

Checking the input file for inconsistencies... 	...done.

--------------------------------------------------------------
User input:
--------------------------------------------------------------
$molecule
0 2
C        1.5716783180    0.3989309435   -0.4775925785
C        1.2450735921   -0.9105411304   -0.1791091331
C       -0.0290881275   -1.4371880166    0.2393437652
C       -1.3727347365    0.6809606595    0.2509144424
C       -0.4441272494    1.6245769181   -0.1461701627
N        0.8658173121    1.5538657580   -0.4802257371
H        2.6109892053    0.5554258812   -0.7749337823
H        2.0544341133   -1.6304843322   -0.2739414599
H       -0.0620061770   -2.5095789697    0.4210025955
H       -2.3717034157    1.0600360688    0.4526484073
H       -0.8270440457    2.6455119117   -0.2102187527
C       -1.1823404522   -0.7359821613    0.4290109163
H       -2.0589483362   -1.2955335303    0.7492714800
****
C        0.6494309750    0.0839862179    0.2983322321
C        1.0799737859   -1.2140661537   -0.3597843021
C        0.4228154477   -2.3485818540   -0.3095041724
C       -1.3982601824    1.1290312803    0.3414389654
C       -0.4704153827    1.7516647742   -0.6140221359
N        0.6894297683    1.1906028703   -0.6756406850
H        1.3932951277    0.3330076758    1.0755996055
H        2.0230753135   -1.1395481907   -0.9138067931
H        0.5523013233   -3.3546941907   -0.6880575142
H       -2.4150483560    1.4503882387    0.5372059113
H       -0.7061292583    2.6171070148   -1.2324926230
C       -0.7327005204    0.1007431991    0.8971880473
H       -1.0877680418   -0.5996408818    1.6435434643
$end

$rem
method                b3lyp
basis                 6-31g(d)
unrestricted          true
symmetry              off
sym_ignore            true
incdft                false
incfock               0
scf_convergence       8
thresh                14
jobtype               fsm
scf_guess             core
scf_guess_mix         5
scf_algorithm         diis
max_scf_cycles        100
fsm_nnode             21
fsm_ngrad             6
fsm_mode              2
fsm_opt_mode          2
$end

--------------------------------------------------------------
 ----------------------------------------------------------------
             Standard Nuclear Orientation (Angstroms)
    I     Atom           X                Y                Z
 ----------------------------------------------------------------
    1      C       1.5716783180     0.3989309435    -0.4775925785
    2      C       1.2450735921    -0.9105411304    -0.1791091331
    3      C      -0.0290881275    -1.4371880166     0.2393437652
    4      C      -1.3727347365     0.6809606595     0.2509144424
    5      C      -0.4441272494     1.6245769181    -0.1461701627
    6      N       0.8658173121     1.5538657580    -0.4802257371
    7      H       2.6109892053     0.5554258812    -0.7749337823
    8      H       2.0544341133    -1.6304843322    -0.2739414599
    9      H      -0.0620061770    -2.5095789697     0.4210025955
   10      H      -2.3717034157     1.0600360688     0.4526484073
   11      H      -0.8270440457     2.6455119117    -0.2102187527
   12      C      -1.1823404522    -0.7359821613     0.4290109163
   13      H      -2.0589483362    -1.2955335303     0.7492714800
 ----------------------------------------------------------------
 Nuclear Repulsion Energy =   260.7288710734 hartrees
 There are       25 alpha and       24 beta electrons
 Requested basis set is 6-31G(d)
 There are 40 shells and 117 basis functions

 Total QAlloc Memory Limit   8000 MB
 Mega-Array Size      1956 MB
 MEM_STATIC part      2000 MB
 beginning FSman 

*******************************************
*******************************************
******** Starting FSM Calculation *********
*******************************************
*******************************************
-FSM parameters:
 Maximum displacement of each coordinate during optimization (Angstrom)      0.05
 Maximum optimization steps for each new node                                6
 The scaling factor for optimization (hartrees/Angstrom^2)                   1.75
 The number of LST interpolations used for reparameterization                100
-Aligning product structure to maximum coincidence with the reactant structure
 Total R --> P Distance 4.023281
 New node interpolation distace (Angstroms): 0.19
-Performing force calculation on reactant structure in state:0
 ----------------------------------------------------------------
             Standard Nuclear Orientation (Angstroms)
    I     Atom           X                Y                Z
 ----------------------------------------------------------------
    1      C       1.5716783180     0.3989309435    -0.4775925785
    2      C       1.2450735921    -0.9105411304    -0.1791091331
    3      C      -0.0290881275    -1.4371880166     0.2393437652
    4      C      -1.3727347365     0.6809606595     0.2509144424
    5      C      -0.4441272494     1.6245769181    -0.1461701627
    6      N       0.8658173121     1.5538657580    -0.4802257371
    7      H       2.6109892053     0.5554258812    -0.7749337823
    8      H       2.0544341133    -1.6304843322    -0.2739414599
    9      H      -0.0620061770    -2.5095789697     0.4210025955
   10      H      -2.3717034157     1.0600360688     0.4526484073
   11      H      -0.8270440457     2.6455119117    -0.2102187527
   12      C      -1.1823404522    -0.7359821613     0.4290109163
   13      H      -2.0589483362    -1.2955335303     0.7492714800
 ----------------------------------------------------------------
 Nuclear Repulsion Energy =   260.7288710734 hartrees
 There are       25 alpha and       24 beta electrons

                       Distance Matrix (Angstroms)
             C (  1)   C (  2)   C (  3)   C (  4)   C (  5)   N (  6)
   C (  2)  1.382201
   C (  3)  2.539249  1.440815
   C (  4)  3.046282  3.093658  2.508401
   C (  5)  2.382335  3.046524  3.113725  1.382172
   N (  6)  1.353559  2.511535  3.203910  2.511502  1.353716
   H (  7)  1.092277  2.090405  3.459664  4.115602  3.297296  2.032083
   H (  8)  2.095961  1.087371  2.154505  4.166982  4.105430  3.405209
   H (  9)  3.454827  2.150701  1.088166  3.453474  4.190340  4.264347
   H ( 10)  4.105200  4.166937  3.430667  1.087351  2.095910  3.405240
   H ( 11)  3.297345  4.115842  4.184170  2.090427  1.092262  2.032332
   C ( 12)  3.113612  2.508509  1.362958  1.440727  2.539297  3.203914
   H ( 13)  4.190209  3.453501  2.097719  2.150762  3.454925  4.264387
             H (  7)   H (  8)   H (  9)   H ( 10)   H ( 11)   C ( 12)
   H (  8)  2.310617
   H (  9)  4.239036  2.394801
   H ( 10)  5.156434  5.230442  4.251806
   H ( 11)  4.062934  5.156658  5.249637  2.310649
   C ( 12)  4.184085  3.430887  2.097822  2.154257  3.459675
   H ( 13)  5.249530  4.251949  2.359967  2.394684  4.239109  1.088166

 
 Requested basis set is 6-31G(d)
 There are 40 shells and 117 basis functions
 A cutoff of  1.0D-14 yielded    791 shell pairs
 There are      7063 function pairs
 
 -------------------------------------------------------
 OpenMP Integral Computing Module                       
 Release: version 1.0, May 2013, Q-Chem Inc. Pittsburgh 
 -------------------------------------------------------
 Integral Job Info:
 Integral job number is                      11
 Integral operator is                         1
 short-range coefficients                     0
 long-range coefficients              100000000
 Omega coefficients                           0
 if combine SR and LR in K                    0
 Integral screening is                        0
 Integral computing path is                   2
 max size of driver memory is            800000
 size of driver memory is                593474
 size of scratch memory is              2361544
 max col of scratch BK array               1296
 max len of scratch array in speh3          155
 max len of scratch index in speh4           18
 max int batch size is                      520
 min int batch size is                       52
 fixed nKL is                                52
 max L of basis functions is                  2
 order of int derivative is                   0
 number of shells is                         40
 number of basis is                         117
 number of cartesian basis is               117
 number of contracted shell pairs           791
 number of primitive shell pairs           3395
 maxK2 (contraction) of shell pair           36
 max number of K2 of shell pair               1
 max number of CS2 of shell pair             94
 max number of PS2 of shell pair            402
 mem total for path MDJ                  535308
 -------------------------------------------------------
 Smallest overlap matrix eigenvalue = 1.33E-03

 Scale SEOQF with 1.000000e-01/1.000000e-01/1.000000e+00

 Standard Electronic Orientation quadrupole field applied
 Nucleus-field energy     =     0.0000000007 hartrees
 Guess MOs from core Hamiltonian diagonalization
 Mixing HOMO and LUMO in initial guess
 Adding  50% of the LUMO to the HOMO
 An unrestricted hybrid HF-DFT SCF calculation will be
 performed using Pulay DIIS extrapolation
 Exchange:     0.2000 Hartree-Fock + 0.0800 Slater + 0.7200 B88
 Correlation:  0.1900 VWN1RPA + 0.8100 LYP
 Using SG-1 standard quadrature grid
 SCF converges when DIIS error is below 1.0E-08
 using 4 threads for integral computing
 -------------------------------------------------------
 OpenMP Integral computing Module                
 Release: version 1.0, May 2013, Q-Chem Inc. Pittsburgh 
 -------------------------------------------------------
 -------------------------------------------------------
 OpenMP BLAS3 based DFT computing Module                
 Release: version 1.0, May 2013, Q-Chem Inc. Pittsburgh 
 -------------------------------------------------------
 ---------------------------------------
  Cycle       Energy         DIIS Error
 ---------------------------------------
    1    -239.4873256585      1.26E-01
    2    -227.9035914199      1.03E-01
    3    -250.2661988847      1.03E-01
    4    -281.9085108612      4.85E-02
    5    -282.4573975366      4.73E-02
    6    -285.5325521415      2.31E-02
    7    -286.6139493384      1.25E-02
    8    -286.8610344979      4.93E-03
    9    -286.9210475226      8.95E-04
   10    -286.9229908653      7.33E-04
   11    -286.9239992595      1.83E-04
   12    -286.9241971694      8.68E-05
   13    -286.9242741460      5.24E-05
   14    -286.9243360586      1.18E-05
   15    -286.9243450398      4.32E-06
   16    -286.9243470993      1.74E-06
   17    -286.9243472431      7.77E-07
   18    -286.9243472764      2.70E-07
   19    -286.9243472807      1.57E-07
   20    -286.9243472822      1.43E-07
   21    -286.9243472831      6.88E-08
   22    -286.9243472835      1.70E-08
   23    -286.9243472835      2.93E-09 Convergence criterion met
 ---------------------------------------
 <S^2> = 0.7684
 SCF time:  CPU 57.60 s  wall 22.60 s
 SCF   energy in the final basis set = -286.92434728
 Total energy in the final basis set = -286.92434728
 
 --------------------------------------------------------------
 
                    Orbital Energies (a.u.)
 --------------------------------------------------------------
 
 Alpha MOs
 -- Occupied --
-14.322 -10.232 -10.232 -10.212 -10.211 -10.201 -10.201  -0.922
 -0.818  -0.784  -0.693  -0.667  -0.551  -0.537  -0.518  -0.449
 -0.439  -0.414  -0.394  -0.386  -0.349  -0.322  -0.299  -0.251
 -0.162
 -- Virtual --
 -0.072   0.077   0.097   0.101   0.117   0.142   0.181   0.184
  0.193   0.213   0.266   0.320   0.356   0.390   0.412   0.483
  0.496   0.521   0.547   0.576   0.584   0.587   0.591   0.610
  0.619   0.624   0.646   0.658   0.714   0.718   0.833   0.840
  0.847   0.854   0.868   0.872   0.885   0.922   0.965   0.975
  1.024   1.027   1.043   1.127   1.177   1.185   1.300   1.303
  1.326   1.401   1.429   1.480   1.482   1.546   1.574   1.586
  1.682   1.732   1.769   1.829   1.850   1.919   1.925   2.030
  2.046   2.048   2.100   2.141   2.141   2.191   2.247   2.391
  2.410   2.414   2.446   2.545   2.577   2.601   2.614   2.739
  2.749   2.807   3.052   3.250   3.250   4.018   4.046   4.102
  4.196   4.239   4.532   4.595
 
 Beta MOs
 -- Occupied --
-14.314 -10.233 -10.233 -10.210 -10.210 -10.196 -10.196  -0.911
 -0.809  -0.777  -0.681  -0.665  -0.546  -0.535  -0.514  -0.447
 -0.438  -0.411  -0.383  -0.373  -0.348  -0.295  -0.276  -0.241
 -- Virtual --
 -0.078  -0.070   0.078   0.118   0.124   0.125   0.142   0.182
  0.187   0.196   0.219   0.268   0.324   0.360   0.393   0.415
  0.486   0.505   0.525   0.551   0.587   0.588   0.592   0.596
  0.614   0.624   0.629   0.649   0.676   0.716   0.729   0.834
  0.843   0.846   0.869   0.875   0.880   0.887   0.925   0.967
  0.979   1.026   1.030   1.045   1.133   1.180   1.189   1.311
  1.315   1.333   1.411   1.429   1.489   1.492   1.560   1.582
  1.597   1.685   1.737   1.781   1.831   1.854   1.922   1.933
  2.036   2.058   2.061   2.110   2.141   2.147   2.203   2.259
  2.399   2.422   2.426   2.448   2.558   2.579   2.611   2.624
  2.743   2.761   2.810   3.054   3.252   3.254   4.030   4.053
  4.109   4.201   4.239   4.537   4.601
 --------------------------------------------------------------
 
          Ground-State Mulliken Net Atomic Charges

     Atom                 Charge (a.u.)    Spin (a.u.)
  --------------------------------------------------------
      1 C                     0.035668      -0.112700
      2 C                    -0.131528       0.347156
      3 C                    -0.111401       0.093580
      4 C                    -0.131400       0.346737
      5 C                     0.035499      -0.112478
      6 N                    -0.423467       0.386931
      7 H                     0.142590       0.003406
      8 H                     0.134392      -0.018342
      9 H                     0.141957      -0.006629
     10 H                     0.134344      -0.018321
     11 H                     0.142640       0.003394
     12 C                    -0.111243       0.093910
     13 H                     0.141948      -0.006645
  --------------------------------------------------------
  Sum of atomic charges =     0.000000
  Sum of spin   charges =     1.000000

 -----------------------------------------------------------------
                    Cartesian Multipole Moments
 -----------------------------------------------------------------
    Charge (ESU x 10^10)
                 0.0000
    Dipole Moment (Debye)
         X      -1.0543      Y      -1.8922      Z       0.5856
       Tot       2.2439
    Quadrupole Moments (Debye-Ang)
        XX     -36.6367     XY      -3.5518     YY     -40.2401
        XZ      -1.1862     YZ       0.4347     ZZ     -43.1217
    Octopole Moments (Debye-Ang^2)
       XXX      -8.7071    XXY      -8.8398    XYY     -11.5623
       YYY     -27.2461    XXZ       2.2480    XYZ       2.3966
       YYZ       5.8189    XZZ      -3.4023    YZZ      -6.4073
       ZZZ       5.0944
    Hexadecapole Moments (Debye-Ang^3)
      XXXX    -354.8493   XXXY       1.7943   XXYY    -131.7670
      XYYY     -17.3824   YYYY    -395.9104   XXXZ      32.1371
      XXYZ       9.7776   XYYZ      17.3780   YYYZ      29.9847
      XXZZ     -78.7717   XYZZ       2.4664   YYZZ     -85.9232
      XZZZ      47.0049   YZZZ      29.6564   ZZZZ     -78.0906
 -----------------------------------------------------------------
 Calculating analytic gradient of the SCF energy
 Gradient of SCF Energy
            1           2           3           4           5           6
    1  -0.0000059   0.0000169  -0.0000543  -0.0000196   0.0000057  -0.0000150
    2  -0.0000065   0.0000151   0.0000368   0.0000085   0.0000064   0.0000063
    3  -0.0000134   0.0000025  -0.0000030   0.0000085  -0.0000102  -0.0000035
            7           8           9          10          11          12
    1  -0.0000022   0.0000064   0.0000013  -0.0000035  -0.0000038   0.0000756
    2   0.0000098   0.0000069   0.0000069  -0.0000209  -0.0000001  -0.0000615
    3   0.0000025   0.0000034   0.0000006  -0.0000023   0.0000071   0.0000017
           13
    1  -0.0000018
    2  -0.0000077
    3   0.0000061
 Max gradient component =       7.556E-05
 RMS gradient           =       2.053E-05
 Gradient time:  CPU 7.22 s  wall 1.93 s
-Performing force calculation on product structure in state0
 ----------------------------------------------------------------
             Standard Nuclear Orientation (Angstroms)
    I     Atom           X                Y                Z
 ----------------------------------------------------------------
    1      C       0.6496320961     0.0839019996     0.2979177589
    2      C       1.0795575847    -1.2142547345    -0.3603964610
    3      C       0.4222544575    -2.3486652246    -0.3096373626
    4      C      -1.3978687256     1.1292683900     0.3422567251
    5      C      -0.4705298623     1.7517031818    -0.6138248190
    6      N       0.6891888193     1.1904571619    -0.6761430710
    7      H       1.3940251477     0.3328516964     1.0747016202
    8      H       2.0223210502    -1.1399150717    -0.9150179547
    9      H       0.5513448716    -3.3548191853    -0.6882151367
   10      H      -2.4144831640     1.4507947979     0.5386467312
   11      H      -0.7064990573     2.6171470386    -1.2321956755
   12      C      -0.7321187532     0.1009081952     0.8976443083
   13      H      -1.0868244641    -0.5993782449     1.6442633373
 ----------------------------------------------------------------
 Nuclear Repulsion Energy =   259.7824472817 hartrees
 There are       25 alpha and       24 beta electrons

                       Distance Matrix (Angstroms)
             C (  1)   C (  2)   C (  3)   C (  4)   C (  5)   N (  6)
   C (  2)  1.517704
   C (  3)  2.517580  1.312064
   C (  4)  2.299351  3.481876  3.979175
   C (  5)  2.206263  3.356174  4.207448  1.470195
   N (  6)  1.474728  2.456567  3.568048  2.323078  1.289895
   H (  7)  1.104305  2.133526  3.170373  2.994232  2.888049  2.073099
   H (  8)  2.203002  1.096328  2.094702  4.292742  3.829684  2.695355
   H (  9)  3.578676  2.229011  1.082742  4.996834  5.208295  4.547382
   H ( 10)  3.363800  4.485431  4.816904  1.084183  2.279845  3.343093
   H ( 11)  3.255406  4.316210  5.175373  2.273912  1.089521  2.071855
   C ( 12)  1.506385  2.567974  2.964881  1.345066  2.253462  2.384122
   H ( 13)  2.301043  3.014954  3.025732  2.186364  3.317584  3.426663
             H (  7)   H (  8)   H (  9)   H ( 10)   H ( 11)   C ( 12)
   H (  8)  2.553974
   H (  9)  4.173356  2.668522
   H ( 10)  4.005232  5.339490  5.778862
   H ( 11)  3.866779  4.654307  6.127191  2.722769
   C ( 12)  2.146074  3.523113  4.013014  2.186647  3.296715
   H ( 13)  2.710732  4.063113  3.964405  2.681096  4.331824  1.083355

 
 Applying Cartesian multipole field
    Component          Value
    ---------          -----
     (2,0,0)        1.00000E-11
     (0,2,0)        2.00000E-11
     (0,0,2)       -3.00000E-10
 Nucleus-field energy     =    -0.0000000126 hartrees
 Requested basis set is 6-31G(d)
 There are 40 shells and 117 basis functions
 A cutoff of  1.0D-14 yielded    791 shell pairs
 There are      7028 function pairs
 Smallest overlap matrix eigenvalue = 1.47E-03
 Guess MOs from core Hamiltonian diagonalization
 Mixing HOMO and LUMO in initial guess
 Adding  50% of the LUMO to the HOMO
 An unrestricted hybrid HF-DFT SCF calculation will be
 performed using Pulay DIIS extrapolation
 Exchange:     0.2000 Hartree-Fock + 0.0800 Slater + 0.7200 B88
 Correlation:  0.1900 VWN1RPA + 0.8100 LYP
 Using SG-1 standard quadrature grid
 SCF converges when DIIS error is below 1.0E-08
 using 4 threads for integral computing
 -------------------------------------------------------
 OpenMP Integral computing Module                
 Release: version 1.0, May 2013, Q-Chem Inc. Pittsburgh 
 -------------------------------------------------------
 -------------------------------------------------------
 OpenMP BLAS3 based DFT computing Module                
 Release: version 1.0, May 2013, Q-Chem Inc. Pittsburgh 
 -------------------------------------------------------
 ---------------------------------------
  Cycle       Energy         DIIS Error
 ---------------------------------------
    1    -227.9775340827      1.39E-01
    2    -178.3332676498      1.41E-01
    3    -241.9993916465      9.94E-02
    4    -227.1059665396      1.31E-01
    5    -285.6145045486      2.17E-02
    6    -284.2372247257      3.46E-02
    7    -286.6419600253      8.49E-03
    8    -286.7794126577      6.18E-03
    9    -286.8469491852      1.04E-03
   10    -286.8492087731      7.84E-04
   11    -286.8503484427      1.55E-04
   12    -286.8504654203      8.28E-05
   13    -286.8505120638      1.91E-05
   14    -286.8505343348      8.63E-06
   15    -286.8505437165      4.46E-06
   16    -286.8505488993      1.48E-06
   17    -286.8505517466      6.18E-07
   18    -286.8505524616      1.69E-07
   19    -286.8505525942      9.52E-08
   20    -286.8505526272      3.93E-08
   21    -286.8505526376      1.60E-08
   22    -286.8505526394      8.68E-09 Convergence criterion met
 ---------------------------------------
 <S^2> = 0.7608
 SCF time:  CPU 54.12 s  wall 20.72 s
 SCF   energy in the final basis set = -286.85055264
 Total energy in the final basis set = -286.85055264
 
 --------------------------------------------------------------
 
                    Orbital Energies (a.u.)
 --------------------------------------------------------------
 
 Alpha MOs
 -- Occupied --
-14.321 -10.227 -10.224 -10.209 -10.202 -10.201 -10.196  -0.943
 -0.790  -0.765  -0.704  -0.595  -0.556  -0.537  -0.507  -0.469
 -0.446  -0.405  -0.398  -0.370  -0.326  -0.274  -0.265  -0.254
 -0.234
 -- Virtual --
 -0.035   0.017   0.072   0.119   0.123   0.151   0.158   0.161
  0.166   0.200   0.239   0.281   0.302   0.351   0.405   0.444
  0.498   0.521   0.537   0.540   0.558   0.571   0.605   0.610
  0.625   0.640   0.657   0.674   0.703   0.724   0.748   0.798
  0.803   0.842   0.848   0.854   0.883   0.894   0.898   0.908
  0.950   1.008   1.024   1.035   1.109   1.114   1.164   1.327
  1.401   1.419   1.464   1.491   1.529   1.539   1.570   1.631
  1.658   1.739   1.818   1.853   1.888   1.918   1.969   1.994
  2.021   2.079   2.089   2.177   2.195   2.254   2.277   2.303
  2.328   2.403   2.490   2.549   2.568   2.585   2.624   2.731
  2.760   2.848   2.897   2.961   3.036   3.926   4.056   4.086
  4.189   4.280   4.409   4.565
 
 Beta MOs
 -- Occupied --
-14.321 -10.226 -10.224 -10.204 -10.201 -10.196 -10.193  -0.943
 -0.782  -0.764  -0.692  -0.587  -0.555  -0.529  -0.504  -0.458
 -0.441  -0.403  -0.397  -0.365  -0.324  -0.268  -0.261  -0.252
 -- Virtual --
 -0.072  -0.035   0.028   0.073   0.120   0.130   0.153   0.158
  0.161   0.172   0.201   0.240   0.282   0.308   0.355   0.425
  0.445   0.506   0.527   0.539   0.553   0.565   0.580   0.611
  0.622   0.631   0.643   0.659   0.676   0.706   0.724   0.757
  0.798   0.805   0.843   0.848   0.854   0.895   0.900   0.903
  0.911   0.953   1.012   1.037   1.041   1.112   1.124   1.165
  1.328   1.402   1.421   1.466   1.493   1.534   1.542   1.575
  1.634   1.704   1.761   1.839   1.859   1.903   1.922   1.976
  2.008   2.027   2.083   2.093   2.182   2.199   2.257   2.278
  2.311   2.329   2.412   2.495   2.550   2.570   2.587   2.626
  2.737   2.763   2.859   2.906   2.961   3.039   3.925   4.069
  4.100   4.196   4.283   4.409   4.566
 --------------------------------------------------------------
 
          Ground-State Mulliken Net Atomic Charges

     Atom                 Charge (a.u.)    Spin (a.u.)
  --------------------------------------------------------
      1 C                    -0.069618       0.042893
      2 C                    -0.103026      -0.167428
      3 C                    -0.198428       1.040352
      4 C                    -0.142511       0.000406
      5 C                     0.055909       0.004690
      6 N                    -0.377438      -0.003421
      7 H                     0.180857      -0.004337
      8 H                     0.163962       0.078629
      9 H                     0.163942       0.004928
     10 H                     0.140222       0.000130
     11 H                     0.143485      -0.000136
     12 C                    -0.110509       0.002813
     13 H                     0.153153       0.000481
  --------------------------------------------------------
  Sum of atomic charges =    -0.000000
  Sum of spin   charges =     1.000000

 -----------------------------------------------------------------
                    Cartesian Multipole Moments
 -----------------------------------------------------------------
    Charge (ESU x 10^10)
                 0.0000
    Dipole Moment (Debye)
         X      -0.9649      Y      -0.5567      Z       1.0307
       Tot       1.5176
    Quadrupole Moments (Debye-Ang)
        XX     -38.9378     XY      -4.4532     YY     -37.6495
        XZ       0.5203     YZ       1.0303     ZZ     -41.1316
    Octopole Moments (Debye-Ang^2)
       XXX      -6.8462    XXY      -2.2965    XYY      -5.8814
       YYY     -15.9545    XXZ       4.5005    XYZ       6.0007
       YYZ      -5.2780    XZZ      -2.9056    YZZ      -4.2184
       ZZZ       9.0810
    Hexadecapole Moments (Debye-Ang^3)
      XXXX    -237.2511   XXXY      64.3209   XXYY    -131.1729
      XYYY      56.6356   YYYY    -469.6675   XXXZ      27.4589
      XXYZ       7.3253   XYYZ      11.4105   YYYZ      12.0600
      XXZZ     -63.0621   XYZZ      23.8730   YYZZ    -109.1849
      XZZZ      34.1269   YZZZ      -0.5761   ZZZZ    -137.4539
 -----------------------------------------------------------------
 Calculating analytic gradient of the SCF energy
 Gradient of SCF Energy
            1           2           3           4           5           6
    1   0.0000118  -0.0000500  -0.0000000   0.0000057  -0.0000327   0.0000099
    2  -0.0000170   0.0000138  -0.0000071   0.0000101  -0.0000292   0.0000221
    3   0.0000440  -0.0000903  -0.0000294   0.0000100  -0.0000490   0.0000464
            7           8           9          10          11          12
    1  -0.0000083   0.0000162   0.0000142   0.0000048   0.0000147   0.0000229
    2  -0.0000008   0.0000095  -0.0000005  -0.0000030   0.0000318  -0.0000117
    3   0.0000225   0.0000188  -0.0000088   0.0000035   0.0000417  -0.0000006
           13
    1  -0.0000091
    2  -0.0000180
    3  -0.0000089
 Max gradient component =       9.025E-05
 RMS gradient           =       2.638E-05
 Gradient time:  CPU 7.28 s  wall 2.08 s

STARTING FREEZING STRING ITERATION # 1
 The distance between the innermost nodes (Angstroms): 4.023
-Adding two new nodes
 The distance between the previous and current R_nodes (Angstroms): 0.1903
 The distance between the previous and current P_nodes (Angstroms): 0.1782
-Optimizing new reactant side node
 Using BFGS, step: 2 E_tol 0.0738
 max_steps 6, node_spacing 0.1916, sigma 0.7000
 ----------------------------------------------------------------
             Standard Nuclear Orientation (Angstroms)
    I     Atom           X                Y                Z
 ----------------------------------------------------------------
    1      C       1.5452915284     0.3921880621    -0.4468943366
    2      C       1.2407923404    -0.9335654204    -0.1907640056
    3      C      -0.0082180907    -1.4992924502     0.2109680889
    4      C      -1.3816154432     0.7046991328     0.2571335069
    5      C      -0.4558188350     1.6399204322    -0.1704027066
    6      N       0.8480321194     1.5525119812    -0.4951225270
    7      H       2.5959247893     0.5693171461    -0.6924918427
    8      H       2.0641312102    -1.6350191300    -0.3058947084
    9      H      -0.0376129610    -2.5745253545     0.3704450104
   10      H      -2.3805379121     1.0840725012     0.4592448824
   11      H      -0.8317549244     2.6613354605    -0.2621098017
   12      C      -1.1760335549    -0.6983610959     0.4591701981
   13      H      -2.0379579737    -1.2641662622     0.8074024451
 ----------------------------------------------------------------
 Nuclear Repulsion Energy =   259.6578918704 hartrees
 There are       25 alpha and       24 beta electrons

                       Distance Matrix (Angstroms)
             C (  1)   C (  2)   C (  3)   C (  4)   C (  5)   N (  6)
   C (  2)  1.384177
   C (  3)  2.534536  1.428798
   C (  4)  3.026566  3.124347  2.597293
   C (  5)  2.374390  3.082488  3.193814  1.383664
   N (  6)  1.354566  2.535247  3.247343  2.501201  1.346518
   H (  7)  1.093400  2.084891  3.446294  4.091570  3.275959  2.015132
   H (  8)  2.097295  1.087740  2.140140  4.202910  4.134457  3.416879
   H (  9)  3.460494  2.154536  1.087393  3.545771  4.269539  4.308829
   H ( 10)  4.088023  4.196118  3.516151  1.087483  2.099992  3.399105
   H ( 11)  3.291432  4.150163  4.267650  2.097710  1.092258  2.026196
   C ( 12)  3.068527  2.513719  1.437668  1.432362  2.526387  3.173948
   H ( 13)  4.142034  3.443231  2.128582  2.147094  3.448621  4.237828
             H (  7)   H (  8)   H (  9)   H ( 10)   H ( 11)   C ( 12)
   H (  8)  2.300296
   H (  9)  4.236638  2.399466
   H ( 10)  5.133873  5.266306  4.345402
   H ( 11)  4.038658  5.181384  5.333388  2.325261
   C ( 12)  4.142584  3.458514  2.196330  2.151256  3.453452
   H ( 13)  5.204250  4.266626  2.430916  2.398500  4.243624  1.088262

 
 Applying Cartesian multipole field
    Component          Value
    ---------          -----
     (2,0,0)        1.00000E-11
     (0,2,0)        2.00000E-11
     (0,0,2)       -3.00000E-10
 Nucleus-field energy     =     0.0000000007 hartrees
 Requested basis set is 6-31G(d)
 There are 40 shells and 117 basis functions
 A cutoff of  1.0D-14 yielded    790 shell pairs
 There are      7062 function pairs
 Smallest overlap matrix eigenvalue = 1.48E-03
 Guess MOs from core Hamiltonian diagonalization
 Mixing HOMO and LUMO in initial guess
 Adding  50% of the LUMO to the HOMO
 An unrestricted hybrid HF-DFT SCF calculation will be
 performed using Pulay DIIS extrapolation
 Exchange:     0.2000 Hartree-Fock + 0.0800 Slater + 0.7200 B88
 Correlation:  0.1900 VWN1RPA + 0.8100 LYP
 Using SG-1 standard quadrature grid
 SCF converges when DIIS error is below 1.0E-08
 using 4 threads for integral computing
 -------------------------------------------------------
 OpenMP Integral computing Module                
 Release: version 1.0, May 2013, Q-Chem Inc. Pittsburgh 
 -------------------------------------------------------
 -------------------------------------------------------
 OpenMP BLAS3 based DFT computing Module                
 Release: version 1.0, May 2013, Q-Chem Inc. Pittsburgh 
 -------------------------------------------------------
 ---------------------------------------
  Cycle       Energy         DIIS Error
 ---------------------------------------
    1    -238.8248252422      1.26E-01
    2    -225.8625599944      1.06E-01
    3    -249.5732720353      1.01E-01
    4    -279.2306617517      6.25E-02
    5    -282.7379087287      4.12E-02
    6    -286.3850936327      1.42E-02
    7    -286.3274137013      1.59E-02
    8    -286.8891504186      3.75E-03
    9    -286.9069445418      2.58E-03
   10    -286.9176874398      2.60E-04
   11    -286.9178918954      1.37E-04
   12    -286.9179488814      5.45E-05
   13    -286.9179881121      2.89E-05
   14    -286.9180106093      2.00E-05
   15    -286.9180233084      1.33E-05
   16    -286.9180381000      9.67E-06
   17    -286.9180477541      3.76E-06
   18    -286.9180492685      2.04E-06
   19    -286.9180497867      1.11E-06
   20    -286.9180498588      4.37E-07
   21    -286.9180498718      2.48E-07
   22    -286.9180498739      5.81E-08
   23    -286.9180498741      1.41E-08
   24    -286.9180498742      3.83E-09 Convergence criterion met
 ---------------------------------------
 <S^2> = 0.7655
 SCF time:  CPU 59.79 s  wall 20.53 s
 SCF   energy in the final basis set = -286.91804987
 Total energy in the final basis set = -286.91804987
 
 --------------------------------------------------------------
 
                    Orbital Energies (a.u.)
 --------------------------------------------------------------
 
 Alpha MOs
 -- Occupied --
-14.321 -10.235 -10.232 -10.221 -10.218 -10.200 -10.200  -0.923
 -0.811  -0.786  -0.686  -0.671  -0.554  -0.533  -0.515  -0.451
 -0.436  -0.418  -0.394  -0.381  -0.351  -0.317  -0.301  -0.251
 -0.156
 -- Virtual --
 -0.079   0.077   0.092   0.098   0.116   0.144   0.173   0.184
  0.193   0.219   0.249   0.318   0.352   0.390   0.401   0.490
  0.498   0.522   0.546   0.571   0.575   0.587   0.591   0.610
  0.616   0.623   0.643   0.658   0.707   0.715   0.828   0.844
  0.846   0.854   0.866   0.870   0.887   0.923   0.944   0.980
  1.016   1.021   1.037   1.128   1.169   1.177   1.295   1.307
  1.327   1.390   1.423   1.470   1.486   1.545   1.571   1.578
  1.668   1.727   1.789   1.819   1.859   1.919   1.922   2.000
  2.026   2.066   2.096   2.126   2.147   2.172   2.244   2.372
  2.396   2.424   2.428   2.528   2.568   2.590   2.607   2.738
  2.749   2.782   3.043   3.212   3.252   4.021   4.033   4.108
  4.185   4.244   4.533   4.581
 
 Beta MOs
 -- Occupied --
-14.313 -10.237 -10.232 -10.220 -10.215 -10.196 -10.196  -0.912
 -0.802  -0.779  -0.675  -0.669  -0.549  -0.531  -0.512  -0.449
 -0.435  -0.414  -0.378  -0.372  -0.350  -0.289  -0.278  -0.242
 -- Virtual --
 -0.076  -0.074   0.079   0.116   0.117   0.125   0.144   0.176
  0.187   0.195   0.225   0.252   0.322   0.356   0.393   0.405
  0.492   0.506   0.526   0.550   0.575   0.585   0.592   0.596
  0.614   0.621   0.627   0.646   0.675   0.709   0.726   0.830
  0.844   0.849   0.868   0.873   0.881   0.889   0.926   0.946
  0.984   1.018   1.023   1.039   1.133   1.174   1.180   1.305
  1.319   1.335   1.397   1.428   1.481   1.495   1.558   1.579
  1.588   1.672   1.730   1.800   1.823   1.863   1.923   1.929
  2.006   2.036   2.079   2.104   2.129   2.151   2.184   2.256
  2.385   2.402   2.430   2.438   2.540   2.570   2.600   2.618
  2.746   2.756   2.785   3.046   3.215   3.255   4.031   4.041
  4.115   4.190   4.245   4.538   4.587
 --------------------------------------------------------------
 
          Ground-State Mulliken Net Atomic Charges

     Atom                 Charge (a.u.)    Spin (a.u.)
  --------------------------------------------------------
      1 C                     0.032442      -0.064291
      2 C                    -0.124240       0.288059
      3 C                    -0.120976       0.170199
      4 C                    -0.135007       0.349455
      5 C                     0.045146      -0.120610
      6 N                    -0.425457       0.367962
      7 H                     0.140379       0.001050
      8 H                     0.134077      -0.015762
      9 H                     0.148500      -0.010051
     10 H                     0.136954      -0.018456
     11 H                     0.143851       0.003922
     12 C                    -0.117035       0.053206
     13 H                     0.141366      -0.004682
  --------------------------------------------------------
  Sum of atomic charges =     0.000000
  Sum of spin   charges =     1.000000

 -----------------------------------------------------------------
                    Cartesian Multipole Moments
 -----------------------------------------------------------------
    Charge (ESU x 10^10)
                 0.0000
    Dipole Moment (Debye)
         X      -1.0984      Y      -1.8362      Z       0.6305
       Tot       2.2306
    Quadrupole Moments (Debye-Ang)
        XX     -36.9127     XY      -3.7095     YY     -39.7632
        XZ      -1.0720     YZ       0.4641     ZZ     -43.3122
    Octopole Moments (Debye-Ang^2)
       XXX      -8.3070    XXY      -8.3101    XYY     -11.1969
       YYY     -27.2493    XXZ       2.7521    XYZ       2.7087
       YYZ       5.6566    XZZ      -3.5047    YZZ      -6.2188
       ZZZ       5.3002
    Hexadecapole Moments (Debye-Ang^3)
      XXXX    -353.4951   XXXY       4.9302   XXYY    -132.5297
      XYYY     -14.4330   YYYY    -399.7246   XXXZ      32.5931
      XXYZ      10.0518   XYYZ      17.3805   YYYZ      29.6475
      XXZZ     -78.7945   XYZZ       3.5788   YYZZ     -87.7575
      XZZZ      46.8669   YZZZ      29.8020   ZZZZ     -78.9967
 -----------------------------------------------------------------
 Calculating analytic gradient of the SCF energy
 Gradient of SCF Energy
            1           2           3           4           5           6
    1  -0.0096053  -0.0049989   0.0447434  -0.0021912  -0.0026764   0.0044233
    2   0.0049198  -0.0023503  -0.0437302   0.0040944  -0.0019396  -0.0021024
    3   0.0030423   0.0032890  -0.0100596  -0.0024129   0.0015476  -0.0030103
            7           8           9          10          11          12
    1   0.0001114  -0.0015422   0.0045367  -0.0002419   0.0010781  -0.0352953
    2   0.0019303  -0.0013345  -0.0020058   0.0010680   0.0001246   0.0428077
    3   0.0004530  -0.0004706  -0.0016401  -0.0006142   0.0004944   0.0093381
           13
    1   0.0016585
    2  -0.0014819
    3   0.0000432
 Max gradient component =       4.474E-02
 RMS gradient           =       1.384E-02
 Gradient time:  CPU 7.07 s  wall 2.22 s
 ----------------------------------------------------------------
             Standard Nuclear Orientation (Angstroms)
    I     Atom           X                Y                Z
 ----------------------------------------------------------------
    1      C       1.5491964547     0.3882825245    -0.4450416460
    2      C       1.2435859720    -0.9343829001    -0.1942643773
    3      C      -0.0354804827    -1.4772304952     0.2141351830
    4      C      -1.3809870346     0.7045488742     0.2593357961
    5      C      -0.4552232450     1.6428477987    -0.1741102728
    6      N       0.8432231239     1.5534220680    -0.4951637999
    7      H       2.5944940312     0.5695647278    -0.6833423369
    8      H       2.0660975343    -1.6345048216    -0.3091769598
    9      H      -0.0380239330    -2.5801260514     0.3659049300
   10      H      -2.3812094578     1.0858914282     0.4602751467
   11      H      -0.8329112898     2.6628986003    -0.2680565192
   12      C      -1.1517316434    -0.7223985182     0.4564896633
   13      H      -2.0364077623    -1.2596981794     0.8136989028
 ----------------------------------------------------------------
 Nuclear Repulsion Energy =   259.9734772936 hartrees
 There are       25 alpha and       24 beta electrons

                       Distance Matrix (Angstroms)
             C (  1)   C (  2)   C (  3)   C (  4)   C (  5)   N (  6)
   C (  2)  1.380482
   C (  3)  2.534927  1.448270
   C (  4)  3.030206  3.127337  2.563707
   C (  5)  2.380134  3.086823  3.172035  1.387559
   N (  6)  1.363254  2.537716  3.234205  2.497392  1.340535
   H (  7)  1.087335  2.079906  3.451319  4.087947  3.272924  2.017507
   H (  8)  2.092203  1.086232  2.171456  4.204375  4.137190  3.419487
   H (  9)  3.462420  2.159811  1.113292  3.550211  4.277754  4.313265
   H ( 10)  4.093207  4.201080  3.483192  1.089148  2.102871  3.395352
   H ( 11)  3.298430  4.154241  4.243710  2.100872  1.091777  2.022855
   C ( 12)  3.056368  2.491177  1.369132  1.458632  2.545029  3.172514
   H ( 13)  4.142080  3.446764  2.100121  2.143633  3.449737  4.233089
             H (  7)   H (  8)   H (  9)   H ( 10)   H ( 11)   C ( 12)
   H (  8)  2.297199
   H (  9)  4.236936  2.403594
   H ( 10)  5.131479  5.269834  4.351909
   H ( 11)  4.037526  5.183977  5.340699  2.326939
   C ( 12)  4.123420  3.431123  2.167880  2.186674  3.476615
   H ( 13)  5.199287  4.269881  2.436716  2.396995  4.243273  1.094962

 
 Applying Cartesian multipole field
    Component          Value
    ---------          -----
     (2,0,0)        1.00000E-11
     (0,2,0)        2.00000E-11
     (0,0,2)       -3.00000E-10
 Nucleus-field energy     =     0.0000000007 hartrees
 Requested basis set is 6-31G(d)
 There are 40 shells and 117 basis functions
 A cutoff of  1.0D-14 yielded    790 shell pairs
 There are      7062 function pairs
 Smallest overlap matrix eigenvalue = 1.38E-03
 Guess MOs from core Hamiltonian diagonalization
 Mixing HOMO and LUMO in initial guess
 Adding  50% of the LUMO to the HOMO
 An unrestricted hybrid HF-DFT SCF calculation will be
 performed using Pulay DIIS extrapolation
 Exchange:     0.2000 Hartree-Fock + 0.0800 Slater + 0.7200 B88
 Correlation:  0.1900 VWN1RPA + 0.8100 LYP
 Using SG-1 standard quadrature grid
 SCF converges when DIIS error is below 1.0E-08
 using 4 threads for integral computing
 -------------------------------------------------------
 OpenMP Integral computing Module                
 Release: version 1.0, May 2013, Q-Chem Inc. Pittsburgh 
 -------------------------------------------------------
 -------------------------------------------------------
 OpenMP BLAS3 based DFT computing Module                
 Release: version 1.0, May 2013, Q-Chem Inc. Pittsburgh 
 -------------------------------------------------------
 ---------------------------------------
  Cycle       Energy         DIIS Error
 ---------------------------------------
    1    -239.3134931390      1.26E-01
    2    -227.6117849507      1.03E-01
    3    -250.1531082068      1.05E-01
    4    -283.2889597300      4.28E-02
    5    -282.8095105903      4.24E-02
    6    -286.4374470350      1.38E-02
    7    -286.6212167501      1.15E-02
    8    -286.9002689123      3.08E-03
    9    -286.9138010592      2.03E-03
   10    -286.9212562590      2.53E-04
   11    -286.9214887577      1.71E-04
   12    -286.9215817439      7.24E-05
   13    -286.9216372249      2.98E-05
   14    -286.9216597465      1.67E-05
   15    -286.9216660053      4.13E-06
   16    -286.9216672808      1.63E-06
   17    -286.9216675467      5.26E-07
   18    -286.9216675613      3.22E-07
   19    -286.9216675652      1.89E-07
   20    -286.9216675677      1.58E-07
   21    -286.9216675692      6.08E-08
   22    -286.9216675696      1.97E-08
   23    -286.9216675696      8.10E-09 Convergence criterion met
 ---------------------------------------
 <S^2> = 0.7688
 SCF time:  CPU 57.28 s  wall 20.05 s
 SCF   energy in the final basis set = -286.92166757
 Total energy in the final basis set = -286.92166757
 
 --------------------------------------------------------------
 
                    Orbital Energies (a.u.)
 --------------------------------------------------------------
 
 Alpha MOs
 -- Occupied --
-14.323 -10.232 -10.230 -10.216 -10.215 -10.203 -10.202  -0.923
 -0.815  -0.783  -0.692  -0.666  -0.552  -0.534  -0.517  -0.449
 -0.435  -0.413  -0.394  -0.390  -0.345  -0.321  -0.298  -0.251
 -0.163
 -- Virtual --
 -0.071   0.075   0.097   0.097   0.117   0.142   0.173   0.183
  0.193   0.212   0.263   0.315   0.356   0.386   0.409   0.484
  0.497   0.519   0.548   0.576   0.583   0.585   0.588   0.610
  0.620   0.624   0.646   0.657   0.708   0.716   0.821   0.838
  0.846   0.853   0.867   0.871   0.883   0.924   0.956   0.972
  1.019   1.029   1.040   1.126   1.175   1.176   1.297   1.305
  1.326   1.394   1.426   1.472   1.486   1.542   1.576   1.577
  1.674   1.729   1.777   1.817   1.862   1.910   1.924   2.018
  2.040   2.048   2.091   2.135   2.144   2.184   2.243   2.388
  2.405   2.411   2.437   2.531   2.579   2.590   2.607   2.732
  2.745   2.804   3.042   3.230   3.245   4.019   4.038   4.099
  4.196   4.238   4.530   4.585
 
 Beta MOs
 -- Occupied --
-14.315 -10.234 -10.231 -10.215 -10.213 -10.198 -10.198  -0.912
 -0.806  -0.776  -0.680  -0.664  -0.547  -0.531  -0.513  -0.447
 -0.434  -0.410  -0.387  -0.372  -0.344  -0.294  -0.274  -0.242
 -- Virtual --
 -0.079  -0.069   0.076   0.117   0.121   0.124   0.142   0.176
  0.187   0.195   0.217   0.264   0.319   0.360   0.388   0.412
  0.487   0.505   0.522   0.552   0.586   0.588   0.590   0.592
  0.614   0.625   0.629   0.649   0.675   0.711   0.727   0.823
  0.841   0.845   0.868   0.873   0.880   0.885   0.926   0.959
  0.976   1.021   1.030   1.042   1.132   1.178   1.180   1.307
  1.318   1.334   1.401   1.429   1.482   1.496   1.555   1.584
  1.588   1.679   1.733   1.788   1.820   1.865   1.914   1.932
  2.024   2.052   2.061   2.101   2.135   2.149   2.195   2.255
  2.395   2.417   2.422   2.440   2.544   2.581   2.601   2.618
  2.736   2.756   2.806   3.044   3.233   3.248   4.031   4.044
  4.106   4.201   4.238   4.535   4.591
 --------------------------------------------------------------
 
          Ground-State Mulliken Net Atomic Charges

     Atom                 Charge (a.u.)    Spin (a.u.)
  --------------------------------------------------------
      1 C                     0.028550      -0.087188
      2 C                    -0.125327       0.309454
      3 C                    -0.114565       0.141568
      4 C                    -0.137511       0.391367
      5 C                     0.043453      -0.135259
      6 N                    -0.421413       0.378436
      7 H                     0.140598       0.002255
      8 H                     0.136604      -0.016645
      9 H                     0.144898      -0.008790
     10 H                     0.137200      -0.020409
     11 H                     0.142076       0.004571
     12 C                    -0.114102       0.044910
     13 H                     0.139540      -0.004271
  --------------------------------------------------------
  Sum of atomic charges =     0.000000
  Sum of spin   charges =     1.000000

 -----------------------------------------------------------------
                    Cartesian Multipole Moments
 -----------------------------------------------------------------
    Charge (ESU x 10^10)
                -0.0000
    Dipole Moment (Debye)
         X      -1.0426      Y      -1.8363      Z       0.6178
       Tot       2.2001
    Quadrupole Moments (Debye-Ang)
        XX     -36.8064     XY      -3.7965     YY     -39.9247
        XZ      -1.0635     YZ       0.5226     ZZ     -43.2770
    Octopole Moments (Debye-Ang^2)
       XXX      -8.1027    XXY      -8.2683    XYY     -10.8302
       YYY     -26.9103    XXZ       2.7679    XYZ       2.6545
       YYZ       5.4701    XZZ      -3.5055    YZZ      -6.2504
       ZZZ       5.3780
    Hexadecapole Moments (Debye-Ang^3)
      XXXX    -351.1099   XXXY       3.7845   XXYY    -132.1190
      XYYY     -15.0511   YYYY    -401.3249   XXXZ      32.4559
      XXYZ      10.2889   XYYZ      17.3557   YYYZ      30.1288
      XXZZ     -78.5325   XYZZ       3.3914   YYZZ     -87.7721
      XZZZ      46.7627   YZZZ      29.9633   ZZZZ     -78.9065
 -----------------------------------------------------------------
 Calculating analytic gradient of the SCF energy
 Gradient of SCF Energy
            1           2           3           4           5           6
    1  -0.0035395   0.0059055  -0.0062914  -0.0091417   0.0040916  -0.0036334
    2  -0.0011405  -0.0047571   0.0014389   0.0104919   0.0010817   0.0038371
    3   0.0027939   0.0006591  -0.0009421  -0.0012383  -0.0011272  -0.0021500
            7           8           9          10          11          12
    1  -0.0034665  -0.0002894   0.0062928  -0.0012186   0.0012822   0.0131525
    2   0.0008901   0.0006600  -0.0169893   0.0033687  -0.0003523   0.0019361
    3   0.0015738  -0.0010910  -0.0002742  -0.0008305   0.0005803   0.0003915
           13
    1  -0.0031441
    2  -0.0004654
    3   0.0016547
 Max gradient component =       1.699E-02
 RMS gradient           =       4.856E-03
 Gradient time:  CPU 7.63 s  wall 2.44 s
 FSM gradient convergence criteria satisfied
done with opt_step_by_gradient, Reactant, iter1
-Optimizing new product side node
 Using BFGS, step: 2 E_tol 0.0737946
 max_steps 6, node_spacing 0.1915848, sigma 0.7000000
 ----------------------------------------------------------------
             Standard Nuclear Orientation (Angstroms)
    I     Atom           X                Y                Z
 ----------------------------------------------------------------
    1      C       0.7062130240     0.1069584220     0.2760694401
    2      C       1.0867746563    -1.2025359938    -0.3670357028
    3      C       0.3899394545    -2.3177979811    -0.2876680568
    4      C      -1.4016122498     1.1101548795     0.3340705429
    5      C      -0.4752005219     1.7511936239    -0.6023971747
    6      N       0.6950336877     1.2084589084    -0.6910798580
    7      H       1.4687168926     0.3585700421     1.0323739320
    8      H       2.0395992600    -1.1707680474    -0.9056762104
    9      H       0.5181284884    -3.3331975471    -0.6407056538
   10      H      -2.4166798433     1.4346663446     0.5334545992
   11      H      -0.7179438192     2.6349827660    -1.1912677722
   12      C      -0.7586120906     0.0558721283     0.8764443556
   13      H      -1.1372952250    -0.6386036919     1.6163180347
 ----------------------------------------------------------------
 Nuclear Repulsion Energy =   259.0778267335 hartrees
 There are       25 alpha and       24 beta electrons

                       Distance Matrix (Angstroms)
             C (  1)   C (  2)   C (  3)   C (  4)   C (  5)   N (  6)
   C (  2)  1.507709
   C (  3)  2.509437  1.317455
   C (  4)  2.335101  3.468740  3.917535
   C (  5)  2.207023  3.349579  4.171836  1.464971
   N (  6)  1.465881  2.464013  3.562346  2.335920  1.293010
   H (  7)  1.103049  2.131028  3.173203  3.048163  2.896669  2.071519
   H (  8)  2.192493  1.094997  2.102139  4.310629  3.867047  2.741282
   H (  9)  3.565182  2.222155  1.082638  4.937507  5.180657  4.545380
   H ( 10)  3.403163  4.476596  4.757346  1.084170  2.271495  3.351629
   H ( 11)  3.251493  4.320060  5.154991  2.262556  1.089393  2.069218
   C ( 12)  1.583910  2.556421  2.882471  1.348752  2.267468  2.428719
   H ( 13)  2.398052  3.032853  2.962651  2.184532  3.327491  3.477521
             H (  7)   H (  8)   H (  9)   H ( 10)   H ( 11)   C ( 12)
   H (  8)  2.533934
   H (  9)  4.163167  2.657289
   H ( 10)  4.062414  5.358900  5.720514
   H ( 11)  3.861104  4.708433  6.119654  2.702060
   C ( 12)  2.253205  3.537031  3.926526  2.183553  3.305889
   H ( 13)  2.850727  4.091004  3.885282  2.666058  4.332985  1.083102

 
 Applying Cartesian multipole field
    Component          Value
    ---------          -----
     (2,0,0)        1.00000E-11
     (0,2,0)        2.00000E-11
     (0,0,2)       -3.00000E-10
 Nucleus-field energy     =    -0.0000000119 hartrees
 Requested basis set is 6-31G(d)
 There are 40 shells and 117 basis functions
 A cutoff of  1.0D-14 yielded    792 shell pairs
 There are      7034 function pairs
 Smallest overlap matrix eigenvalue = 1.60E-03
 Guess MOs from core Hamiltonian diagonalization
 Mixing HOMO and LUMO in initial guess
 Adding  50% of the LUMO to the HOMO
 An unrestricted hybrid HF-DFT SCF calculation will be
 performed using Pulay DIIS extrapolation
 Exchange:     0.2000 Hartree-Fock + 0.0800 Slater + 0.7200 B88
 Correlation:  0.1900 VWN1RPA + 0.8100 LYP
 Using SG-1 standard quadrature grid
 SCF converges when DIIS error is below 1.0E-08
 using 4 threads for integral computing
 -------------------------------------------------------
 OpenMP Integral computing Module                
 Release: version 1.0, May 2013, Q-Chem Inc. Pittsburgh 
 -------------------------------------------------------
 -------------------------------------------------------
 OpenMP BLAS3 based DFT computing Module                
 Release: version 1.0, May 2013, Q-Chem Inc. Pittsburgh 
 -------------------------------------------------------
 ---------------------------------------
  Cycle       Energy         DIIS Error
 ---------------------------------------
    1    -228.4789368804      1.37E-01
    2    -164.5105286576      1.54E-01
    3    -239.0184260054      1.05E-01
    4    -225.4113521781      1.31E-01
    5    -285.7369320913      2.31E-02
    6    -284.3363783592      3.38E-02
    7    -286.6827169100      8.72E-03
    8    -286.8053666506      4.82E-03
    9    -286.8444961902      1.01E-03
   10    -286.8458690155      5.33E-04
   11    -286.8463944034      1.61E-04
   12    -286.8464653073      5.23E-05
   13    -286.8464875921      1.40E-05
   14    -286.8464998921      4.26E-06
   15    -286.8465047503      1.63E-06
   16    -286.8465069728      8.89E-07
   17    -286.8465083663      5.06E-07
   18    -286.8465088975      2.31E-07
   19    -286.8465089500      6.47E-08
   20    -286.8465089571      2.22E-08
   21    -286.8465089617      1.30E-08
   22    -286.8465089643      5.14E-09 Convergence criterion met
 ---------------------------------------
 <S^2> = 0.7612
 SCF time:  CPU 55.26 s  wall 20.09 s
 SCF   energy in the final basis set = -286.84650896
 Total energy in the final basis set = -286.84650896
 
 --------------------------------------------------------------
 
                    Orbital Energies (a.u.)
 --------------------------------------------------------------
 
 Alpha MOs
 -- Occupied --
-14.322 -10.231 -10.225 -10.209 -10.205 -10.200 -10.196  -0.940
 -0.789  -0.764  -0.699  -0.597  -0.553  -0.535  -0.507  -0.468
 -0.444  -0.411  -0.396  -0.359  -0.327  -0.273  -0.265  -0.256
 -0.234
 -- Virtual --
 -0.037   0.016   0.072   0.120   0.122   0.147   0.158   0.160
  0.169   0.192   0.230   0.278   0.305   0.349   0.397   0.440
  0.504   0.521   0.535   0.536   0.561   0.571   0.604   0.606
  0.621   0.639   0.655   0.670   0.695   0.723   0.745   0.800
  0.804   0.844   0.847   0.855   0.881   0.894   0.899   0.910
  0.944   1.013   1.026   1.037   1.112   1.121   1.158   1.319
  1.402   1.422   1.471   1.494   1.533   1.541   1.561   1.617
  1.667   1.734   1.818   1.841   1.876   1.915   1.966   1.995
  2.013   2.065   2.069   2.168   2.194   2.260   2.270   2.290
  2.328   2.401   2.494   2.547   2.564   2.573   2.625   2.719
  2.741   2.830   2.885   2.957   3.018   3.926   4.056   4.088
  4.177   4.288   4.406   4.557
 
 Beta MOs
 -- Occupied --
-14.322 -10.230 -10.225 -10.205 -10.202 -10.196 -10.194  -0.940
 -0.780  -0.763  -0.688  -0.590  -0.551  -0.526  -0.504  -0.457
 -0.439  -0.408  -0.396  -0.355  -0.325  -0.269  -0.260  -0.252
 -- Virtual --
 -0.074  -0.037   0.028   0.073   0.121   0.130   0.147   0.159
  0.161   0.175   0.194   0.231   0.279   0.311   0.352   0.418
  0.441   0.510   0.527   0.535   0.553   0.567   0.582   0.610
  0.616   0.627   0.644   0.657   0.671   0.698   0.722   0.753
  0.801   0.807   0.845   0.848   0.855   0.892   0.900   0.903
  0.912   0.948   1.016   1.034   1.048   1.113   1.132   1.160
  1.321   1.403   1.425   1.473   1.496   1.534   1.550   1.566
  1.623   1.709   1.756   1.834   1.850   1.892   1.918   1.977
  2.003   2.023   2.070   2.073   2.172   2.202   2.261   2.274
  2.295   2.329   2.410   2.498   2.548   2.566   2.576   2.627
  2.726   2.742   2.841   2.897   2.958   3.020   3.926   4.069
  4.102   4.184   4.292   4.406   4.558
 --------------------------------------------------------------
 
          Ground-State Mulliken Net Atomic Charges

     Atom                 Charge (a.u.)    Spin (a.u.)
  --------------------------------------------------------
      1 C                    -0.066507       0.040823
      2 C                    -0.104258      -0.167103
      3 C                    -0.194916       1.037034
      4 C                    -0.138320       0.006623
      5 C                     0.057542       0.002041
      6 N                    -0.373225       0.000756
      7 H                     0.179504      -0.003891
      8 H                     0.161077       0.076465
      9 H                     0.162160       0.008263
     10 H                     0.140954      -0.000175
     11 H                     0.143209       0.000023
     12 C                    -0.122495      -0.001662
     13 H                     0.155275       0.000803
  --------------------------------------------------------
  Sum of atomic charges =    -0.000000
  Sum of spin   charges =     1.000000

 -----------------------------------------------------------------
                    Cartesian Multipole Moments
 -----------------------------------------------------------------
    Charge (ESU x 10^10)
                 0.0000
    Dipole Moment (Debye)
         X      -0.9428      Y      -0.5503      Z       1.0759
       Tot       1.5327
    Quadrupole Moments (Debye-Ang)
        XX     -38.6981     XY      -4.3814     YY     -37.6884
        XZ       0.4890     YZ       1.0070     ZZ     -41.4384
    Octopole Moments (Debye-Ang^2)
       XXX      -6.3992    XXY      -2.4147    XYY      -6.1828
       YYY     -15.9745    XXZ       5.0715    XYZ       6.0169
       YYZ      -4.2637    XZZ      -3.1322    YZZ      -4.3828
       ZZZ       9.7162
    Hexadecapole Moments (Debye-Ang^3)
      XXXX    -241.9401   XXXY      61.4179   XXYY    -131.2581
      XYYY      53.5747   YYYY    -465.4535   XXXZ      27.6127
      XXYZ       7.9330   XYYZ      11.8431   YYYZ      13.0629
      XXZZ     -63.4163   XYZZ      23.0736   YYZZ    -108.8605
      XZZZ      34.0348   YZZZ       1.8343   ZZZZ    -134.9205
 -----------------------------------------------------------------
 Calculating analytic gradient of the SCF energy
 Gradient of SCF Energy
            1           2           3           4           5           6
    1   0.0322000  -0.0018398  -0.0054447  -0.0010627  -0.0052247   0.0043288
    2   0.0095686   0.0056000  -0.0045928   0.0072396  -0.0022950  -0.0030702
    3  -0.0080692   0.0004764   0.0016671  -0.0038288   0.0027190  -0.0034152
            7           8           9          10          11          12
    1   0.0041877  -0.0004721   0.0011322   0.0006650   0.0005232  -0.0261759
    2  -0.0000604   0.0017749   0.0008067   0.0002484   0.0005159  -0.0171964
    3  -0.0022271   0.0019003   0.0002809   0.0015612   0.0013024   0.0069970
           13
    1  -0.0028170
    2   0.0014608
    3   0.0006360
 Max gradient component =       3.220E-02
 RMS gradient           =       8.018E-03
 Gradient time:  CPU 7.08 s  wall 1.87 s
 ----------------------------------------------------------------
             Standard Nuclear Orientation (Angstroms)
    I     Atom           X                Y                Z
 ----------------------------------------------------------------
    1      C       0.6812130240     0.1003551210     0.2820034677
    2      C       1.0895425371    -1.2064292200    -0.3681060077
    3      C       0.3914214303    -2.3089369483    -0.2867152420
    4      C      -1.4009775432     1.1002140798     0.3368774909
    5      C      -0.4705306413     1.7533754084    -0.6035642206
    6      N       0.6913250938     1.2136922335    -0.6891738969
    7      H       1.4744125789     0.3620788876     1.0295496436
    8      H       2.0420390133    -1.1764111703    -0.9063293470
    9      H       0.5126922538    -3.3311143099    -0.6345801044
   10      H      -2.4176042559     1.4321726540     0.5311141779
   11      H      -0.7198605678     2.6366826704    -1.1871156281
   12      C      -0.7355591611     0.0673498601     0.8667596782
   13      H      -1.1410507226    -0.6450748085     1.6121801642
 ----------------------------------------------------------------
 Nuclear Repulsion Energy =   259.8313844392 hartrees
 There are       25 alpha and       24 beta electrons

                       Distance Matrix (Angstroms)
             C (  1)   C (  2)   C (  3)   C (  4)   C (  5)   N (  6)
   C (  2)  1.515606
   C (  3)  2.492410  1.307486
   C (  4)  2.310465  3.467030  3.901778
   C (  5)  2.200732  3.354059  4.164821  1.475392
   N (  6)  1.477433  2.473590  3.558206  2.333107  1.283938
   H (  7)  1.120933  2.135833  3.168556  3.048361  2.895785  2.071831
   H (  8)  2.212265  1.094456  2.095489  4.310794  3.871475  2.753939
   H (  9)  3.555771  2.217668  1.086537  4.923671  5.178776  4.548643
   H ( 10)  3.382080  4.480055  4.749250  1.086947  2.276348  3.346980
   H ( 11)  3.248734  4.325994  5.148283  2.268747  1.087626  2.065016
   C ( 12)  1.533060  2.545271  2.871816  1.338045  2.252726  2.402297
   H ( 13)  2.376064  3.035160  2.953424  2.177152  3.333419  3.479777
             H (  7)   H (  8)   H (  9)   H ( 10)   H ( 11)   C ( 12)
   H (  8)  2.537081
   H (  9)  4.163401  2.656218
   H ( 10)  4.067104  5.362776  5.712651
   H ( 11)  3.860345  4.716632  6.118748  2.699165
   C ( 12)  2.235473  3.522192  3.919402  2.191957  3.289395
   H ( 13)  2.862598  4.093564  3.872674  2.667068  4.333981  1.107982

 
 Applying Cartesian multipole field
    Component          Value
    ---------          -----
     (2,0,0)        1.00000E-11
     (0,2,0)        2.00000E-11
     (0,0,2)       -3.00000E-10
 Nucleus-field energy     =    -0.0000000118 hartrees
 Requested basis set is 6-31G(d)
 There are 40 shells and 117 basis functions
 A cutoff of  1.0D-14 yielded    792 shell pairs
 There are      7034 function pairs
 Smallest overlap matrix eigenvalue = 1.51E-03
 Guess MOs from core Hamiltonian diagonalization
 Mixing HOMO and LUMO in initial guess
 Adding  50% of the LUMO to the HOMO
 An unrestricted hybrid HF-DFT SCF calculation will be
 performed using Pulay DIIS extrapolation
 Exchange:     0.2000 Hartree-Fock + 0.0800 Slater + 0.7200 B88
 Correlation:  0.1900 VWN1RPA + 0.8100 LYP
 Using SG-1 standard quadrature grid
 SCF converges when DIIS error is below 1.0E-08
 using 4 threads for integral computing
 -------------------------------------------------------
 OpenMP Integral computing Module                
 Release: version 1.0, May 2013, Q-Chem Inc. Pittsburgh 
 -------------------------------------------------------
 -------------------------------------------------------
 OpenMP BLAS3 based DFT computing Module                
 Release: version 1.0, May 2013, Q-Chem Inc. Pittsburgh 
 -------------------------------------------------------
 ---------------------------------------
  Cycle       Energy         DIIS Error
 ---------------------------------------
    1    -228.2030158343      1.38E-01
    2    -179.8809586859      1.38E-01
    3    -242.2041718002      9.92E-02
    4    -229.9321401668      1.28E-01
    5    -285.6566625548      2.11E-02
    6    -284.4860888678      3.30E-02
    7    -286.7097225066      7.88E-03
    8    -286.7880727526      5.70E-03
    9    -286.8452478808      9.60E-04
   10    -286.8471804678      6.64E-04
   11    -286.8479383714      1.82E-04
   12    -286.8480430068      9.27E-05
   13    -286.8480836493      2.40E-05
   14    -286.8480998051      9.44E-06
   15    -286.8481042907      4.03E-06
   16    -286.8481072804      9.25E-07
   17    -286.8481083760      4.54E-07
   18    -286.8481088833      2.52E-07
   19    -286.8481090025      9.89E-08
   20    -286.8481090135      2.75E-08
   21    -286.8481090160      1.51E-08
   22    -286.8481090170      7.84E-09 Convergence criterion met
 ---------------------------------------
 <S^2> = 0.7606
 SCF time:  CPU 54.93 s  wall 19.31 s
 SCF   energy in the final basis set = -286.84810902
 Total energy in the final basis set = -286.84810902
 
 --------------------------------------------------------------
 
                    Orbital Energies (a.u.)
 --------------------------------------------------------------
 
 Alpha MOs
 -- Occupied --
-14.321 -10.231 -10.223 -10.208 -10.204 -10.200 -10.195  -0.943
 -0.792  -0.765  -0.700  -0.594  -0.552  -0.535  -0.507  -0.470
 -0.442  -0.405  -0.396  -0.367  -0.326  -0.275  -0.265  -0.257
 -0.234
 -- Virtual --
 -0.034   0.018   0.072   0.117   0.121   0.145   0.156   0.161
  0.168   0.197   0.236   0.279   0.304   0.349   0.402   0.442
  0.502   0.520   0.538   0.538   0.561   0.571   0.605   0.612
  0.625   0.640   0.654   0.674   0.701   0.724   0.748   0.797
  0.803   0.838   0.843   0.846   0.880   0.893   0.897   0.907
  0.944   1.016   1.031   1.039   1.118   1.127   1.161   1.318
  1.406   1.423   1.467   1.490   1.535   1.544   1.562   1.621
  1.662   1.742   1.817   1.845   1.883   1.908   1.962   1.998
  2.009   2.080   2.085   2.177   2.198   2.261   2.281   2.300
  2.337   2.408   2.499   2.550   2.568   2.579   2.626   2.726
  2.760   2.841   2.891   2.957   3.027   3.925   4.059   4.088
  4.182   4.285   4.404   4.562
 
 Beta MOs
 -- Occupied --
-14.321 -10.230 -10.223 -10.204 -10.202 -10.195 -10.193  -0.942
 -0.783  -0.764  -0.689  -0.586  -0.550  -0.526  -0.503  -0.460
 -0.437  -0.402  -0.395  -0.363  -0.324  -0.270  -0.261  -0.254
 -- Virtual --
 -0.074  -0.034   0.030   0.074   0.117   0.129   0.147   0.156
  0.161   0.174   0.199   0.238   0.281   0.310   0.352   0.422
  0.444   0.508   0.526   0.539   0.552   0.569   0.582   0.614
  0.619   0.631   0.644   0.657   0.675   0.704   0.724   0.756
  0.798   0.806   0.839   0.843   0.846   0.892   0.899   0.900
  0.911   0.948   1.019   1.038   1.050   1.120   1.138   1.162
  1.320   1.407   1.426   1.470   1.492   1.536   1.552   1.567
  1.625   1.706   1.765   1.837   1.850   1.899   1.912   1.971
  2.008   2.021   2.083   2.090   2.182   2.203   2.263   2.283
  2.308   2.337   2.417   2.504   2.551   2.569   2.582   2.628
  2.733   2.762   2.852   2.901   2.958   3.030   3.925   4.070
  4.105   4.188   4.288   4.405   4.563
 --------------------------------------------------------------
 
          Ground-State Mulliken Net Atomic Charges

     Atom                 Charge (a.u.)    Spin (a.u.)
  --------------------------------------------------------
      1 C                    -0.070694       0.043354
      2 C                    -0.101978      -0.164714
      3 C                    -0.194969       1.031743
      4 C                    -0.137604       0.004363
      5 C                     0.057750       0.003420
      6 N                    -0.373207      -0.000963
      7 H                     0.177906      -0.004035
      8 H                     0.162315       0.076868
      9 H                     0.161236       0.008996
     10 H                     0.140873      -0.000041
     11 H                     0.141555       0.000005
     12 C                    -0.116741       0.000398
     13 H                     0.153557       0.000604
  --------------------------------------------------------
  Sum of atomic charges =    -0.000000
  Sum of spin   charges =     1.000000

 -----------------------------------------------------------------
                    Cartesian Multipole Moments
 -----------------------------------------------------------------
    Charge (ESU x 10^10)
                -0.0000
    Dipole Moment (Debye)
         X      -0.9458      Y      -0.5789      Z       1.0492
       Tot       1.5266
    Quadrupole Moments (Debye-Ang)
        XX     -38.6335     XY      -4.4443     YY     -37.7194
        XZ       0.4774     YZ       1.0586     ZZ     -41.4879
    Octopole Moments (Debye-Ang^2)
       XXX      -6.4655    XXY      -2.4981    XYY      -6.2054
       YYY     -16.1319    XXZ       4.9374    XYZ       5.9913
       YYZ      -4.1698    XZZ      -3.0646    YZZ      -4.4052
       ZZZ       9.4227
    Hexadecapole Moments (Debye-Ang^3)
      XXXX    -239.3441   XXXY      60.8076   XXYY    -130.4743
      XYYY      53.5060   YYYY    -465.0725   XXXZ      27.1557
      XXYZ       8.0588   XYYZ      11.6630   YYYZ      13.0910
      XXZZ     -63.0015   XYZZ      23.0114   YYZZ    -108.7381
      XZZZ      33.6659   YZZZ       2.0471   ZZZZ    -134.8714
 -----------------------------------------------------------------
 Calculating analytic gradient of the SCF energy
 Gradient of SCF Energy
            1           2           3           4           5           6
    1   0.0023918  -0.0027145  -0.0001142   0.0001684   0.0069833  -0.0032804
    2   0.0034396  -0.0058905   0.0098022  -0.0078758  -0.0042198   0.0038525
    3  -0.0037581  -0.0012366   0.0025750   0.0059663  -0.0006688  -0.0036983
            7           8           9          10          11          12
    1   0.0119854  -0.0005432   0.0016107  -0.0011859   0.0003770  -0.0052473
    2   0.0026542   0.0000683  -0.0016517   0.0026244  -0.0008308   0.0061035
    3   0.0028461   0.0010853  -0.0006866   0.0005123   0.0020549  -0.0157156
           13
    1  -0.0104311
    2  -0.0080760
    3   0.0107241
 Max gradient component =       1.572E-02
 RMS gradient           =       5.459E-03
 Gradient time:  CPU 7.31 s  wall 1.97 s
 FSM gradient convergence criteria satisfied
 After opt distance between the previous and current R_nodes (Angstroms): 0.1903
 After opt distance between the previous and current P_nodes (Angstroms): 0.1782
-Printing perpgrad.txt, Vfile.txt, and stringfile.txt

STARTING FREEZING STRING ITERATION # 2
 The distance between the innermost nodes (Angstroms): 3.690
-Adding two new nodes
 The distance between the previous and current R_nodes (Angstroms): 0.1853
 The distance between the previous and current P_nodes (Angstroms): 0.2035
-Optimizing new reactant side node
 Using BFGS, step: 3 E_tol 0.0738
 max_steps 6, node_spacing 0.1916, sigma 0.7000
 ----------------------------------------------------------------
             Standard Nuclear Orientation (Angstroms)
    I     Atom           X                Y                Z
 ----------------------------------------------------------------
    1      C       1.5229892659     0.3818985245    -0.4121695552
    2      C       1.2385113274    -0.9559590552    -0.2062306797
    3      C      -0.0170291814    -1.5334720017     0.1861864093
    4      C      -1.3884234808     0.7256535061     0.2645610302
    5      C      -0.4655634517     1.6562332968    -0.1969784760
    6      N       0.8266263398     1.5509772313    -0.5129011716
    7      H       2.5772831235     0.5805321089    -0.6021554203
    8      H       2.0737181127    -1.6379141271    -0.3401968457
    9      H      -0.0168249609    -2.6369041928     0.3193626632
   10      H      -2.3888030034     1.1067183648     0.4658357488
   11      H      -0.8371835958     2.6758946486    -0.3149663461
   12      C      -1.1425906265    -0.6859007410     0.4838770456
   13      H      -2.0126792523    -1.2316617111     0.8661473573
 ----------------------------------------------------------------
 Nuclear Repulsion Energy =   259.0608751815 hartrees
 There are       25 alpha and       24 beta electrons

                       Distance Matrix (Angstroms)
             C (  1)   C (  2)   C (  3)   C (  4)   C (  5)   N (  6)
   C (  2)  1.383185
   C (  3)  2.529492  1.436626
   C (  4)  3.008730  3.154402  2.643958
   C (  5)  2.371619  3.118895  3.243797  1.389485
   N (  6)  1.364483  2.558989  3.273271  2.488383  1.334406
   H (  7)  1.089535  2.076023  3.438161  4.061907  3.252725  2.003629
   H (  8)  2.094785  1.086545  2.158521  4.235399  4.161715  3.428424
   H (  9)  3.466892  2.162798  1.111440  3.631953  4.347298  4.352290
   H ( 10)  4.074110  4.226550  3.560073  1.089257  2.107164  3.390321
   H ( 11)  3.292762  4.184578  4.317705  2.107880  1.091665  2.018138
   C ( 12)  3.008058  2.493758  1.440099  1.449489  2.531308  3.142452
   H ( 13)  4.091286  3.434566  2.129802  2.140720  3.444378  4.207910
             H (  7)   H (  8)   H (  9)   H ( 10)   H ( 11)   C ( 12)
   H (  8)  2.289913
   H (  9)  4.234441  2.409019
   H ( 10)  5.106808  5.300641  4.434235
   H ( 11)  4.016417  5.204126  5.413058  2.340831
   C ( 12)  4.076859  3.453993  2.258501  2.183313  3.468875
   H ( 13)  5.148564  4.280064  2.501422  2.402028  4.248037  1.095920

 
 Applying Cartesian multipole field
    Component          Value
    ---------          -----
     (2,0,0)        1.00000E-11
     (0,2,0)        2.00000E-11
     (0,0,2)       -3.00000E-10
 Nucleus-field energy     =     0.0000000007 hartrees
 Requested basis set is 6-31G(d)
 There are 40 shells and 117 basis functions
 A cutoff of  1.0D-14 yielded    791 shell pairs
 There are      7063 function pairs
 Smallest overlap matrix eigenvalue = 1.58E-03
 Guess MOs from core Hamiltonian diagonalization
 Mixing HOMO and LUMO in initial guess
 Adding  50% of the LUMO to the HOMO
 An unrestricted hybrid HF-DFT SCF calculation will be
 performed using Pulay DIIS extrapolation
 Exchange:     0.2000 Hartree-Fock + 0.0800 Slater + 0.7200 B88
 Correlation:  0.1900 VWN1RPA + 0.8100 LYP
 Using SG-1 standard quadrature grid
 SCF converges when DIIS error is below 1.0E-08
 using 4 threads for integral computing
 -------------------------------------------------------
 OpenMP Integral computing Module                
 Release: version 1.0, May 2013, Q-Chem Inc. Pittsburgh 
 -------------------------------------------------------
 -------------------------------------------------------
 OpenMP BLAS3 based DFT computing Module                
 Release: version 1.0, May 2013, Q-Chem Inc. Pittsburgh 
 -------------------------------------------------------
 ---------------------------------------
  Cycle       Energy         DIIS Error
 ---------------------------------------
    1    -238.3317737123      1.27E-01
    2    -220.7969464498      1.12E-01
    3    -251.1506961638      9.34E-02
    4    -266.6642482653      8.77E-02
    5    -284.5017061971      3.24E-02
    6    -286.3787322147      1.62E-02
    7    -286.4887623369      1.52E-02
    8    -286.8728403293      4.13E-03
    9    -286.8943499482      2.72E-03
   10    -286.9111573745      5.48E-04
   11    -286.9118013485      3.62E-04
   12    -286.9121313503      9.90E-05
   13    -286.9122896252      5.54E-05
   14    -286.9124126021      4.76E-05
   15    -286.9125226923      3.16E-05
   16    -286.9125830191      1.93E-05
   17    -286.9126023757      9.76E-06
   18    -286.9126116949      5.08E-06
   19    -286.9126144193      1.85E-06
   20    -286.9126148626      8.17E-07
   21    -286.9126149158      3.80E-07
   22    -286.9126149237      1.12E-07
   23    -286.9126149244      3.84E-08
   24    -286.9126149244      1.34E-08
   25    -286.9126149244      3.34E-09 Convergence criterion met
 ---------------------------------------
 <S^2> = 0.7670
 SCF time:  CPU 62.49 s  wall 23.71 s
 SCF   energy in the final basis set = -286.91261492
 Total energy in the final basis set = -286.91261492
 
 --------------------------------------------------------------
 
                    Orbital Energies (a.u.)
 --------------------------------------------------------------
 
 Alpha MOs
 -- Occupied --
-14.322 -10.235 -10.229 -10.226 -10.220 -10.203 -10.202  -0.924
 -0.809  -0.784  -0.685  -0.669  -0.554  -0.531  -0.515  -0.452
 -0.432  -0.416  -0.394  -0.386  -0.346  -0.316  -0.299  -0.252
 -0.158
 -- Virtual --
 -0.078   0.075   0.087   0.096   0.116   0.143   0.166   0.182
  0.193   0.219   0.246   0.314   0.351   0.385   0.398   0.492
  0.499   0.519   0.546   0.568   0.574   0.586   0.592   0.609
  0.617   0.625   0.642   0.658   0.702   0.713   0.816   0.842
  0.843   0.851   0.866   0.870   0.885   0.925   0.933   0.974
  1.005   1.021   1.043   1.126   1.162   1.166   1.291   1.313
  1.331   1.366   1.427   1.462   1.485   1.541   1.565   1.578
  1.658   1.728   1.789   1.814   1.869   1.909   1.920   1.994
  2.025   2.061   2.087   2.125   2.148   2.168   2.240   2.368
  2.391   2.415   2.427   2.512   2.567   2.576   2.606   2.727
[...]
  --------------------------------------------------------
      1 C                    -0.042694       0.104677
      2 C                    -0.084475      -0.121284
      3 C                    -0.168298       0.761202
      4 C                    -0.130614       0.292311
      5 C                     0.072112      -0.091386
      6 N                    -0.362262       0.186904
      7 H                     0.162256       0.014120
      8 H                     0.143959       0.030759
      9 H                     0.154408       0.020841
     10 H                     0.141465      -0.015105
     11 H                     0.143465       0.005767
     12 C                    -0.197850      -0.216906
     13 H                     0.168528       0.028101
  --------------------------------------------------------
  Sum of atomic charges =    -0.000000
  Sum of spin   charges =     1.000000

 -----------------------------------------------------------------
                    Cartesian Multipole Moments
 -----------------------------------------------------------------
    Charge (ESU x 10^10)
                 0.0000
    Dipole Moment (Debye)
         X      -0.9029      Y      -1.1375      Z       0.8858
       Tot       1.7011
    Quadrupole Moments (Debye-Ang)
        XX     -36.9944     XY      -3.4065     YY     -37.5297
        XZ       0.3601     YZ       0.2964     ZZ     -44.0273
    Octopole Moments (Debye-Ang^2)
       XXX      -5.9085    XXY      -6.0082    XYY     -10.3560
       YYY     -22.4320    XXZ       5.7990    XYZ       5.5327
       YYZ       3.3683    XZZ      -4.2763    YZZ      -6.2330
       ZZZ       9.8199
    Hexadecapole Moments (Debye-Ang^3)
      XXXX    -258.6975   XXXY      38.8710   XXYY    -125.5354
      XYYY      34.1431   YYYY    -430.7526   XXXZ      26.9818
      XXYZ      10.0168   XYYZ      14.4574   YYYZ      13.4642
      XXZZ     -66.2493   XYZZ      15.3404   YYZZ    -102.5730
      XZZZ      33.7823   YZZZ      16.4126   ZZZZ    -112.0942
 -----------------------------------------------------------------
 Calculating analytic gradient of the SCF energy
 Gradient of SCF Energy
            1           2           3           4           5           6
    1   0.0153214   0.0043143  -0.0096426   0.0077123   0.0044207   0.0007457
    2   0.0078991   0.0092397  -0.0030896  -0.0040499  -0.0087142   0.0083029
    3  -0.0072087   0.0044619   0.0095818   0.0060250   0.0045237   0.0008695
            7           8           9          10          11          12
    1   0.0225187  -0.0067682   0.0033954  -0.0001254  -0.0031847  -0.0171407
    2   0.0069629  -0.0023833  -0.0006543  -0.0015432   0.0028029  -0.0043981
    3  -0.0205691   0.0095705   0.0039371   0.0028550   0.0037935  -0.0020974
           13
    1  -0.0215671
    2  -0.0103748
    3  -0.0157427
 Max gradient component =       2.252E-02
 RMS gradient           =       9.193E-03
 Gradient time:  CPU 7.75 s  wall 2.55 s
 ----------------------------------------------------------------
             Standard Nuclear Orientation (Angstroms)
    I     Atom           X                Y                Z
 ----------------------------------------------------------------
    1      C       1.0079828680     0.2412005588     0.0698960098
    2      C       1.1982509279    -1.1584826084    -0.4330490140
    3      C       0.1466242089    -1.9081029598    -0.1513193083
    4      C      -1.3607346966     0.9005251314     0.2975537449
    5      C      -0.5197094562     1.7972009394    -0.4600998821
    6      N       0.6927472016     1.4224658805    -0.6961789888
    7      H       1.9852872544     0.5485414013     0.5351571526
    8      H       2.1611216867    -1.5606914434    -0.7203568442
    9      H      -0.0403865361    -2.9787066977    -0.0828462543
   10      H      -2.4166572165     1.0803548193     0.4834652093
   11      H      -0.8887794691     2.7644791636    -0.8157284958
   12      C      -0.6940174286    -0.1936312480     0.7265634972
   13      H      -1.3297621962    -0.9672889370     1.2020006213
 ----------------------------------------------------------------
 Nuclear Repulsion Energy =   261.1523662806 hartrees
 There are       25 alpha and       24 beta electrons

                       Distance Matrix (Angstroms)
             C (  1)   C (  2)   C (  3)   C (  4)   C (  5)   N (  6)
   C (  2)  1.499423
   C (  3)  2.326022  1.321825
   C (  4)  2.469283  3.364773  3.219008
   C (  5)  2.244076  3.418799  3.777383  1.444088
   N (  6)  1.442786  2.643117  3.418744  2.340238  1.290818
   H (  7)  1.125189  2.114422  3.144365  3.372864  2.970639  1.987610
   H (  8)  2.280580  1.082330  2.121956  4.415564  4.304652  3.325047
   H (  9)  3.389721  2.229368  1.088969  4.115393  4.814703  4.503774
   H ( 10)  3.550124  4.349707  3.988012  1.087140  2.236648  3.343201
   H ( 11)  3.278563  4.460019  4.831824  2.221815  1.094674  2.077623
   C ( 12)  1.875392  2.419983  2.101611  1.351199  2.324213  2.561071
   H ( 13)  2.864814  3.016752  2.212764  2.075503  3.325833  3.661224
             H (  7)   H (  8)   H (  9)   H ( 10)   H ( 11)   C ( 12)
   H (  8)  2.460914
   H (  9)  4.114215  2.695149
   H ( 10)  4.434254  5.420366  4.737441
   H ( 11)  3.872406  5.293212  5.851587  2.618891
   C ( 12)  2.786778  3.480553  2.973049  2.156299  3.341708
   H ( 13)  3.705668  4.029126  2.712770  2.427031  4.265183  1.108494

 
 Applying Cartesian multipole field
    Component          Value
    ---------          -----
     (2,0,0)        1.00000E-11
     (0,2,0)        2.00000E-11
     (0,0,2)       -3.00000E-10
 Nucleus-field energy     =    -0.0000000055 hartrees
 Requested basis set is 6-31G(d)
 There are 40 shells and 117 basis functions
 A cutoff of  1.0D-14 yielded    797 shell pairs
 There are      7059 function pairs
 Smallest overlap matrix eigenvalue = 1.70E-03
 Guess MOs from core Hamiltonian diagonalization
 Mixing HOMO and LUMO in initial guess
 Adding  50% of the LUMO to the HOMO
 An unrestricted hybrid HF-DFT SCF calculation will be
 performed using Pulay DIIS extrapolation
 Exchange:     0.2000 Hartree-Fock + 0.0800 Slater + 0.7200 B88
 Correlation:  0.1900 VWN1RPA + 0.8100 LYP
 Using SG-1 standard quadrature grid
 SCF converges when DIIS error is below 1.0E-08
 using 4 threads for integral computing
 -------------------------------------------------------
 OpenMP Integral computing Module                
 Release: version 1.0, May 2013, Q-Chem Inc. Pittsburgh 
 -------------------------------------------------------
 -------------------------------------------------------
 OpenMP BLAS3 based DFT computing Module                
 Release: version 1.0, May 2013, Q-Chem Inc. Pittsburgh 
 -------------------------------------------------------
 ---------------------------------------
  Cycle       Energy         DIIS Error
 ---------------------------------------
    1    -232.3139470830      1.34E-01
    2    -198.5732283169      1.15E-01
    3    -242.6108524885      1.09E-01
    4    -270.4890683810      8.01E-02
    5    -282.2001330410      4.19E-02
    6    -285.2977538574      2.40E-02
    7    -285.9745991107      1.90E-02
    8    -286.6315342997      8.38E-03
    9    -286.7429625402      2.82E-03
   10    -286.7553498535      1.29E-03
   11    -286.7586208425      3.62E-04
   12    -286.7593075780      9.66E-05
   13    -286.7594663882      4.11E-05
   14    -286.7595135556      1.85E-05
   15    -286.7595372943      9.63E-06
   16    -286.7595502657      6.25E-06
   17    -286.7595571092      2.48E-06
   18    -286.7595583183      1.12E-06
   19    -286.7595586563      3.68E-07
   20    -286.7595587246      1.58E-07
   21    -286.7595587331      4.89E-08
   22    -286.7595587335      1.82E-08
   23    -286.7595587335      6.94E-09 Convergence criterion met
 ---------------------------------------
 <S^2> = 0.7905
 SCF time:  CPU 58.17 s  wall 21.85 s
 SCF   energy in the final basis set = -286.75955873
 Total energy in the final basis set = -286.75955873
 
 --------------------------------------------------------------
 
                    Orbital Energies (a.u.)
 --------------------------------------------------------------
 
 Alpha MOs
 -- Occupied --
-14.333 -10.250 -10.228 -10.214 -10.210 -10.198 -10.190  -0.940
 -0.801  -0.767  -0.681  -0.614  -0.547  -0.524  -0.513  -0.473
 -0.422  -0.422  -0.393  -0.348  -0.310  -0.290  -0.280  -0.247
 -0.193
 -- Virtual --
 -0.027  -0.009   0.046   0.083   0.113   0.122   0.150   0.158
  0.174   0.186   0.262   0.282   0.301   0.353   0.390   0.445
  0.507   0.513   0.545   0.555   0.570   0.591   0.607   0.614
  0.640   0.647   0.652   0.680   0.700   0.726   0.764   0.801
  0.811   0.824   0.842   0.855   0.865   0.879   0.898   0.927
  0.955   0.984   1.043   1.074   1.134   1.176   1.228   1.272
  1.376   1.446   1.467   1.475   1.516   1.538   1.585   1.630
  1.669   1.727   1.807   1.837   1.887   1.909   1.965   1.998
  2.035   2.097   2.111   2.154   2.165   2.254   2.274   2.313
  2.375   2.395   2.473   2.526   2.559   2.575   2.647   2.654
  2.734   2.799   2.834   2.973   3.023   3.916   4.061   4.129
  4.172   4.275   4.420   4.525
 
 Beta MOs
 -- Occupied --
-14.329 -10.248 -10.229 -10.217 -10.199 -10.198 -10.186  -0.934
 -0.792  -0.761  -0.675  -0.606  -0.539  -0.516  -0.509  -0.467
 -0.418  -0.413  -0.389  -0.341  -0.304  -0.283  -0.254  -0.242
 -- Virtual --
 -0.088  -0.015   0.001   0.053   0.096   0.115   0.126   0.154
  0.164   0.175   0.189   0.266   0.284   0.308   0.357   0.402
  0.448   0.513   0.518   0.548   0.561   0.572   0.597   0.613
  0.618   0.644   0.656   0.657   0.685   0.702   0.735   0.771
  0.808   0.812   0.827   0.844   0.862   0.873   0.886   0.903
  0.931   0.958   0.989   1.049   1.083   1.139   1.179   1.232
  1.278   1.380   1.452   1.475   1.480   1.521   1.553   1.588
  1.636   1.675   1.729   1.840   1.846   1.895   1.917   1.977
  2.000   2.056   2.100   2.119   2.166   2.170   2.252   2.281
  2.319   2.383   2.401   2.475   2.532   2.564   2.581   2.654
  2.657   2.737   2.810   2.846   2.976   3.025   3.922   4.070
  4.136   4.176   4.281   4.424   4.528
 --------------------------------------------------------------
 
          Ground-State Mulliken Net Atomic Charges

     Atom                 Charge (a.u.)    Spin (a.u.)
  --------------------------------------------------------
      1 C                    -0.042042       0.110299
      2 C                    -0.083431      -0.118617
      3 C                    -0.167929       0.742886
      4 C                    -0.130715       0.302654
      5 C                     0.072191      -0.093875
      6 N                    -0.361596       0.195156
      7 H                     0.161843       0.014675
      8 H                     0.143583       0.029227
      9 H                     0.154272       0.021591
     10 H                     0.141486      -0.015727
     11 H                     0.143730       0.005920
     12 C                    -0.199238      -0.223309
     13 H                     0.167846       0.029119
  --------------------------------------------------------
  Sum of atomic charges =     0.000000
  Sum of spin   charges =     1.000000

 -----------------------------------------------------------------
                    Cartesian Multipole Moments
 -----------------------------------------------------------------
    Charge (ESU x 10^10)
                -0.0000
    Dipole Moment (Debye)
         X      -0.8924      Y      -1.1234      Z       0.8751
       Tot       1.6805
    Quadrupole Moments (Debye-Ang)
        XX     -37.0045     XY      -3.4012     YY     -37.5100
        XZ       0.3538     YZ       0.2927     ZZ     -44.0274
    Octopole Moments (Debye-Ang^2)
       XXX      -5.8741    XXY      -5.9662    XYY     -10.3180
       YYY     -22.3012    XXZ       5.8013    XYZ       5.5116
       YYZ       3.3448    XZZ      -4.2673    YZZ      -6.2012
       ZZZ       9.8401
    Hexadecapole Moments (Debye-Ang^3)
      XXXX    -259.2716   XXXY      38.7077   XXYY    -125.4285
      XYYY      33.9396   YYYY    -429.8113   XXXZ      26.9819
      XXYZ      10.0425   XYYZ      14.4499   YYYZ      13.5425
      XXZZ     -66.3020   XYZZ      15.2709   YYZZ    -102.3507
      XZZZ      33.7742   YZZZ      16.5427   ZZZZ    -111.9169
 -----------------------------------------------------------------
 Calculating analytic gradient of the SCF energy
 Gradient of SCF Energy
            1           2           3           4           5           6
    1   0.0146194   0.0039381  -0.0093326   0.0078663   0.0047364   0.0003551
    2   0.0075162   0.0092898  -0.0042813  -0.0039539  -0.0084392   0.0083394
    3  -0.0070040   0.0045991   0.0093152   0.0064687   0.0044197   0.0009707
            7           8           9          10          11          12
    1   0.0219465  -0.0065642   0.0036295  -0.0003563  -0.0032076  -0.0166713
    2   0.0067797  -0.0022905  -0.0015529  -0.0014629   0.0030818  -0.0026272
    3  -0.0205872   0.0095858   0.0038000   0.0027209   0.0036143  -0.0016291
           13
    1  -0.0209594
    2  -0.0103989
    3  -0.0162742
 Max gradient component =       2.195E-02
 RMS gradient           =       9.060E-03
 Gradient time:  CPU 7.22 s  wall 1.94 s
 E1 = -286.7600426, E2 = -286.7595587, Emax = -286.7597927
 Iteration 5, Curvature = -0.4196052
 Curvature, final (in Hartree/Bohr^2) = -0.1175014
 ----------------------------------------------------------------
             Standard Nuclear Orientation (Angstroms)
    I     Atom           X                Y                Z
 ----------------------------------------------------------------
    1      C       1.0060031985     0.2408109075     0.0705297427
    2      C       1.1976840144    -1.1588030075    -0.4329137619
    3      C       0.1477039009    -1.9108061523    -0.1522276047
    4      C      -1.3608341974     0.9015586746     0.2980681518
    5      C      -0.5194926154     1.7976844537    -0.4603153813
    6      N       0.6928460594     1.4228031332    -0.6964735967
    7      H       1.9840605079     0.5481873084     0.5353880133
    8      H       2.1608371289    -1.5602281112    -0.7200945339
    9      H      -0.0399482294    -2.9805446003    -0.0830508697
   10      H      -2.4169096324     1.0801927958     0.4832403266
   11      H      -0.8886705695     2.7647317401    -0.8158416512
   12      C      -0.6931980313    -0.1906383350     0.7279758856
   13      H      -1.3280750036    -0.9670805860     1.2007672215
 ----------------------------------------------------------------
 Nuclear Repulsion Energy =   261.1347511654 hartrees
 There are       25 alpha and       24 beta electrons
 Requested basis set is 6-31G(d)
 There are 40 shells and 117 basis functions
 Geometry Optimization Parameters
   NAtoms,    NIC,     NZ,  NCons,   NDum,   NFix, NCnnct, MaxDiis
       13      86       0       0       0       0       0       0


** GEOMETRY OPTIMIZATION IN DELOCALIZED INTERNAL COORDINATES **
   Searching for a Minimum

   Optimization Cycle:   1

                       Coordinates (Angstroms)
     ATOM                X               Y               Z
      1  C         1.0060031985    0.2408109075    0.0705297427
      2  C         1.1976840144   -1.1588030075   -0.4329137619
      3  C         0.1477039009   -1.9108061523   -0.1522276047
      4  C        -1.3608341974    0.9015586746    0.2980681518
      5  C        -0.5194926154    1.7976844537   -0.4603153813
      6  N         0.6928460594    1.4228031332   -0.6964735967
      7  H         1.9840605079    0.5481873084    0.5353880133
      8  H         2.1608371289   -1.5602281112   -0.7200945339
      9  H        -0.0399482294   -2.9805446003   -0.0830508697
     10  H        -2.4169096324    1.0801927958    0.4832403266
     11  H        -0.8886705695    2.7647317401   -0.8158416512
     12  C        -0.6931980313   -0.1906383350    0.7279758856
     13  H        -1.3280750036   -0.9670805860    1.2007672215
   Point Group: c1    Number of degrees of freedom:    33


   Energy is   -286.759558734


 Attempting to Generate Delocalized Internal Coordinates

 33 Hessian modes will be used to form the next step
  Hessian Eigenvalues:
     0.006356    0.009218    0.010339    0.017106    0.020462    0.020952
     0.024454    0.032771    0.050010    0.065368    0.082583    0.115937
     0.132251    0.156385    0.157383    0.159963    0.159995    0.160000
     0.210752    0.220728    0.222544    0.309941    0.324083    0.327262
     0.343008    0.350129    0.351657    0.357231    0.358244    0.385085
     0.526938    0.615228    0.660475

 Minimum Search - Taking Simple RFO Step
 Searching for Lamda that Minimizes Along All modes
 Value Taken    Lamda =  -0.05567972
 Calculated Step too Large.  Step scaled by  0.455712
 Step Taken.  Stepsize is  0.300000

                             Maximum     Tolerance    Cnvgd?
         Gradient           0.061099      0.000300      NO
         Displacement       0.224161      0.001200      NO
         Energy change     *********      0.000001      NO


 New Cartesian Coordinates Obtained by Inverse Iteration

 Displacement from previous Coordinates is:  0.798855
 ----------------------------------------------------------------
             Standard Nuclear Orientation (Angstroms)
    I     Atom           X                Y                Z
 ----------------------------------------------------------------
    1      C       0.9824701920     0.2224775865     0.1292569563
    2      C       1.2078741355    -1.1612426746    -0.4232083438
    3      C       0.1511540003    -1.9315356372    -0.2599592418
    4      C      -1.3607733874     0.9174102665     0.3196551170
    5      C      -0.5281539919     1.7561601155    -0.5116603855
    6      N       0.6878249502     1.3676044774    -0.6964053495
    7      H       1.9194644110     0.5472551141     0.6443876805
    8      H       2.1861105165    -1.5252823242    -0.7254564371
    9      H      -0.0503610344    -2.9996625779    -0.2968206815
   10      H      -2.4168004990     1.1062465600     0.4926005376
   11      H      -0.8907322895     2.6897412534    -0.9491016691
   12      C      -0.6733536936    -0.1312265108     0.8387767989
   13      H      -1.2727167788    -0.8700774277     1.3929869601
 ----------------------------------------------------------------
 Nuclear Repulsion Energy =   260.5445292401 hartrees
 There are       25 alpha and       24 beta electrons

































 Eigenvalues after right structure
 -0.1316474 -0.0000000 -0.0000000 0.0000000 0.0000000 0.0000000 0.0000014 0.0030217 0.0064382 0.0121603 0.0182319 0.0340269 0.0383710 0.0526724 0.0587149 0.0667756 0.0706981 0.0821905 0.0867832 0.0932223 0.1307170 0.1510981 0.1755674 0.1875412 0.2105880 0.2572330 0.2730922 0.3849640 0.4542023 0.5902463 0.6336818 0.8038347 0.8545676 0.9502066 1.1193291 1.1991836 1.4703521 1.5720791 1.7266739
Archival summary:
1\1\c8-89\JobtypUnspecified\ProcedureUnspecified\6-31G*\166(2)\hpark21\WedMar217:21:042022WedMar217:21:042022\0\\#,JobtypUnspecified,ProcedureUnspecified,6-31G*,\\0,2\N\C,1,1.28985\H,2,1.09288,1,120.848\C,1,1.44217,2,110.475,3,171.699,0\H,4,1.1175,1,101.797,2,-128.062,0\C,2,1.44494,1,116.793,3,-178.563,0\H,6,1.08663,2,123.415,1,-175.798,0\C,6,1.35708,2,112.132,1,3.48804,0\H,8,1.10104,6,115.806,2,-173.633,0\C,4,1.50689,1,123.353,2,110.796,0\H,10,1.08666,4,122.974,1,89.3016,0\C,10,1.31782,4,111.801,1,-102.438,0\H,12,1.08759,10,135.925,4,-163.649,0\\\@

 Total job time:  1859.70s(wall), 5057.60s(cpu) 
 Wed Mar  2 17:21:04 2022

        *************************************************************
        *                                                           *
        *  Thank you very much for using Q-Chem.  Have a nice day.  *
        *                                                           *
        *************************************************************


