
Running Job 1 of 1 qcirc.in
qchem qcirc.in_44594.0 ./qcirc.d/ 1
/home/leeping/opt/qchem/5.0.2-openmp/exe/qcprog.exe_s qcirc.in_44594.0 ./qcirc.d/
Check license passed

                  Welcome to Q-Chem
     A Quantum Leap Into The Future Of Chemistry


 Q-Chem 5.0, Q-Chem, Inc., Pleasanton, CA (2017)

 Yihan Shao,  Zhengting Gan,  E. Epifanovsky,  A. T. B. Gilbert,  M. Wormit,  
 J. Kussmann,  A. W. Lange,  A. Behn,  Jia Deng,  Xintian Feng,  D. Ghosh,  
 M. Goldey,  P. R. Horn,  L. D. Jacobson,  I. Kaliman,  T. Kus,  A. Landau,  
 Jie Liu,  E. I. Proynov,  R. M. Richard,  R. P. Steele,  E. J. Sundstrom,  
 H. L. Woodcock III,  P. M. Zimmerman,  D. Zuev,  B. Albrecht,  E. Alguire,  
 S. A. Baeppler,  D. Barton,  Z. Benda,  Y. A. Bernard,  E. J. Berquist,  
 K. B. Bravaya,  H. Burton,  D. Casanova,  Chun-Min Chang,  Yunqing Chen,  
 A. Chien,  K. D. Closser,  M. P. Coons,  S. Dasgupta,  A. L. Dempwolff,  
 M. Diedenhofen,  Hainam Do,  R. G. Edgar,  Po-Tung Fang,  S. Fatehi,  
 Qingguo Feng,  J. Fosso-Tande,  Qinghui Ge,  A. Ghysels,  G. Gidofalvi,  
 J. Gomes,  J. Gonthier,  A. Gunina,  M. W. D. Hanson-Heine,  
 P. H. P. Harbach,  A. W. Hauser,  J. E. Herr,  E. G. Hohenstein,  
 Z. C. Holden,  Kerwin Hui,  T.-C. Jagau,  Hyunjun Ji,  B. Kaduk,  
 K. Khistyaev,  Jaehoon Kim,  P. Klunzinger,  K. Koh,  D. Kosenkov,  
 L. Koulias,  T. Kowalczyk,  C. M. Krauter,  A. Kunitsa,  Ka Un Lao,  
 A. Laurent,  K. V. Lawler,  Joonho Lee,  D. Lefrancois,  S. Lehtola,  
 D. S. Levine,  Yi-Pei Li,  You-Sheng Lin,  Fenglai Liu,  E. Livshits,  
 A. Luenser,  P. Manohar,  E. Mansoor,  S. F. Manzer,  Shan-Ping Mao,  
 Yuezhi Mao,  N. Mardirossian,  A. V. Marenich,  T. Markovich,  
 L. A. Martinez-Martinez,  S. A. Maurer,  N. J. Mayhall,  S. C. McKenzie,  
 J.-M. Mewes,  A. F. Morrison,  J. W. Mullinax,  K. Nanda,  
 T. S. Nguyen-Beck,  R. Olivares-Amaya,  J. A. Parkhill,  T. M. Perrine,  
 F. Plasser,  S. Prager,  A. Prociuk,  E. Ramos,  D. R. Rehn,  F. Rob,  
 M. Schneider,  N. Sergueev,  S. M. Sharada,  S. Sharma,  D. W. Small,  
 T. Stauch,  T. Stein,  Yu-Chuan Su,  A. J. W. Thom,  A. Tkatchenko,  
 T. Tsuchimochi,  L. Vogt,  O. Vydrov,  M. A. Watson,  J. Wenzel,  
 M. de Wergifosse,  T. A. Wesolowski,  A. White,  J. Witte,  A. Yamada,  
 Jun Yang,  K. Yao,  S. Yeganeh,  S. R. Yost,  Zhi-Qiang You,  A. Zech,  
 Igor Ying Zhang,  Xing Zhang,  Yan Zhao,  Ying Zhu,  B. R. Brooks,  
 G. K. L. Chan,  C. J. Cramer,  M. S. Gordon,  W. J. Hehre,  A. Klamt,  
 M. W. Schmidt,  C. D. Sherrill,  D. G. Truhlar,  A. Aspuru-Guzik,  R. Baer,  
 A. T. Bell,  N. A. Besley,  Jeng-Da Chai,  R. A. DiStasio Jr.,  A. Dreuw,  
 B. D. Dunietz,  T. R. Furlani,  Chao-Ping Hsu,  Yousung Jung,  Jing Kong,  
 D. S. Lambrecht,  WanZhen Liang,  C. Ochsenfeld,  V. A. Rassolov,  
 L. V. Slipchenko,  J. E. Subotnik,  T. Van Voorhis,  J. M. Herbert,  
 A. I. Krylov,  P. M. W. Gill,  M. Head-Gordon

 Contributors to earlier versions of Q-Chem not listed above: 
 R. D. Adamson,  B. Austin,  J. Baker,  G. J. O. Beran,  K. Brandhorst,  
 S. T. Brown,  E. F. C. Byrd,  A. K. Chakraborty,  C.-L. Cheng,  
 Siu Hung Chien,  D. M. Chipman,  D. L. Crittenden,  H. Dachsel,  
 R. J. Doerksen,  A. D. Dutoi,  L. Fusti-Molnar,  W. A. Goddard III,  
 A. Golubeva-Zadorozhnaya,  S. R. Gwaltney,  G. Hawkins,  A. Heyden,  
 S. Hirata,  G. Kedziora,  F. J. Keil,  C. Kelley,  Jihan Kim,  R. A. King,  
 R. Z. Khaliullin,  P. P. Korambath,  W. Kurlancheek,  A. M. Lee,  M. S. Lee,  
 S. V. Levchenko,  Ching Yeh Lin,  D. Liotard,  R. C. Lochan,  I. Lotan,  
 P. E. Maslen,  N. Nair,  D. P. O'Neill,  D. Neuhauser,  E. Neuscamman,  
 C. M. Oana,  R. Olson,  B. Peters,  R. Peverati,  P. A. Pieniazek,  
 Y. M. Rhee,  J. Ritchie,  M. A. Rohrdanz,  E. Rosta,  N. J. Russ,  
 H. F. Schaefer III,  N. E. Schultz,  N. Shenvi,  A. C. Simmonett,  A. Sodt,  
 D. Stuck,  K. S. Thanthiriwatte,  V. Vanovschi,  Tao Wang,  A. Warshel,  
 C. F. Williams,  Q. Wu,  X. Xu,  W. Zhang

 Please cite Q-Chem as follows:
 Y. Shao et al., Mol. Phys. 113, 184-215 (2015)
 DOI: 10.1080/00268976.2014.952696

 Q-Chem 5.0.2 for Intel X86 EM64T Linux

 Parts of Q-Chem use Armadillo 5.200.1 (Boston Tea Smuggler).
 http://arma.sourceforge.net/

 Q-Chem begins on Wed Mar  2 21:33:05 2022  

Host: 
0

     Scratch files written to ./qcirc.d//
 Dec517 15110_ 26548  26544 5633   
Processing $rem in /home/leeping/opt/qchem/5.0.2-openmp/config/preferences.
 MEM_STATIC 2000
 MEM_TOTAL  8000
 SYMMETRY   OFF
 SYM_IGNORE TRUE 

Checking the input file for inconsistencies... 	...done.

--------------------------------------------------------------
User input:
--------------------------------------------------------------
$molecule
0 2
C        0.7146456836    0.0983554972    0.2848850543
C        1.0454094738   -1.2213021095   -0.3915995562
C        0.2529172502   -2.2687254800   -0.4222659711
C       -1.3461670746    1.1140309297    0.4295829644
C       -0.5037378488    1.7065129119   -0.6206644145
N        0.6645924553    1.1675447603   -0.7316800961
H        1.5331712908    0.3519603757    0.9787041987
H        2.0081013623   -1.2372249716   -0.9148700990
H        0.2489975985   -3.2616640446   -0.8504663841
H       -2.3586363776    1.4132530285    0.6744772938
H       -0.8051611971    2.5254496004   -1.2707500461
C       -0.6142568033    0.1330928282    0.9922416696
H       -0.8978692787   -0.5334150984    1.7974573354
$end

$rem
method                b3lyp
basis                 6-31+g(d,p)
unrestricted          true
symmetry              off
sym_ignore            true
incdft                false
incfock               0
scf_convergence       8
thresh                14
jobtype               opt
scf_guess             read
scf_algorithm         diis
max_scf_cycles        100
geom_opt_max_cycles   300
$end

--------------------------------------------------------------
 ----------------------------------------------------------------
             Standard Nuclear Orientation (Angstroms)
    I     Atom           X                Y                Z
 ----------------------------------------------------------------
    1      C       0.7146456836     0.0983554972     0.2848850543
    2      C       1.0454094738    -1.2213021095    -0.3915995562
    3      C       0.2529172502    -2.2687254800    -0.4222659711
    4      C      -1.3461670746     1.1140309297     0.4295829644
    5      C      -0.5037378488     1.7065129119    -0.6206644145
    6      N       0.6645924553     1.1675447603    -0.7316800961
    7      H       1.5331712908     0.3519603757     0.9787041987
    8      H       2.0081013623    -1.2372249716    -0.9148700990
    9      H       0.2489975985    -3.2616640446    -0.8504663841
   10      H      -2.3586363776     1.4132530285     0.6744772938
   11      H      -0.8051611971     2.5254496004    -1.2707500461
   12      C      -0.6142568033     0.1330928282     0.9922416696
   13      H      -0.8978692787    -0.5334150984     1.7974573354
 ----------------------------------------------------------------
 Nuclear Repulsion Energy =   260.5374512150 hartrees
 There are       25 alpha and       24 beta electrons
 Requested basis set is 6-31+G(d,p)
 There are 53 shells and 163 basis functions

 Total QAlloc Memory Limit   8000 MB
 Mega-Array Size      1956 MB
 MEM_STATIC part      2000 MB
 A cutoff of  1.0D-14 yielded   1368 shell pairs
 There are     13338 function pairs
 
 -------------------------------------------------------
 OpenMP Integral Computing Module                       
 Release: version 1.0, May 2013, Q-Chem Inc. Pittsburgh 
 -------------------------------------------------------
 Integral Job Info:
 Integral job number is                      11
 Integral operator is                         1
 short-range coefficients                     0
 long-range coefficients              100000000
 Omega coefficients                           0
 if combine SR and LR in K                    0
 Integral screening is                        0
 Integral computing path is                   2
 max size of driver memory is            800000
 size of driver memory is                593474
 size of scratch memory is              2361544
 max col of scratch BK array               1296
 max len of scratch array in speh3          155
 max len of scratch index in speh4           18
 max int batch size is                      520
 min int batch size is                       52
 fixed nKL is                                52
 max L of basis functions is                  2
 order of int derivative is                   0
 number of shells is                         53
 number of basis is                         163
 number of cartesian basis is               163
 number of contracted shell pairs          1368
 number of primitive shell pairs           4565
 maxK2 (contraction) of shell pair           36
 max number of K2 of shell pair               1
 max number of CS2 of shell pair            128
 max number of PS2 of shell pair            672
 mem total for path MDJ                  532812
 -------------------------------------------------------
 Smallest overlap matrix eigenvalue = 1.26E-05

 Scale SEOQF with 1.000000e-01/1.000000e-01/1.000000e-01

 Standard Electronic Orientation quadrupole field applied
 Nucleus-field energy     =     0.0000000058 hartrees
 Guess MOs from SCF MO coefficient file
 Reading MOs from coefficient file
 Reading MOs from coefficient file
 An unrestricted hybrid HF-DFT SCF calculation will be
 performed using Pulay DIIS extrapolation
 Exchange:     0.2000 Hartree-Fock + 0.0800 Slater + 0.7200 B88
 Correlation:  0.1900 VWN1RPA + 0.8100 LYP
 Using SG-1 standard quadrature grid
 SCF converges when DIIS error is below 1.0E-08
Using Q-Chem read-in guess as SCF_GUESS READ specified.

 using 4 threads for integral computing
 -------------------------------------------------------
 OpenMP Integral computing Module                
 Release: version 1.0, May 2013, Q-Chem Inc. Pittsburgh 
 -------------------------------------------------------
 -------------------------------------------------------
 OpenMP BLAS3 based DFT computing Module                
 Release: version 1.0, May 2013, Q-Chem Inc. Pittsburgh 
 -------------------------------------------------------
 ---------------------------------------
  Cycle       Energy         DIIS Error
 ---------------------------------------
    1    -286.0184318700      1.69E-02
    2    -286.5365188300      8.11E-03
    3    -286.1014431619      1.06E-02
    4    -286.6509946453      6.19E-03
    5    -286.8656944430      7.16E-04
    6    -286.8723565467      5.40E-04
    7    -286.8736182948      2.29E-04
    8    -286.8740795901      8.70E-05
    9    -286.8742218305      4.54E-05
   10    -286.8742874074      2.05E-05
   11    -286.8743129500      1.14E-05
   12    -286.8743355131      4.65E-06
   13    -286.8743465394      1.76E-06
   14    -286.8743516317      5.85E-07
   15    -286.8743536728      3.66E-07
   16    -286.8743548452      1.42E-07
   17    -286.8743551287      8.17E-08
   18    -286.8743551842      4.30E-08
   19    -286.8743552033      1.57E-08
   20    -286.8743552081      6.05E-09 Convergence criterion met
 ---------------------------------------
 <S^2> = 0.7601
 SCF time:  CPU 98.03 s  wall 29.41 s
 SCF   energy in the final basis set = -286.87435521
 Total energy in the final basis set = -286.87435521
 
 --------------------------------------------------------------
 
                    Orbital Energies (a.u.)
 --------------------------------------------------------------
 
 Alpha MOs
 -- Occupied --
-14.336 -10.238 -10.235 -10.222 -10.215 -10.212 -10.207  -0.955
 -0.802  -0.775  -0.714  -0.605  -0.565  -0.546  -0.518  -0.481
 -0.454  -0.417  -0.409  -0.378  -0.336  -0.288  -0.277  -0.267
 -0.243
 -- Virtual --
 -0.053  -0.007   0.009   0.020   0.030   0.031   0.041   0.049
  0.052   0.065   0.069   0.076   0.095   0.098   0.107   0.115
  0.123   0.131   0.139   0.147   0.158   0.166   0.171   0.188
  0.196   0.197   0.203   0.212   0.218   0.228   0.240   0.247
  0.248   0.256   0.273   0.283   0.301   0.320   0.341   0.384
  0.402   0.407   0.454   0.508   0.612   0.643   0.659   0.689
  0.695   0.709   0.712   0.722   0.734   0.750   0.764   0.788
  0.810   0.843   0.871   0.886   0.907   0.925   0.935   0.967
  1.006   1.028   1.037   1.040   1.078   1.099   1.113   1.133
  1.180   1.203   1.238   1.313   1.361   1.369   1.390   1.446
  1.470   1.504   1.553   1.605   1.629   1.708   1.773   1.815
  1.822   1.862   1.896   1.919   1.963   1.991   2.016   2.031
  2.069   2.128   2.135   2.219   2.248   2.268   2.317   2.363
  2.418   2.427   2.436   2.455   2.459   2.504   2.525   2.536
  2.607   2.629   2.657   2.672   2.707   2.731   2.768   2.798
  2.843   2.877   2.942   3.019   3.199   3.243   3.299   3.389
  3.434   3.607   3.733   4.126   4.289   4.367   4.401   4.499
  4.647   4.746
 
 Beta MOs
 -- Occupied --
-14.336 -10.237 -10.235 -10.217 -10.212 -10.207 -10.207  -0.955
 -0.794  -0.774  -0.703  -0.597  -0.564  -0.538  -0.514  -0.470
 -0.448  -0.415  -0.408  -0.373  -0.334  -0.282  -0.275  -0.262
 -- Virtual --
 -0.090  -0.052   0.001   0.011   0.022   0.030   0.032   0.042
  0.050   0.053   0.065   0.071   0.077   0.096   0.099   0.110
  0.118   0.125   0.133   0.139   0.148   0.160   0.168   0.172
  0.189   0.196   0.202   0.203   0.213   0.222   0.229   0.241
  0.248   0.249   0.258   0.274   0.283   0.302   0.322   0.347
  0.385   0.404   0.410   0.465   0.512   0.616   0.658   0.666
  0.695   0.699   0.712   0.716   0.722   0.743   0.756   0.766
  0.798   0.818   0.844   0.871   0.887   0.907   0.934   0.938
  0.967   1.012   1.031   1.040   1.049   1.084   1.102   1.120
  1.135   1.187   1.204   1.241   1.314   1.364   1.370   1.393
  1.451   1.471   1.512   1.558   1.630   1.655   1.743   1.776
  1.817   1.836   1.864   1.898   1.934   1.970   1.994   2.020
  2.032   2.079   2.132   2.141   2.220   2.250   2.275   2.323
  2.364   2.423   2.434   2.441   2.456   2.463   2.506   2.525
  2.537   2.612   2.638   2.660   2.682   2.710   2.736   2.778
  2.800   2.847   2.879   2.943   3.028   3.199   3.243   3.311
  3.390   3.434   3.624   3.733   4.126   4.301   4.369   4.405
  4.518   4.647   4.747
 --------------------------------------------------------------
 
          Ground-State Mulliken Net Atomic Charges

     Atom                 Charge (a.u.)    Spin (a.u.)
  --------------------------------------------------------
      1 C                    -0.042027       0.063357
      2 C                    -0.094748      -0.289627
      3 C                    -0.238181       1.148752
      4 C                     0.011263      -0.031531
      5 C                    -0.131086       0.013159
      6 N                    -0.214709      -0.001883
      7 H                     0.169897      -0.003994
      8 H                     0.155461       0.077480
      9 H                     0.154136       0.008338
     10 H                     0.134559       0.000087
     11 H                     0.131344      -0.000166
     12 C                    -0.180068       0.015728
     13 H                     0.144161       0.000300
  --------------------------------------------------------
  Sum of atomic charges =     0.000000
  Sum of spin   charges =     1.000000

 -----------------------------------------------------------------
                    Cartesian Multipole Moments
 -----------------------------------------------------------------
    Charge (ESU x 10^10)
                 0.0000
    Dipole Moment (Debye)
         X      -0.9892      Y      -0.6070      Z       1.1399
       Tot       1.6267
    Quadrupole Moments (Debye-Ang)
        XX     -40.0735     XY      -4.6774     YY     -39.1832
        XZ       0.9500     YZ       1.5540     ZZ     -42.7028
    Octopole Moments (Debye-Ang^2)
       XXX      -5.6219    XXY      -1.3783    XYY      -7.9724
       YYY     -16.1757    XXZ       5.4633    XYZ       6.5338
       YYZ      -6.7357    XZZ      -3.7380    YZZ      -5.4338
       ZZZ      11.3742
    Hexadecapole Moments (Debye-Ang^3)
      XXXX    -235.9919   XXXY      54.4392   XXYY    -133.4116
      XYYY      54.6633   YYYY    -477.4751   XXXZ      29.1191
      XXYZ       5.9867   XYYZ      14.1818   YYYZ       9.6511
      XXZZ     -68.0271   XYZZ      19.9634   YYZZ    -113.1366
      XZZZ      36.5651   YZZZ      -9.3110   ZZZZ    -169.7332
 -----------------------------------------------------------------
 Calculating analytic gradient of the SCF energy
 Gradient of SCF Energy
            1           2           3           4           5           6
    1   0.0001841   0.0000055  -0.0002659   0.0000903  -0.0000370   0.0000411
    2   0.0001735   0.0000667   0.0003039  -0.0001615  -0.0001123   0.0000840
    3   0.0003033   0.0001044  -0.0001784  -0.0001846  -0.0001239   0.0001125
            7           8           9          10          11          12
    1   0.0002143   0.0001776  -0.0005887  -0.0002613  -0.0001324   0.0003568
    2   0.0001075  -0.0000581   0.0004558  -0.0004230  -0.0003721  -0.0000380
    3   0.0001055   0.0001976  -0.0002648  -0.0002157  -0.0001467   0.0000530
           13
    1   0.0002156
    2  -0.0000264
    3   0.0002380
 Max gradient component =       5.887E-04
 RMS gradient           =       2.241E-04
 Gradient time:  CPU 15.90 s  wall 4.10 s
 Geometry Optimization Parameters
   NAtoms,    NIC,     NZ,  NCons,   NDum,   NFix, NCnnct, MaxDiis
       13      86       0       0       0       0       0       0


** GEOMETRY OPTIMIZATION IN DELOCALIZED INTERNAL COORDINATES **
   Searching for a Minimum

   Optimization Cycle:   1

                       Coordinates (Angstroms)
     ATOM                X               Y               Z
      1  C         0.7146456836    0.0983554972    0.2848850543
      2  C         1.0454094738   -1.2213021095   -0.3915995562
      3  C         0.2529172502   -2.2687254800   -0.4222659711
      4  C        -1.3461670746    1.1140309297    0.4295829644
      5  C        -0.5037378488    1.7065129119   -0.6206644145
      6  N         0.6645924553    1.1675447603   -0.7316800961
      7  H         1.5331712908    0.3519603757    0.9787041987
      8  H         2.0081013623   -1.2372249716   -0.9148700990
      9  H         0.2489975985   -3.2616640446   -0.8504663841
     10  H        -2.3586363776    1.4132530285    0.6744772938
     11  H        -0.8051611971    2.5254496004   -1.2707500461
     12  C        -0.6142568033    0.1330928282    0.9922416696
     13  H        -0.8978692787   -0.5334150984    1.7974573354
   Point Group: c1    Number of degrees of freedom:    33


   Energy is   -286.874355208


 Attempting to Generate Delocalized Internal Coordinates

 33 Hessian modes will be used to form the next step
  Hessian Eigenvalues:
     0.006614    0.009918    0.014017    0.015904    0.018369    0.019183
     0.023533    0.033809    0.057536    0.062274    0.086710    0.159935
     0.159963    0.159981    0.159999    0.160000    0.164576    0.207599
     0.220030    0.224148    0.300678    0.304258    0.332901    0.333983
     0.341476    0.350244    0.351062    0.355402    0.356259    0.358328
     0.529947    0.635009    0.661825

 Minimum Search - Taking Simple RFO Step
 Searching for Lamda that Minimizes Along All modes
 Value Taken    Lamda =  -0.00059189
 Step Taken.  Stepsize is  0.223939

                             Maximum     Tolerance    Cnvgd?
         Gradient           0.003415      0.000300      NO
         Displacement       0.108021      0.001200      NO
         Energy change     *********      0.000001      NO


 New Cartesian Coordinates Obtained by Inverse Iteration

 Displacement from previous Coordinates is:  0.449744
 ----------------------------------------------------------------
             Standard Nuclear Orientation (Angstroms)
    I     Atom           X                Y                Z
 ----------------------------------------------------------------
    1      C       0.6853481735     0.0829872740     0.2562277318
    2      C       1.0362752029    -1.2348791563    -0.4164743503
    3      C       0.3017095520    -2.3237133973    -0.3843319361
    4      C      -1.3475868202     1.1480232709     0.4408615460
    5      C      -0.4991123265     1.7408879753    -0.6043627054
    6      N       0.6460538317     1.1620457874    -0.7504787595
    7      H       1.4994891748     0.3345534026     0.9553029611
    8      H       1.9872239336    -1.2261049653    -0.9607918452
    9      H       0.3441586964    -3.3303448604    -0.7782640663
   10      H      -2.3433387873     1.4791063032     0.7114704344
   11      H      -0.7790091786     2.5901946113    -1.2248205288
   12      C      -0.6461723034     0.1215751422     0.9601488375
   13      H      -0.9430326142    -0.5564631598     1.7505646298
 ----------------------------------------------------------------
 Nuclear Repulsion Energy =   259.8787144503 hartrees
 There are       25 alpha and       24 beta electrons
 Applying Cartesian multipole field
    Component          Value
    ---------          -----
     (2,0,0)        1.00000E-11
     (0,2,0)        2.00000E-11
     (0,0,2)       -3.00000E-11
 Nucleus-field energy     =     0.0000000061 hartrees
 Requested basis set is 6-31+G(d,p)
 There are 53 shells and 163 basis functions
 A cutoff of  1.0D-14 yielded   1365 shell pairs
 There are     13290 function pairs
 Smallest overlap matrix eigenvalue = 1.25E-05
 Guess MOs from SCF MO coefficient file
 Reading MOs from coefficient file
 Reading MOs from coefficient file
 An unrestricted hybrid HF-DFT SCF calculation will be
 performed using Pulay DIIS extrapolation
 Exchange:     0.2000 Hartree-Fock + 0.0800 Slater + 0.7200 B88
 Correlation:  0.1900 VWN1RPA + 0.8100 LYP
 Using SG-1 standard quadrature grid
 SCF converges when DIIS error is below 1.0E-08
 Geometry optimization detected.  Setting ReadMinima to 0
 Setting SaveMinima to 0
Using Q-Chem read-in guess as SCF_GUESS READ specified.

 using 4 threads for integral computing
 -------------------------------------------------------
 OpenMP Integral computing Module                
 Release: version 1.0, May 2013, Q-Chem Inc. Pittsburgh 
 -------------------------------------------------------
 -------------------------------------------------------
 OpenMP BLAS3 based DFT computing Module                
 Release: version 1.0, May 2013, Q-Chem Inc. Pittsburgh 
 -------------------------------------------------------
 ---------------------------------------
  Cycle       Energy         DIIS Error
 ---------------------------------------
    1    -286.8642963796      1.82E-03
    2    -286.8745067777      1.66E-04
    3    -286.8746140585      1.47E-04
    4    -286.8746916273      4.69E-05
    5    -286.8746980172      2.66E-05
    6    -286.8747008181      7.45E-06
    7    -286.8747011734      4.26E-06
    8    -286.8747012840      1.33E-06
    9    -286.8747013389      6.11E-07
   10    -286.8747013535      2.61E-07
   11    -286.8747013547      1.18E-07
   12    -286.8747013550      5.30E-08
   13    -286.8747013550      1.41E-08
   14    -286.8747013550      2.39E-09 Convergence criterion met
 ---------------------------------------
 <S^2> = 0.7601
 SCF time:  CPU 67.61 s  wall 19.25 s
 SCF   energy in the final basis set = -286.87470136
 Total energy in the final basis set = -286.87470136
 
 --------------------------------------------------------------
 
                    Orbital Energies (a.u.)
 --------------------------------------------------------------
 
 Alpha MOs
 -- Occupied --
-14.336 -10.238 -10.235 -10.222 -10.215 -10.212 -10.208  -0.955
 -0.802  -0.776  -0.715  -0.605  -0.565  -0.547  -0.517  -0.480
 -0.455  -0.417  -0.408  -0.379  -0.337  -0.287  -0.277  -0.266
 -0.243
 -- Virtual --
 -0.053  -0.007   0.010   0.020   0.030   0.032   0.041   0.049
  0.052   0.064   0.068   0.076   0.096   0.099   0.106   0.115
  0.123   0.133   0.140   0.147   0.158   0.166   0.171   0.189
  0.194   0.194   0.204   0.212   0.217   0.228   0.238   0.247
  0.250   0.255   0.275   0.284   0.300   0.321   0.341   0.384
  0.403   0.407   0.454   0.506   0.615   0.642   0.661   0.684
  0.694   0.707   0.711   0.720   0.733   0.749   0.765   0.786
  0.801   0.844   0.871   0.885   0.905   0.923   0.935   0.964
  1.006   1.028   1.038   1.040   1.077   1.095   1.104   1.137
  1.175   1.202   1.237   1.312   1.363   1.369   1.393   1.448
  1.469   1.502   1.552   1.602   1.629   1.711   1.759   1.818
  1.827   1.861   1.897   1.916   1.966   1.991   2.013   2.028
  2.068   2.125   2.132   2.218   2.241   2.263   2.318   2.363
  2.416   2.427   2.433   2.452   2.459   2.502   2.528   2.533
  2.611   2.627   2.657   2.670   2.707   2.739   2.770   2.795
  2.842   2.872   2.943   3.021   3.198   3.243   3.299   3.390
  3.433   3.603   3.732   4.124   4.280   4.367   4.397   4.492
  4.644   4.744
 
 Beta MOs
 -- Occupied --
-14.336 -10.237 -10.235 -10.216 -10.212 -10.208 -10.207  -0.955
 -0.794  -0.775  -0.704  -0.597  -0.564  -0.538  -0.514  -0.469
 -0.450  -0.415  -0.408  -0.374  -0.335  -0.281  -0.275  -0.263
 -- Virtual --
 -0.090  -0.052   0.001   0.011   0.022   0.030   0.033   0.042
  0.050   0.052   0.065   0.070   0.077   0.097   0.100   0.109
  0.118   0.125   0.134   0.140   0.148   0.159   0.168   0.171
  0.189   0.194   0.200   0.204   0.213   0.222   0.228   0.239
  0.249   0.251   0.259   0.276   0.284   0.301   0.322   0.347
  0.385   0.404   0.411   0.466   0.509   0.619   0.659   0.666
  0.691   0.699   0.709   0.714   0.721   0.743   0.755   0.767
  0.793   0.810   0.846   0.871   0.887   0.906   0.932   0.939
  0.964   1.013   1.032   1.040   1.047   1.085   1.099   1.108
  1.140   1.182   1.202   1.242   1.313   1.366   1.370   1.396
  1.452   1.469   1.511   1.557   1.629   1.653   1.744   1.763
  1.821   1.839   1.863   1.899   1.929   1.974   1.994   2.017
  2.029   2.078   2.127   2.139   2.218   2.242   2.271   2.324
  2.364   2.422   2.433   2.437   2.454   2.464   2.504   2.529
  2.533   2.616   2.637   2.660   2.679   2.710   2.743   2.779
  2.797   2.847   2.874   2.944   3.030   3.198   3.243   3.312
  3.391   3.433   3.620   3.732   4.124   4.292   4.368   4.401
  4.511   4.645   4.745
 --------------------------------------------------------------
 
          Ground-State Mulliken Net Atomic Charges

     Atom                 Charge (a.u.)    Spin (a.u.)
  --------------------------------------------------------
      1 C                    -0.041155       0.069887
      2 C                    -0.099477      -0.298082
      3 C                    -0.231173       1.155310
      4 C                     0.031119      -0.030046
      5 C                    -0.142042       0.013700
      6 N                    -0.210560      -0.002653
      7 H                     0.174248      -0.004239
      8 H                     0.156007       0.077949
      9 H                     0.154367       0.008684
     10 H                     0.134662       0.000161
     11 H                     0.131425      -0.000124
     12 C                    -0.202364       0.009279
     13 H                     0.144943       0.000173
  --------------------------------------------------------
  Sum of atomic charges =     0.000000
  Sum of spin   charges =     1.000000

 -----------------------------------------------------------------
                    Cartesian Multipole Moments
 -----------------------------------------------------------------
    Charge (ESU x 10^10)
                 0.0000
    Dipole Moment (Debye)
         X      -0.9422      Y      -0.5265      Z       1.2031
       Tot       1.6163
    Quadrupole Moments (Debye-Ang)
        XX     -40.1591     XY      -4.7984     YY     -38.7708
        XZ       0.7164     YZ       1.5350     ZZ     -42.9637
    Octopole Moments (Debye-Ang^2)
       XXX      -5.1227    XXY      -1.0531    XYY      -7.4147
       YYY     -15.3532    XXZ       5.6972    XYZ       6.5236
       YYZ      -6.1061    XZZ      -3.5019    YZZ      -5.0776
       ZZZ      11.9626
    Hexadecapole Moments (Debye-Ang^3)
      XXXX    -236.2948   XXXY      59.4342   XXYY    -135.7135
      XYYY      55.6149   YYYY    -488.1197   XXXZ      30.7204
      XXYZ       6.7012   XYYZ      13.7329   YYYZ       9.2265
      XXZZ     -66.9211   XYZZ      21.3100   YYZZ    -117.0030
      XZZZ      38.6293   YZZZ      -8.2982   ZZZZ    -167.5411
 -----------------------------------------------------------------
 Calculating analytic gradient of the SCF energy
 Gradient of SCF Energy
            1           2           3           4           5           6
    1   0.0018770  -0.0003152  -0.0000797  -0.0000561   0.0001773  -0.0009274
    2   0.0028402   0.0000249  -0.0000601   0.0003350   0.0001990  -0.0012790
    3   0.0041017  -0.0019303   0.0001696   0.0003900   0.0002192  -0.0016333
            7           8           9          10          11          12
    1   0.0002369   0.0003213  -0.0002410  -0.0000230   0.0000226  -0.0011403
    2  -0.0003148  -0.0003254   0.0000762  -0.0000597   0.0000694  -0.0016091
    3  -0.0006105   0.0007660  -0.0001083   0.0000022   0.0000728  -0.0015728
           13
    1   0.0001475
    2   0.0001033
    3   0.0001337
 Max gradient component =       4.102E-03
 RMS gradient           =       1.082E-03
 Gradient time:  CPU 16.02 s  wall 4.08 s
 Geometry Optimization Parameters
   NAtoms,    NIC,     NZ,  NCons,   NDum,   NFix, NCnnct, MaxDiis
       13      86       0       0       0       0       0       0

 Cartesian Hessian Update
 Hessian Updated using BFGS Update


** GEOMETRY OPTIMIZATION IN DELOCALIZED INTERNAL COORDINATES **
   Searching for a Minimum

   Optimization Cycle:   2

                       Coordinates (Angstroms)
     ATOM                X               Y               Z
      1  C         0.6853481735    0.0829872740    0.2562277318
      2  C         1.0362752029   -1.2348791563   -0.4164743503
      3  C         0.3017095520   -2.3237133973   -0.3843319361
      4  C        -1.3475868202    1.1480232709    0.4408615460
      5  C        -0.4991123265    1.7408879753   -0.6043627054
      6  N         0.6460538317    1.1620457874   -0.7504787595
      7  H         1.4994891748    0.3345534026    0.9553029611
      8  H         1.9872239336   -1.2261049653   -0.9607918452
      9  H         0.3441586964   -3.3303448604   -0.7782640663
     10  H        -2.3433387873    1.4791063032    0.7114704344
     11  H        -0.7790091786    2.5901946113   -1.2248205288
     12  C        -0.6461723034    0.1215751422    0.9601488375
     13  H        -0.9430326142   -0.5564631598    1.7505646298
   Point Group: c1    Number of degrees of freedom:    33


   Energy is   -286.874701355

 Hessian Updated using BFGS Update

 33 Hessian modes will be used to form the next step
  Hessian Eigenvalues:
     0.004071    0.011580    0.014972    0.016998    0.018898    0.020987
     0.023331    0.033291    0.057513    0.059472    0.090566    0.158965
     0.159961    0.159982    0.159999    0.160014    0.163643    0.204111
     0.216062    0.224016    0.300618    0.307726    0.332922    0.334563
     0.341540    0.350251    0.351363    0.355406    0.356278    0.358325
     0.530001    0.635135    0.661870

 Minimum Search - Taking Simple RFO Step
 Searching for Lamda that Minimizes Along All modes
 Value Taken    Lamda =  -0.00035930
 Step Taken.  Stepsize is  0.229294

                             Maximum     Tolerance    Cnvgd?
         Gradient           0.001462      0.000300      NO
         Displacement       0.120856      0.001200      NO
         Energy change     -0.000346      0.000001      NO


 New Cartesian Coordinates Obtained by Inverse Iteration

 Displacement from previous Coordinates is:  0.365232
 ----------------------------------------------------------------
             Standard Nuclear Orientation (Angstroms)
    I     Atom           X                Y                Z
 ----------------------------------------------------------------
    1      C       0.6616277481     0.0676139101     0.2386848143
    2      C       1.0233011084    -1.2463012602    -0.4346230203
    3      C       0.3466004147    -2.3686773869    -0.3447896427
    4      C      -1.3496622042     1.1680531524     0.4419907224
    5      C      -0.4899043121     1.7629025819    -0.5925969752
    6      N       0.6472058382     1.1697318623    -0.7429639518
    7      H       1.4709268105     0.3087942404     0.9474641515
    8      H       1.9390409174    -1.2042880657    -1.0351787321
    9      H       0.4246698888    -3.3791458450    -0.7241039214
   10      H      -2.3372763964     1.5165169834     0.7202527639
   11      H      -0.7511624614     2.6311611693    -1.1948924684
   12      C      -0.6663271695     0.1228597313     0.9481156938
   13      H      -0.9770336479    -0.5613528453     1.7276925151
 ----------------------------------------------------------------
 Nuclear Repulsion Energy =   259.3776714016 hartrees
 There are       25 alpha and       24 beta electrons
 Applying Cartesian multipole field
    Component          Value
    ---------          -----
     (2,0,0)        1.00000E-11
     (0,2,0)        2.00000E-11
     (0,0,2)       -3.00000E-11
 Nucleus-field energy     =     0.0000000064 hartrees
 Requested basis set is 6-31+G(d,p)
 There are 53 shells and 163 basis functions
 A cutoff of  1.0D-14 yielded   1364 shell pairs
 There are     13277 function pairs
 Smallest overlap matrix eigenvalue = 1.27E-05
 Guess MOs from SCF MO coefficient file
 Reading MOs from coefficient file
 Reading MOs from coefficient file
 An unrestricted hybrid HF-DFT SCF calculation will be
 performed using Pulay DIIS extrapolation
 Exchange:     0.2000 Hartree-Fock + 0.0800 Slater + 0.7200 B88
 Correlation:  0.1900 VWN1RPA + 0.8100 LYP
 Using SG-1 standard quadrature grid
 SCF converges when DIIS error is below 1.0E-08
 Geometry optimization detected.  Setting ReadMinima to 0
 Setting SaveMinima to 0
Using Q-Chem read-in guess as SCF_GUESS READ specified.

 using 4 threads for integral computing
 -------------------------------------------------------
 OpenMP Integral computing Module                
 Release: version 1.0, May 2013, Q-Chem Inc. Pittsburgh 
 -------------------------------------------------------
 -------------------------------------------------------
 OpenMP BLAS3 based DFT computing Module                
 Release: version 1.0, May 2013, Q-Chem Inc. Pittsburgh 
 -------------------------------------------------------
 ---------------------------------------
  Cycle       Energy         DIIS Error
 ---------------------------------------
    1    -286.8682237475      1.40E-03
    2    -286.8747223577      1.37E-04
    3    -286.8748000381      1.37E-04
    4    -286.8748729887      4.39E-05
    5    -286.8748811369      2.38E-05
    6    -286.8748847809      7.31E-06
    7    -286.8748856089      5.29E-06
    8    -286.8748859004      1.81E-06
    9    -286.8748860270      9.34E-07
   10    -286.8748860443      2.95E-07
   11    -286.8748860452      1.41E-07
   12    -286.8748860454      4.85E-08
   13    -286.8748860455      8.96E-09 Convergence criterion met
 ---------------------------------------
 <S^2> = 0.7601
 SCF time:  CPU 62.12 s  wall 17.05 s
 SCF   energy in the final basis set = -286.87488605
 Total energy in the final basis set = -286.87488605
 
 --------------------------------------------------------------
 
                    Orbital Energies (a.u.)
 --------------------------------------------------------------
 
 Alpha MOs
 -- Occupied --
-14.336 -10.239 -10.235 -10.222 -10.215 -10.213 -10.208  -0.955
 -0.802  -0.776  -0.715  -0.606  -0.566  -0.547  -0.517  -0.479
 -0.457  -0.417  -0.408  -0.381  -0.337  -0.287  -0.278  -0.266
 -0.245
 -- Virtual --
 -0.053  -0.008   0.010   0.020   0.030   0.033   0.042   0.048
  0.052   0.063   0.068   0.076   0.096   0.100   0.105   0.115
  0.123   0.133   0.141   0.147   0.157   0.166   0.171   0.190
  0.192   0.193   0.203   0.212   0.218   0.228   0.236   0.247
  0.250   0.257   0.277   0.285   0.299   0.319   0.341   0.384
  0.401   0.408   0.454   0.504   0.618   0.641   0.661   0.681
  0.693   0.705   0.710   0.719   0.733   0.750   0.763   0.785
  0.795   0.846   0.870   0.883   0.904   0.919   0.936   0.961
  1.007   1.030   1.037   1.042   1.071   1.091   1.103   1.137
  1.173   1.203   1.234   1.317   1.363   1.368   1.391   1.452
  1.468   1.495   1.553   1.599   1.629   1.707   1.753   1.819
  1.830   1.863   1.898   1.914   1.974   1.993   2.008   2.026
  2.066   2.118   2.127   2.215   2.234   2.261   2.320   2.363
  2.412   2.425   2.429   2.455   2.459   2.502   2.529   2.532
  2.614   2.625   2.657   2.669   2.707   2.742   2.771   2.799
  2.842   2.871   2.942   3.023   3.198   3.243   3.299   3.392
  3.432   3.600   3.731   4.125   4.273   4.368   4.394   4.482
  4.644   4.742
 
 Beta MOs
 -- Occupied --
-14.336 -10.238 -10.235 -10.217 -10.213 -10.208 -10.207  -0.955
 -0.794  -0.775  -0.705  -0.597  -0.565  -0.538  -0.514  -0.468
 -0.452  -0.415  -0.407  -0.376  -0.335  -0.281  -0.274  -0.264
 -- Virtual --
 -0.091  -0.053   0.000   0.012   0.022   0.031   0.034   0.042
  0.049   0.052   0.064   0.069   0.077   0.097   0.101   0.109
  0.117   0.125   0.135   0.141   0.148   0.159   0.168   0.171
  0.190   0.193   0.198   0.203   0.213   0.224   0.228   0.237
  0.248   0.251   0.259   0.278   0.285   0.299   0.320   0.347
  0.385   0.402   0.412   0.467   0.506   0.622   0.659   0.666
  0.686   0.698   0.707   0.713   0.720   0.745   0.756   0.765
  0.791   0.804   0.847   0.870   0.886   0.904   0.928   0.941
  0.962   1.013   1.034   1.042   1.045   1.081   1.093   1.106
  1.140   1.180   1.203   1.238   1.318   1.365   1.369   1.394
  1.456   1.469   1.503   1.557   1.628   1.652   1.735   1.762
  1.822   1.842   1.865   1.900   1.927   1.981   1.996   2.013
  2.027   2.076   2.122   2.132   2.216   2.235   2.269   2.326
  2.364   2.420   2.428   2.435   2.457   2.464   2.505   2.530
  2.533   2.619   2.634   2.661   2.677   2.710   2.746   2.780
  2.801   2.847   2.872   2.943   3.032   3.198   3.243   3.311
  3.393   3.432   3.617   3.731   4.125   4.285   4.369   4.398
  4.501   4.644   4.742
 --------------------------------------------------------------
 
          Ground-State Mulliken Net Atomic Charges

     Atom                 Charge (a.u.)    Spin (a.u.)
  --------------------------------------------------------
      1 C                    -0.054161       0.078862
      2 C                    -0.101188      -0.307357
      3 C                    -0.226908       1.161196
      4 C                     0.028906      -0.030108
      5 C                    -0.144737       0.014191
      6 N                    -0.206347      -0.003894
      7 H                     0.177107      -0.004683
      8 H                     0.157937       0.078531
      9 H                     0.154719       0.008809
     10 H                     0.134641       0.000240
     11 H                     0.131523      -0.000122
     12 C                    -0.196859       0.004290
     13 H                     0.145366       0.000045
  --------------------------------------------------------
  Sum of atomic charges =     0.000000
  Sum of spin   charges =     1.000000

 -----------------------------------------------------------------
                    Cartesian Multipole Moments
 -----------------------------------------------------------------
    Charge (ESU x 10^10)
                 0.0000
    Dipole Moment (Debye)
         X      -0.9525      Y      -0.4983      Z       1.1675
       Tot       1.5870
    Quadrupole Moments (Debye-Ang)
        XX     -40.3683     XY      -4.9024     YY     -38.6204
        XZ       0.4988     YZ       1.5245     ZZ     -42.9450
    Octopole Moments (Debye-Ang^2)
       XXX      -5.6225    XXY      -0.9035    XYY      -7.1037
       YYY     -14.8780    XXZ       5.5397    XYZ       6.5825
       YYZ      -5.9804    XZZ      -3.2517    YZZ      -4.8936
       ZZZ      11.4942
    Hexadecapole Moments (Debye-Ang^3)
      XXXX    -237.2950   XXXY      63.0990   XXYY    -138.0177
      XYYY      55.8841   YYYY    -497.8627   XXXZ      31.8170
      XXYZ       7.2394   XYYZ      13.3660   YYYZ       9.1314
      XXZZ     -65.8829   XYZZ      22.1511   YYZZ    -119.8150
      XZZZ      39.5092   YZZZ      -7.2744   ZZZZ    -164.9858
 -----------------------------------------------------------------
 Calculating analytic gradient of the SCF energy
 Gradient of SCF Energy
            1           2           3           4           5           6
    1   0.0000337   0.0004611   0.0001458  -0.0000892  -0.0000832   0.0001625
    2   0.0004493  -0.0009047  -0.0000753   0.0000853  -0.0004174   0.0011079
    3   0.0012643  -0.0007486   0.0000813   0.0002540  -0.0005058   0.0003736
            7           8           9          10          11          12
    1  -0.0003341   0.0000739  -0.0000083   0.0000491   0.0000054  -0.0004336
    2  -0.0000608  -0.0003081  -0.0001287   0.0000301   0.0001161  -0.0000355
    3  -0.0010345   0.0002675  -0.0001908  -0.0000331  -0.0000068   0.0002521
           13
    1   0.0000170
    2   0.0001417
    3   0.0000266
 Max gradient component =       1.264E-03
 RMS gradient           =       4.248E-04
 Gradient time:  CPU 16.05 s  wall 4.07 s
 Geometry Optimization Parameters
   NAtoms,    NIC,     NZ,  NCons,   NDum,   NFix, NCnnct, MaxDiis
       13      86       0       0       0       0       0       0

 Cartesian Hessian Update
 Hessian Updated using BFGS Update


** GEOMETRY OPTIMIZATION IN DELOCALIZED INTERNAL COORDINATES **
   Searching for a Minimum

   Optimization Cycle:   3

                       Coordinates (Angstroms)
     ATOM                X               Y               Z
      1  C         0.6616277481    0.0676139101    0.2386848143
      2  C         1.0233011084   -1.2463012602   -0.4346230203
      3  C         0.3466004147   -2.3686773869   -0.3447896427
      4  C        -1.3496622042    1.1680531524    0.4419907224
      5  C        -0.4899043121    1.7629025819   -0.5925969752
      6  N         0.6472058382    1.1697318623   -0.7429639518
      7  H         1.4709268105    0.3087942404    0.9474641515
      8  H         1.9390409174   -1.2042880657   -1.0351787321
      9  H         0.4246698888   -3.3791458450   -0.7241039214
     10  H        -2.3372763964    1.5165169834    0.7202527639
     11  H        -0.7511624614    2.6311611693   -1.1948924684
     12  C        -0.6663271695    0.1228597313    0.9481156938
     13  H        -0.9770336479   -0.5613528453    1.7276925151
   Point Group: c1    Number of degrees of freedom:    33


   Energy is   -286.874886046

 Hessian Updated using BFGS Update

 33 Hessian modes will be used to form the next step
  Hessian Eigenvalues:
     0.003329    0.011865    0.014984    0.017001    0.019115    0.020933
     0.023450    0.033151    0.056910    0.070450    0.089639    0.158816
     0.159967    0.159982    0.159999    0.160385    0.163550    0.206875
     0.216483    0.224224    0.300830    0.310569    0.333034    0.336325
     0.341499    0.350261    0.351418    0.355415    0.356294    0.358535
     0.530039    0.635033    0.662012

 Minimum Search - Taking Simple RFO Step
 Searching for Lamda that Minimizes Along All modes
 Value Taken    Lamda =  -0.00005281
 Step Taken.  Stepsize is  0.082582

                             Maximum     Tolerance    Cnvgd?
         Gradient           0.000940      0.000300      NO
         Displacement       0.040194      0.001200      NO
         Energy change     -0.000185      0.000001      NO


 New Cartesian Coordinates Obtained by Inverse Iteration

 Displacement from previous Coordinates is:  0.105405
 ----------------------------------------------------------------
             Standard Nuclear Orientation (Angstroms)
    I     Atom           X                Y                Z
 ----------------------------------------------------------------
    1      C       0.6580344441     0.0647128180     0.2347959728
    2      C       1.0201687218    -1.2463398842    -0.4368259001
    3      C       0.3575810917    -2.3753544536    -0.3288241511
    4      C      -1.3486788441     1.1707260773     0.4411244260
    5      C      -0.4839982732     1.7698211405    -0.5865468630
    6      N       0.6469880794     1.1670320477    -0.7452403086
    7      H       1.4643342675     0.3043170941     0.9499625251
    8      H       1.9196964972    -1.1938512849    -1.0609548656
    9      H       0.4401419595    -3.3865514244    -0.7045783178
   10      H      -2.3357030976     1.5208026404     0.7197047826
   11      H      -0.7417661362     2.6411081661    -1.1857238828
   12      C      -0.6698095837     0.1203987288     0.9423880446
   13      H      -0.9849825920    -0.5689534379     1.7157704869
 ----------------------------------------------------------------
 Nuclear Repulsion Energy =   259.4522618151 hartrees
 There are       25 alpha and       24 beta electrons
 Applying Cartesian multipole field
    Component          Value
    ---------          -----
     (2,0,0)        1.00000E-11
     (0,2,0)        2.00000E-11
     (0,0,2)       -3.00000E-11
 Nucleus-field energy     =     0.0000000064 hartrees
 Requested basis set is 6-31+G(d,p)
 There are 53 shells and 163 basis functions
 A cutoff of  1.0D-14 yielded   1364 shell pairs
 There are     13277 function pairs
 Smallest overlap matrix eigenvalue = 1.26E-05
 Guess MOs from SCF MO coefficient file
 Reading MOs from coefficient file
 Reading MOs from coefficient file
 An unrestricted hybrid HF-DFT SCF calculation will be
 performed using Pulay DIIS extrapolation
 Exchange:     0.2000 Hartree-Fock + 0.0800 Slater + 0.7200 B88
 Correlation:  0.1900 VWN1RPA + 0.8100 LYP
 Using SG-1 standard quadrature grid
 SCF converges when DIIS error is below 1.0E-08
 Geometry optimization detected.  Setting ReadMinima to 0
 Setting SaveMinima to 0
Using Q-Chem read-in guess as SCF_GUESS READ specified.

 using 4 threads for integral computing
 -------------------------------------------------------
 OpenMP Integral computing Module                
 Release: version 1.0, May 2013, Q-Chem Inc. Pittsburgh 
 -------------------------------------------------------
 -------------------------------------------------------
 OpenMP BLAS3 based DFT computing Module                
 Release: version 1.0, May 2013, Q-Chem Inc. Pittsburgh 
 -------------------------------------------------------
 ---------------------------------------
  Cycle       Energy         DIIS Error
 ---------------------------------------
    1    -286.8761256204      4.25E-04
    2    -286.8748917083      3.40E-05
    3    -286.8749022541      2.93E-05
    4    -286.8749051173      1.60E-05
    5    -286.8749064596      5.21E-06
    6    -286.8749068145      3.41E-06
    7    -286.8749069312      1.43E-06
    8    -286.8749069725      6.36E-07
    9    -286.8749069857      3.20E-07
   10    -286.8749069867      1.24E-07
   11    -286.8749069868      3.38E-08
   12    -286.8749069868      7.46E-09 Convergence criterion met
 ---------------------------------------
 <S^2> = 0.7601
 SCF time:  CPU 58.74 s  wall 17.72 s
 SCF   energy in the final basis set = -286.87490699
 Total energy in the final basis set = -286.87490699
 
 --------------------------------------------------------------
 
                    Orbital Energies (a.u.)
 --------------------------------------------------------------
 
 Alpha MOs
 -- Occupied --
-14.336 -10.239 -10.235 -10.222 -10.215 -10.213 -10.208  -0.955
 -0.803  -0.776  -0.715  -0.606  -0.566  -0.547  -0.517  -0.478
 -0.457  -0.417  -0.408  -0.381  -0.337  -0.286  -0.278  -0.266
 -0.245
 -- Virtual --
 -0.053  -0.008   0.010   0.020   0.030   0.033   0.042   0.048
  0.052   0.063   0.068   0.076   0.096   0.100   0.105   0.115
  0.123   0.134   0.141   0.147   0.157   0.166   0.171   0.190
  0.192   0.193   0.204   0.212   0.219   0.227   0.236   0.247
  0.250   0.257   0.278   0.285   0.299   0.318   0.341   0.384
  0.402   0.409   0.454   0.504   0.619   0.641   0.661   0.680
  0.692   0.704   0.711   0.719   0.733   0.751   0.763   0.786
  0.794   0.846   0.870   0.882   0.904   0.918   0.936   0.960
  1.007   1.030   1.037   1.044   1.069   1.089   1.103   1.137
  1.172   1.203   1.232   1.319   1.362   1.368   1.391   1.457
  1.468   1.495   1.554   1.599   1.629   1.708   1.752   1.821
  1.832   1.864   1.900   1.914   1.975   1.993   2.008   2.026
  2.066   2.116   2.125   2.215   2.232   2.263   2.321   2.363
  2.411   2.426   2.429   2.454   2.460   2.503   2.530   2.533
  2.614   2.623   2.657   2.670   2.707   2.744   2.771   2.800
  2.842   2.869   2.942   3.025   3.198   3.242   3.298   3.390
  3.432   3.601   3.731   4.126   4.273   4.368   4.393   4.481
  4.644   4.742
 
 Beta MOs
 -- Occupied --
-14.336 -10.238 -10.235 -10.217 -10.213 -10.208 -10.207  -0.955
 -0.794  -0.775  -0.704  -0.597  -0.565  -0.539  -0.514  -0.467
 -0.452  -0.415  -0.407  -0.376  -0.335  -0.281  -0.274  -0.264
 -- Virtual --
 -0.091  -0.053   0.000   0.012   0.022   0.031   0.034   0.042
  0.049   0.052   0.064   0.069   0.077   0.097   0.102   0.109
  0.117   0.125   0.135   0.141   0.148   0.159   0.168   0.171
  0.191   0.193   0.198   0.204   0.213   0.224   0.228   0.237
  0.248   0.251   0.260   0.280   0.285   0.299   0.320   0.348
  0.386   0.403   0.413   0.467   0.506   0.623   0.659   0.667
  0.685   0.698   0.707   0.713   0.720   0.745   0.756   0.765
  0.791   0.803   0.847   0.870   0.885   0.904   0.928   0.941
  0.961   1.013   1.034   1.042   1.045   1.080   1.091   1.106
  1.140   1.180   1.203   1.237   1.320   1.364   1.368   1.394
  1.461   1.468   1.503   1.558   1.628   1.652   1.735   1.762
  1.824   1.843   1.867   1.901   1.927   1.983   1.995   2.012
  2.027   2.077   2.120   2.130   2.216   2.233   2.270   2.327
  2.364   2.418   2.429   2.434   2.456   2.464   2.506   2.530
  2.533   2.619   2.633   2.662   2.678   2.710   2.749   2.780
  2.802   2.847   2.871   2.943   3.034   3.198   3.243   3.311
  3.390   3.433   3.618   3.731   4.126   4.285   4.370   4.398
  4.500   4.645   4.743
 --------------------------------------------------------------
 
          Ground-State Mulliken Net Atomic Charges

     Atom                 Charge (a.u.)    Spin (a.u.)
  --------------------------------------------------------
      1 C                    -0.050352       0.081503
      2 C                    -0.104454      -0.310063
      3 C                    -0.226535       1.162396
      4 C                     0.028174      -0.030132
      5 C                    -0.145099       0.014240
      6 N                    -0.206843      -0.003996
      7 H                     0.178185      -0.004827
      8 H                     0.158709       0.078714
      9 H                     0.154673       0.008892
     10 H                     0.134605       0.000247
     11 H                     0.131596      -0.000090
     12 C                    -0.198335       0.003112
     13 H                     0.145676       0.000004
  --------------------------------------------------------
  Sum of atomic charges =     0.000000
  Sum of spin   charges =     1.000000

 -----------------------------------------------------------------
                    Cartesian Multipole Moments
 -----------------------------------------------------------------
    Charge (ESU x 10^10)
                 0.0000
    Dipole Moment (Debye)
         X      -0.9611      Y      -0.4812      Z       1.1595
       Tot       1.5811
    Quadrupole Moments (Debye-Ang)
        XX     -40.4380     XY      -4.8708     YY     -38.5856
        XZ       0.4609     YZ       1.5180     ZZ     -42.9478
    Octopole Moments (Debye-Ang^2)
       XXX      -5.9628    XXY      -0.8292    XYY      -7.1020
       YYY     -14.6305    XXZ       5.4937    XYZ       6.5904
       YYZ      -5.9279    XZZ      -3.1816    YZZ      -4.8763
       ZZZ      11.2597
    Hexadecapole Moments (Debye-Ang^3)
      XXXX    -237.3491   XXXY      63.8789   XXYY    -138.4117
      XYYY      55.9727   YYYY    -499.1356   XXXZ      32.0293
      XXYZ       7.4581   XYYZ      13.3026   YYYZ       9.3181
      XXZZ     -65.5286   XYZZ      22.2693   YYZZ    -120.2680
      XZZZ      39.6552   YZZZ      -6.4980   ZZZZ    -164.0896
 -----------------------------------------------------------------
 Calculating analytic gradient of the SCF energy
 Gradient of SCF Energy
            1           2           3           4           5           6
    1  -0.0003869   0.0002762   0.0000291  -0.0001532   0.0005679  -0.0003704
    2  -0.0000071  -0.0001365   0.0001286  -0.0004403   0.0004902  -0.0000070
    3   0.0001266   0.0003835   0.0000134  -0.0002923   0.0006068  -0.0005098
            7           8           9          10          11          12
    1   0.0000168  -0.0000348   0.0000298  -0.0000138  -0.0000517   0.0001351
    2  -0.0001375  -0.0000078   0.0000245  -0.0000097  -0.0000563   0.0001313
    3  -0.0001856  -0.0000245  -0.0001244  -0.0000369  -0.0000715   0.0001081
           13
    1  -0.0000440
    2   0.0000275
    3   0.0000067
 Max gradient component =       6.068E-04
 RMS gradient           =       2.370E-04
 Gradient time:  CPU 15.84 s  wall 4.08 s
 Geometry Optimization Parameters
   NAtoms,    NIC,     NZ,  NCons,   NDum,   NFix, NCnnct, MaxDiis
       13      86       0       0       0       0       0       0

 Cartesian Hessian Update
 Hessian Updated using BFGS Update


** GEOMETRY OPTIMIZATION IN DELOCALIZED INTERNAL COORDINATES **
   Searching for a Minimum

   Optimization Cycle:   4

                       Coordinates (Angstroms)
     ATOM                X               Y               Z
      1  C         0.6580344441    0.0647128180    0.2347959728
      2  C         1.0201687218   -1.2463398842   -0.4368259001
      3  C         0.3575810917   -2.3753544536   -0.3288241511
      4  C        -1.3486788441    1.1707260773    0.4411244260
      5  C        -0.4839982732    1.7698211405   -0.5865468630
      6  N         0.6469880794    1.1670320477   -0.7452403086
      7  H         1.4643342675    0.3043170941    0.9499625251
      8  H         1.9196964972   -1.1938512849   -1.0609548656
      9  H         0.4401419595   -3.3865514244   -0.7045783178
     10  H        -2.3357030976    1.5208026404    0.7197047826
     11  H        -0.7417661362    2.6411081661   -1.1857238828
     12  C        -0.6698095837    0.1203987288    0.9423880446
     13  H        -0.9849825920   -0.5689534379    1.7157704869
   Point Group: c1    Number of degrees of freedom:    33


   Energy is   -286.874906987

 Hessian Updated using BFGS Update

 33 Hessian modes will be used to form the next step
  Hessian Eigenvalues:
     0.002920    0.012856    0.015000    0.016981    0.020842    0.023321
     0.028561    0.033003    0.057240    0.065434    0.089246    0.158682
     0.159407    0.159967    0.159994    0.160029    0.163547    0.205257
     0.216273    0.224006    0.298846    0.301251    0.329067    0.335025
     0.341447    0.349462    0.350301    0.355403    0.356267    0.358278
     0.530241    0.635943    0.662313

 Minimum Search - Taking Simple RFO Step
 Searching for Lamda that Minimizes Along All modes
 Value Taken    Lamda =  -0.00001615
 Step Taken.  Stepsize is  0.030040

                             Maximum     Tolerance    Cnvgd?
         Gradient           0.000346      0.000300      NO
         Displacement       0.012371      0.001200      NO
         Energy change     -0.000021      0.000001      NO


 New Cartesian Coordinates Obtained by Inverse Iteration

 Displacement from previous Coordinates is:  0.027082
 ----------------------------------------------------------------
             Standard Nuclear Orientation (Angstroms)
    I     Atom           X                Y                Z
 ----------------------------------------------------------------
    1      C       0.6584009066     0.0645187833     0.2352738177
    2      C       1.0184109428    -1.2446333908    -0.4394489173
    3      C       0.3592270566    -2.3752166530    -0.3262841397
    4      C      -1.3475729007     1.1719152063     0.4419709565
    5      C      -0.4843275266     1.7677040367    -0.5886381538
    6      N       0.6491660952     1.1680472030    -0.7425757212
    7      H       1.4629893823     0.3022366900     0.9539330594
    8      H       1.9153251350    -1.1901626400    -1.0672887859
    9      H       0.4422780249    -3.3871305700    -0.6997146947
   10      H      -2.3342340351     1.5226786847     0.7210627132
   11      H      -0.7406515400     2.6402255794    -1.1865479145
   12      C      -0.6704379422     0.1192615741     0.9407975670
   13      H      -0.9865670645    -0.5715762759     1.7125121623
 ----------------------------------------------------------------
 Nuclear Repulsion Energy =   259.4993789493 hartrees
 There are       25 alpha and       24 beta electrons
 Applying Cartesian multipole field
    Component          Value
    ---------          -----
     (2,0,0)        1.00000E-11
     (0,2,0)        2.00000E-11
     (0,0,2)       -3.00000E-11
 Nucleus-field energy     =     0.0000000064 hartrees
 Requested basis set is 6-31+G(d,p)
 There are 53 shells and 163 basis functions
 A cutoff of  1.0D-14 yielded   1365 shell pairs
 There are     13278 function pairs
 Smallest overlap matrix eigenvalue = 1.26E-05
 Guess MOs from SCF MO coefficient file
 Reading MOs from coefficient file
 Reading MOs from coefficient file
 An unrestricted hybrid HF-DFT SCF calculation will be
 performed using Pulay DIIS extrapolation
 Exchange:     0.2000 Hartree-Fock + 0.0800 Slater + 0.7200 B88
 Correlation:  0.1900 VWN1RPA + 0.8100 LYP
 Using SG-1 standard quadrature grid
 SCF converges when DIIS error is below 1.0E-08
 Geometry optimization detected.  Setting ReadMinima to 0
 Setting SaveMinima to 0
Using Q-Chem read-in guess as SCF_GUESS READ specified.

 using 4 threads for integral computing
 -------------------------------------------------------
 OpenMP Integral computing Module                
 Release: version 1.0, May 2013, Q-Chem Inc. Pittsburgh 
 -------------------------------------------------------
 -------------------------------------------------------
 OpenMP BLAS3 based DFT computing Module                
 Release: version 1.0, May 2013, Q-Chem Inc. Pittsburgh 
 -------------------------------------------------------
 ---------------------------------------
  Cycle       Energy         DIIS Error
 ---------------------------------------
    1    -286.8754218272      1.46E-04
    2    -286.8749101485      1.10E-05
    3    -286.8749107506      1.35E-05
    4    -286.8749112751      5.45E-06
    5    -286.8749113994      1.69E-06
    6    -286.8749114270      9.49E-07
    7    -286.8749114381      4.35E-07
    8    -286.8749114413      1.73E-07
    9    -286.8749114427      8.49E-08
   10    -286.8749114428      3.55E-08
   11    -286.8749114428      1.12E-08
   12    -286.8749114428      2.70E-09 Convergence criterion met
 ---------------------------------------
 <S^2> = 0.7601
 SCF time:  CPU 58.70 s  wall 17.34 s
 SCF   energy in the final basis set = -286.87491144
 Total energy in the final basis set = -286.87491144
 
 --------------------------------------------------------------
 
                    Orbital Energies (a.u.)
 --------------------------------------------------------------
 
 Alpha MOs
 -- Occupied --
-14.336 -10.239 -10.235 -10.222 -10.215 -10.213 -10.208  -0.956
 -0.803  -0.776  -0.715  -0.606  -0.566  -0.547  -0.517  -0.478
 -0.458  -0.417  -0.408  -0.381  -0.337  -0.286  -0.278  -0.266
 -0.245
 -- Virtual --
 -0.053  -0.008   0.010   0.020   0.030   0.033   0.042   0.048
  0.051   0.063   0.068   0.076   0.096   0.100   0.105   0.115
  0.123   0.134   0.141   0.147   0.157   0.166   0.171   0.191
  0.192   0.193   0.204   0.212   0.219   0.227   0.236   0.247
  0.250   0.257   0.279   0.285   0.298   0.318   0.342   0.384
  0.402   0.409   0.454   0.504   0.619   0.641   0.662   0.679
  0.692   0.704   0.711   0.719   0.732   0.751   0.763   0.786
  0.794   0.846   0.870   0.882   0.904   0.919   0.936   0.960
  1.007   1.030   1.036   1.044   1.070   1.089   1.103   1.137
  1.172   1.203   1.232   1.318   1.363   1.368   1.391   1.458
  1.468   1.494   1.555   1.600   1.629   1.708   1.753   1.821
  1.832   1.864   1.900   1.915   1.976   1.992   2.008   2.026
  2.066   2.116   2.125   2.214   2.233   2.262   2.322   2.363
  2.411   2.426   2.429   2.454   2.460   2.503   2.530   2.533
  2.614   2.624   2.656   2.670   2.707   2.744   2.771   2.800
  2.842   2.869   2.942   3.025   3.198   3.242   3.298   3.389
  3.432   3.602   3.731   4.126   4.274   4.369   4.393   4.481
  4.645   4.742
 
 Beta MOs
 -- Occupied --
-14.336 -10.238 -10.235 -10.217 -10.213 -10.208 -10.207  -0.955
 -0.794  -0.775  -0.704  -0.597  -0.565  -0.539  -0.514  -0.467
 -0.453  -0.415  -0.407  -0.376  -0.335  -0.281  -0.274  -0.264
 -- Virtual --
 -0.091  -0.053  -0.000   0.012   0.022   0.031   0.034   0.042
  0.049   0.051   0.064   0.069   0.077   0.097   0.102   0.109
  0.117   0.125   0.135   0.141   0.148   0.159   0.168   0.171
  0.191   0.193   0.197   0.204   0.213   0.224   0.228   0.237
  0.248   0.252   0.260   0.280   0.285   0.299   0.320   0.348
  0.386   0.403   0.413   0.467   0.506   0.623   0.659   0.667
  0.685   0.697   0.707   0.713   0.720   0.745   0.756   0.765
  0.791   0.803   0.847   0.870   0.885   0.904   0.928   0.941
  0.961   1.013   1.034   1.042   1.046   1.081   1.091   1.106
  1.140   1.180   1.203   1.236   1.319   1.366   1.368   1.394
  1.462   1.469   1.502   1.559   1.628   1.652   1.735   1.763
  1.824   1.843   1.867   1.901   1.927   1.984   1.995   2.012
  2.027   2.077   2.120   2.131   2.216   2.234   2.269   2.328
  2.364   2.418   2.429   2.434   2.457   2.464   2.506   2.530
  2.533   2.620   2.633   2.661   2.678   2.710   2.748   2.780
  2.802   2.847   2.871   2.943   3.034   3.199   3.243   3.311
  3.389   3.433   3.619   3.731   4.127   4.286   4.370   4.398
  4.500   4.645   4.743
 --------------------------------------------------------------
 
          Ground-State Mulliken Net Atomic Charges

     Atom                 Charge (a.u.)    Spin (a.u.)
  --------------------------------------------------------
      1 C                    -0.041948       0.082005
      2 C                    -0.107835      -0.310370
      3 C                    -0.225254       1.162273
      4 C                     0.032249      -0.030126
      5 C                    -0.148195       0.014286
      6 N                    -0.207305      -0.003980
      7 H                     0.178228      -0.004884
      8 H                     0.158857       0.078751
      9 H                     0.154707       0.008854
     10 H                     0.134613       0.000245
     11 H                     0.131574      -0.000091
     12 C                    -0.205448       0.003044
     13 H                     0.145757      -0.000007
  --------------------------------------------------------
  Sum of atomic charges =    -0.000000
  Sum of spin   charges =     1.000000

 -----------------------------------------------------------------
                    Cartesian Multipole Moments
 -----------------------------------------------------------------
    Charge (ESU x 10^10)
                -0.0000
    Dipole Moment (Debye)
         X      -0.9655      Y      -0.4847      Z       1.1557
       Tot       1.5820
    Quadrupole Moments (Debye-Ang)
        XX     -40.4612     XY      -4.8751     YY     -38.5854
        XZ       0.4567     YZ       1.5055     ZZ     -42.9336
    Octopole Moments (Debye-Ang^2)
       XXX      -6.0370    XXY      -0.8342    XYY      -7.1269
       YYY     -14.6829    XXZ       5.5035    XYZ       6.5834
       YYZ      -5.8798    XZZ      -3.1649    YZZ      -4.8525
       ZZZ      11.2127
    Hexadecapole Moments (Debye-Ang^3)
      XXXX    -237.4144   XXXY      63.8488   XXYY    -138.3831
      XYYY      55.8113   YYYY    -498.7182   XXXZ      32.0458
      XXYZ       7.4962   XYYZ      13.2932   YYYZ       9.2584
      XXZZ     -65.4525   XYZZ      22.2304   YYZZ    -120.2484
      XZZZ      39.6415   YZZZ      -6.4128   ZZZZ    -164.0169
 -----------------------------------------------------------------
 Calculating analytic gradient of the SCF energy
 Gradient of SCF Energy
            1           2           3           4           5           6
    1  -0.0002646  -0.0001669  -0.0000212   0.0001926  -0.0001995   0.0000809
    2  -0.0002981   0.0002731   0.0000324   0.0001513  -0.0003581   0.0001160
    3  -0.0002419   0.0002560   0.0000184   0.0002461  -0.0003488   0.0001081
            7           8           9          10          11          12
    1   0.0001614   0.0000420   0.0000495  -0.0000099   0.0000408   0.0001570
    2   0.0000400   0.0000744   0.0000472   0.0000191   0.0000532  -0.0000942
    3   0.0001642   0.0000114  -0.0000251   0.0000235   0.0001032  -0.0002633
           13
    1  -0.0000620
    2  -0.0000562
    3  -0.0000519
 Max gradient component =       3.581E-04
 RMS gradient           =       1.621E-04
 Gradient time:  CPU 15.87 s  wall 4.15 s
 Geometry Optimization Parameters
   NAtoms,    NIC,     NZ,  NCons,   NDum,   NFix, NCnnct, MaxDiis
       13      86       0       0       0       0       0       0

 Cartesian Hessian Update
 Hessian Updated using BFGS Update


** GEOMETRY OPTIMIZATION IN DELOCALIZED INTERNAL COORDINATES **
   Searching for a Minimum

   Optimization Cycle:   5

                       Coordinates (Angstroms)
     ATOM                X               Y               Z
      1  C         0.6584009066    0.0645187833    0.2352738177
      2  C         1.0184109428   -1.2446333908   -0.4394489173
      3  C         0.3592270566   -2.3752166530   -0.3262841397
      4  C        -1.3475729007    1.1719152063    0.4419709565
      5  C        -0.4843275266    1.7677040367   -0.5886381538
      6  N         0.6491660952    1.1680472030   -0.7425757212
      7  H         1.4629893823    0.3022366900    0.9539330594
      8  H         1.9153251350   -1.1901626400   -1.0672887859
      9  H         0.4422780249   -3.3871305700   -0.6997146947
     10  H        -2.3342340351    1.5226786847    0.7210627132
     11  H        -0.7406515400    2.6402255794   -1.1865479145
     12  C        -0.6704379422    0.1192615741    0.9407975670
     13  H        -0.9865670645   -0.5715762759    1.7125121623
   Point Group: c1    Number of degrees of freedom:    33


   Energy is   -286.874911443

 Hessian Updated using BFGS Update

 33 Hessian modes will be used to form the next step
  Hessian Eigenvalues:
     0.003031    0.011868    0.014983    0.017043    0.020647    0.023007
     0.032819    0.044511    0.056984    0.064662    0.087298    0.157730
     0.159760    0.159969    0.159990    0.160105    0.163548    0.205451
     0.215888    0.224285    0.300917    0.312345    0.327528    0.336470
     0.341485    0.349369    0.350277    0.355423    0.356272    0.358360
     0.530115    0.634891    0.660096

 Minimum Search - Taking Simple RFO Step
 Searching for Lamda that Minimizes Along All modes
 Value Taken    Lamda =  -0.00000450
 Step Taken.  Stepsize is  0.012093

                             Maximum     Tolerance    Cnvgd?
         Gradient           0.000298      0.000300     YES
         Displacement       0.006871      0.001200      NO
         Energy change     -0.000004      0.000001      NO


 New Cartesian Coordinates Obtained by Inverse Iteration

 Displacement from previous Coordinates is:  0.015366
 ----------------------------------------------------------------
             Standard Nuclear Orientation (Angstroms)
    I     Atom           X                Y                Z
 ----------------------------------------------------------------
    1      C       0.6595151087     0.0651987544     0.2361292609
    2      C       1.0184996422    -1.2444954448    -0.4399448812
    3      C       0.3577864960    -2.3743470391    -0.3276819269
    4      C      -1.3483195421     1.1705214190     0.4409280462
    5      C      -0.4840481748     1.7681636297    -0.5877980354
    6      N       0.6496859752     1.1688621528    -0.7416167987
    7      H       1.4644947421     0.3026961381     0.9539109859
    8      H       1.9165239684    -1.1914557750    -1.0662495701
    9      H       0.4393787721    -3.3864426533    -0.7010639532
   10      H      -2.3359358686     1.5197319519     0.7185005527
   11      H      -0.7413823615     2.6394009609    -1.1871988371
   12      C      -0.6694393655     0.1200903796     0.9422493848
   13      H      -0.9847528577    -0.5700562464     1.7148877211
 ----------------------------------------------------------------
 Nuclear Repulsion Energy =   259.4768673628 hartrees
 There are       25 alpha and       24 beta electrons
 Applying Cartesian multipole field
    Component          Value
    ---------          -----
     (2,0,0)        1.00000E-11
     (0,2,0)        2.00000E-11
     (0,0,2)       -3.00000E-11
 Nucleus-field energy     =     0.0000000064 hartrees
 Requested basis set is 6-31+G(d,p)
 There are 53 shells and 163 basis functions
 A cutoff of  1.0D-14 yielded   1365 shell pairs
 There are     13278 function pairs
 Smallest overlap matrix eigenvalue = 1.27E-05
 Guess MOs from SCF MO coefficient file
 Reading MOs from coefficient file
 Reading MOs from coefficient file
 An unrestricted hybrid HF-DFT SCF calculation will be
 performed using Pulay DIIS extrapolation
 Exchange:     0.2000 Hartree-Fock + 0.0800 Slater + 0.7200 B88
 Correlation:  0.1900 VWN1RPA + 0.8100 LYP
 Using SG-1 standard quadrature grid
 SCF converges when DIIS error is below 1.0E-08
 Geometry optimization detected.  Setting ReadMinima to 0
 Setting SaveMinima to 0
Using Q-Chem read-in guess as SCF_GUESS READ specified.

 using 4 threads for integral computing
 -------------------------------------------------------
 OpenMP Integral computing Module                
 Release: version 1.0, May 2013, Q-Chem Inc. Pittsburgh 
 -------------------------------------------------------
 -------------------------------------------------------
 OpenMP BLAS3 based DFT computing Module                
 Release: version 1.0, May 2013, Q-Chem Inc. Pittsburgh 
 -------------------------------------------------------
 ---------------------------------------
  Cycle       Energy         DIIS Error
 ---------------------------------------
    1    -286.8742905823      6.66E-05
    2    -286.8749132655      7.09E-06
    3    -286.8749131803      1.02E-05
    4    -286.8749135257      2.69E-06
    5    -286.8749135493      9.85E-07
    6    -286.8749135527      4.78E-07
    7    -286.8749135536      1.69E-07
    8    -286.8749135539      4.40E-08
    9    -286.8749135539      3.00E-08
   10    -286.8749135540      1.63E-08
   11    -286.8749135540      4.42E-09 Convergence criterion met
 ---------------------------------------
 <S^2> = 0.7601
 SCF time:  CPU 53.89 s  wall 15.22 s
 SCF   energy in the final basis set = -286.87491355
 Total energy in the final basis set = -286.87491355
 
 --------------------------------------------------------------
 
                    Orbital Energies (a.u.)
 --------------------------------------------------------------
 
 Alpha MOs
 -- Occupied --
-14.336 -10.239 -10.235 -10.222 -10.215 -10.213 -10.208  -0.955
 -0.803  -0.776  -0.715  -0.606  -0.566  -0.547  -0.517  -0.478
 -0.458  -0.417  -0.408  -0.381  -0.337  -0.286  -0.278  -0.266
 -0.245
 -- Virtual --
 -0.053  -0.008   0.010   0.020   0.030   0.033   0.042   0.048
  0.051   0.063   0.068   0.076   0.096   0.100   0.105   0.115
  0.123   0.134   0.141   0.147   0.157   0.166   0.171   0.191
  0.192   0.193   0.204   0.212   0.219   0.227   0.236   0.247
  0.250   0.257   0.279   0.285   0.298   0.318   0.342   0.384
  0.402   0.409   0.454   0.504   0.619   0.641   0.661   0.679
  0.692   0.704   0.711   0.719   0.732   0.751   0.763   0.786
  0.794   0.846   0.870   0.882   0.904   0.918   0.936   0.960
  1.007   1.030   1.037   1.044   1.070   1.089   1.103   1.137
  1.172   1.203   1.232   1.318   1.363   1.368   1.391   1.458
  1.468   1.494   1.554   1.599   1.629   1.708   1.753   1.820
  1.831   1.864   1.900   1.914   1.976   1.993   2.008   2.026
  2.066   2.116   2.126   2.214   2.233   2.262   2.322   2.363
  2.411   2.426   2.429   2.454   2.460   2.503   2.530   2.533
  2.614   2.624   2.656   2.670   2.707   2.744   2.771   2.800
  2.842   2.869   2.942   3.024   3.198   3.242   3.298   3.389
  3.432   3.601   3.731   4.126   4.274   4.369   4.394   4.481
  4.645   4.742
 
 Beta MOs
 -- Occupied --
-14.336 -10.238 -10.235 -10.217 -10.213 -10.208 -10.207  -0.955
 -0.794  -0.775  -0.704  -0.597  -0.565  -0.539  -0.514  -0.467
 -0.453  -0.415  -0.407  -0.376  -0.335  -0.281  -0.274  -0.264
 -- Virtual --
 -0.091  -0.053  -0.000   0.012   0.022   0.031   0.034   0.042
  0.049   0.051   0.064   0.069   0.077   0.097   0.102   0.109
  0.117   0.125   0.135   0.141   0.148   0.159   0.168   0.171
  0.191   0.193   0.197   0.204   0.213   0.224   0.228   0.237
  0.248   0.252   0.260   0.280   0.285   0.299   0.320   0.348
  0.386   0.403   0.413   0.467   0.506   0.623   0.659   0.667
  0.685   0.698   0.707   0.713   0.720   0.745   0.756   0.765
  0.791   0.803   0.847   0.870   0.885   0.904   0.928   0.941
  0.961   1.013   1.034   1.042   1.046   1.081   1.091   1.106
  1.140   1.180   1.203   1.236   1.319   1.365   1.369   1.394
  1.461   1.468   1.502   1.559   1.628   1.652   1.735   1.763
  1.823   1.843   1.867   1.901   1.927   1.984   1.995   2.012
  2.027   2.076   2.120   2.131   2.216   2.234   2.269   2.328
  2.364   2.419   2.429   2.434   2.456   2.464   2.506   2.530
  2.533   2.619   2.633   2.660   2.678   2.710   2.748   2.780
  2.802   2.847   2.871   2.943   3.033   3.198   3.243   3.311
  3.389   3.433   3.618   3.731   4.126   4.286   4.370   4.398
  4.500   4.646   4.743
 --------------------------------------------------------------
 
          Ground-State Mulliken Net Atomic Charges

     Atom                 Charge (a.u.)    Spin (a.u.)
  --------------------------------------------------------
      1 C                    -0.042818       0.082037
      2 C                    -0.107845      -0.310244
      3 C                    -0.225071       1.162014
      4 C                     0.030863      -0.030307
      5 C                    -0.147636       0.014339
      6 N                    -0.207324      -0.003975
      7 H                     0.178075      -0.004868
      8 H                     0.158802       0.078689
      9 H                     0.154738       0.008796
     10 H                     0.134627       0.000245
     11 H                     0.131597      -0.000089
     12 C                    -0.203683       0.003365
     13 H                     0.145673      -0.000002
  --------------------------------------------------------
  Sum of atomic charges =     0.000000
  Sum of spin   charges =     1.000000

 -----------------------------------------------------------------
                    Cartesian Multipole Moments
 -----------------------------------------------------------------
    Charge (ESU x 10^10)
                 0.0000
    Dipole Moment (Debye)
         X      -0.9658      Y      -0.4892      Z       1.1546
       Tot       1.5828
    Quadrupole Moments (Debye-Ang)
        XX     -40.4539     XY      -4.8776     YY     -38.5920
        XZ       0.4637     YZ       1.5038     ZZ     -42.9292
    Octopole Moments (Debye-Ang^2)
       XXX      -6.0528    XXY      -0.8516    XYY      -7.1377
       YYY     -14.7705    XXZ       5.4896    XYZ       6.5911
       YYZ      -5.8994    XZZ      -3.1652    YZZ      -4.8687
       ZZZ      11.2060
    Hexadecapole Moments (Debye-Ang^3)
      XXXX    -237.3938   XXXY      63.6767   XXYY    -138.3965
      XYYY      55.7730   YYYY    -498.6017   XXXZ      32.0296
      XXYZ       7.4542   XYYZ      13.3296   YYYZ       9.2000
      XXZZ     -65.4962   XYZZ      22.1982   YYZZ    -120.2125
      XZZZ      39.6144   YZZZ      -6.5185   ZZZZ    -164.0363
 -----------------------------------------------------------------
 Calculating analytic gradient of the SCF energy
 Gradient of SCF Energy
            1           2           3           4           5           6
    1  -0.0000735  -0.0000713  -0.0000102  -0.0000573  -0.0000303   0.0000477
    2  -0.0002089   0.0001289  -0.0000441   0.0000123   0.0000061   0.0000136
    3  -0.0000874  -0.0000613   0.0000099  -0.0000305   0.0000284   0.0000439
            7           8           9          10          11          12
    1   0.0000185   0.0000572   0.0000350  -0.0000160  -0.0000075   0.0001300
    2   0.0000731  -0.0000087   0.0000020  -0.0000089   0.0000017   0.0000529
    3   0.0000647   0.0000426  -0.0000155  -0.0000121   0.0000074   0.0000319
           13
    1  -0.0000222
    2  -0.0000202
    3  -0.0000220
 Max gradient component =       2.089E-04
 RMS gradient           =       5.862E-05
 Gradient time:  CPU 16.35 s  wall 4.67 s
 Geometry Optimization Parameters
   NAtoms,    NIC,     NZ,  NCons,   NDum,   NFix, NCnnct, MaxDiis
       13      86       0       0       0       0       0       0

 Cartesian Hessian Update
 Hessian Updated using BFGS Update


** GEOMETRY OPTIMIZATION IN DELOCALIZED INTERNAL COORDINATES **
   Searching for a Minimum

   Optimization Cycle:   6

                       Coordinates (Angstroms)
     ATOM                X               Y               Z
      1  C         0.6595151087    0.0651987544    0.2361292609
      2  C         1.0184996422   -1.2444954448   -0.4399448812
      3  C         0.3577864960   -2.3743470391   -0.3276819269
      4  C        -1.3483195421    1.1705214190    0.4409280462
      5  C        -0.4840481748    1.7681636297   -0.5877980354
      6  N         0.6496859752    1.1688621528   -0.7416167987
      7  H         1.4644947421    0.3026961381    0.9539109859
      8  H         1.9165239684   -1.1914557750   -1.0662495701
      9  H         0.4393787721   -3.3864426533   -0.7010639532
     10  H        -2.3359358686    1.5197319519    0.7185005527
     11  H        -0.7413823615    2.6394009609   -1.1871988371
     12  C        -0.6694393655    0.1200903796    0.9422493848
     13  H        -0.9847528577   -0.5700562464    1.7148877211
   Point Group: c1    Number of degrees of freedom:    33


   Energy is   -286.874913554

 Hessian Updated using BFGS Update

 33 Hessian modes will be used to form the next step
  Hessian Eigenvalues:
     0.003102    0.012033    0.015861    0.017306    0.020496    0.022915
     0.032897    0.044428    0.057227    0.065179    0.089615    0.156145
     0.159704    0.159966    0.159984    0.160251    0.163713    0.206512
     0.215350    0.223763    0.293633    0.302171    0.327746    0.330094
     0.341472    0.349187    0.350290    0.355387    0.356270    0.358415
     0.531121    0.636566    0.661820

 Minimum Search - Taking Simple RFO Step
 Searching for Lamda that Minimizes Along All modes
 Value Taken    Lamda =   0.00000000
 Step Taken.  Stepsize is  0.005248

                             Maximum     Tolerance    Cnvgd?
         Gradient           0.000077      0.000300     YES
         Displacement       0.002449      0.001200      NO
         Energy change     -0.000002      0.000001      NO


 New Cartesian Coordinates Obtained by Inverse Iteration

 Displacement from previous Coordinates is:  0.004254
 ----------------------------------------------------------------
[...]
    8      H       1.9156610141    -1.1908993416    -1.0675479000
    9      H       0.4388624926    -3.3861791893    -0.7012148714
   10      H      -2.3359724452     1.5195414572     0.7181864266
   11      H      -0.7411864233     2.6391701237    -1.1874133814
   12      C      -0.6696225751     0.1198750369     0.9422142342
   13      H      -0.9848936827    -0.5701043967     1.7150158803
 ----------------------------------------------------------------
 Nuclear Repulsion Energy =   259.4756332567 hartrees
 There are       25 alpha and       24 beta electrons
 Applying Cartesian multipole field
    Component          Value
    ---------          -----
     (2,0,0)        1.00000E-11
     (0,2,0)        2.00000E-11
     (0,0,2)       -3.00000E-11
 Nucleus-field energy     =     0.0000000064 hartrees
 Requested basis set is 6-31+G(d,p)
 There are 53 shells and 163 basis functions
 A cutoff of  1.0D-14 yielded   1365 shell pairs
 There are     13278 function pairs
 Smallest overlap matrix eigenvalue = 1.27E-05
 Guess MOs from SCF MO coefficient file
 Reading MOs from coefficient file
 Reading MOs from coefficient file
 An unrestricted hybrid HF-DFT SCF calculation will be
 performed using Pulay DIIS extrapolation
 Exchange:     0.2000 Hartree-Fock + 0.0800 Slater + 0.7200 B88
 Correlation:  0.1900 VWN1RPA + 0.8100 LYP
 Using SG-1 standard quadrature grid
 SCF converges when DIIS error is below 1.0E-08
 Geometry optimization detected.  Setting ReadMinima to 0
 Setting SaveMinima to 0
Using Q-Chem read-in guess as SCF_GUESS READ specified.

 using 4 threads for integral computing
 -------------------------------------------------------
 OpenMP Integral computing Module                
 Release: version 1.0, May 2013, Q-Chem Inc. Pittsburgh 
 -------------------------------------------------------
 -------------------------------------------------------
 OpenMP BLAS3 based DFT computing Module                
 Release: version 1.0, May 2013, Q-Chem Inc. Pittsburgh 
 -------------------------------------------------------
 ---------------------------------------
  Cycle       Energy         DIIS Error
 ---------------------------------------
    1    -286.8749435894      1.33E-05
    2    -286.8749137566      1.51E-06
    3    -286.8749137738      1.84E-06
    4    -286.8749137847      6.31E-07
    5    -286.8749137872      2.69E-07
    6    -286.8749137881      1.52E-07
    7    -286.8749137885      7.21E-08
    8    -286.8749137886      2.58E-08
    9    -286.8749137886      1.15E-08
   10    -286.8749137886      5.40E-09 Convergence criterion met
 ---------------------------------------
 <S^2> = 0.7601
 SCF time:  CPU 48.92 s  wall 14.55 s
 SCF   energy in the final basis set = -286.87491379
 Total energy in the final basis set = -286.87491379
 
 --------------------------------------------------------------
 
                    Orbital Energies (a.u.)
 --------------------------------------------------------------
 
 Alpha MOs
 -- Occupied --
-14.336 -10.239 -10.235 -10.222 -10.215 -10.213 -10.208  -0.955
 -0.803  -0.776  -0.715  -0.606  -0.566  -0.547  -0.517  -0.478
 -0.458  -0.417  -0.408  -0.381  -0.337  -0.286  -0.278  -0.266
 -0.245
 -- Virtual --
 -0.053  -0.008   0.010   0.020   0.030   0.033   0.042   0.048
  0.051   0.063   0.068   0.076   0.096   0.100   0.105   0.115
  0.123   0.134   0.141   0.147   0.157   0.166   0.171   0.191
  0.192   0.193   0.204   0.212   0.219   0.227   0.236   0.247
  0.250   0.257   0.279   0.285   0.298   0.318   0.342   0.384
  0.402   0.409   0.454   0.504   0.619   0.641   0.661   0.679
  0.692   0.704   0.711   0.719   0.732   0.751   0.763   0.786
  0.794   0.845   0.870   0.882   0.904   0.919   0.936   0.960
  1.007   1.030   1.037   1.044   1.070   1.089   1.103   1.137
  1.172   1.203   1.232   1.318   1.363   1.368   1.391   1.458
  1.468   1.494   1.554   1.600   1.629   1.708   1.752   1.820
  1.831   1.864   1.900   1.915   1.976   1.992   2.008   2.026
  2.066   2.116   2.125   2.214   2.233   2.262   2.322   2.363
  2.411   2.426   2.429   2.454   2.460   2.503   2.530   2.533
  2.614   2.624   2.656   2.670   2.707   2.744   2.771   2.800
  2.842   2.869   2.942   3.024   3.198   3.242   3.298   3.389
  3.432   3.601   3.731   4.126   4.274   4.369   4.394   4.481
  4.645   4.742
 
 Beta MOs
 -- Occupied --
-14.336 -10.238 -10.235 -10.217 -10.213 -10.208 -10.207  -0.955
 -0.794  -0.775  -0.704  -0.597  -0.565  -0.539  -0.514  -0.467
 -0.453  -0.415  -0.407  -0.376  -0.335  -0.281  -0.274  -0.264
 -- Virtual --
 -0.091  -0.053  -0.000   0.012   0.022   0.031   0.034   0.042
  0.049   0.051   0.064   0.069   0.077   0.097   0.102   0.109
  0.117   0.125   0.135   0.141   0.148   0.159   0.168   0.171
  0.191   0.193   0.197   0.204   0.213   0.224   0.228   0.237
  0.248   0.252   0.260   0.280   0.285   0.299   0.320   0.348
  0.386   0.403   0.413   0.467   0.506   0.623   0.659   0.667
  0.685   0.698   0.707   0.713   0.720   0.745   0.756   0.765
  0.791   0.803   0.847   0.870   0.885   0.904   0.928   0.941
  0.961   1.013   1.034   1.042   1.046   1.081   1.091   1.106
  1.140   1.180   1.203   1.236   1.319   1.365   1.369   1.394
  1.462   1.468   1.502   1.559   1.628   1.652   1.735   1.763
  1.823   1.843   1.867   1.901   1.927   1.984   1.995   2.012
  2.027   2.076   2.120   2.131   2.216   2.234   2.269   2.328
  2.364   2.419   2.429   2.434   2.456   2.464   2.506   2.530
  2.533   2.619   2.633   2.661   2.678   2.710   2.748   2.780
  2.802   2.847   2.871   2.943   3.033   3.198   3.243   3.311
  3.390   3.433   3.618   3.731   4.126   4.286   4.370   4.398
  4.500   4.645   4.742
 --------------------------------------------------------------
 
          Ground-State Mulliken Net Atomic Charges

     Atom                 Charge (a.u.)    Spin (a.u.)
  --------------------------------------------------------
      1 C                    -0.042287       0.082045
      2 C                    -0.108211      -0.310214
      3 C                    -0.225134       1.161996
      4 C                     0.030903      -0.030308
      5 C                    -0.147653       0.014360
      6 N                    -0.207391      -0.003969
      7 H                     0.178073      -0.004862
      8 H                     0.158858       0.078680
      9 H                     0.154740       0.008782
     10 H                     0.134621       0.000245
     11 H                     0.131606      -0.000089
     12 C                    -0.203807       0.003337
     13 H                     0.145684      -0.000002
  --------------------------------------------------------
  Sum of atomic charges =     0.000000
  Sum of spin   charges =     1.000000

 -----------------------------------------------------------------
                    Cartesian Multipole Moments
 -----------------------------------------------------------------
    Charge (ESU x 10^10)
                 0.0000
    Dipole Moment (Debye)
         X      -0.9676      Y      -0.4880      Z       1.1526
       Tot       1.5820
    Quadrupole Moments (Debye-Ang)
        XX     -40.4588     XY      -4.8717     YY     -38.5951
        XZ       0.4628     YZ       1.5059     ZZ     -42.9229
    Octopole Moments (Debye-Ang^2)
       XXX      -6.0836    XXY      -0.8417    XYY      -7.1576
       YYY     -14.7529    XXZ       5.4818    XYZ       6.5917
       YYZ      -5.9159    XZZ      -3.1659    YZZ      -4.8712
       ZZZ      11.1767
    Hexadecapole Moments (Debye-Ang^3)
      XXXX    -237.4787   XXXY      63.7045   XXYY    -138.4212
      XYYY      55.8249   YYYY    -498.5884   XXXZ      32.0239
      XXYZ       7.4644   XYYZ      13.3292   YYYZ       9.2532
      XXZZ     -65.4936   XYZZ      22.1967   YYZZ    -120.1845
      XZZZ      39.5934   YZZZ      -6.4744   ZZZZ    -163.9926
 -----------------------------------------------------------------
 Calculating analytic gradient of the SCF energy
 Gradient of SCF Energy
            1           2           3           4           5           6
    1  -0.0000214   0.0000589  -0.0000058  -0.0000324  -0.0000036   0.0000076
    2  -0.0000417   0.0000253  -0.0000097  -0.0000006   0.0000215   0.0000213
    3  -0.0000113   0.0000624  -0.0000169  -0.0000173   0.0000224  -0.0000063
            7           8           9          10          11          12
    1  -0.0000102   0.0000034   0.0000167  -0.0000046  -0.0000011   0.0000064
    2   0.0000121  -0.0000021   0.0000028  -0.0000102   0.0000039  -0.0000078
    3   0.0000030  -0.0000072  -0.0000283  -0.0000061   0.0000038   0.0000127
           13
    1  -0.0000139
    2  -0.0000147
    3  -0.0000109
 Max gradient component =       6.242E-05
 RMS gradient           =       2.026E-05
 Gradient time:  CPU 15.88 s  wall 4.30 s
 Geometry Optimization Parameters
   NAtoms,    NIC,     NZ,  NCons,   NDum,   NFix, NCnnct, MaxDiis
       13      86       0       0       0       0       0       0

 Cartesian Hessian Update
 Hessian Updated using BFGS Update


** GEOMETRY OPTIMIZATION IN DELOCALIZED INTERNAL COORDINATES **
   Searching for a Minimum

   Optimization Cycle:   7

                       Coordinates (Angstroms)
     ATOM                X               Y               Z
      1  C         0.6597476013    0.0653739921    0.2365717731
      2  C         1.0190004315   -1.2445138402   -0.4393895705
      3  C         0.3581460674   -2.3742552780   -0.3271799866
      4  C        -1.3483155277    1.1703448380    0.4407798774
      5  C        -0.4838904096    1.7680394050   -0.5878362999
      6  N         0.6498658330    1.1687821874   -0.7414668983
      7  H         1.4646041582    0.3026932331    0.9543326657
      8  H         1.9156610141   -1.1908993416   -1.0675479000
      9  H         0.4388624926   -3.3861791893   -0.7012148714
     10  H        -2.3359724452    1.5195414572    0.7181864266
     11  H        -0.7411864233    2.6391701237   -1.1874133814
     12  C        -0.6696225751    0.1198750369    0.9422142342
     13  H        -0.9848936827   -0.5701043967    1.7150158803
   Point Group: c1    Number of degrees of freedom:    33


   Energy is   -286.874913789

 Hessian Updated using BFGS Update

 33 Hessian modes will be used to form the next step
  Hessian Eigenvalues:
     0.002844    0.011484    0.016849    0.020405    0.022088    0.023948
     0.033932    0.044391    0.057267    0.062103    0.085817    0.153970
     0.159829    0.159915    0.160008    0.160760    0.163586    0.202652
     0.215208    0.223951    0.296375    0.302232    0.327911    0.329733
     0.341416    0.350269    0.350592    0.355489    0.356306    0.358397
     0.529777    0.633839    0.659445

 Minimum Search - Taking Simple RFO Step
 Searching for Lamda that Minimizes Along All modes
 Value Taken    Lamda =   0.00000000
 Step Taken.  Stepsize is  0.003527

                             Maximum     Tolerance    Cnvgd?
         Gradient           0.000024      0.000300     YES
         Displacement       0.002006      0.001200      NO
         Energy change     -0.000000      0.000001     YES


                       Distance Matrix (Angstroms)
             C (  1)   C (  2)   C (  3)   C (  4)   C (  5)   N (  6)
   C (  2)  1.517166
   C (  3)  2.522017  1.313634
   C (  4)  2.301082  3.494342  4.008237
   C (  5)  2.210571  3.369895  4.235041  1.470551
   N (  6)  1.474506  2.459981  3.579085  2.321732  1.291555
   H (  7)  1.104217  2.129524  3.167424  2.988155  2.884815  2.071146
   H (  8)  2.203694  1.096110  2.091490  4.301636  3.839699  2.697529
   H (  9)  3.583497  2.234243  1.081854  5.025940  5.237394  4.560024
   H ( 10)  3.364654  4.498425  4.848991  1.083678  2.279836  3.341983
   H ( 11)  3.258033  4.329064  5.204130  2.275317  1.088376  2.072664
   C ( 12)  1.506030  2.573292  2.981335  1.347422  2.256545  2.382444
   H ( 13)  2.300973  3.018589  3.037973  2.187445  3.319797  3.424978
             H (  7)   H (  8)   H (  9)   H ( 10)   H ( 11)   C ( 12)
   H (  8)  2.553874
   H (  9)  4.171422  2.671027
   H ( 10)  3.997608  5.348993  5.812100
   H ( 11)  3.861569  4.662900  6.159037  2.725476
   C ( 12)  2.142077  3.527175  4.027656  2.187687  3.299588
   H ( 13)  2.709327  4.067095  3.974359  2.680616  4.333928  1.082908

 
 Final energy is   -286.874913788648     


 ******************************
 **  OPTIMIZATION CONVERGED  **
 ******************************

                       Coordinates (Angstroms)
     ATOM                X               Y               Z
      1  C         0.6597476013    0.0653739921    0.2365717731
      2  C         1.0190004315   -1.2445138402   -0.4393895705
      3  C         0.3581460674   -2.3742552780   -0.3271799866
      4  C        -1.3483155277    1.1703448380    0.4407798774
      5  C        -0.4838904096    1.7680394050   -0.5878362999
      6  N         0.6498658330    1.1687821874   -0.7414668983
      7  H         1.4646041582    0.3026932331    0.9543326657
      8  H         1.9156610141   -1.1908993416   -1.0675479000
      9  H         0.4388624926   -3.3861791893   -0.7012148714
     10  H        -2.3359724452    1.5195414572    0.7181864266
     11  H        -0.7411864233    2.6391701237   -1.1874133814
     12  C        -0.6696225751    0.1198750369    0.9422142342
     13  H        -0.9848936827   -0.5701043967    1.7150158803

Z-matrix Print:
$molecule
0 2
N 
C  1 1.291555
H  2 1.088376 1 120.887893
C  2 1.470551 1 114.244177 3 -179.960547 0
H  4 1.083678 2 125.720079 1 -179.738759 0
C  4 1.347422 2 106.325195 1 -0.136658 0
H  6 1.082908 4 128.000328 2 -179.586967 0
C  1 1.474506 2 105.913851 3 179.117442 0
H  8 1.104217 1 105.974584 2 -114.768593 0
C  8 1.517166 1 110.618617 2 128.873865 0
H  10 1.096110 8 114.004310 1 49.568622 0
C  10 1.313634 8 125.826589 1 -130.291183 0
H  12 1.081854 10 137.506634 8 -179.555475 0
$end

 
 --------------------------------------------------------------
 
                    Orbital Energies (a.u.)
 --------------------------------------------------------------
 
 Alpha MOs
 -- Occupied --
-14.336 -10.239 -10.235 -10.222 -10.215 -10.213 -10.208  -0.955
 -0.803  -0.776  -0.715  -0.606  -0.566  -0.547  -0.517  -0.478
 -0.458  -0.417  -0.408  -0.381  -0.337  -0.286  -0.278  -0.266
 -0.245
 -- Virtual --
 -0.053  -0.008   0.010   0.020   0.030   0.033   0.042   0.048
  0.051   0.063   0.068   0.076   0.096   0.100   0.105   0.115
  0.123   0.134   0.141   0.147   0.157   0.166   0.171   0.191
  0.192   0.193   0.204   0.212   0.219   0.227   0.236   0.247
  0.250   0.257   0.279   0.285   0.298   0.318   0.342   0.384
  0.402   0.409   0.454   0.504   0.619   0.641   0.661   0.679
  0.692   0.704   0.711   0.719   0.732   0.751   0.763   0.786
  0.794   0.845   0.870   0.882   0.904   0.919   0.936   0.960
  1.007   1.030   1.037   1.044   1.070   1.089   1.103   1.137
  1.172   1.203   1.232   1.318   1.363   1.368   1.391   1.458
  1.468   1.494   1.554   1.600   1.629   1.708   1.752   1.820
  1.831   1.864   1.900   1.915   1.976   1.992   2.008   2.026
  2.066   2.116   2.125   2.214   2.233   2.262   2.322   2.363
  2.411   2.426   2.429   2.454   2.460   2.503   2.530   2.533
  2.614   2.624   2.656   2.670   2.707   2.744   2.771   2.800
  2.842   2.869   2.942   3.024   3.198   3.242   3.298   3.389
  3.432   3.601   3.731   4.126   4.274   4.369   4.394   4.481
  4.645   4.742
 
 Beta MOs
 -- Occupied --
-14.336 -10.238 -10.235 -10.217 -10.213 -10.208 -10.207  -0.955
 -0.794  -0.775  -0.704  -0.597  -0.565  -0.539  -0.514  -0.467
 -0.453  -0.415  -0.407  -0.376  -0.335  -0.281  -0.274  -0.264
 -- Virtual --
 -0.091  -0.053  -0.000   0.012   0.022   0.031   0.034   0.042
  0.049   0.051   0.064   0.069   0.077   0.097   0.102   0.109
  0.117   0.125   0.135   0.141   0.148   0.159   0.168   0.171
  0.191   0.193   0.197   0.204   0.213   0.224   0.228   0.237
  0.248   0.252   0.260   0.280   0.285   0.299   0.320   0.348
  0.386   0.403   0.413   0.467   0.506   0.623   0.659   0.667
  0.685   0.698   0.707   0.713   0.720   0.745   0.756   0.765
  0.791   0.803   0.847   0.870   0.885   0.904   0.928   0.941
  0.961   1.013   1.034   1.042   1.046   1.081   1.091   1.106
  1.140   1.180   1.203   1.236   1.319   1.365   1.369   1.394
  1.462   1.468   1.502   1.559   1.628   1.652   1.735   1.763
  1.823   1.843   1.867   1.901   1.927   1.984   1.995   2.012
  2.027   2.076   2.120   2.131   2.216   2.234   2.269   2.328
  2.364   2.419   2.429   2.434   2.456   2.464   2.506   2.530
  2.533   2.619   2.633   2.661   2.678   2.710   2.748   2.780
  2.802   2.847   2.871   2.943   3.033   3.198   3.243   3.311
  3.390   3.433   3.618   3.731   4.126   4.286   4.370   4.398
  4.500   4.645   4.742
 --------------------------------------------------------------
 
          Ground-State Mulliken Net Atomic Charges

     Atom                 Charge (a.u.)    Spin (a.u.)
  --------------------------------------------------------
      1 C                    -0.042287       0.082045
      2 C                    -0.108211      -0.310214
      3 C                    -0.225134       1.161996
      4 C                     0.030903      -0.030308
      5 C                    -0.147653       0.014360
      6 N                    -0.207391      -0.003969
      7 H                     0.178073      -0.004862
      8 H                     0.158858       0.078680
      9 H                     0.154740       0.008782
     10 H                     0.134621       0.000245
     11 H                     0.131606      -0.000089
     12 C                    -0.203807       0.003337
     13 H                     0.145684      -0.000002
  --------------------------------------------------------
  Sum of atomic charges =     0.000000
  Sum of spin   charges =     1.000000

 -----------------------------------------------------------------
                    Cartesian Multipole Moments
 -----------------------------------------------------------------
    Charge (ESU x 10^10)
                 0.0000
    Dipole Moment (Debye)
         X      -0.9676      Y      -0.4880      Z       1.1526
       Tot       1.5820
    Quadrupole Moments (Debye-Ang)
        XX     -40.4588     XY      -4.8717     YY     -38.5951
        XZ       0.4628     YZ       1.5059     ZZ     -42.9229
    Octopole Moments (Debye-Ang^2)
       XXX      -6.0836    XXY      -0.8417    XYY      -7.1576
       YYY     -14.7529    XXZ       5.4818    XYZ       6.5917
       YYZ      -5.9159    XZZ      -3.1659    YZZ      -4.8712
       ZZZ      11.1767
    Hexadecapole Moments (Debye-Ang^3)
      XXXX    -237.4787   XXXY      63.7045   XXYY    -138.4212
      XYYY      55.8249   YYYY    -498.5884   XXXZ      32.0239
      XXYZ       7.4644   XYYZ      13.3292   YYYZ       9.2532
      XXZZ     -65.4936   XYZZ      22.1967   YYZZ    -120.1845
      XZZZ      39.5934   YZZZ      -6.4744   ZZZZ    -163.9926
 -----------------------------------------------------------------
Archival summary:
1\1\c8-89\OPT\ProcedureUnspecified\6-31+G**\166(2)\hpark21\WedMar221:35:522022WedMar221:35:522022\0\\#,OPT,ProcedureUnspecified,6-31+G**,\\0,2\N\C,1,1.29156\H,2,1.08838,1,120.888\C,2,1.47055,1,114.244,3,-179.961,0\H,4,1.08368,2,125.72,1,-179.739,0\C,4,1.34742,2,106.325,1,-0.136658,0\H,6,1.08291,4,128,2,-179.587,0\C,1,1.47451,2,105.914,3,179.117,0\H,8,1.10422,1,105.975,2,-114.769,0\C,8,1.51717,1,110.619,2,128.874,0\H,10,1.09611,8,114.004,1,49.5686,0\C,10,1.31363,8,125.827,1,-130.291,0\H,12,1.08185,10,137.507,8,-179.555,0\\\@

 Total job time:  167.10s(wall), 570.22s(cpu) 
 Wed Mar  2 21:35:52 2022

        *************************************************************
        *                                                           *
        *  Thank you very much for using Q-Chem.  Have a nice day.  *
        *                                                           *
        *************************************************************


