
Running Job 1 of 1 qcts2.in
qchem qcts2.in_30679.0 ./qcts2.d/ 1
/home/leeping/opt/qchem/5.0.2-openmp/exe/qcprog.exe_s qcts2.in_30679.0 ./qcts2.d/
Check license passed

                  Welcome to Q-Chem
     A Quantum Leap Into The Future Of Chemistry


 Q-Chem 5.0, Q-Chem, Inc., Pleasanton, CA (2017)

 Yihan Shao,  Zhengting Gan,  E. Epifanovsky,  A. T. B. Gilbert,  M. Wormit,  
 J. Kussmann,  A. W. Lange,  A. Behn,  Jia Deng,  Xintian Feng,  D. Ghosh,  
 M. Goldey,  P. R. Horn,  L. D. Jacobson,  I. Kaliman,  T. Kus,  A. Landau,  
 Jie Liu,  E. I. Proynov,  R. M. Richard,  R. P. Steele,  E. J. Sundstrom,  
 H. L. Woodcock III,  P. M. Zimmerman,  D. Zuev,  B. Albrecht,  E. Alguire,  
 S. A. Baeppler,  D. Barton,  Z. Benda,  Y. A. Bernard,  E. J. Berquist,  
 K. B. Bravaya,  H. Burton,  D. Casanova,  Chun-Min Chang,  Yunqing Chen,  
 A. Chien,  K. D. Closser,  M. P. Coons,  S. Dasgupta,  A. L. Dempwolff,  
 M. Diedenhofen,  Hainam Do,  R. G. Edgar,  Po-Tung Fang,  S. Fatehi,  
 Qingguo Feng,  J. Fosso-Tande,  Qinghui Ge,  A. Ghysels,  G. Gidofalvi,  
 J. Gomes,  J. Gonthier,  A. Gunina,  M. W. D. Hanson-Heine,  
 P. H. P. Harbach,  A. W. Hauser,  J. E. Herr,  E. G. Hohenstein,  
 Z. C. Holden,  Kerwin Hui,  T.-C. Jagau,  Hyunjun Ji,  B. Kaduk,  
 K. Khistyaev,  Jaehoon Kim,  P. Klunzinger,  K. Koh,  D. Kosenkov,  
 L. Koulias,  T. Kowalczyk,  C. M. Krauter,  A. Kunitsa,  Ka Un Lao,  
 A. Laurent,  K. V. Lawler,  Joonho Lee,  D. Lefrancois,  S. Lehtola,  
 D. S. Levine,  Yi-Pei Li,  You-Sheng Lin,  Fenglai Liu,  E. Livshits,  
 A. Luenser,  P. Manohar,  E. Mansoor,  S. F. Manzer,  Shan-Ping Mao,  
 Yuezhi Mao,  N. Mardirossian,  A. V. Marenich,  T. Markovich,  
 L. A. Martinez-Martinez,  S. A. Maurer,  N. J. Mayhall,  S. C. McKenzie,  
 J.-M. Mewes,  A. F. Morrison,  J. W. Mullinax,  K. Nanda,  
 T. S. Nguyen-Beck,  R. Olivares-Amaya,  J. A. Parkhill,  T. M. Perrine,  
 F. Plasser,  S. Prager,  A. Prociuk,  E. Ramos,  D. R. Rehn,  F. Rob,  
 M. Schneider,  N. Sergueev,  S. M. Sharada,  S. Sharma,  D. W. Small,  
 T. Stauch,  T. Stein,  Yu-Chuan Su,  A. J. W. Thom,  A. Tkatchenko,  
 T. Tsuchimochi,  L. Vogt,  O. Vydrov,  M. A. Watson,  J. Wenzel,  
 M. de Wergifosse,  T. A. Wesolowski,  A. White,  J. Witte,  A. Yamada,  
 Jun Yang,  K. Yao,  S. Yeganeh,  S. R. Yost,  Zhi-Qiang You,  A. Zech,  
 Igor Ying Zhang,  Xing Zhang,  Yan Zhao,  Ying Zhu,  B. R. Brooks,  
 G. K. L. Chan,  C. J. Cramer,  M. S. Gordon,  W. J. Hehre,  A. Klamt,  
 M. W. Schmidt,  C. D. Sherrill,  D. G. Truhlar,  A. Aspuru-Guzik,  R. Baer,  
 A. T. Bell,  N. A. Besley,  Jeng-Da Chai,  R. A. DiStasio Jr.,  A. Dreuw,  
 B. D. Dunietz,  T. R. Furlani,  Chao-Ping Hsu,  Yousung Jung,  Jing Kong,  
 D. S. Lambrecht,  WanZhen Liang,  C. Ochsenfeld,  V. A. Rassolov,  
 L. V. Slipchenko,  J. E. Subotnik,  T. Van Voorhis,  J. M. Herbert,  
 A. I. Krylov,  P. M. W. Gill,  M. Head-Gordon

 Contributors to earlier versions of Q-Chem not listed above: 
 R. D. Adamson,  B. Austin,  J. Baker,  G. J. O. Beran,  K. Brandhorst,  
 S. T. Brown,  E. F. C. Byrd,  A. K. Chakraborty,  C.-L. Cheng,  
 Siu Hung Chien,  D. M. Chipman,  D. L. Crittenden,  H. Dachsel,  
 R. J. Doerksen,  A. D. Dutoi,  L. Fusti-Molnar,  W. A. Goddard III,  
 A. Golubeva-Zadorozhnaya,  S. R. Gwaltney,  G. Hawkins,  A. Heyden,  
 S. Hirata,  G. Kedziora,  F. J. Keil,  C. Kelley,  Jihan Kim,  R. A. King,  
 R. Z. Khaliullin,  P. P. Korambath,  W. Kurlancheek,  A. M. Lee,  M. S. Lee,  
 S. V. Levchenko,  Ching Yeh Lin,  D. Liotard,  R. C. Lochan,  I. Lotan,  
 P. E. Maslen,  N. Nair,  D. P. O'Neill,  D. Neuhauser,  E. Neuscamman,  
 C. M. Oana,  R. Olson,  B. Peters,  R. Peverati,  P. A. Pieniazek,  
 Y. M. Rhee,  J. Ritchie,  M. A. Rohrdanz,  E. Rosta,  N. J. Russ,  
 H. F. Schaefer III,  N. E. Schultz,  N. Shenvi,  A. C. Simmonett,  A. Sodt,  
 D. Stuck,  K. S. Thanthiriwatte,  V. Vanovschi,  Tao Wang,  A. Warshel,  
 C. F. Williams,  Q. Wu,  X. Xu,  W. Zhang

 Please cite Q-Chem as follows:
 Y. Shao et al., Mol. Phys. 113, 184-215 (2015)
 DOI: 10.1080/00268976.2014.952696

 Q-Chem 5.0.2 for Intel X86 EM64T Linux

 Parts of Q-Chem use Armadillo 5.200.1 (Boston Tea Smuggler).
 http://arma.sourceforge.net/

 Q-Chem begins on Wed Mar  2 17:52:37 2022  

Host: 
0

     Scratch files written to ./qcts2.d//
 Dec517 15110_ 26548  26544 5633   
Processing $rem in /home/leeping/opt/qchem/5.0.2-openmp/config/preferences.
 MEM_STATIC 2000
 MEM_TOTAL  8000
 SYMMETRY   OFF
 SYM_IGNORE TRUE 

Checking the input file for inconsistencies... 	...done.

--------------------------------------------------------------
User input:
--------------------------------------------------------------
$molecule
0 2
C        0.9049090934    0.1915222163    0.3290767105
C        1.1541311811   -1.1076189239   -0.4012587283
C        0.0472147489   -1.8206382674   -0.2951709265
C       -1.3308486008    0.8340732505    0.2734884230
C       -0.4986103740    1.6183537314   -0.6181837736
N        0.7626071666    1.3031229450   -0.6218244138
H        1.6567156605    0.4511160394    1.0876101645
H        2.0664866584   -1.3306844147   -0.9563948803
H       -0.3351648483   -2.7767567849   -0.6406733430
H       -2.3992278677    0.9522609213    0.4114826850
H       -0.8673510402    2.4195828119   -1.2579684015
C       -0.5021459105   -0.0922679837    0.8717336161
H       -0.7167093365   -0.6541973203    1.7731348102
$end

$rem
method                b3lyp
basis                 6-31+g(d,p)
unrestricted          true
symmetry              off
sym_ignore            true
incdft                false
incfock               0
scf_convergence       8
thresh                14
jobtype               ts
scf_guess             read
scf_algorithm         diis
max_scf_cycles        100
geom_opt_max_cycles   500
geom_opt_dmax         100
geom_opt_tol_gradient 10
geom_opt_hessian      read
$end

--------------------------------------------------------------
 ----------------------------------------------------------------
             Standard Nuclear Orientation (Angstroms)
    I     Atom           X                Y                Z
 ----------------------------------------------------------------
    1      C       0.9049090934     0.1915222163     0.3290767105
    2      C       1.1541311811    -1.1076189239    -0.4012587283
    3      C       0.0472147489    -1.8206382674    -0.2951709265
    4      C      -1.3308486008     0.8340732505     0.2734884230
    5      C      -0.4986103740     1.6183537314    -0.6181837736
    6      N       0.7626071666     1.3031229450    -0.6218244138
    7      H       1.6567156605     0.4511160394     1.0876101645
    8      H       2.0664866584    -1.3306844147    -0.9563948803
    9      H      -0.3351648483    -2.7767567849    -0.6406733430
   10      H      -2.3992278677     0.9522609213     0.4114826850
   11      H      -0.8673510402     2.4195828119    -1.2579684015
   12      C      -0.5021459105    -0.0922679837     0.8717336161
   13      H      -0.7167093365    -0.6541973203     1.7731348102
 ----------------------------------------------------------------
 Nuclear Repulsion Energy =   267.6652577109 hartrees
 There are       25 alpha and       24 beta electrons
 Requested basis set is 6-31+G(d,p)
 There are 53 shells and 163 basis functions

 Total QAlloc Memory Limit   8000 MB
 Mega-Array Size      1956 MB
 MEM_STATIC part      2000 MB
 A cutoff of  1.0D-14 yielded   1388 shell pairs
 There are     13476 function pairs
 
 -------------------------------------------------------
 OpenMP Integral Computing Module                       
 Release: version 1.0, May 2013, Q-Chem Inc. Pittsburgh 
 -------------------------------------------------------
 Integral Job Info:
 Integral job number is                      11
 Integral operator is                         1
 short-range coefficients                     0
 long-range coefficients              100000000
 Omega coefficients                           0
 if combine SR and LR in K                    0
 Integral screening is                        0
 Integral computing path is                   2
 max size of driver memory is            800000
 size of driver memory is                593474
 size of scratch memory is              2361544
 max col of scratch BK array               1296
 max len of scratch array in speh3          155
 max len of scratch index in speh4           18
 max int batch size is                      520
 min int batch size is                       52
 fixed nKL is                                52
 max L of basis functions is                  2
 order of int derivative is                   0
 number of shells is                         53
 number of basis is                         163
 number of cartesian basis is               163
 number of contracted shell pairs          1388
 number of primitive shell pairs           4676
 maxK2 (contraction) of shell pair           36
 max number of K2 of shell pair               1
 max number of CS2 of shell pair            129
 max number of PS2 of shell pair            696
 mem total for path MDJ                  535308
 -------------------------------------------------------
 Smallest overlap matrix eigenvalue = 1.15E-05

 Scale SEOQF with 1.000000e-01/1.000000e-01/1.000000e-01

 Standard Electronic Orientation quadrupole field applied
 Nucleus-field energy     =     0.0000000049 hartrees
 Guess MOs from SCF MO coefficient file
 Reading MOs from coefficient file
 Reading MOs from coefficient file
 An unrestricted hybrid HF-DFT SCF calculation will be
 performed using Pulay DIIS extrapolation
 Exchange:     0.2000 Hartree-Fock + 0.0800 Slater + 0.7200 B88
 Correlation:  0.1900 VWN1RPA + 0.8100 LYP
 Using SG-1 standard quadrature grid
 SCF converges when DIIS error is below 1.0E-08
Using Q-Chem read-in guess as SCF_GUESS READ specified.

 using 4 threads for integral computing
 -------------------------------------------------------
 OpenMP Integral computing Module                
 Release: version 1.0, May 2013, Q-Chem Inc. Pittsburgh 
 -------------------------------------------------------
 -------------------------------------------------------
 OpenMP BLAS3 based DFT computing Module                
 Release: version 1.0, May 2013, Q-Chem Inc. Pittsburgh 
 -------------------------------------------------------
 ---------------------------------------
  Cycle       Energy         DIIS Error
 ---------------------------------------
    1    -286.8564419075      6.17E-10
    2    -286.8564419075      8.00E-10 Convergence criterion met
 ---------------------------------------
 <S^2> = 0.7948
 SCF time:  CPU 9.77 s  wall 2.74 s
 SCF   energy in the final basis set = -286.85644191
 Total energy in the final basis set = -286.85644191
 
 --------------------------------------------------------------
 
                    Orbital Energies (a.u.)
 --------------------------------------------------------------
 
 Alpha MOs
 -- Occupied --
-14.338 -10.233 -10.233 -10.223 -10.219 -10.210 -10.209  -0.957
 -0.817  -0.771  -0.698  -0.607  -0.566  -0.541  -0.523  -0.489
 -0.442  -0.417  -0.406  -0.368  -0.339  -0.302  -0.285  -0.273
 -0.205
 -- Virtual --
 -0.043  -0.008   0.006   0.022   0.025   0.030   0.042   0.051
  0.053   0.066   0.070   0.078   0.095   0.104   0.109   0.116
  0.120   0.131   0.135   0.148   0.160   0.168   0.181   0.185
  0.193   0.201   0.203   0.210   0.213   0.230   0.241   0.242
  0.254   0.260   0.272   0.285   0.312   0.325   0.338   0.377
  0.395   0.412   0.464   0.508   0.609   0.639   0.681   0.697
  0.702   0.721   0.735   0.746   0.754   0.755   0.791   0.809
  0.829   0.844   0.862   0.883   0.897   0.911   0.924   0.973
  1.007   1.020   1.039   1.052   1.076   1.113   1.122   1.158
  1.158   1.192   1.250   1.346   1.367   1.399   1.418   1.445
  1.484   1.540   1.573   1.622   1.670   1.764   1.803   1.825
  1.866   1.881   1.902   1.934   1.959   1.991   2.033   2.076
  2.107   2.144   2.174   2.223   2.254   2.291   2.367   2.394
  2.416   2.447   2.459   2.468   2.481   2.514   2.536   2.553
  2.587   2.601   2.656   2.690   2.697   2.727   2.747   2.777
  2.818   2.885   2.944   3.034   3.176   3.256   3.260   3.360
  3.460   3.673   3.714   4.138   4.350   4.395   4.445   4.536
  4.684   4.827
 
 Beta MOs
 -- Occupied --
-14.333 -10.235 -10.232 -10.226 -10.210 -10.207 -10.205  -0.952
 -0.809  -0.764  -0.691  -0.599  -0.562  -0.533  -0.520  -0.481
 -0.435  -0.413  -0.403  -0.365  -0.327  -0.284  -0.271  -0.267
 -- Virtual --
 -0.099  -0.032   0.000   0.007   0.023   0.026   0.032   0.043
  0.053   0.056   0.067   0.073   0.080   0.096   0.106   0.113
  0.118   0.121   0.134   0.136   0.150   0.161   0.169   0.181
  0.186   0.195   0.202   0.204   0.211   0.216   0.232   0.242
  0.244   0.258   0.262   0.275   0.286   0.314   0.328   0.341
  0.379   0.398   0.416   0.470   0.514   0.617   0.645   0.688
  0.698   0.701   0.728   0.741   0.748   0.755   0.759   0.793
  0.811   0.837   0.848   0.866   0.886   0.897   0.915   0.933
  0.976   1.014   1.025   1.043   1.061   1.084   1.117   1.129
  1.159   1.164   1.195   1.254   1.351   1.373   1.404   1.424
  1.453   1.495   1.547   1.580   1.629   1.695   1.777   1.807
  1.832   1.871   1.888   1.911   1.940   1.965   1.992   2.037
  2.085   2.117   2.153   2.181   2.227   2.258   2.296   2.370
  2.398   2.420   2.454   2.465   2.474   2.481   2.518   2.537
  2.560   2.593   2.607   2.661   2.696   2.703   2.733   2.752
  2.781   2.821   2.887   2.946   3.043   3.177   3.258   3.269
  3.361   3.461   3.685   3.716   4.145   4.361   4.401   4.444
  4.545   4.689   4.828
 --------------------------------------------------------------
 
          Ground-State Mulliken Net Atomic Charges

     Atom                 Charge (a.u.)    Spin (a.u.)
  --------------------------------------------------------
      1 C                     0.063936      -0.009570
      2 C                    -0.117787      -0.124067
      3 C                    -0.227619       0.754474
      4 C                     0.031024       0.380644
      5 C                    -0.144803      -0.124752
      6 N                    -0.221749       0.227978
      7 H                     0.155450       0.012774
      8 H                     0.143200       0.039545
      9 H                     0.140648       0.019384
     10 H                     0.134674      -0.017764
     11 H                     0.131018       0.004437
     12 C                    -0.244264      -0.183174
     13 H                     0.156271       0.020090
  --------------------------------------------------------
  Sum of atomic charges =     0.000000
  Sum of spin   charges =     1.000000

 -----------------------------------------------------------------
                    Cartesian Multipole Moments
 -----------------------------------------------------------------
    Charge (ESU x 10^10)
                 0.0000
    Dipole Moment (Debye)
         X      -1.4006      Y      -1.0282      Z       1.1183
       Tot       2.0662
    Quadrupole Moments (Debye-Ang)
        XX     -39.8940     XY      -3.7226     YY     -41.4070
        XZ       1.5139     YZ       1.1332     ZZ     -42.0537
    Octopole Moments (Debye-Ang^2)
       XXX     -10.5257    XXY      -5.5159    XYY     -12.2884
       YYY     -18.0217    XXZ       4.4729    XYZ       6.5863
       YYZ      -3.1033    XZZ      -4.2627    YZZ      -5.8934
       ZZZ      11.6229
    Hexadecapole Moments (Debye-Ang^3)
      XXXX    -250.1022   XXXY      27.6275   XXYY    -121.3508
      XYYY      36.7091   YYYY    -414.1250   XXXZ      19.6171
      XXYZ      10.6017   XYYZ      14.7310   YYYZ      15.4887
      XXZZ     -68.3577   XYZZ      11.3099   YYZZ     -94.9360
      XZZZ      24.8325   YZZZ       6.5681   ZZZZ    -145.4958
 -----------------------------------------------------------------
 Calculating analytic gradient of the SCF energy
 Gradient of SCF Energy
            1           2           3           4           5           6
    1  -0.0007984  -0.0024547   0.0011345   0.0011017   0.0020995  -0.0006994
    2   0.0002577  -0.0016875   0.0033053  -0.0002414  -0.0028171   0.0011501
    3  -0.0002008  -0.0002187   0.0011839   0.0001375   0.0015438  -0.0007838
            7           8           9          10          11          12
    1   0.0001793   0.0004403   0.0002741  -0.0003156  -0.0002566  -0.0006336
    2   0.0001819   0.0002349  -0.0004439  -0.0000181   0.0004513  -0.0003895
    3   0.0001816  -0.0001610  -0.0004130   0.0001351  -0.0003472  -0.0013460
           13
    1  -0.0000712
    2   0.0000162
    3   0.0002887
 Max gradient component =       3.305E-03
 RMS gradient           =       1.080E-03
 Gradient time:  CPU 16.59 s  wall 4.21 s
 Geometry Optimization Parameters
   NAtoms,    NIC,     NZ,  NCons,   NDum,   NFix, NCnnct, MaxDiis
       13      86       0       0       0       0       0       0

 Cartesian Hessian read from HESS file


** GEOMETRY OPTIMIZATION IN DELOCALIZED INTERNAL COORDINATES **
   Searching for a Transition State

   Optimization Cycle:   1

                       Coordinates (Angstroms)
     ATOM                X               Y               Z
      1  C         0.9049090934    0.1915222163    0.3290767105
      2  C         1.1541311811   -1.1076189239   -0.4012587283
      3  C         0.0472147489   -1.8206382674   -0.2951709265
      4  C        -1.3308486008    0.8340732505    0.2734884230
      5  C        -0.4986103740    1.6183537314   -0.6181837736
      6  N         0.7626071666    1.3031229450   -0.6218244138
      7  H         1.6567156605    0.4511160394    1.0876101645
      8  H         2.0664866584   -1.3306844147   -0.9563948803
      9  H        -0.3351648483   -2.7767567849   -0.6406733430
     10  H        -2.3992278677    0.9522609213    0.4114826850
     11  H        -0.8673510402    2.4195828119   -1.2579684015
     12  C        -0.5021459105   -0.0922679837    0.8717336161
     13  H        -0.7167093365   -0.6541973203    1.7731348102
   Point Group: c1    Number of degrees of freedom:    33


   Energy is   -286.856441908


 Attempting to Generate Delocalized Internal Coordinates

 Transforming Cartesian Hessian to Internal Coordinates
 Hessian Transformation does not Include Derivative of B-matrix

 33 Hessian modes will be used to form the next step
  Hessian Eigenvalues:
    -0.427329    0.010116    0.012740    0.013104    0.017060    0.022403
     0.028599    0.039271    0.043444    0.053498    0.061525    0.082960
     0.087779    0.096387    0.100258    0.100987    0.120840    0.161712
     0.193107    0.217975    0.247968    0.272220    0.291674    0.321068
     0.331584    0.350378    0.355312    0.361409    0.367235    0.370437
     0.480820    0.570500    0.656973

 Transition State Search - Taking P-RFO Step
 Searching for Lamda that Maximizes Along the Lowest mode
 Value Taken    Lamda =   0.00002520
 Searching for Lamda that Minimizes Along All other modes
 Value Taken    Lamda =  -0.00007681
 Step Taken.  Stepsize is  0.027882

                             Maximum     Tolerance    Cnvgd?
         Gradient           0.003623      0.000010      NO
         Displacement       0.009327      0.001200      NO
         Energy change     *********      0.000001      NO


 New Cartesian Coordinates Obtained by Inverse Iteration

 Displacement from previous Coordinates is:  0.043008
 ----------------------------------------------------------------
             Standard Nuclear Orientation (Angstroms)
    I     Atom           X                Y                Z
 ----------------------------------------------------------------
    1      C       0.9062721772     0.1913505665     0.3259063708
    2      C       1.1593504521    -1.1085737689    -0.4013902330
    3      C       0.0492906496    -1.8208745896    -0.2957205384
    4      C      -1.3325304499     0.8332759372     0.2707610357
    5      C      -0.5018397122     1.6239030393    -0.6170784239
    6      N       0.7604989667     1.3048734958    -0.6217809972
    7      H       1.6561143861     0.4525059091     1.0853063357
    8      H       2.0717108153    -1.3377121095    -0.9528032816
    9      H      -0.3422142459    -2.7756563139    -0.6316541538
   10      H      -2.4004984617     0.9496300338     0.4098729573
   11      H      -0.8683952113     2.4280437990    -1.2524412045
   12      C      -0.5012354238    -0.0966182949     0.8666379883
   13      H      -0.7145174113    -0.6562794831     1.7694360868
 ----------------------------------------------------------------
 Nuclear Repulsion Energy =   267.5209890130 hartrees
 There are       25 alpha and       24 beta electrons
 Applying Cartesian multipole field
    Component          Value
    ---------          -----
     (2,0,0)        1.00000E-11
     (0,2,0)        2.00000E-11
     (0,0,2)       -3.00000E-11
 Nucleus-field energy     =     0.0000000050 hartrees
 Requested basis set is 6-31+G(d,p)
 There are 53 shells and 163 basis functions
 A cutoff of  1.0D-14 yielded   1388 shell pairs
 There are     13476 function pairs
 Smallest overlap matrix eigenvalue = 1.14E-05
 Guess MOs from SCF MO coefficient file
 Reading MOs from coefficient file
 Reading MOs from coefficient file
 An unrestricted hybrid HF-DFT SCF calculation will be
 performed using Pulay DIIS extrapolation
 Exchange:     0.2000 Hartree-Fock + 0.0800 Slater + 0.7200 B88
 Correlation:  0.1900 VWN1RPA + 0.8100 LYP
 Using SG-1 standard quadrature grid
 SCF converges when DIIS error is below 1.0E-08
 Geometry optimization detected.  Setting ReadMinima to 0
 Setting SaveMinima to 0
Using Q-Chem read-in guess as SCF_GUESS READ specified.

 using 4 threads for integral computing
 -------------------------------------------------------
 OpenMP Integral computing Module                
 Release: version 1.0, May 2013, Q-Chem Inc. Pittsburgh 
 -------------------------------------------------------
 -------------------------------------------------------
 OpenMP BLAS3 based DFT computing Module                
 Release: version 1.0, May 2013, Q-Chem Inc. Pittsburgh 
 -------------------------------------------------------
 ---------------------------------------
  Cycle       Energy         DIIS Error
 ---------------------------------------
    1    -286.8541096903      1.99E-04
    2    -286.8564563798      4.11E-05
    3    -286.8564533273      6.04E-05
    4    -286.8564661959      1.49E-05
    5    -286.8564671986      5.22E-06
    6    -286.8564675959      2.26E-06
    7    -286.8564678101      1.29E-06
    8    -286.8564679000      6.45E-07
    9    -286.8564679275      3.23E-07
   10    -286.8564679393      1.10E-07
   11    -286.8564679418      6.01E-08
   12    -286.8564679427      3.71E-08
   13    -286.8564679432      9.47E-09 Convergence criterion met
 ---------------------------------------
 <S^2> = 0.7961
 SCF time:  CPU 65.74 s  wall 20.62 s
 SCF   energy in the final basis set = -286.85646794
 Total energy in the final basis set = -286.85646794
 
 --------------------------------------------------------------
 
                    Orbital Energies (a.u.)
 --------------------------------------------------------------
 
 Alpha MOs
 -- Occupied --
-14.338 -10.233 -10.233 -10.223 -10.220 -10.210 -10.209  -0.956
 -0.817  -0.771  -0.697  -0.607  -0.566  -0.542  -0.523  -0.489
 -0.442  -0.417  -0.406  -0.368  -0.339  -0.302  -0.285  -0.273
 -0.204
 -- Virtual --
 -0.043  -0.009   0.006   0.022   0.025   0.030   0.042   0.051
  0.053   0.066   0.070   0.078   0.095   0.104   0.109   0.116
  0.120   0.131   0.135   0.148   0.160   0.168   0.181   0.185
  0.193   0.201   0.202   0.209   0.213   0.230   0.241   0.243
  0.254   0.260   0.272   0.285   0.312   0.324   0.338   0.377
  0.394   0.412   0.464   0.507   0.609   0.639   0.681   0.696
  0.701   0.720   0.734   0.745   0.753   0.755   0.791   0.808
  0.829   0.843   0.862   0.882   0.897   0.911   0.924   0.973
  1.007   1.022   1.039   1.052   1.076   1.113   1.121   1.156
  1.157   1.192   1.250   1.345   1.366   1.398   1.418   1.445
  1.484   1.539   1.574   1.622   1.671   1.765   1.803   1.822
  1.866   1.881   1.900   1.936   1.958   1.990   2.033   2.077
  2.107   2.142   2.174   2.223   2.252   2.289   2.367   2.394
  2.417   2.445   2.459   2.467   2.481   2.513   2.535   2.553
  2.587   2.601   2.655   2.690   2.696   2.728   2.747   2.775
  2.818   2.883   2.943   3.032   3.174   3.258   3.264   3.360
  3.460   3.673   3.712   4.137   4.350   4.394   4.444   4.537
  4.683   4.828
 
 Beta MOs
 -- Occupied --
-14.333 -10.235 -10.232 -10.226 -10.210 -10.208 -10.205  -0.951
 -0.809  -0.763  -0.691  -0.599  -0.562  -0.534  -0.520  -0.482
 -0.435  -0.413  -0.403  -0.365  -0.327  -0.283  -0.271  -0.266
 -- Virtual --
 -0.098  -0.032  -0.001   0.007   0.023   0.026   0.032   0.043
  0.053   0.056   0.067   0.073   0.079   0.096   0.106   0.113
  0.118   0.121   0.133   0.136   0.150   0.161   0.169   0.181
  0.186   0.195   0.202   0.204   0.211   0.216   0.232   0.242
  0.244   0.258   0.262   0.275   0.286   0.314   0.328   0.341
  0.379   0.397   0.416   0.470   0.513   0.618   0.645   0.687
  0.698   0.701   0.728   0.740   0.748   0.754   0.759   0.793
  0.811   0.837   0.848   0.866   0.886   0.898   0.915   0.934
  0.976   1.014   1.026   1.042   1.060   1.084   1.117   1.128
  1.158   1.161   1.195   1.255   1.351   1.373   1.403   1.424
  1.453   1.494   1.547   1.581   1.629   1.696   1.777   1.807
  1.830   1.871   1.889   1.909   1.941   1.964   1.991   2.037
  2.085   2.116   2.151   2.180   2.227   2.255   2.294   2.370
  2.398   2.421   2.452   2.464   2.474   2.481   2.517   2.536
  2.560   2.592   2.607   2.660   2.696   2.702   2.734   2.752
  2.779   2.821   2.886   2.945   3.040   3.176   3.259   3.273
  3.362   3.461   3.686   3.714   4.144   4.361   4.400   4.443
  4.547   4.688   4.829
 --------------------------------------------------------------
 
          Ground-State Mulliken Net Atomic Charges

     Atom                 Charge (a.u.)    Spin (a.u.)
  --------------------------------------------------------
      1 C                     0.060474      -0.010748
      2 C                    -0.117545      -0.121471
      3 C                    -0.225839       0.743748
      4 C                     0.027846       0.392696
      5 C                    -0.142891      -0.129320
      6 N                    -0.220816       0.235810
      7 H                     0.155490       0.013465
      8 H                     0.142802       0.038657
      9 H                     0.141015       0.018349
     10 H                     0.134579      -0.018221
     11 H                     0.131480       0.004574
     12 C                    -0.242815      -0.187995
     13 H                     0.156219       0.020456
  --------------------------------------------------------
  Sum of atomic charges =    -0.000000
  Sum of spin   charges =     1.000000

 -----------------------------------------------------------------
                    Cartesian Multipole Moments
 -----------------------------------------------------------------
    Charge (ESU x 10^10)
                -0.0000
    Dipole Moment (Debye)
         X      -1.4043      Y      -1.0416      Z       1.1216
       Tot       2.0773
    Quadrupole Moments (Debye-Ang)
        XX     -39.8945     XY      -3.7240     YY     -41.3419
        XZ       1.5239     YZ       1.1171     ZZ     -42.0984
    Octopole Moments (Debye-Ang^2)
       XXX     -10.5266    XXY      -5.5889    XYY     -12.4031
       YYY     -18.0620    XXZ       4.5022    XYZ       6.6090
       YYZ      -3.0481    XZZ      -4.2735    YZZ      -5.8622
       ZZZ      11.7791
    Hexadecapole Moments (Debye-Ang^3)
      XXXX    -250.8292   XXXY      27.8902   XXYY    -121.5084
      XYYY      36.9779   YYYY    -414.5035   XXXZ      19.5414
      XXYZ      10.6726   XYYZ      14.7767   YYYZ      15.3661
      XXZZ     -68.4447   XYZZ      11.3908   YYZZ     -95.0692
      XZZZ      24.8103   YZZZ       6.7430   ZZZZ    -145.0124
 -----------------------------------------------------------------
 Calculating analytic gradient of the SCF energy
 Gradient of SCF Energy
            1           2           3           4           5           6
    1  -0.0000039  -0.0000141   0.0000074   0.0000204   0.0000252  -0.0000281
    2  -0.0000015  -0.0000145  -0.0000048  -0.0000261   0.0000056   0.0000013
    3  -0.0000202  -0.0000152  -0.0000016   0.0000340   0.0000150  -0.0000051
            7           8           9          10          11          12
    1   0.0000095  -0.0000107   0.0000006   0.0000053  -0.0000106  -0.0000161
    2  -0.0000037   0.0000055   0.0000101   0.0000010  -0.0000012   0.0000377
    3  -0.0000148  -0.0000241  -0.0000112   0.0000261   0.0000153   0.0000016
           13
    1   0.0000151
    2  -0.0000093
    3   0.0000001
 Max gradient component =       3.769E-05
 RMS gradient           =       1.556E-05
 Gradient time:  CPU 16.84 s  wall 4.41 s
 Geometry Optimization Parameters
   NAtoms,    NIC,     NZ,  NCons,   NDum,   NFix, NCnnct, MaxDiis
       13      86       0       0       0       0       0       0

 Cartesian Hessian Update
 Hessian Updated using Powell/Murtagh-Sargent Update
  Mixing factors:     0.973476 Powell
                      0.026524 Murtagh-Sargent


** GEOMETRY OPTIMIZATION IN DELOCALIZED INTERNAL COORDINATES **
   Searching for a Transition State

   Optimization Cycle:   2

                       Coordinates (Angstroms)
     ATOM                X               Y               Z
      1  C         0.9062721772    0.1913505665    0.3259063708
      2  C         1.1593504521   -1.1085737689   -0.4013902330
      3  C         0.0492906496   -1.8208745896   -0.2957205384
      4  C        -1.3325304499    0.8332759372    0.2707610357
      5  C        -0.5018397122    1.6239030393   -0.6170784239
      6  N         0.7604989667    1.3048734958   -0.6217809972
      7  H         1.6561143861    0.4525059091    1.0853063357
      8  H         2.0717108153   -1.3377121095   -0.9528032816
      9  H        -0.3422142459   -2.7756563139   -0.6316541538
     10  H        -2.4004984617    0.9496300338    0.4098729573
     11  H        -0.8683952113    2.4280437990   -1.2524412045
     12  C        -0.5012354238   -0.0966182949    0.8666379883
     13  H        -0.7145174113   -0.6562794831    1.7694360868
   Point Group: c1    Number of degrees of freedom:    33


   Energy is   -286.856467943

 Hessian Updated using Powell/Murtagh-Sargent Update
  Mixing factors:     0.867769 Powell
                      0.132231 Murtagh-Sargent

 33 Hessian modes will be used to form the next step
  Hessian Eigenvalues:
    -0.428790    0.010163    0.012763    0.013103    0.017020    0.022975
     0.028596    0.039273    0.043480    0.053518    0.061526    0.082960
     0.087791    0.096389    0.099984    0.100986    0.120837    0.161740
     0.193115    0.218040    0.248013    0.272238    0.291621    0.321074
     0.331584    0.350380    0.355323    0.361418    0.367241    0.370436
     0.480674    0.570045    0.656764

 Transition State Search - Taking P-RFO Step
 Searching for Lamda that Maximizes Along the Lowest mode
 Value Taken    Lamda =   0.00000001
 Searching for Lamda that Minimizes Along All other modes
 Value Taken    Lamda =   0.00000000
 Step Taken.  Stepsize is  0.000518

                             Maximum     Tolerance    Cnvgd?
         Gradient           0.000046      0.000010      NO
         Displacement       0.000193      0.001200     YES
         Energy change     -0.000026      0.000001      NO


 New Cartesian Coordinates Obtained by Inverse Iteration

 Displacement from previous Coordinates is:  0.000462
 ----------------------------------------------------------------
             Standard Nuclear Orientation (Angstroms)
    I     Atom           X                Y                Z
 ----------------------------------------------------------------
    1      C       0.9062596326     0.1913601887     0.3259237159
    2      C       1.1593186027    -1.1085564734    -0.4014148950
    3      C       0.0492977700    -1.8209470162    -0.2958271960
    4      C      -1.3325447101     0.8333021752     0.2707529228
    5      C      -0.5018579553     1.6239138817    -0.6171019631
    6      N       0.7605083045     1.3049146494    -0.6217533397
    7      H       1.6561439773     0.4524552822     1.0853012915
    8      H       2.0717133946    -1.3376973863    -0.9527791680
    9      H      -0.3421959452    -2.7757924361    -0.6316153512
   10      H      -2.4005184866     0.9496205783     0.4098558011
   11      H      -0.8683906967     2.4280958766    -1.2524332873
   12      C      -0.5012245677    -0.0965557934     0.8666805642
   13      H      -0.7145027892    -0.6562453058     1.7694628471
 ----------------------------------------------------------------
 Nuclear Repulsion Energy =   267.5179811423 hartrees
 There are       25 alpha and       24 beta electrons
 Applying Cartesian multipole field
    Component          Value
    ---------          -----
     (2,0,0)        1.00000E-11
     (0,2,0)        2.00000E-11
     (0,0,2)       -3.00000E-11
 Nucleus-field energy     =     0.0000000050 hartrees
 Requested basis set is 6-31+G(d,p)
 There are 53 shells and 163 basis functions
 A cutoff of  1.0D-14 yielded   1388 shell pairs
 There are     13476 function pairs
 Smallest overlap matrix eigenvalue = 1.14E-05
 Guess MOs from SCF MO coefficient file
 Reading MOs from coefficient file
 Reading MOs from coefficient file
 An unrestricted hybrid HF-DFT SCF calculation will be
 performed using Pulay DIIS extrapolation
 Exchange:     0.2000 Hartree-Fock + 0.0800 Slater + 0.7200 B88
 Correlation:  0.1900 VWN1RPA + 0.8100 LYP
 Using SG-1 standard quadrature grid
 SCF converges when DIIS error is below 1.0E-08
 Geometry optimization detected.  Setting ReadMinima to 0
 Setting SaveMinima to 0
Using Q-Chem read-in guess as SCF_GUESS READ specified.

 using 4 threads for integral computing
 -------------------------------------------------------
 OpenMP Integral computing Module                
 Release: version 1.0, May 2013, Q-Chem Inc. Pittsburgh 
 -------------------------------------------------------
 -------------------------------------------------------
 OpenMP BLAS3 based DFT computing Module                
 Release: version 1.0, May 2013, Q-Chem Inc. Pittsburgh 
 -------------------------------------------------------
 ---------------------------------------
  Cycle       Energy         DIIS Error
 ---------------------------------------
    1    -286.8564132648      2.66E-06
    2    -286.8564679423      6.09E-07
    3    -286.8564679421      8.20E-07
    4    -286.8564679446      2.48E-07
    5    -286.8564679449      6.96E-08
    6    -286.8564679450      3.86E-08
    7    -286.8564679450      2.51E-08
    8    -286.8564679450      7.71E-09 Convergence criterion met
 ---------------------------------------
 <S^2> = 0.7961
 SCF time:  CPU 40.46 s  wall 12.66 s
 SCF   energy in the final basis set = -286.85646795
 Total energy in the final basis set = -286.85646795
 
 --------------------------------------------------------------
 
                    Orbital Energies (a.u.)
 --------------------------------------------------------------
 
 Alpha MOs
 -- Occupied --
-14.338 -10.233 -10.233 -10.223 -10.220 -10.210 -10.209  -0.956
 -0.817  -0.771  -0.697  -0.607  -0.566  -0.542  -0.523  -0.489
 -0.442  -0.417  -0.406  -0.368  -0.339  -0.302  -0.285  -0.273
 -0.204
 -- Virtual --
 -0.043  -0.009   0.006   0.022   0.025   0.030   0.042   0.051
  0.053   0.066   0.070   0.078   0.095   0.104   0.109   0.116
  0.120   0.131   0.135   0.148   0.160   0.168   0.181   0.185
  0.193   0.201   0.202   0.209   0.213   0.230   0.241   0.242
  0.254   0.260   0.272   0.285   0.312   0.324   0.338   0.377
  0.394   0.412   0.464   0.507   0.609   0.639   0.681   0.696
  0.701   0.720   0.734   0.745   0.753   0.755   0.791   0.808
  0.829   0.843   0.862   0.882   0.897   0.911   0.924   0.973
  1.007   1.022   1.039   1.052   1.077   1.113   1.121   1.156
  1.157   1.192   1.250   1.345   1.366   1.398   1.418   1.445
  1.484   1.539   1.574   1.622   1.671   1.765   1.803   1.822
  1.866   1.881   1.900   1.936   1.958   1.990   2.033   2.076
  2.107   2.142   2.174   2.223   2.252   2.289   2.367   2.394
  2.417   2.445   2.459   2.467   2.481   2.513   2.535   2.553
  2.587   2.601   2.655   2.690   2.696   2.728   2.747   2.775
  2.818   2.883   2.943   3.031   3.174   3.258   3.264   3.360
  3.460   3.673   3.712   4.137   4.350   4.394   4.444   4.537
  4.683   4.828
 
 Beta MOs
 -- Occupied --
-14.333 -10.235 -10.232 -10.226 -10.210 -10.208 -10.205  -0.951
 -0.809  -0.763  -0.691  -0.599  -0.562  -0.534  -0.520  -0.482
 -0.435  -0.413  -0.403  -0.365  -0.327  -0.283  -0.271  -0.266
 -- Virtual --
 -0.098  -0.032  -0.001   0.007   0.023   0.026   0.032   0.043
  0.053   0.056   0.067   0.073   0.079   0.096   0.106   0.113
  0.118   0.121   0.133   0.136   0.150   0.161   0.169   0.181
  0.186   0.195   0.202   0.204   0.211   0.216   0.232   0.242
  0.244   0.258   0.262   0.275   0.286   0.314   0.328   0.341
  0.379   0.397   0.416   0.470   0.513   0.618   0.645   0.687
  0.698   0.701   0.728   0.740   0.748   0.754   0.759   0.793
  0.811   0.837   0.848   0.866   0.886   0.898   0.915   0.934
  0.976   1.014   1.026   1.042   1.060   1.084   1.117   1.128
  1.158   1.161   1.195   1.255   1.351   1.373   1.403   1.424
  1.453   1.494   1.547   1.581   1.629   1.696   1.777   1.807
  1.830   1.871   1.889   1.909   1.941   1.964   1.991   2.037
  2.085   2.116   2.151   2.180   2.227   2.255   2.294   2.370
  2.398   2.421   2.452   2.464   2.474   2.481   2.517   2.536
  2.560   2.592   2.607   2.660   2.696   2.702   2.734   2.752
  2.779   2.821   2.886   2.945   3.039   3.176   3.259   3.273
  3.362   3.461   3.686   3.714   4.144   4.361   4.400   4.443
  4.547   4.688   4.829
 --------------------------------------------------------------
 
          Ground-State Mulliken Net Atomic Charges

     Atom                 Charge (a.u.)    Spin (a.u.)
  --------------------------------------------------------
      1 C                     0.060467      -0.010735
      2 C                    -0.117540      -0.121516
      3 C                    -0.225848       0.743978
      4 C                     0.027861       0.392499
      5 C                    -0.142899      -0.129284
      6 N                    -0.220816       0.235739
      7 H                     0.155495       0.013453
      8 H                     0.142806       0.038673
      9 H                     0.141026       0.018337
     10 H                     0.134579      -0.018213
     11 H                     0.131482       0.004574
     12 C                    -0.242828      -0.187954
     13 H                     0.156216       0.020449
  --------------------------------------------------------
  Sum of atomic charges =    -0.000000
  Sum of spin   charges =     1.000000

 -----------------------------------------------------------------
                    Cartesian Multipole Moments
 -----------------------------------------------------------------
    Charge (ESU x 10^10)
                -0.0000
    Dipole Moment (Debye)
         X      -1.4042      Y      -1.0419      Z       1.1218
       Tot       2.0774
    Quadrupole Moments (Debye-Ang)
        XX     -39.8945     XY      -3.7243     YY     -41.3415
        XZ       1.5241     YZ       1.1167     ZZ     -42.0986
    Octopole Moments (Debye-Ang^2)
       XXX     -10.5259    XXY      -5.5893    XYY     -12.4040
       YYY     -18.0661    XXZ       4.5029    XYZ       6.6091
       YYZ      -3.0476    XZZ      -4.2731    YZZ      -5.8623
       ZZZ      11.7810
    Hexadecapole Moments (Debye-Ang^3)
      XXXX    -250.8276   XXXY      27.8900   XXYY    -121.5121
      XYYY      36.9785   YYYY    -414.5097   XXXZ      19.5422
      XXYZ      10.6708   XYYZ      14.7774   YYYZ      15.3606
      XXZZ     -68.4456   XYZZ      11.3912   YYZZ     -95.0740
      XZZZ      24.8102   YZZZ       6.7375   ZZZZ    -145.0182
 -----------------------------------------------------------------
 Calculating analytic gradient of the SCF energy
 Gradient of SCF Energy
            1           2           3           4           5           6
    1   0.0000033  -0.0000047  -0.0000038   0.0000030  -0.0000045  -0.0000058
    2  -0.0000013   0.0000006   0.0000012  -0.0000003   0.0000023   0.0000016
    3  -0.0000080  -0.0000148  -0.0000060   0.0000156   0.0000099  -0.0000033
            7           8           9          10          11          12
    1   0.0000108  -0.0000099  -0.0000075   0.0000045  -0.0000108   0.0000086
    2  -0.0000044   0.0000019   0.0000023  -0.0000000   0.0000044  -0.0000030
    3  -0.0000147  -0.0000244  -0.0000058   0.0000263   0.0000161   0.0000042
           13
    1   0.0000169
    2  -0.0000051
    3   0.0000049
 Max gradient component =       2.627E-05
 RMS gradient           =       9.448E-06
 Gradient time:  CPU 16.52 s  wall 4.33 s
 Geometry Optimization Parameters
   NAtoms,    NIC,     NZ,  NCons,   NDum,   NFix, NCnnct, MaxDiis
       13      86       0       0       0       0       0       0

 Cartesian Hessian Update
 Hessian Updated using Powell/Murtagh-Sargent Update
**WARNING** Small Scalar Product
 Hessian Update Skipped this cycle


** GEOMETRY OPTIMIZATION IN DELOCALIZED INTERNAL COORDINATES **
   Searching for a Transition State

   Optimization Cycle:   3

                       Coordinates (Angstroms)
     ATOM                X               Y               Z
      1  C         0.9062596326    0.1913601887    0.3259237159
      2  C         1.1593186027   -1.1085564734   -0.4014148950
      3  C         0.0492977700   -1.8209470162   -0.2958271960
      4  C        -1.3325447101    0.8333021752    0.2707529228
      5  C        -0.5018579553    1.6239138817   -0.6171019631
      6  N         0.7605083045    1.3049146494   -0.6217533397
      7  H         1.6561439773    0.4524552822    1.0853012915
      8  H         2.0717133946   -1.3376973863   -0.9527791680
      9  H        -0.3421959452   -2.7757924361   -0.6316153512
     10  H        -2.4005184866    0.9496205783    0.4098558011
     11  H        -0.8683906967    2.4280958766   -1.2524332873
     12  C        -0.5012245677   -0.0965557934    0.8666805642
     13  H        -0.7145027892   -0.6562453058    1.7694628471
   Point Group: c1    Number of degrees of freedom:    33


   Energy is   -286.856467945

 Hessian Updated using Powell/Murtagh-Sargent Update
**WARNING** Small Scalar Product
 Hessian Update Skipped this cycle

 33 Hessian modes will be used to form the next step
  Hessian Eigenvalues:
    -0.428790    0.010163    0.012763    0.013103    0.017020    0.022975
     0.028596    0.039273    0.043480    0.053518    0.061526    0.082960
     0.087791    0.096389    0.099984    0.100986    0.120837    0.161740
     0.193115    0.218040    0.248013    0.272238    0.291621    0.321074
     0.331584    0.350380    0.355323    0.361418    0.367241    0.370436
     0.480674    0.570045    0.656764

 Transition State Search - Taking P-RFO Step
 Searching for Lamda that Maximizes Along the Lowest mode
 Value Taken    Lamda =   0.00000000
 Searching for Lamda that Minimizes Along All other modes
 Value Taken    Lamda =   0.00000000
 Step Taken.  Stepsize is  0.000016

                             Maximum     Tolerance    Cnvgd?
         Gradient           0.000001      0.000010     YES
         Displacement       0.000007      0.001200     YES
         Energy change     -0.000000      0.000001     YES


                       Distance Matrix (Angstroms)
             C (  1)   C (  2)   C (  3)   C (  4)   C (  5)   N (  6)
   C (  2)  1.510908
   C (  3)  2.273838  1.323176
   C (  4)  2.329673  3.229862  3.045577
   C (  5)  2.219077  3.205062  3.503435  1.450308
   N (  6)  1.469469  2.456103  3.222276  2.323759  1.302056
   H (  7)  1.098704  2.212220  3.107705  3.121024  2.987886  2.107815
   H (  8)  2.308978  1.090400  2.180661  4.218915  3.937904  2.968541
   H (  9)  3.358499  2.255485  1.085242  3.849756  4.402626  4.227082
   H ( 10)  3.393639  4.191264  3.765054  1.083258  2.261465  3.344031
   H ( 11)  3.262450  4.164582  4.451024  2.253642  1.088440  2.076681
   C ( 12)  1.535033  2.321554  2.151284  1.382338  2.271921  2.402400
   H ( 13)  2.330045  2.903188  2.491053  2.201558  3.307572  3.426328
             H (  7)   H (  8)   H (  9)   H ( 10)   H ( 11)   C ( 12)
   H (  8)  2.744288
   H (  9)  4.166863  2.828113
   H ( 10)  4.142452  5.204753  4.381787
   H ( 11)  3.967548  4.786983  5.267139  2.701205
   C ( 12)  2.236839  3.386868  3.073840  2.215963  3.316522
   H ( 13)  2.705043  3.954488  3.224325  2.696291  4.320729  1.083400

 
 Final energy is   -286.856467945042     


 ******************************
 **  OPTIMIZATION CONVERGED  **
 ******************************

                       Coordinates (Angstroms)
     ATOM                X               Y               Z
      1  C         0.9062596326    0.1913601887    0.3259237159
      2  C         1.1593186027   -1.1085564734   -0.4014148950
      3  C         0.0492977700   -1.8209470162   -0.2958271960
      4  C        -1.3325447101    0.8333021752    0.2707529228
      5  C        -0.5018579553    1.6239138817   -0.6171019631
      6  N         0.7605083045    1.3049146494   -0.6217533397
      7  H         1.6561439773    0.4524552822    1.0853012915
      8  H         2.0717133946   -1.3376973863   -0.9527791680
      9  H        -0.3421959452   -2.7757924361   -0.6316153512
     10  H        -2.4005184866    0.9496205783    0.4098558011
     11  H        -0.8683906967    2.4280958766   -1.2524332873
     12  C        -0.5012245677   -0.0965557934    0.8666805642
     13  H        -0.7145027892   -0.6562453058    1.7694628471

Z-matrix Print:
$molecule
0 2
N 
C  1 1.302056
H  2 1.088440 1 120.358801
C  2 1.450308 1 115.083423 3 179.665300 0
H  4 1.083258 2 125.786058 1 -179.969761 0
C  4 1.382338 2 106.627872 1 -1.199145 0
H  6 1.083400 4 126.039738 2 161.824870 0
C  1 1.469469 2 106.231316 3 -179.546434 0
H  8 1.098704 1 109.472240 2 -124.126122 0
C  8 1.510908 1 110.985333 2 107.849721 0
H  10 1.090400 8 124.357958 1 68.221186 0
C  10 1.323176 8 106.516343 1 -107.853276 0
H  12 1.085242 10 138.732874 8 177.650232 0
$end

 
 --------------------------------------------------------------
 
                    Orbital Energies (a.u.)
 --------------------------------------------------------------
 
 Alpha MOs
 -- Occupied --
-14.338 -10.233 -10.233 -10.223 -10.220 -10.210 -10.209  -0.956
 -0.817  -0.771  -0.697  -0.607  -0.566  -0.542  -0.523  -0.489
 -0.442  -0.417  -0.406  -0.368  -0.339  -0.302  -0.285  -0.273
 -0.204
 -- Virtual --
 -0.043  -0.009   0.006   0.022   0.025   0.030   0.042   0.051
  0.053   0.066   0.070   0.078   0.095   0.104   0.109   0.116
  0.120   0.131   0.135   0.148   0.160   0.168   0.181   0.185
  0.193   0.201   0.202   0.209   0.213   0.230   0.241   0.242
  0.254   0.260   0.272   0.285   0.312   0.324   0.338   0.377
  0.394   0.412   0.464   0.507   0.609   0.639   0.681   0.696
  0.701   0.720   0.734   0.745   0.753   0.755   0.791   0.808
  0.829   0.843   0.862   0.882   0.897   0.911   0.924   0.973
  1.007   1.022   1.039   1.052   1.077   1.113   1.121   1.156
  1.157   1.192   1.250   1.345   1.366   1.398   1.418   1.445
  1.484   1.539   1.574   1.622   1.671   1.765   1.803   1.822
  1.866   1.881   1.900   1.936   1.958   1.990   2.033   2.076
  2.107   2.142   2.174   2.223   2.252   2.289   2.367   2.394
  2.417   2.445   2.459   2.467   2.481   2.513   2.535   2.553
  2.587   2.601   2.655   2.690   2.696   2.728   2.747   2.775
  2.818   2.883   2.943   3.031   3.174   3.258   3.264   3.360
  3.460   3.673   3.712   4.137   4.350   4.394   4.444   4.537
  4.683   4.828
 
 Beta MOs
 -- Occupied --
-14.333 -10.235 -10.232 -10.226 -10.210 -10.208 -10.205  -0.951
 -0.809  -0.763  -0.691  -0.599  -0.562  -0.534  -0.520  -0.482
 -0.435  -0.413  -0.403  -0.365  -0.327  -0.283  -0.271  -0.266
 -- Virtual --
 -0.098  -0.032  -0.001   0.007   0.023   0.026   0.032   0.043
  0.053   0.056   0.067   0.073   0.079   0.096   0.106   0.113
  0.118   0.121   0.133   0.136   0.150   0.161   0.169   0.181
  0.186   0.195   0.202   0.204   0.211   0.216   0.232   0.242
  0.244   0.258   0.262   0.275   0.286   0.314   0.328   0.341
  0.379   0.397   0.416   0.470   0.513   0.618   0.645   0.687
  0.698   0.701   0.728   0.740   0.748   0.754   0.759   0.793
  0.811   0.837   0.848   0.866   0.886   0.898   0.915   0.934
  0.976   1.014   1.026   1.042   1.060   1.084   1.117   1.128
  1.158   1.161   1.195   1.255   1.351   1.373   1.403   1.424
  1.453   1.494   1.547   1.581   1.629   1.696   1.777   1.807
  1.830   1.871   1.889   1.909   1.941   1.964   1.991   2.037
  2.085   2.116   2.151   2.180   2.227   2.255   2.294   2.370
  2.398   2.421   2.452   2.464   2.474   2.481   2.517   2.536
  2.560   2.592   2.607   2.660   2.696   2.702   2.734   2.752
  2.779   2.821   2.886   2.945   3.039   3.176   3.259   3.273
  3.362   3.461   3.686   3.714   4.144   4.361   4.400   4.443
  4.547   4.688   4.829
 --------------------------------------------------------------
 
          Ground-State Mulliken Net Atomic Charges

     Atom                 Charge (a.u.)    Spin (a.u.)
  --------------------------------------------------------
      1 C                     0.060467      -0.010735
      2 C                    -0.117540      -0.121516
      3 C                    -0.225848       0.743978
      4 C                     0.027861       0.392499
      5 C                    -0.142899      -0.129284
      6 N                    -0.220816       0.235739
      7 H                     0.155495       0.013453
      8 H                     0.142806       0.038673
      9 H                     0.141026       0.018337
     10 H                     0.134579      -0.018213
     11 H                     0.131482       0.004574
     12 C                    -0.242828      -0.187954
     13 H                     0.156216       0.020449
  --------------------------------------------------------
  Sum of atomic charges =    -0.000000
  Sum of spin   charges =     1.000000

 -----------------------------------------------------------------
                    Cartesian Multipole Moments
 -----------------------------------------------------------------
    Charge (ESU x 10^10)
                -0.0000
    Dipole Moment (Debye)
         X      -1.4042      Y      -1.0419      Z       1.1218
       Tot       2.0774
    Quadrupole Moments (Debye-Ang)
        XX     -39.8945     XY      -3.7243     YY     -41.3415
        XZ       1.5241     YZ       1.1167     ZZ     -42.0986
    Octopole Moments (Debye-Ang^2)
       XXX     -10.5259    XXY      -5.5893    XYY     -12.4040
       YYY     -18.0661    XXZ       4.5029    XYZ       6.6091
       YYZ      -3.0476    XZZ      -4.2731    YZZ      -5.8623
       ZZZ      11.7810
    Hexadecapole Moments (Debye-Ang^3)
      XXXX    -250.8276   XXXY      27.8900   XXYY    -121.5121
      XYYY      36.9785   YYYY    -414.5097   XXXZ      19.5422
      XXYZ      10.6708   XYYZ      14.7774   YYYZ      15.3606
      XXZZ     -68.4456   XYZZ      11.3912   YYZZ     -95.0740
      XZZZ      24.8102   YZZZ       6.7375   ZZZZ    -145.0182
 -----------------------------------------------------------------
Archival summary:
1\1\c8-89\TS\ProcedureUnspecified\6-31+G**\166(2)\hpark21\WedMar217:53:312022WedMar217:53:312022\0\\#,TS,ProcedureUnspecified,6-31+G**,\\0,2\N\C,1,1.30206\H,2,1.08844,1,120.359\C,2,1.45031,1,115.083,3,179.665,0\H,4,1.08326,2,125.786,1,-179.97,0\C,4,1.38234,2,106.628,1,-1.19915,0\H,6,1.0834,4,126.04,2,161.825,0\C,1,1.46947,2,106.231,3,-179.546,0\H,8,1.0987,1,109.472,2,-124.126,0\C,8,1.51091,1,110.985,2,107.85,0\H,10,1.0904,8,124.358,1,68.2212,0\C,10,1.32318,8,106.516,1,-107.853,0\H,12,1.08524,10,138.733,8,177.65,0\\\@

 Total job time:  54.19s(wall), 170.60s(cpu) 
 Wed Mar  2 17:53:31 2022

        *************************************************************
        *                                                           *
        *  Thank you very much for using Q-Chem.  Have a nice day.  *
        *                                                           *
        *************************************************************


