13   
From optimize.out: Frame 1 / 3, Energy=    -286.8383128750
C        1.2424488758    0.3285259729    0.1575187148
C        0.6190515943   -1.1148988496   -0.1206762406
C       -0.7309206360   -1.0002894522   -0.6569172640
C       -1.0521277764    0.1899608083    0.2443084245
C       -0.5326811183    1.4039059485   -0.5165028819
N        0.7470660897    1.4475081598   -0.6047495514
H        2.2979472879    0.3233810197    0.4108180784
H        1.2994698631   -1.9592438129   -0.1712622510
H       -1.1770907404   -1.3193984487   -1.5961661522
H       -2.0409918353    0.2600128364    0.7018722171
H       -1.1682313624    2.1008702017   -1.0605932589
C        0.2142271837   -0.2308103634    1.0736003463
H        0.2818325743   -0.4295240206    2.1387498190
13   
From optimize.out: Frame 2 / 3, Energy=    -286.8383166369
C        1.2425466576    0.3276749386    0.1556926576
C        0.6185671665   -1.1159518904   -0.1201572169
C       -0.7301784737   -1.0004302688   -0.6580075079
C       -1.0530607733    0.1890192189    0.2437843677
C       -0.5328960579    1.4037005816   -0.5152557927
N        0.7466366505    1.4463620638   -0.6060195463
H        2.2975092751    0.3226546504    0.4100802154
H        1.2981427931   -1.9610952817   -0.1682062044
H       -1.1742120357   -1.3197451653   -1.5979771083
H       -2.0429954999    0.2588924673    0.7000613840
H       -1.1685218089    2.1038243111   -1.0550930127
C        0.2142728002   -0.2293223744    1.0727074809
H        0.2841893065   -0.4255832512    2.1383902835
