13   
From optimize.out: Frame 1 / 2, Energy=    -286.8549487882
C        1.4686732685    0.4434648827   -0.3530738584
C        0.8844898150   -0.7852997800    0.2158355540
C       -0.7449175472   -0.8064664611    0.1739773918
C       -1.3117588051    0.4547650255   -0.3303380734
C       -0.5481144770    1.5423396026   -0.5757289614
N        0.8460300516    1.5355555592   -0.6348741906
H        2.5303145794    0.3995219587   -0.6079325517
H        1.4411642486   -1.6994013932    0.0000858207
H       -1.2584586499   -1.7272652578   -0.1086158969
H       -2.3826894973    0.4875523101   -0.5153848406
H       -1.0043020908    2.4797194493   -0.8832408489
C        0.0350901728   -0.7972998302    1.4092860838
H        0.0444789317   -1.5271860652    2.2100043717
13   
From optimize.out: Frame 56 / 57, Energy=    -286.8549487881
C        1.4636966686    0.4487504729   -0.3486728066
C        0.8860057350   -0.7765068583    0.2274275784
C       -0.7489816151   -0.7888356477    0.1995229171
C       -1.3130943932    0.4622444271   -0.3269048212
C       -0.5495297511    1.5452647508   -0.5938854500
N        0.8442483920    1.5401785991   -0.6406229804
H        2.5278283441    0.4007401087   -0.5927355922
H        1.4441559028   -1.6883061269    0.0082550506
H       -1.2738065511   -1.7084189073   -0.0649813046
H       -2.3811797349    0.4915138019   -0.5256724684
H       -1.0047309431    2.4756714664   -0.9234392624
C        0.0438366705   -0.7961557279    1.4303643121
H        0.0615512754   -1.6061403587    2.1513448277
13   
From optimize.out: Frame 54 / 57, Energy=    -286.8549425328
C        1.4645391668    0.4535947101   -0.3581889182
C        0.9023098051   -0.7633832314    0.2602055337
C       -0.7347687382   -0.7876464843    0.1849467040
C       -1.3167196590    0.4660217248   -0.3231363044
C       -0.5550054073    1.5411867761   -0.6211155372
N        0.8410562784    1.5238952866   -0.7052910269
H        2.5290665303    0.3936122261   -0.6004754431
H        1.4724090726   -1.6715133890    0.0609451711
H       -1.2430803355   -1.7102911153   -0.1039839385
H       -2.3961558276    0.5098394192   -0.4421165067
H       -0.9997500241    2.4878372625   -0.9160749864
C        0.0175439118   -0.7998371473    1.4402515776
H        0.0185552268   -1.6433160380    2.1240336751
13   
From optimize.out: Frame 51 / 57, Energy=    -286.8548783919
C        1.4675538449    0.4454786387   -0.3854542298
C        0.9099041988   -0.7680904773    0.2575828885
C       -0.7017010286   -0.7925683129    0.1663079401
C       -1.3059763950    0.4581986177   -0.3217683421
C       -0.5603171707    1.5346626730   -0.6277839564
N        0.8293360880    1.5033497901   -0.7380178353
H        2.5348564627    0.4160121950   -0.6168179367
H        1.5067988261   -1.6659996486    0.0938126643
H       -1.2247147485   -1.7157827701   -0.0873348706
H       -2.3903931336    0.5065901146   -0.3803715858
H       -0.9935365029    2.4976494698   -0.8824388334
C        0.0336060408   -0.7757947878    1.4427032532
H       -0.1054164822   -1.6437055022    2.0795808438
13   
From optimize.out: Frame 49 / 57, Energy=    -286.8548126782
C        1.4726977909    0.4330490327   -0.4140706347
C        0.8850588656   -0.7462154197    0.2489082444
C       -0.6750562157   -0.8130177917    0.1347537858
C       -1.2931349305    0.4389565648   -0.3239059215
C       -0.5563426615    1.5233053531   -0.6180953317
N        0.8221866238    1.4813630839   -0.7513273278
H        2.5413357832    0.4164127517   -0.6291657448
H        1.5230984974   -1.6273943700    0.1227594271
H       -1.2204321016   -1.7348566805   -0.0505569331
H       -2.3778092281    0.4995718398   -0.3479068829
H       -0.9831910568    2.4967786311   -0.8369633950
C        0.0707313666   -0.7386258892    1.4593130866
H       -0.2091427333   -1.6293271060    2.0062576275
13   
From optimize.out: Frame 46 / 57, Energy=    -286.8546861106
C        1.4732537278    0.4165423743   -0.4375377922
C        0.8399008048   -0.7264879573    0.2425477406
C       -0.6529849068   -0.8295422253    0.0772372581
C       -1.2927148087    0.4177609661   -0.3405930592
C       -0.5516021378    1.5198661882   -0.6030723741
N        0.8377956225    1.4777419074   -0.7559146407
H        2.5445841377    0.4031643680   -0.6330412783
H        1.4957134254   -1.6038260564    0.1829198365
H       -1.2143450601   -1.7507566777   -0.0175316407
H       -2.3755754165    0.4918316738   -0.3482229285
H       -0.9892341143    2.4947329912   -0.7837843092
C        0.1234166199   -0.6924843777    1.4981486957
H       -0.2382078940   -1.6185431747    1.9188444920
13   
From optimize.out: Frame 44 / 57, Energy=    -286.8545834615
C        1.4708771462    0.4086435673   -0.4642159408
C        0.8170962594   -0.7455948738    0.2006177800
C       -0.6318643893   -0.8408276183    0.0047533856
C       -1.2882576208    0.3980428354   -0.3509655046
C       -0.5417486473    1.5237715353   -0.5898408129
N        0.8542990980    1.5024491339   -0.7598397954
H        2.5484839101    0.4050477444   -0.6283195262
H        1.4463902808   -1.6369825004    0.2432907185
H       -1.1928590537   -1.7661130003   -0.0138710132
H       -2.3715317721    0.4683156019   -0.3372921834
H       -1.0040763473    2.4960982122   -0.7240295802
C        0.1448273146   -0.6274350848    1.5393382589
H       -0.2516361786   -1.5854155528    1.8803742135
13   
From optimize.out: Frame 41 / 57, Energy=    -286.8543681788
C        1.4689521415    0.4020988539   -0.4778994496
C        0.8134319701   -0.7791571489    0.1235644461
C       -0.6166495812   -0.8541427610   -0.0566561143
C       -1.2771971348    0.3805798221   -0.3509452335
C       -0.5314396178    1.5187630806   -0.5742038201
N        0.8560348113    1.5181215386   -0.7429206747
H        2.5517353265    0.4097362350   -0.6078505558
H        1.4188842554   -1.6775879504    0.2270005648
H       -1.1741132036   -1.7820599804   -0.0295294900
H       -2.3610038412    0.4457065769   -0.3229887598
H       -1.0119656954    2.4873745963   -0.6775768784
C        0.1325130516   -0.5465419009    1.5805449659
H       -0.2691824824   -1.5228909618    1.9094609993
13   
From optimize.out: Frame 39 / 57, Energy=    -286.8542525073
C        1.4703325664    0.3962517955   -0.4803531306
C        0.8153763822   -0.8079624348    0.0462390133
C       -0.6059885638   -0.8697050903   -0.0972179700
C       -1.2673513011    0.3664882005   -0.3481339185
C       -0.5241754015    1.5114123065   -0.5579608380
N        0.8543746267    1.5233589081   -0.7151461028
H        2.5556881995    0.4106303115   -0.5863864964
H        1.4099104576   -1.7093246879    0.1672538474
H       -1.1590819301   -1.8001060477   -0.0480332182
H       -2.3515210621    0.4266743372   -0.3126332659
H       -1.0148494990    2.4773166440   -0.6445321384
C        0.1086931843   -0.4733925073    1.6102477156
H       -0.2914076592   -1.4516417352    1.9666565025
13   
From optimize.out: Frame 34 / 57, Energy=    -286.8534554834
C        1.4721673060    0.3884899073   -0.4776718989
C        0.8176433942   -0.8323118269   -0.0213594497
C       -0.5984252598   -0.8866392292   -0.1320075996
C       -1.2595432227    0.3526263377   -0.3435473623
C       -0.5185623557    1.5027542111   -0.5390605946
N        0.8517989202    1.5220266100   -0.6834604631
H        2.5587719387    0.4075059193   -0.5673133688
H        1.4077177322   -1.7360503037    0.0977979710
H       -1.1479855443   -1.8193302698   -0.0750259891
H       -2.3439668807    0.4093334684   -0.3046438110
H       -1.0154691951    2.4668761342   -0.6133786630
C        0.0876824256   -0.4040724225    1.6284642895
H       -0.3118292585   -1.3712085359    2.0312069397
13   
From optimize.out: Frame 32 / 57, Energy=    -286.8516107029
C        1.4735035502    0.3786175658   -0.4718479003
C        0.8191146123   -0.8545889445   -0.0816819028
C       -0.5928216050   -0.9041628596   -0.1655573981
C       -1.2533761882    0.3377254512   -0.3374077767
C       -0.5137442945    1.4931413876   -0.5182053441
N        0.8493311559    1.5172341046   -0.6500681702
H        2.5608360144    0.4015406122   -0.5481301089
H        1.4073410737   -1.7605288825    0.0276931192
H       -1.1402277851   -1.8386050473   -0.1085159135
H       -2.3379553361    0.3924353304   -0.2974293043
H       -1.0151486891    2.4559193770   -0.5819239748
C        0.0712138347   -0.3355134905    1.6380717350
H       -0.3280663430   -1.2832146044    2.0950029396
13   
From optimize.out: Frame 29 / 57, Energy=    -286.8445139966
C        1.4740960055    0.3664980909   -0.4624651130
C        0.8194315209   -0.8755319148   -0.1347955750
C       -0.5891557728   -0.9220820325   -0.1976374109
C       -1.2490068439    0.3214766593   -0.3297189642
C       -0.5095153927    1.4826267678   -0.4955103606
N        0.8473607311    1.5098124335   -0.6154569603
H        2.5618206186    0.3928261056   -0.5273939918
H        1.4073131487   -1.7835006372   -0.0411287263
H       -1.1357017428   -1.8577330935   -0.1469830650
H       -2.3336780530    0.3756912943   -0.2909904556
H       -1.0141602497    2.4444030605   -0.5499888105
C        0.0597588910   -0.2671338246    1.6378845688
H       -0.3385628609   -1.1873529094    2.1541848644
13   
From optimize.out: Frame 27 / 57, Energy=    -286.8361954729
C        1.4738928548    0.3526067170   -0.4496225204
C        0.8186257859   -0.8960003721   -0.1819377642
C       -0.5871859805   -0.9402994749   -0.2276186274
C       -1.2462289410    0.3041545756   -0.3211094269
C       -0.5055997808    1.4712758085   -0.4711544696
N        0.8458561831    1.5007923609   -0.5802054786
H        2.5618550931    0.3819150035   -0.5046249821
H        1.4068669817   -1.8057283762   -0.1077317979
H       -1.1337140958   -1.8767656937   -0.1875648765
H       -2.3309835625    0.3591733403   -0.2859142197
H       -1.0127132195    2.4323294286   -0.5174332231
C        0.0526599548   -0.1981668951    1.6286887037
H       -0.3433312732   -1.0852864222    2.2062286828
13   
From optimize.out: Frame 24 / 57, Energy=    -286.8200209778
C        1.4723867686    0.3364948696   -0.4316986376
C        0.8161801707   -0.9164992944   -0.2213592923
C       -0.5875768565   -0.9588611691   -0.2537513701
C       -1.2457315029    0.2856684884   -0.3121791230
C       -0.5019940785    1.4586514729   -0.4443792455
N        0.8448983754    1.4902238271   -0.5442582560
H        2.5604904545    0.3683094056   -0.4787249409
H        1.4053538480   -1.8274384355   -0.1697235725
H       -1.1349074737   -1.8956233735   -0.2276194448
H       -2.3305580315    0.3433097412   -0.2839418923
H       -1.0106762775    2.4194133867   -0.4838571923
C        0.0518818805   -0.1270770380    1.6069596406
H       -0.3397472773   -0.9765718810    2.2445333269
13   
From optimize.out: Frame 22 / 57, Energy=    -286.8104210590
C        1.4695000920    0.3182965923   -0.4086756729
C        0.8121073167   -0.9373622837   -0.2529767246
C       -0.5903715144   -0.9775989354   -0.2750868695
C       -1.2475896576    0.2664128350   -0.3039914156
C       -0.4986492901    1.4449323211   -0.4152796945
N        0.8444568760    1.4790047416   -0.5079045242
H        2.5576870387    0.3525420789   -0.4498417472
H        1.4021350678   -1.8491001188   -0.2242480662
H       -1.1389279969   -1.9142510203   -0.2630478215
H       -2.3324483476    0.3280726859   -0.2857653461
H       -1.0079954358    2.4059283260   -0.4492975860
C        0.0579803121   -0.0526930715    1.5716952677
H       -0.3278844610   -0.8641841510    2.2644202004
13   
From optimize.out: Frame 19 / 57, Energy=    -286.7982516184
C        1.4657299389    0.2981927200   -0.3812183137
C        0.8068416323   -0.9582472837   -0.2755110144
C       -0.5955555994   -0.9958709867   -0.2905277697
C       -1.2519802735    0.2469749798   -0.2975886082
C       -0.4957254226    1.4310397883   -0.3845659190
N        0.8447146979    1.4689319788   -0.4720109678
H        2.5538381994    0.3345686419   -0.4182042800
H        1.3962215503   -1.8711445615   -0.2662485422
H       -1.1453141610   -1.9321785638   -0.2887731954
H       -2.3368409574    0.3118942920   -0.2904873288
H       -1.0047242466    2.3928172836   -0.4141118271
C        0.0714317590    0.0252895647    1.5200169559
H       -0.3086371176   -0.7522678535    2.2592308104
13   
From optimize.out: Frame 17 / 57, Energy=    -286.7892111519
C        1.4631935285    0.2772252783   -0.3525198036
C        0.8018891891   -0.9781823172   -0.2892662134
C       -0.6017024805   -1.0120219222   -0.3001442924
C       -1.2583678776    0.2288768183   -0.2938004232
C       -0.4944604529    1.4191394344   -0.3547257563
N        0.8454999202    1.4621341933   -0.4374510021
H        2.5506408531    0.3129207670   -0.3841936524
H        1.3867601755   -1.8938446189   -0.2910356751
H       -1.1520033497   -1.9475633337   -0.3001204031
H       -2.3430969588    0.2916281283   -0.2944053314
H       -1.0025009650    2.3813599006   -0.3791639000
C        0.0901205395    0.1047986686    1.4516710858
H       -0.2859721213   -0.6464709968    2.2251553673
13   
From optimize.out: Frame 15 / 57, Energy=    -286.7799443775
C        1.4643460756    0.2577677625   -0.3267290821
C        0.7974878374   -0.9964499269   -0.2968850804
C       -0.6048556613   -1.0245851588   -0.3044877683
C       -1.2645378350    0.2146250315   -0.2918532532
C       -0.4973761830    1.4110617076   -0.3299474563
N        0.8451317137    1.4540396299   -0.4028312537
H        2.5493135316    0.2876432188   -0.3484583726
H        1.3728188396   -1.9156438970   -0.2986857461
H       -1.1535531300   -1.9575642337   -0.2950836941
H       -2.3476113771    0.2685621315   -0.2931708788
H       -1.0045629420    2.3707731361   -0.3464416822
C        0.1084789993    0.1795513118    1.3711238585
H       -0.2650798690   -0.5497807133    2.1634504094
13   
From optimize.out: Frame 12 / 57, Energy=    -286.7660031502
C        1.4689339851    0.2430683095   -0.3076725003
C        0.7883687996   -1.0060607771   -0.2872642497
C       -0.6087454179   -1.0305684893   -0.3028410620
C       -1.2660566414    0.2042114076   -0.2894268350
C       -0.5036610135    1.4071583158   -0.3163768176
N        0.8398386597    1.4358935708   -0.3685519348
H        2.5488084067    0.2664027604   -0.3161472249
H        1.3508221371   -1.9279788720   -0.2768843599
H       -1.1551574423   -1.9569952228   -0.2749826825
H       -2.3453248000    0.2487882081   -0.2865211555
H       -1.0096691555    2.3613360351   -0.3246691057
C        0.1303785106    0.2330806243    1.2773324610
H       -0.2385360283   -0.4783358703    2.0740054670
13   
From optimize.out: Frame 10 / 57, Energy=    -286.7558150909
C        1.4712375956    0.2479700869   -0.2941357840
C        0.7886100702   -1.0049708929   -0.2522544776
C       -0.6095533942   -1.0370690077   -0.2747793697
C       -1.2623764963    0.2022334826   -0.2667784490
C       -0.4988520065    1.4098386766   -0.3173981135
N        0.8425267469    1.4389760850   -0.3863661148
H        2.5582811906    0.2639375637   -0.3007144027
H        1.3511359768   -1.9349775804   -0.2216475124
H       -1.1571909727   -1.9665480570   -0.2242961672
H       -2.3492851889    0.2415775864   -0.2549902976
H       -1.0159855813    2.3656754291   -0.3339433347
C        0.1387109697    0.2613298123    1.1662818915
H       -0.2572589098   -0.4879731847    1.9610221318
13   
From optimize.out: Frame 7 / 57, Energy=    -286.7347397909
C        1.4730706127    0.2571245945   -0.2826885162
C        0.7904624031   -1.0037706769   -0.2162288840
C       -0.6111158804   -1.0469170535   -0.2473251742
C       -1.2593282973    0.2019537715   -0.2422955344
C       -0.4913786781    1.4147739278   -0.3223224232
N        0.8485142223    1.4497065154   -0.4212649768
H        2.5681796037    0.2662949121   -0.2862460540
H        1.3559552103   -1.9399704508   -0.1608150028
H       -1.1601852044   -1.9788361219   -0.1742408554
H       -2.3544663871    0.2382047992   -0.2158117359
H       -1.0209272939    2.3722727221   -0.3476463017
C        0.1442738493    0.2825934568    1.0679964084
H       -0.2830541602   -0.5134303962    1.8488890504
13   
From optimize.out: Frame 5 / 57, Energy=    -286.7126973484
C        1.4763136338    0.2688436053   -0.2726778643
C        0.7916043101   -1.0063407131   -0.1828098203
C       -0.6124743516   -1.0607111450   -0.2248081146
C       -1.2582074627    0.2012280833   -0.2180701244
C       -0.4823826576    1.4232747373   -0.3301469291
N        0.8561193872    1.4645023361   -0.4671540933
H        2.5713250896    0.2701433239   -0.2672160048
H        1.3588252372   -1.9379797239   -0.0957533507
H       -1.1623972553   -1.9909889150   -0.1275590019
H       -2.3525744885    0.2373611038   -0.1669253310
H       -1.0227776891    2.3740613783   -0.3613770756
C        0.1438366466    0.2939055393    0.9804369715
H       -0.3072103999   -0.5372996103    1.7340607384
13   
From optimize.out: Frame 2 / 57, Energy=    -286.6605056957
C        1.4803933629    0.2819509054   -0.2639358732
C        0.7920079161   -1.0132157525   -0.1544857270
C       -0.6166700289   -1.0792163867   -0.2112425422
C       -1.2597781782    0.1989132938   -0.1970793085
C       -0.4724818820    1.4349968603   -0.3413789405
N        0.8658355999    1.4835789033   -0.5248358531
H        2.5668284180    0.2749505650   -0.2413811689
H        1.3593010961   -1.9291661461   -0.0242398188
H       -1.1650079364   -2.0032542278   -0.0896805350
H       -2.3428508837    0.2399995036   -0.1070470975
H       -1.0208431819    2.3712721731   -0.3707899074
C        0.1360476255    0.2898204634    0.9058863665
H       -0.3227819274   -0.5506301550    1.6202104056
13   
C5H5N+CH->C6H6N atoms 1-13 frame 54 charge -0.000 sz -1.000 sz^2 0.954
C        1.4836833823    0.2954468193   -0.2573489747
C        0.7913719630   -1.0246983321   -0.1371350683
C       -0.6248539187   -1.1031524104   -0.2135735253
C       -1.2629746657    0.1949445217   -0.1833764649
C       -0.4617540411    1.4496582311   -0.3570738405
N        0.8779339501    1.5077304950   -0.5945753435
H        2.5600137250    0.2807626448   -0.2052970826
H        1.3599783236   -1.9187795052    0.0527209105
H       -1.1705869611   -2.0193876486   -0.0677444933
H       -2.3298141668    0.2474957931   -0.0331152332
H       -1.0178932499    2.3706493795   -0.3733800889
C        0.1188750893    0.2657973403    0.8461008644
H       -0.3239794302   -0.5464673284    1.5237983404
13   
C5H5N+CH->C6H6N atoms 1-13 frame 59 charge -0.000 sz -1.000 sz^2 0.290
C        1.4828527271    0.3064254818   -0.2543975725
C        0.7890783973   -1.0390930758   -0.1383631461
C       -0.6380150559   -1.1319446234   -0.2399158261
C       -1.2653244509    0.1908886289   -0.1819863721
C       -0.4506870029    1.4658030172   -0.3789965091
N        0.8903925015    1.5363191399   -0.6711670371
H        2.5583636603    0.2875940457   -0.1570313963
H        1.3639385384   -1.9142222863    0.1280258261
H       -1.1828081238   -2.0435137150   -0.0717788473
H       -2.3200357223    0.2611854732    0.0528847531
H       -1.0178632000    2.3817785909   -0.3679432275
C        0.0947006312    0.2227554279    0.8047865959
H       -0.3045929001   -0.5239761050    1.4758827590
13   
C5H5N+CH->C6H6N atoms 1-13 frame 61 charge -0.000 sz -1.000 sz^2 0.558
C        1.4780058629    0.3158909520   -0.2578220099
C        0.7861279008   -1.0532696261   -0.1590505237
C       -0.6522924551   -1.1588458464   -0.2869261761
C       -1.2652103400    0.1881589933   -0.1920345942
C       -0.4400969578    1.4831773393   -0.4050793965
N        0.9006270581    1.5657310056   -0.7433319502
H        2.5590232233    0.2952195447   -0.1056041726
H        1.3684563261   -1.9122035823    0.1866776994
H       -1.1989271062   -2.0710109663   -0.0966346087
H       -2.3086416510    0.2772030242    0.1375349951
H       -1.0210163786    2.4020792891   -0.3582432107
C        0.0695296064    0.1703462888    0.7781640061
H       -0.2755850887   -0.5024764160    1.5023499422
13   
C5H5N+CH->C6H6N atoms 1-13 frame 64 charge -0.000 sz -1.000 sz^2 0.695
C        1.4711690713    0.3249440304   -0.2659660126
C        0.7834307322   -1.0654068352   -0.1901293046
C       -0.6649882732   -1.1799059892   -0.3419126456
C       -1.2628671171    0.1871214169   -0.2066573536
C       -0.4311659777    1.5013400012   -0.4316545183
N        0.9076547371    1.5926338589   -0.8044998914
H        2.5540162640    0.3027856153   -0.0589765220
H        1.3686440929   -1.9065596527    0.2239768214
H       -1.2141382800   -2.0946276749   -0.1294345541
H       -2.2885522242    0.2907143212    0.2095887108
H       -1.0235998652    2.4215416963   -0.3483191500
C        0.0473813536    0.1178635592    0.7604448441
H       -0.2469845138   -0.4924443474    1.5835395757
13   
C5H5N+CH->C6H6N atoms 1-13 frame 66 charge -0.000 sz -1.000 sz^2 0.523
C        1.4627386146    0.3330423858   -0.2751177287
C        0.7807589370   -1.0764739420   -0.2242893765
C       -0.6769932732   -1.1970751106   -0.3985138159
C       -1.2589798089    0.1872519996   -0.2209765757
C       -0.4239228815    1.5198688250   -0.4577928643
N        0.9118882549    1.6164163039   -0.8562329342
H        2.5395431826    0.3096661553   -0.0151148086
H        1.3627475211   -1.8960925613    0.2463772603
H       -1.2273302772   -2.1123561054   -0.1635901166
H       -2.2580591500    0.3007351759    0.2698363599
H       -1.0233788158    2.4360659800   -0.3392332631
C        0.0278104062    0.0647457532    0.7487955499
H       -0.2168227098   -0.4857948595    1.6858523135
13   
C5H5N+CH->C6H6N atoms 1-13 frame 69 charge -0.000 sz -1.000 sz^2 0.705
C        1.4527659733    0.3408604787   -0.2832075906
C        0.7781491641   -1.0878385716   -0.2589702281
C       -0.6892043878   -1.2115647739   -0.4554552075
C       -1.2534234675    0.1881337756   -0.2331645700
C       -0.4183258389    1.5394818989   -0.4842609513
N        0.9142677323    1.6374944298   -0.9013439241
H        2.5147693990    0.3154451605    0.0292387874
H        1.3500671048   -1.8814298405    0.2594890728
H       -1.2386394074   -2.1243992317   -0.1952592880
H       -2.2171876612    0.3069317012    0.3210761079
H       -1.0200840383    2.4453301649   -0.3306663291
C        0.0087500905    0.0053377812    0.7429345018
H       -0.1819046627   -0.4737829733    1.7895896187
13   
C5H5N+CH->C6H6N atoms 1-13 frame 71 charge +0.000 sz -1.000 sz^2 0.511
C        1.4399358805    0.3471049321   -0.2883355424
C        0.7753149362   -1.1002569463   -0.2918254627
C       -0.7028009859   -1.2256031549   -0.5124265322
C       -1.2453172483    0.1898566285   -0.2409535314
C       -0.4141274069    1.5597800067   -0.5125648829
N        0.9142801819    1.6554094075   -0.9415674189
H        2.4784549320    0.3209543620    0.0777026045
H        1.3316954281   -1.8643854086    0.2667396098
H       -1.2482884910   -2.1305408027   -0.2221752951
H       -2.1665266526    0.3104283377    0.3653769776
H       -1.0137305990    2.4511362769   -0.3238227284
C       -0.0095369479   -0.0635761399    0.7443827742
H       -0.1393530270   -0.4503074990    1.8794694280
13   
C5H5N+CH->C6H6N atoms 1-13 frame 74 charge +0.000 sz -1.000 sz^2 0.727
C        1.4231583693    0.3505982939   -0.2890451632
C        0.7720395899   -1.1138376182   -0.3199927356
C       -0.7180081490   -1.2405491814   -0.5681090353
C       -1.2332004127    0.1925446814   -0.2417375844
C       -0.4108806751    1.5799741587   -0.5438429415
N        0.9112703809    1.6690438963   -0.9775621622
H        2.4313151808    0.3278666390    0.1322746883
H        1.3111627610   -1.8490429094    0.2701158079
H       -1.2565703152   -2.1311491924   -0.2409538408
H       -2.1098378330    0.3129825100    0.4035380065
H       -1.0053948864    2.4572208866   -0.3213680102
C       -0.0260356172   -0.1429056432    0.7548540274
H       -0.0890183934   -0.4127465213    1.9418289429
13   
C5H5N+CH->C6H6N atoms 1-13 frame 76 charge -0.000 sz -1.000 sz^2 0.518
C        1.4016403966    0.3502176963   -0.2839235351
C        0.7682204197   -1.1278298377   -0.3395147026
C       -0.7341795629   -1.2567499461   -0.6198562416
C       -1.2148921611    0.1964452903   -0.2325687745
C       -0.4080262980    1.5987620164   -0.5787421836
N        0.9045548751    1.6766340663   -1.0086120330
H        2.3765753005    0.3388961613    0.1934415788
H        1.2949160533   -1.8424595779    0.2703297889
H       -1.2642261454   -2.1275627937   -0.2470326291
H       -2.0557307404    0.3173741981    0.4353403578
H       -0.9968987543    2.4688089323   -0.3278781746
C       -0.0389106475   -0.2308991558    0.7760085663
H       -0.0330427355   -0.3616370498    1.9630079823
13   
C5H5N+CH->C6H6N atoms 1-13 frame 78 charge -0.000 sz -1.000 sz^2 0.743
C        1.3762515570    0.3458483639   -0.2728639733
C        0.7640308536   -1.1403859960   -0.3475130643
C       -0.7496709941   -1.2730261957   -0.6648204033
C       -1.1893400725    0.2016830493   -0.2128020144
C       -0.4050161053    1.6148010780   -0.6158533066
N        0.8944612238    1.6776015818   -1.0333647855
H        2.3212137986    0.3566572276    0.2580609600
H        1.2904245544   -1.8514635934    0.2661768197
H       -1.2724317917   -2.1225565054   -0.2389031241
H       -2.0166050170    0.3268242335    0.4607379422
H       -0.9898782808    2.4892197841   -0.3478343303
C       -0.0465493980   -0.3204902746    0.8061791984
H        0.0231096721   -0.3047127531    1.9428000816
13   
C5H5N+CH->C6H6N atoms 1-13 frame 81 charge +0.000 sz -1.000 sz^2 0.528
C        1.3486318386    0.3380807882   -0.2565813005
C        0.7596003331   -1.1498153470   -0.3439068825
C       -0.7632100752   -1.2873969728   -0.7025449660
C       -1.1571685794    0.2082313494   -0.1837293471
C       -0.4018344921    1.6278054555   -0.6520370790
N        0.8819670103    1.6730539219   -1.0500093509
H        2.2698572302    0.3821102680    0.3212765458
H        1.3008623095   -1.8779019701    0.2522115167
H       -1.2817492218   -2.1173048069   -0.2205176914
H       -1.9995319553    0.3428437456    0.4782962896
H       -0.9841711026    2.5168493271   -0.3836612617
C       -0.0487535424   -0.4046855039    0.8409388500
H        0.0755002471   -0.2518702549    1.9002646770
13   
C5H5N+CH->C6H6N atoms 1-13 frame 83 charge +0.000 sz -1.000 sz^2 0.540
C        1.3199677477    0.3274541233   -0.2358099276
C        0.7546445788   -1.1557666024   -0.3314330566
C       -0.7748151351   -1.2981435309   -0.7359080520
C       -1.1203224746    0.2157615501   -0.1472380410
C       -0.3990513476    1.6387734688   -0.6836411550
N        0.8681740781    1.6651715327   -1.0568223737
H        2.2218153870    0.4136692023    0.3793410748
H        1.3233905920   -1.9179776843    0.2197874045
H       -1.2918938943   -2.1103451718   -0.2007570498
H       -2.0016422881    0.3642165481    0.4848180013
H       -0.9784634351    2.5468224135   -0.4346728997
C       -0.0472000263   -0.4813884147    0.8749749008
H        0.1253962174   -0.2082474347    1.8673611739
13   
C5H5N+CH->C6H6N atoms 1-13 frame 86 charge -0.000 sz -1.000 sz^2 0.555
C        1.2916607063    0.3144278839   -0.2114890788
C        0.7488424640   -1.1591538105   -0.3131394012
C       -0.7849407121   -1.3042812085   -0.7664837280
C       -1.0824023904    0.2233614223   -0.1056791126
C       -0.3975635428    1.6484089511   -0.7071954308
N        0.8544623828    1.6556307623   -1.0530235962
H        2.1752887101    0.4470694576    0.4292433461
H        1.3511587408   -1.9634237829    0.1645841408
H       -1.3019484207   -2.0996735038   -0.1879836522
H       -2.0134588526    0.3875388835    0.4778166013
H       -0.9722294087    2.5737370415   -0.4967495732
C       -0.0442688210   -0.5497327409    0.9046889141
H        0.1753991444   -0.1739093557    1.8654105707
13   
C5H5N+CH->C6H6N atoms 1-13 frame 88 charge +0.000 sz -1.000 sz^2 0.570
C        1.2650459675    0.2997963386   -0.1848003941
C        0.7423460142   -1.1613756850   -0.2900978660
C       -0.7938657526   -1.3062078756   -0.7923158446
C       -1.0466738055    0.2303393358   -0.0609236173
C       -0.3980127915    1.6565248648   -0.7220838932
N        0.8420025405    1.6446142823   -1.0407831435
H        2.1300853169    0.4786910448    0.4699778048
H        1.3776485464   -2.0052124695    0.0917575623
H       -1.3112461977   -2.0848810418   -0.1835025812
H       -2.0251158736    0.4101305045    0.4594009079
H       -0.9662342056    2.5945828466   -0.5659929901
C       -0.0412288385   -0.6081089546    0.9312119136
H        0.2252490795   -0.1488931910    1.8881521414
13   
C5H5N+CH->C6H6N atoms 1-13 frame 91 charge +0.000 sz -1.000 sz^2 0.589
C        1.2402898261    0.2842368042   -0.1562532230
C        0.7354939845   -1.1634638336   -0.2618002070
C       -0.8018388331   -1.3048452845   -0.8113350374
C       -1.0138630218    0.2369878099   -0.0129947171
C       -0.4006528170    1.6629031494   -0.7302910575
N        0.8311911503    1.6313506983   -1.0232682031
H        2.0862331373    0.5078695638    0.5030939192
H        1.3993867693   -2.0379508800    0.0081273431
H       -1.3200909614   -2.0664619116   -0.1842873708
H       -2.0305001610    0.4314657885    0.4338339486
H       -0.9616393467    2.6092292397   -0.6425563010
C       -0.0379375470   -0.6563474411    0.9584485137
H        0.2739278206   -0.1349737032    1.9192823923
13   
C5H5N+CH->C6H6N atoms 1-13 frame 93 charge -0.000 sz -1.000 sz^2 0.608
C        1.2173888908    0.2684480725   -0.1262889688
C        0.7286992257   -1.1658921865   -0.2281612395
C       -0.8088157237   -1.3004878050   -0.8225231450
C       -0.9838620996    0.2440840628    0.0381505705
C       -0.4055528456    1.6674908970   -0.7337060529
N        0.8223521485    1.6152298902   -1.0027376929
H        2.0446908366    0.5346934511    0.5302478361
H        1.4142004484   -2.0584287742   -0.0812271093
H       -1.3294630225   -2.0454232811   -0.1880154928
H       -2.0266172991    0.4513955312    0.4051987208