13   
From optimize.out: Frame 56 / 57, Energy=    -286.8549487881
C        1.4686732685    0.4434648827   -0.3530738584
C        0.8844898150   -0.7852997800    0.2158355540
C       -0.7449175472   -0.8064664611    0.1739773918
C       -1.3117588051    0.4547650255   -0.3303380734
C       -0.5481144770    1.5423396026   -0.5757289614
N        0.8460300516    1.5355555592   -0.6348741906
H        2.5303145794    0.3995219587   -0.6079325517
H        1.4411642486   -1.6994013932    0.0000858207
H       -1.2584586499   -1.7272652578   -0.1086158969
H       -2.3826894973    0.4875523101   -0.5153848406
H       -1.0043020908    2.4797194493   -0.8832408489
C        0.0350901728   -0.7972998302    1.4092860838
H        0.0444789317   -1.5271860652    2.2100043717
13   
From optimize.out: Frame 54 / 57, Energy=    -286.8549425328
C        1.4627513629    0.4460898350   -0.3461914290
C        0.8859542529   -0.7873307509    0.2147282002
C       -0.7491521036   -0.7858041009    0.2022929503
C       -1.3153049621    0.4613827926   -0.3302755685
C       -0.5513192620    1.5465672810   -0.5878456573
N        0.8436820784    1.5431279919   -0.6206731786
H        2.5286226224    0.4061311696   -0.5850575258
H        1.4393226733   -1.6998704375   -0.0122418767
H       -1.2811528224   -1.7050783378   -0.0495816341
H       -2.3804485564    0.4829480496   -0.5460407836
H       -1.0043907855    2.4755699913   -0.9243424817
C        0.0550994955   -0.7936413773    1.4244117519
H        0.0663360066   -1.5900921067    2.1608172330
13   
From optimize.out: Frame 51 / 57, Energy=    -286.8548783919
C        1.4655634816    0.4540047659   -0.3535730920
C        0.8861074033   -0.7551315700    0.2525066218
C       -0.7486449303   -0.7948224208    0.1940525876
C       -1.3087289075    0.4639460039   -0.3202481867
C       -0.5459957812    1.5426924822   -0.6058129807
N        0.8453667619    1.5343540657   -0.6800203383
H        2.5262597838    0.3900937095   -0.6078984260
H        1.4537006830   -1.6654686427    0.0487328853
H       -1.2592989545   -1.7150159458   -0.0953929513
H       -2.3826236840    0.5084296596   -0.4854486201
H       -1.0054026945    2.4758718617   -0.9216555627
C        0.0215945675   -0.8011211292    1.4421195739
H        0.0521022710   -1.6378328402    2.1326384892
13   
From optimize.out: Frame 49 / 57, Energy=    -286.8548126782
C        1.4642314866    0.4534715389   -0.3595754044
C        0.9071766273   -0.7658618374    0.2625181066
C       -0.7306006549   -0.7854910009    0.1822115097
C       -1.3191198937    0.4666452227   -0.3240038273
C       -0.5577116882    1.5407344973   -0.6257120670
N        0.8397615100    1.5207537141   -0.7128817503
H        2.5299096112    0.3946691061   -0.5982457528
H        1.4780286350   -1.6733290893    0.0646134560
H       -1.2382086420   -1.7088718868   -0.1065644700
H       -2.4002205667    0.5102628779   -0.4291005540
H       -0.9980520942    2.4914313889   -0.9143987120
C        0.0163271897   -0.7994514692    1.4396904752
H        0.0084784799   -1.6449630623    2.1214489903
13   
From optimize.out: Frame 46 / 57, Energy=    -286.8546861106
C        1.4677528887    0.4449997810   -0.3870046403
C        0.9100676086   -0.7682239960    0.2572872176
C       -0.6999696407   -0.7929923174    0.1653551511
C       -1.3051889629    0.4576925783   -0.3216344133
C       -0.5604732662    1.5342989076   -0.6279080841
N        0.8287114970    1.5023071142   -0.7395237479
H        2.5351528305    0.4172908677   -0.6179306035
H        1.5085224595   -1.6655605389    0.0955620002
H       -1.2239063241   -1.7161968038   -0.0861828178
H       -2.3898043682    0.5063700779   -0.3774522144
H       -0.9932659721    2.4980219975   -0.8805241047
C        0.0346412235   -0.7743775069    1.4428837499
H       -0.1122399736   -1.6436301612    2.0770725069
13   
From optimize.out: Frame 44 / 57, Energy=    -286.8545834615
C        1.4726825246    0.4334078000   -0.4135801347
C        0.8860373790   -0.7466770319    0.2490035202
C       -0.6755228853   -0.8126623718    0.1359495312
C       -1.2931396524    0.4394057380   -0.3235470009
C       -0.5564367186    1.5233876744   -0.6184149693
N        0.8218595539    1.4814743318   -0.7512316889
H        2.5412680420    0.4167103371   -0.6290752016
H        1.5236484578   -1.6279592111    0.1214966559
H       -1.2205419413   -1.7345202216   -0.0512875799
H       -2.3778549063    0.4997163266   -0.3478871142
H       -0.9830746520    2.4968269402   -0.8380772984
C        0.0695846353   -0.7395793243    1.4584956840
H       -0.2085098366   -1.6295309873    2.0081555965
13   
From optimize.out: Frame 41 / 57, Energy=    -286.8543681788
C        1.4733818825    0.4169724386   -0.4360502540
C        0.8412110512   -0.7255302795    0.2446388752
C       -0.6541444491   -0.8289443842    0.0811716632
C       -1.2929233405    0.4188288261   -0.3399893852
C       -0.5521278996    1.5196164830   -0.6037721654
N        0.8368428386    1.4763779938   -0.7556129690
H        2.5443713111    0.4030777575   -0.6332230448
H        1.4984544189   -1.6020834771    0.1793450166
H       -1.2155101113   -1.7499336222   -0.0178161750
H       -2.3757623605    0.4930972948   -0.3487927300
H       -0.9884072294    2.4946138726   -0.7870486642
C        0.1221171327   -0.6959018496    1.4959414201
H       -0.2375032445   -1.6201910540    1.9212084127
13   
From optimize.out: Frame 39 / 57, Energy=    -286.8542525073
C        1.4710560204    0.4091672609   -0.4630473775
C        0.8174315721   -0.7429110406    0.2066871651
C       -0.6331000781   -0.8397945197    0.0097666953
C       -1.2891387258    0.3994483837   -0.3509453809
C       -0.5425859223    1.5241483470   -0.5910717504
N        0.8541347818    1.5011314707   -0.7610879658
H        2.5482338720    0.4046496393   -0.6299241907
H        1.4487085097   -1.6337093045    0.2442239249
H       -1.1943657601   -1.7648711422   -0.0126522018
H       -2.3723695391    0.4701277158   -0.3384514817
H       -1.0034142468    2.4967757409   -0.7278043410
C        0.1457013456   -0.6338786282    1.5360009578
H       -0.2502918295   -1.5902839230    1.8783059468
13   
From optimize.out: Frame 36 / 57, Energy=    -286.8539828592
C        1.4688258390    0.4026379165   -0.4776168767
C        0.8132509359   -0.7763727308    0.1310148446
C       -0.6176936675   -0.8526750617   -0.0527386113
C       -1.2781532205    0.3819241867   -0.3511962802
C       -0.5321468851    1.5194503066   -0.5757245783
N        0.8561834558    1.5175599282   -0.7455259353
H        2.5513513141    0.4096131628   -0.6099174374
H        1.4198051277   -1.6745190949    0.2325888269
H       -1.1755803370   -1.7803544704   -0.0278481864
H       -2.3619243679    0.4475345102   -0.3239974983
H       -1.0116692309    2.4883283991   -0.6807411036
C        0.1348040383   -0.5535413491    1.5776100033
H       -0.2670530019   -1.5295857032    1.9040928326
13   
From optimize.out: Frame 34 / 57, Energy=    -286.8534554834
C        1.4701514881    0.3969800067   -0.4805827140
C        0.8151510398   -0.8055975106    0.0528167251
C       -0.6067351152   -0.8680797842   -0.0938560584
C       -1.2681183074    0.3678139642   -0.3485613374
C       -0.5247235280    1.5122372994   -0.5597629579
N        0.8546233089    1.5234544960   -0.7181815619
H        2.5553818429    0.4109049079   -0.5882237989
H        1.4101398090   -1.7067292816    0.1739353757
H       -1.1601815529   -1.7982552146   -0.0454948634
H       -2.3522626762    0.4283488321   -0.3134099495
H       -1.0147808717    2.4783174463   -0.6475299321
C        0.1107582301   -0.4800763285    1.6084148731
H       -0.2894036675   -1.4593188332    1.9604361996
13   
From optimize.out: Frame 32 / 57, Energy=    -286.8516107029
C        1.4720321521    0.3894168652   -0.4781982801
C        0.8174914272   -0.8301594158   -0.0154988406
C       -0.5989814947   -0.8849600781   -0.1287725917
C       -1.2601522435    0.3540446935   -0.3441222006
C       -0.5190307325    1.5036689922   -0.5410462912
N        0.8520405163    1.5224617275   -0.6866555370
H        2.5585636369    0.4080529728   -0.5691417289
H        1.4077577853   -1.7336849548    0.1045415815
H       -1.1487609628   -1.8174778126   -0.0718580041
H       -2.3445603340    0.4109576682   -0.3053433781
H       -1.0154936290    2.4679231968   -0.6163950976
C        0.0893108364   -0.4106587203    1.6274506228
H       -0.3102169575   -1.3795851346    2.0250397457
13   
From optimize.out: Frame 29 / 57, Energy=    -286.8445139966
C        1.4734402037    0.3797596922   -0.4727143695
C        0.8190746396   -0.8525835247   -0.0765554578
C       -0.5931865636   -0.9024537014   -0.1624753413
C       -1.2538073826    0.3392680713   -0.3381334575
C       -0.5141511199    1.4941386791   -0.5203590361
N        0.8495235353    1.5179286147   -0.6533688250
H        2.5607337532    0.4023536960   -0.5500936261
H        1.4073405070   -1.7583274791    0.0342857367
H       -1.1406825484   -1.8367769616   -0.1048624996
H       -2.3383776573    0.3940365356   -0.2980551935
H       -1.0152390730    2.4570147565   -0.5849694748
C        0.0723458329   -0.3420417803    1.6380111395
H       -0.3270141268   -1.2923165984    2.0892904049
13   
From optimize.out: Frame 27 / 57, Energy=    -286.8361954729
C        1.4741037048    0.3677968809   -0.4636388354
C        0.8194933200   -0.8735886066   -0.1302506476
C       -0.5893639296   -0.9203556930   -0.1947572871
C       -1.2492909847    0.3231104265   -0.3305325633
C       -0.5098899670    1.4836928908   -0.4978009279
N        0.8475085231    1.5106542064   -0.6187972493
H        2.5618048529    0.3938373286   -0.5295274392
H        1.4073464426   -1.7813853233   -0.0347663741
H       -1.1359192864   -1.8559246185   -0.1431289302
H       -2.3339541987    0.3772652613   -0.2914995323
H       -1.0142923784    2.4455415796   -0.5530704299
C        0.0604891060   -0.2736634481    1.6386458265
H       -0.3380352046   -1.1969808847    2.1491243899
13   
From optimize.out: Frame 24 / 57, Energy=    -286.8200209778
C        1.4740225701    0.3541103470   -0.4512702527
C        0.8188420860   -0.8940670157   -0.1781446894
C       -0.5871703914   -0.9385477056   -0.2251077759
C       -1.2462967345    0.3058939325   -0.3219589285
C       -0.5059427365    1.4724581813   -0.4736631330
N        0.8459511045    1.5017836777   -0.5835975805
H        2.5619709907    0.3831811503   -0.5070453590
H        1.4069955946   -1.8036763132   -0.1018122766
H       -1.1336268310   -1.8749821681   -0.1837434600
H       -2.3310442005    0.3606789374   -0.2861349275
H       -1.0129000180    2.4335439663   -0.5205965984
C        0.0527941653   -0.2048548547    1.6306237597
H       -0.3435955993   -1.0955221352    2.2024512220
13   
From optimize.out: Frame 22 / 57, Energy=    -286.8104210590
C        1.4726496659    0.3381959562   -0.4338306860
C        0.8165527697   -0.9145296220   -0.2182905199
C       -0.5873353869   -0.9570883978   -0.2516825801
C       -1.2455792091    0.2874846132   -0.3129678202
C       -0.5023128996    1.4599439703   -0.4471114888
N        0.8449464576    1.4912915996   -0.5476956399
H        2.5607443322    0.3697802767   -0.4814281364
H        1.4056343585   -1.8253953082   -0.1644643745
H       -1.1345504390   -1.8938589688   -0.2241892581
H       -2.3304024093    0.3447437265   -0.2837989600
H       -1.0109229461    2.4206893224   -0.4871154949
C        0.0513736833   -0.1340696203    1.6101431645
H       -0.3407979770   -0.9871875478    2.2424317944
13   
From optimize.out: Frame 19 / 57, Energy=    -286.7982516184
C        1.4698704787    0.3202131202   -0.4112919894
C        0.8126138842   -0.9353517807   -0.2507316835
C       -0.5898880540   -0.9758290391   -0.2735525488
C       -1.2471891650    0.2682856657   -0.3046302008
C       -0.4989425198    1.4462804874   -0.4182279030
N        0.8444381621    1.4800037694   -0.5113577436
H        2.5580604945    0.3542311366   -0.4528516255
H        1.4026689759   -1.8469939859   -0.2200613629
H       -1.1383247883   -1.9125111641   -0.2604510706
H       -2.3320475515    0.3295845205   -0.2853099521
H       -1.0083153177    2.4072009201   -0.4526707352
C        0.0567460300   -0.0601483657    1.5764889194
H       -0.3296906292   -0.8749652843    2.2646478959
13   
From optimize.out: Frame 17 / 57, Energy=    -286.7892111519
C        1.4660105146    0.3002401319   -0.3840261932
C        0.8073347194   -0.9563041256   -0.2741282538
C       -0.5949264102   -0.9942739148   -0.2895423862
C       -1.2513628766    0.2487680658   -0.2979731361
C       -0.4958866427    1.4322306473   -0.3875033128
N        0.8446331876    1.4695924565   -0.4753702109
H        2.5541685459    0.3366287165   -0.4214843469
H        1.3971048820   -1.8689429315   -0.2636928573
H       -1.1446110932   -1.9306429782   -0.2875129648
H       -2.3362244251    0.3138290208   -0.2900558151
H       -1.0049816860    2.3939386516   -0.4175176495
C        0.0696090323    0.0175465658    1.5265321463
H       -0.3108677482   -0.7626103061    2.2622749804
13   
From optimize.out: Frame 15 / 57, Energy=    -286.7799443775
C        1.4631208267    0.2791535516   -0.3551074518
C        0.8022563474   -0.9763169820   -0.2883694979
C       -0.6014065174   -1.0107223805   -0.2996909880
C       -1.2577215338    0.2303008229   -0.2940128304
C       -0.4942262149    1.4199658253   -0.3572506852
N        0.8454726734    1.4627901054   -0.4407728983
H        2.5507662621    0.3154117220   -0.3877024816
H        1.3880073258   -1.8916178252   -0.2900142113
H       -1.1518520865   -1.9464581885   -0.3004922544
H       -2.3425741768    0.2939029803   -0.2945000346
H       -1.0023302813    2.3823895266   -0.3824406101
C        0.0883815484    0.0972927891    1.4594312939
H       -0.2878941730   -0.6560919471    2.2309226497
13   
From optimize.out: Frame 12 / 57, Energy=    -286.7660031502
C        1.4638631052    0.2594660580   -0.3286878024
C        0.7985076956   -0.9953618826   -0.2975248807
C       -0.6044282736   -1.0239905812   -0.3043191846
C       -1.2643206446    0.2157618672   -0.2918441725
C       -0.4966177638    1.4115284501   -0.3314713938
N        0.8457508611    1.4560933027   -0.4068566444
H        2.5494858477    0.2899793017   -0.3518776589
H        1.3752740361   -1.9143531843   -0.3004432625
H       -1.1533964696   -1.9577416192   -0.2966956873
H       -2.3479117328    0.2706769503   -0.2935331233
H       -1.0040729459    2.3718771401   -0.3489857013
C        0.1061364871    0.1739271279    1.3802002845
H       -0.2682702024   -0.5578629308    2.1720392273
13   
From optimize.out: Frame 10 / 57, Energy=    -286.7558150909
C        1.4686600418    0.2425983250   -0.3092334906
C        0.7883783073   -1.0061685065   -0.2911702850
C       -0.6086731538   -1.0298960175   -0.3059935840
C       -1.2664778129    0.2044706401   -0.2919343630
C       -0.5041504997    1.4068926914   -0.3163354114
N        0.8396013937    1.4356959072   -0.3668758433
H        2.5477743775    0.2667769660   -0.3179167798
H        1.3508886464   -1.9271727419   -0.2829873380
H       -1.1549524446   -1.9559797987   -0.2806851223
H       -2.3449285537    0.2496722428   -0.2899352557
H       -1.0089396634    2.3609120023   -0.3237181106
C        0.1294026802    0.2297873900    1.2900518208
H       -0.2365833189   -0.4775891002    2.0867337629
13   
From optimize.out: Frame 7 / 57, Energy=    -286.7347397909
C        1.4709835976    0.2465846793   -0.2959933490
C        0.7882976639   -1.0052547580   -0.2580397402
C       -0.6092860892   -1.0355998463   -0.2792542530
C       -1.2629054840    0.2022718604   -0.2706657970
C       -0.4999987341    1.4091456866   -0.3166866140
N        0.8416138574    1.4373724670   -0.3810922600
H        2.5565448950    0.2636029968   -0.3029076178
H        1.3503245222   -1.9340102455   -0.2312225756
H       -1.1566912117   -1.9645925097   -0.2323176801
H       -2.3482894696    0.2421739612   -0.2609772481
H       -1.0151271325    2.3645086000   -0.3317843424
C        0.1376795622    0.2577202272    1.1821676647
H       -0.2531459770   -0.4839231191    1.9787738126
13   
From optimize.out: Frame 5 / 57, Energy=    -286.7126973484
C        1.4725816416    0.2553010556   -0.2843063656
C        0.7902631870   -1.0034688032   -0.2216414075
C       -0.6109678547   -1.0448431649   -0.2511002516
C       -1.2595773256    0.2020304041   -0.2462083100
C       -0.4927840273    1.4135056757   -0.3211630565
N        0.8473573577    1.4474617275   -0.4142730394
H        2.5674689047    0.2657079449   -0.2891088713
H        1.3554298385   -1.9400962921   -0.1709804817
H       -1.1598354888   -1.9768959548   -0.1818498423
H       -2.3545540987    0.2384218330   -0.2233099838
H       -1.0205281154    2.3718497764   -0.3453677738
C        0.1441687252    0.2804301516    1.0822213535
H       -0.2790227442   -0.5094043539    1.8670880299
13   
From optimize.out: Frame 2 / 57, Energy=    -286.6605056957
C        1.4756599110    0.2667809654   -0.2741213538
C        0.7915173322   -1.0053692189   -0.1875673986
C       -0.6118997360   -1.0578991262   -0.2273346231
C       -1.2580095925    0.2015479706   -0.2215758164
C       -0.4839367897    1.4214898317   -0.3284617360
N        0.8546402849    1.4615935690   -0.4582900935
H        2.5719430404    0.2694031388   -0.2710862867
H        1.3587372649   -1.9393040710   -0.1069847098
H       -1.1620370891   -1.9891100860   -0.1339482139
H       -2.3540019186    0.2370555183   -0.1761055020
H       -1.0230411045    2.3745123895   -0.3597120219
C        0.1448305240    0.2940490262    0.9926696108
H       -0.3044021270   -0.5347499074    1.7525181450
13   
C5H5N+CH->C6H6N atoms 1-13 frame 54 charge -0.000 sz -1.000 sz^2 0.954
C        1.4797552069    0.2797025288   -0.2650785044
C        0.7920622121   -1.0114552177   -0.1577631900
C       -0.6154994585   -1.0755152305   -0.2115071194
C       -1.2592491656    0.1995440121   -0.1996141438
C       -0.4742008113    1.4326715080   -0.3390187555
N        0.8639062332    1.4798157604   -0.5138192898
H        2.5680718413    0.2740400841   -0.2468406134
H        1.3592883736   -1.9310075984   -0.0366250118
H       -1.1642933774   -2.0008801519   -0.0939225126
H       -2.3450596748    0.2389698818   -0.1185956270
H       -1.0213909187    2.3716869958   -0.3701428768
C        0.1386043043    0.2931501417    0.9160373176
H       -0.3219947651   -0.5507227141    1.6368903268
13   
C5H5N+CH->C6H6N atoms 1-13 frame 57 charge +0.000 sz -1.000 sz^2 0.847
C        1.4836915750    0.2935712986   -0.2580303573
C        0.7917272958   -1.0223148091   -0.1375466568
C       -0.6227199445   -1.0983452508   -0.2098751156
C       -1.2625122995    0.1956535224   -0.1839783972
C       -0.4635978566    1.4470150906   -0.3535771986
N        0.8758072384    1.5030281364   -0.5817732883
H        2.5604019736    0.2796562472   -0.2131648584
H        1.3593668507   -1.9196488790    0.0397711712
H       -1.1687010263   -2.0155242787   -0.0677565175
H       -2.3314350820    0.2453209480   -0.0473602758
H       -1.0180122872    2.3691282253   -0.3741339868
C        0.1228338190    0.2726115265    0.8534227163
H       -0.3268502564   -0.5501517773    1.5340027647
13   
C5H5N+CH->C6H6N atoms 1-13 frame 59 charge -0.000 sz -1.000 sz^2 0.290
C        1.4836427759    0.3047426544   -0.2539717684
C        0.7896107912   -1.0365120308   -0.1350950704
C       -0.6354307535   -1.1269786274   -0.2319043317
C       -1.2652663384    0.1914304288   -0.1803930465
C       -0.4526153499    1.4627586988   -0.3744046047
N        0.8884747889    1.5310372760   -0.6580274801
H        2.5580894085    0.2862463965   -0.1663012199
H        1.3630090297   -1.9144705388    0.1169050287
H       -1.1799344126   -2.0385360642   -0.0676848965
H       -2.3217802587    0.2582752000    0.0374889291
H       -1.0173032530    2.3781888319   -0.3696434675
C        0.0992540320    0.2320234920    0.8098108204
H       -0.3097504600   -0.5282057172    1.4732211077
13   
C5H5N+CH->C6H6N atoms 1-13 frame 61 charge -0.000 sz -1.000 sz^2 0.558
C        1.4792195344    0.3141642903   -0.2563557151
C        0.7866300810   -1.0509625117   -0.1533920258
C       -0.6498994716   -1.1547817194   -0.2767582367
C       -1.2655916927    0.1883970568   -0.1893135885
C       -0.4418191254    1.4798029055   -0.4001132721
N        0.8992114752    1.5606088155   -0.7315918382
H        2.5596248605    0.2937914717   -0.1144023148
H        1.3682130642   -1.9130806490    0.1791669700
H       -1.1960234422   -2.0664044073   -0.0906056742
H       -2.3120131329    0.2745689291    0.1236854358
H       -1.0204382246    2.3982867939   -0.3601243440
C        0.0737609343    0.1801344376    0.7816817249
H       -0.2808748602   -0.5045254130    1.4881228787
13   
C5H5N+CH->C6H6N atoms 1-13 frame 64 charge -0.000 sz -1.000 sz^2 0.695
C        1.4727251602    0.3234036825   -0.2642018802
C        0.7839429072   -1.0633079144   -0.1836707312
C       -0.6627043615   -1.1765289227   -0.3311670297
C       -1.2635510688    0.1871231754   -0.2038737301
C       -0.4326037816    1.4978595504   -0.4266870765
N        0.9067862799    1.5880177298   -0.7944133494
H        2.5564054906    0.3014331111   -0.0673233273
H        1.3695147625   -1.9083874520    0.2193569931
H       -1.2115609908   -2.0910541722   -0.1228665911
H       -2.2939722839    0.2886640104    0.1977946307
H       -1.0235319353    2.4185804914   -0.3500583723
C        0.0511190366    0.1277579099    0.7628583598
H       -0.2525692151   -0.4935611996    1.5642521042
13   
C5H5N+CH->C6H6N atoms 1-13 frame 66 charge -0.000 sz -1.000 sz^2 0.523
C        1.4645419485    0.3315041150   -0.2734791578
C        0.7812494640   -1.0743457883   -0.2176352906
C       -0.6747150718   -1.1942883521   -0.3876764300
C       -1.2599542806    0.1871139280   -0.2185123412
C       -0.4250426107    1.5161626605   -0.4528100235
N        0.9113533514    1.6122931820   -0.8474567900
H        2.5438409468    0.3085457051   -0.0234288712
H        1.3649360567   -1.8987753604    0.2436518991
H       -1.2251145241   -2.1098466263   -0.1574064120
H       -2.2654690949    0.2994462526    0.2598177292
H       -1.0238891672    2.4341529734   -0.3409120929
C        0.0314631856    0.0757251710    0.7501660837
H       -0.2232002035   -0.4876878604    1.6656816972
13   
C5H5N+CH->C6H6N atoms 1-13 frame 69 charge -0.000 sz -1.000 sz^2 0.705
C        1.4550745061    0.3395799854   -0.2820816002
C        0.7786742136   -1.0855185239   -0.2525690187
C       -0.6866755530   -1.2089187409   -0.4445723429
C       -1.2548383369    0.1878387992   -0.2314494900
C       -0.4191640697    1.5356199000   -0.4789697708
N        0.9141615771    1.6339394342   -0.8935312528
H        2.5212778290    0.3144280314    0.0202196791
H        1.3534463180   -1.8846907548    0.2579599540
H       -1.2367471535   -2.1230213072   -0.1898706541
H       -2.2265671321    0.3062130566    0.3124152046
H       -1.0212098398    2.4441961940   -0.3320982929
C        0.0122862160    0.0180835950    0.7429708272
H       -0.1897185747   -0.4777496691    1.7715767574
13   
C5H5N+CH->C6H6N atoms 1-13 frame 71 charge +0.000 sz -1.000 sz^2 0.511
C        1.4429667773    0.3462958813   -0.2879871639
C        0.7759204483   -1.0976866455   -0.2861419047
C       -0.6999387159   -1.2227965819   -0.5016504902
C       -1.2474176693    0.1893858834   -0.2404446941
C       -0.4147677400    1.5558752051   -0.5067208076
N        0.9147183368    1.6525845770   -0.9345069354
H        2.4871425952    0.3197626419    0.0675228489
H        1.3357231137   -1.8675880015    0.2659798343
H       -1.2466715942   -2.1302482072   -0.2181328122
H       -2.1773739422    0.3099821840    0.3578396707
H       -1.0153052675    2.4501436128   -0.3245879687
C       -0.0062599570   -0.0487652969    0.7427803090
H       -0.1487363852   -0.4569452526    1.8660501138
13   
C5H5N+CH->C6H6N atoms 1-13 frame 74 charge +0.000 sz -1.000 sz^2 0.727
C        1.4271545258    0.3505167160   -0.2898046619
C        0.7727614792   -1.1110959578   -0.3157931450
C       -0.7148712381   -1.2374385317   -0.5578693251
C       -1.2364597292    0.1918417703   -0.2430993089
C       -0.4114271089    1.5762466360   -0.5372094695
N        0.9124324736    1.6673217762   -0.9713416245
H        2.4418188758    0.3259798706    0.1206308450
H        1.3147105940   -1.8508800077    0.2699435989
H       -1.2551069784   -2.1317746842   -0.2392225293
H       -2.1207834072    0.3123097772    0.3971619570
H       -1.0070901894    2.4553223618   -0.3205956940
C       -0.0233560864   -0.1260337721    0.7511404031
H       -0.0997832108   -0.4223159548    1.9360589542
13   
C5H5N+CH->C6H6N atoms 1-13 frame 76 charge -0.000 sz -1.000 sz^2 0.518
C        1.4065335390    0.3509376745   -0.2858854927
C        0.7690363823   -1.1252434876   -0.3374638935
C       -0.7310583414   -1.2534901224   -0.6107083295
C       -1.2196409876    0.1954689359   -0.2360725312
C       -0.4086073985    1.5954814173   -0.5714395456
N        0.9064358369    1.6762082691   -1.0034408747
H        2.3876176556    0.3357159824    0.1807154643
H        1.2964030481   -1.8414002039    0.2708322329
H       -1.2626580968   -2.1285470183   -0.2481564518
H       -2.0643019995    0.3157812164    0.4300636799
H       -0.9983420779    2.4651191392   -0.3245810037
C       -0.0371830150   -0.2130960872    0.7703034662
H       -0.0442345452   -0.3729357153    1.9658332795
13   
C5H5N+CH->C6H6N atoms 1-13 frame 78 charge -0.000 sz -1.000 sz^2 0.743
C        1.3817607837    0.3472926050   -0.2759525924
C        0.7649053679   -1.1383375311   -0.3478466265
C       -0.7468603048   -1.2699937940   -0.6570219193
C       -1.1955988675    0.2004119739   -0.2183338877
C       -0.4056654319    1.6120902695   -0.6084109743
N        0.8969129980    1.6783639738   -1.0296211556
H        2.3317129743    0.3518164324    0.2451445977
H        1.2888747656   -1.8467635498    0.2682884846
H       -1.2705967344   -2.1235641353   -0.2424668188
H       -2.0209078594    0.3238460845    0.4567781797
H       -0.9910348918    2.4837996387   -0.3412737548
C       -0.0459295865   -0.3032285690    0.7991869606
H        0.0124267869   -0.3157333987    1.9515295067
13   
C5H5N+CH->C6H6N atoms 1-13 frame 81 charge +0.000 sz -1.000 sz^2 0.528
C        1.3544809104    0.3401411991   -0.2606587696
C        0.7605750617   -1.1484808537   -0.3461949367
C       -0.7607779105   -1.2850092468   -0.6956374392
C       -1.1646073794    0.2067059199   -0.1909418764
C       -0.4024501807    1.6255132987   -0.6452629485
N        0.8847726209    1.6745888603   -1.0481583758
H        2.2797245199    0.3757864531    0.3091021624
H        1.2965488082   -1.8700366153    0.2578322166
H       -1.2796833328   -2.1185746844   -0.2248205785
H       -1.9996016032    0.3385928960    0.4763856171
H       -0.9853077356    2.5106384108   -0.3737595603
C       -0.0489986887   -0.3887028398    0.8338102151
H        0.0653249096   -0.2611627978    1.9083042739
13   
C5H5N+CH->C6H6N atoms 1-13 frame 83 charge +0.000 sz -1.000 sz^2 0.540
C        1.3258735452    0.3300638857   -0.2407161785
C        0.7558077380   -1.1550077591   -0.3350042374
C       -0.7726734433   -1.2966874330   -0.7294216275
C       -1.1282247743    0.2141666794   -0.1556659442
C       -0.3994388947    1.6367240636   -0.6783947055
N        0.8710505928    1.6670815935   -1.0572113542
H        2.2314643565    0.4067157508    0.3686461456
H        1.3176458147   -1.9085054676    0.2303418012
H       -1.2897874389   -2.1123638101   -0.2037754849
H       -1.9992609605    0.3593834782    0.4857305709
H       -0.9797485501    2.5410155301   -0.4221880287
C       -0.0477996967   -0.4668728342    0.8686758263
H        0.1150917113   -0.2157136772    1.8689832171
13   
C5H5N+CH->C6H6N atoms 1-13 frame 86 charge -0.000 sz -1.000 sz^2 0.555
C        1.2973100715    0.3174417325   -0.2169870260
C        0.7501821019   -1.1586779158   -0.3177321705
C       -0.7830317664   -1.3037298710   -0.7607933117
C       -1.0900051893    0.2218802946   -0.1149042702
C       -0.3975645175    1.6466360410   -0.7037692329
N        0.8571382884    1.6578435575   -1.0553300443
H        2.1847969782    0.4403462182    0.4203723231
H        1.3454305122   -1.9543179784    0.1792953112
H       -1.2999753404   -2.1026006375   -0.1891767806
H       -2.0107782853    0.3827586899    0.4813169153
H       -0.9735330730    2.5691006045   -0.4825712852
C       -0.0448993822   -0.5370776462    0.8991413900
H        0.1649296019   -0.1796030892    1.8611381819
13   
C5H5N+CH->C6H6N atoms 1-13 frame 88 charge +0.000 sz -1.000 sz^2 0.570
C        1.2703322252    0.3030494703   -0.1907322576
C        0.7437848264   -1.1609504921   -0.2957999675
C       -0.7921477014   -1.3063627153   -0.7879671928
C       -1.0536989610    0.2289532372   -0.0708506679
C       -0.3975598632    1.6551023548   -0.7201306181
N        0.8443598311    1.6472766273   -1.0443158859
H        2.1393914169    0.4724522187    0.4627347992
H        1.3727849614   -1.9978016247    0.1090439317
H       -1.3093975421   -2.0886224715   -0.1834791428
H       -2.0235790039    0.4055859146    0.4646015976
H       -0.9673075849    2.5912413375   -0.5502779509
C       -0.0418882151   -0.5975104896    0.9256329071
H        0.2149256106   -0.1524133672    1.8815404479
13   
C5H5N+CH->C6H6N atoms 1-13 frame 91 charge +0.000 sz -1.000 sz^2 0.589
C        1.2451965935    0.2875811511   -0.1625268340
C        0.7369434168   -1.1629722421   -0.2686870395
C       -0.8003168648   -1.3056264681   -0.8086446015
C       -1.0202950421    0.2355439991   -0.0236485253
C       -0.3997134925    1.6618662490   -0.7294182478
N        0.8331511477    1.6346174407   -1.0275180458
H        2.0951418329    0.5021172194    0.4971745737
H        1.3959108264   -2.0330394580    0.0268489565
H       -1.3181877168   -2.0708323438   -0.1835905899
H       -2.0308866672    0.4271949897    0.4398728330