
Running Job 1 of 1 optimize.in
qchem optimize.in_51137.0 ./optimize.d/ 1
/home/leeping/opt/qchem/5.0.2-openmp/exe/qcprog.exe_s optimize.in_51137.0 ./optimize.d/
Check license passed

                  Welcome to Q-Chem
     A Quantum Leap Into The Future Of Chemistry


 Q-Chem 5.0, Q-Chem, Inc., Pleasanton, CA (2017)

 Yihan Shao,  Zhengting Gan,  E. Epifanovsky,  A. T. B. Gilbert,  M. Wormit,  
 J. Kussmann,  A. W. Lange,  A. Behn,  Jia Deng,  Xintian Feng,  D. Ghosh,  
 M. Goldey,  P. R. Horn,  L. D. Jacobson,  I. Kaliman,  T. Kus,  A. Landau,  
 Jie Liu,  E. I. Proynov,  R. M. Richard,  R. P. Steele,  E. J. Sundstrom,  
 H. L. Woodcock III,  P. M. Zimmerman,  D. Zuev,  B. Albrecht,  E. Alguire,  
 S. A. Baeppler,  D. Barton,  Z. Benda,  Y. A. Bernard,  E. J. Berquist,  
 K. B. Bravaya,  H. Burton,  D. Casanova,  Chun-Min Chang,  Yunqing Chen,  
 A. Chien,  K. D. Closser,  M. P. Coons,  S. Dasgupta,  A. L. Dempwolff,  
 M. Diedenhofen,  Hainam Do,  R. G. Edgar,  Po-Tung Fang,  S. Fatehi,  
 Qingguo Feng,  J. Fosso-Tande,  Qinghui Ge,  A. Ghysels,  G. Gidofalvi,  
 J. Gomes,  J. Gonthier,  A. Gunina,  M. W. D. Hanson-Heine,  
 P. H. P. Harbach,  A. W. Hauser,  J. E. Herr,  E. G. Hohenstein,  
 Z. C. Holden,  Kerwin Hui,  T.-C. Jagau,  Hyunjun Ji,  B. Kaduk,  
 K. Khistyaev,  Jaehoon Kim,  P. Klunzinger,  K. Koh,  D. Kosenkov,  
 L. Koulias,  T. Kowalczyk,  C. M. Krauter,  A. Kunitsa,  Ka Un Lao,  
 A. Laurent,  K. V. Lawler,  Joonho Lee,  D. Lefrancois,  S. Lehtola,  
 D. S. Levine,  Yi-Pei Li,  You-Sheng Lin,  Fenglai Liu,  E. Livshits,  
 A. Luenser,  P. Manohar,  E. Mansoor,  S. F. Manzer,  Shan-Ping Mao,  
 Yuezhi Mao,  N. Mardirossian,  A. V. Marenich,  T. Markovich,  
 L. A. Martinez-Martinez,  S. A. Maurer,  N. J. Mayhall,  S. C. McKenzie,  
 J.-M. Mewes,  A. F. Morrison,  J. W. Mullinax,  K. Nanda,  
 T. S. Nguyen-Beck,  R. Olivares-Amaya,  J. A. Parkhill,  T. M. Perrine,  
 F. Plasser,  S. Prager,  A. Prociuk,  E. Ramos,  D. R. Rehn,  F. Rob,  
 M. Schneider,  N. Sergueev,  S. M. Sharada,  S. Sharma,  D. W. Small,  
 T. Stauch,  T. Stein,  Yu-Chuan Su,  A. J. W. Thom,  A. Tkatchenko,  
 T. Tsuchimochi,  L. Vogt,  O. Vydrov,  M. A. Watson,  J. Wenzel,  
 M. de Wergifosse,  T. A. Wesolowski,  A. White,  J. Witte,  A. Yamada,  
 Jun Yang,  K. Yao,  S. Yeganeh,  S. R. Yost,  Zhi-Qiang You,  A. Zech,  
 Igor Ying Zhang,  Xing Zhang,  Yan Zhao,  Ying Zhu,  B. R. Brooks,  
 G. K. L. Chan,  C. J. Cramer,  M. S. Gordon,  W. J. Hehre,  A. Klamt,  
 M. W. Schmidt,  C. D. Sherrill,  D. G. Truhlar,  A. Aspuru-Guzik,  R. Baer,  
 A. T. Bell,  N. A. Besley,  Jeng-Da Chai,  R. A. DiStasio Jr.,  A. Dreuw,  
 B. D. Dunietz,  T. R. Furlani,  Chao-Ping Hsu,  Yousung Jung,  Jing Kong,  
 D. S. Lambrecht,  WanZhen Liang,  C. Ochsenfeld,  V. A. Rassolov,  
 L. V. Slipchenko,  J. E. Subotnik,  T. Van Voorhis,  J. M. Herbert,  
 A. I. Krylov,  P. M. W. Gill,  M. Head-Gordon

 Contributors to earlier versions of Q-Chem not listed above: 
 R. D. Adamson,  B. Austin,  J. Baker,  G. J. O. Beran,  K. Brandhorst,  
 S. T. Brown,  E. F. C. Byrd,  A. K. Chakraborty,  C.-L. Cheng,  
 Siu Hung Chien,  D. M. Chipman,  D. L. Crittenden,  H. Dachsel,  
 R. J. Doerksen,  A. D. Dutoi,  L. Fusti-Molnar,  W. A. Goddard III,  
 A. Golubeva-Zadorozhnaya,  S. R. Gwaltney,  G. Hawkins,  A. Heyden,  
 S. Hirata,  G. Kedziora,  F. J. Keil,  C. Kelley,  Jihan Kim,  R. A. King,  
 R. Z. Khaliullin,  P. P. Korambath,  W. Kurlancheek,  A. M. Lee,  M. S. Lee,  
 S. V. Levchenko,  Ching Yeh Lin,  D. Liotard,  R. C. Lochan,  I. Lotan,  
 P. E. Maslen,  N. Nair,  D. P. O'Neill,  D. Neuhauser,  E. Neuscamman,  
 C. M. Oana,  R. Olson,  B. Peters,  R. Peverati,  P. A. Pieniazek,  
 Y. M. Rhee,  J. Ritchie,  M. A. Rohrdanz,  E. Rosta,  N. J. Russ,  
 H. F. Schaefer III,  N. E. Schultz,  N. Shenvi,  A. C. Simmonett,  A. Sodt,  
 D. Stuck,  K. S. Thanthiriwatte,  V. Vanovschi,  Tao Wang,  A. Warshel,  
 C. F. Williams,  Q. Wu,  X. Xu,  W. Zhang

 Please cite Q-Chem as follows:
 Y. Shao et al., Mol. Phys. 113, 184-215 (2015)
 DOI: 10.1080/00268976.2014.952696

 Q-Chem 5.0.2 for Intel X86 EM64T Linux

 Parts of Q-Chem use Armadillo 5.200.1 (Boston Tea Smuggler).
 http://arma.sourceforge.net/

 Q-Chem begins on Tue Mar  1 15:42:17 2022  

Host: 
0

     Scratch files written to ./optimize.d//
 Dec517 15110_ 26548  26544 5633   
Processing $rem in /home/leeping/opt/qchem/5.0.2-openmp/config/preferences.
 MEM_STATIC 2000
 MEM_TOTAL  8000
 SYMMETRY   OFF
 SYM_IGNORE TRUE 

Checking the input file for inconsistencies... 	...done.

--------------------------------------------------------------
User input:
--------------------------------------------------------------
$molecule
0 2
C        1.6499860692    0.3921450031   -1.9373029873
C        0.8883821372   -0.9843308250   -1.6647543058
C       -0.6771906625   -0.7525817476   -2.0425011588
C       -1.2583215555    0.3572946005   -0.6028148607
C       -0.6299951776    0.7167420613   -2.0415013992
N        0.8475028357    1.2745899992   -2.2230316107
H        2.7233729416    0.7120233212   -1.9077471139
H        1.3168831144   -1.9463061043   -1.4686198327
H       -0.9317825138   -1.5042254954   -2.7976980982
H       -2.3200092242    0.5660513938   -0.4160906475
H       -1.4572192687    1.1646398115   -2.5339712187
C       -0.8450239148   -1.0057903764   -0.5481204747
H       -1.0199127226   -2.1158395263   -0.1281450746
$end

$rem
method                b3lyp
basis                 6-31g(d)
unrestricted          true
symmetry              off
sym_ignore            true
incdft                false
incfock               0
scf_convergence       8
thresh                14
jobtype               opt
scf_guess             read
scf_algorithm         diis
max_scf_cycles        100
geom_opt_tol_gradient 600
geom_opt_tol_displacement 2400
geom_opt_tol_energy   200
geom_opt_max_cycles   100
$end

--------------------------------------------------------------
 ----------------------------------------------------------------
             Standard Nuclear Orientation (Angstroms)
    I     Atom           X                Y                Z
 ----------------------------------------------------------------
    1      C       1.6499860692     0.3921450031    -1.9373029873
    2      C       0.8883821372    -0.9843308250    -1.6647543058
    3      C      -0.6771906625    -0.7525817476    -2.0425011588
    4      C      -1.2583215555     0.3572946005    -0.6028148607
    5      C      -0.6299951776     0.7167420613    -2.0415013992
    6      N       0.8475028357     1.2745899992    -2.2230316107
    7      H       2.7233729416     0.7120233212    -1.9077471139
    8      H       1.3168831144    -1.9463061043    -1.4686198327
    9      H      -0.9317825138    -1.5042254954    -2.7976980982
   10      H      -2.3200092242     0.5660513938    -0.4160906475
   11      H      -1.4572192687     1.1646398115    -2.5339712187
   12      C      -0.8450239148    -1.0057903764    -0.5481204747
   13      H      -1.0199127226    -2.1158395263    -0.1281450746
 ----------------------------------------------------------------
 Nuclear Repulsion Energy =   270.2621696000 hartrees
 There are       25 alpha and       24 beta electrons
 Requested basis set is 6-31G(d)
 There are 40 shells and 117 basis functions

 Total QAlloc Memory Limit   8000 MB
 Mega-Array Size      1956 MB
 MEM_STATIC part      2000 MB
 A cutoff of  1.0D-14 yielded    806 shell pairs
 There are      7078 function pairs
 
 -------------------------------------------------------
 OpenMP Integral Computing Module                       
 Release: version 1.0, May 2013, Q-Chem Inc. Pittsburgh 
 -------------------------------------------------------
 Integral Job Info:
 Integral job number is                      11
 Integral operator is                         1
 short-range coefficients                     0
 long-range coefficients              100000000
 Omega coefficients                           0
 if combine SR and LR in K                    0
 Integral screening is                        0
 Integral computing path is                   2
 max size of driver memory is            800000
 size of driver memory is                593474
 size of scratch memory is              2361544
 max col of scratch BK array               1296
 max len of scratch array in speh3          155
 max len of scratch index in speh4           18
 max int batch size is                      520
 min int batch size is                       52
 fixed nKL is                                52
 max L of basis functions is                  2
 order of int derivative is                   0
 number of shells is                         40
 number of basis is                         117
 number of cartesian basis is               117
 number of contracted shell pairs           806
 number of primitive shell pairs           3532
 maxK2 (contraction) of shell pair           36
 max number of K2 of shell pair               1
 max number of CS2 of shell pair             88
 max number of PS2 of shell pair            432
 mem total for path MDJ                  535308
 -------------------------------------------------------
 Smallest overlap matrix eigenvalue = 1.86E-03

 Scale SEOQF with 1.000000e-01/1.000000e-01/1.000000e-01

 Standard Electronic Orientation quadrupole field applied
 Nucleus-field energy     =    -0.0000000104 hartrees
 Guess MOs from SCF MO coefficient file
 Reading MOs from coefficient file
 Reading MOs from coefficient file
 An unrestricted hybrid HF-DFT SCF calculation will be
 performed using Pulay DIIS extrapolation
 Exchange:     0.2000 Hartree-Fock + 0.0800 Slater + 0.7200 B88
 Correlation:  0.1900 VWN1RPA + 0.8100 LYP
 Using SG-1 standard quadrature grid
 SCF converges when DIIS error is below 1.0E-08
Using Q-Chem read-in guess as SCF_GUESS READ specified.

 using 4 threads for integral computing
 -------------------------------------------------------
 OpenMP Integral computing Module                
 Release: version 1.0, May 2013, Q-Chem Inc. Pittsburgh 
 -------------------------------------------------------
 -------------------------------------------------------
 OpenMP BLAS3 based DFT computing Module                
 Release: version 1.0, May 2013, Q-Chem Inc. Pittsburgh 
 -------------------------------------------------------
 ---------------------------------------
  Cycle       Energy         DIIS Error
 ---------------------------------------
    1    -286.7149982513      1.07E-09
    2    -286.7149982513      1.87E-09 Convergence criterion met
 ---------------------------------------
 <S^2> = 0.7877
 SCF time:  CPU 5.24 s  wall 2.32 s
 SCF   energy in the final basis set = -286.71499825
 Total energy in the final basis set = -286.71499825
 
 --------------------------------------------------------------
 
                    Orbital Energies (a.u.)
 --------------------------------------------------------------
 
 Alpha MOs
 -- Occupied --
-14.325 -10.239 -10.233 -10.228 -10.226 -10.222 -10.214  -0.944
 -0.876  -0.709  -0.676  -0.603  -0.563  -0.525  -0.510  -0.461
 -0.418  -0.406  -0.380  -0.372  -0.358  -0.318  -0.254  -0.235
 -0.151
 -- Virtual --
 -0.031   0.034   0.071   0.091   0.110   0.125   0.145   0.150
  0.156   0.190   0.200   0.238   0.253   0.295   0.352   0.381
  0.482   0.512   0.521   0.525   0.539   0.563   0.592   0.601
  0.623   0.654   0.665   0.694   0.712   0.749   0.775   0.794
  0.807   0.811   0.825   0.850   0.862   0.877   0.893   0.951
  0.959   0.985   1.041   1.071   1.114   1.163   1.262   1.335
  1.372   1.419   1.499   1.514   1.532   1.604   1.622   1.663
  1.682   1.694   1.779   1.830   1.909   1.937   1.967   1.998
  2.053   2.102   2.135   2.164   2.240   2.272   2.304   2.347
  2.381   2.405   2.483   2.512   2.543   2.556   2.593   2.650
  2.684   2.696   2.820   2.839   2.961   3.888   4.043   4.168
  4.339   4.371   4.463   4.552
 
 Beta MOs
 -- Occupied --
-14.323 -10.240 -10.234 -10.227 -10.224 -10.217 -10.203  -0.940
 -0.869  -0.699  -0.670  -0.593  -0.560  -0.523  -0.502  -0.458
 -0.415  -0.398  -0.376  -0.369  -0.341  -0.308  -0.250  -0.221
 -- Virtual --
 -0.043  -0.016   0.043   0.072   0.097   0.117   0.130   0.148
  0.154   0.161   0.193   0.205   0.243   0.260   0.300   0.353
  0.387   0.486   0.520   0.526   0.538   0.541   0.575   0.597
  0.608   0.630   0.661   0.674   0.701   0.715   0.754   0.776
  0.796   0.809   0.816   0.830   0.853   0.865   0.879   0.899
  0.955   0.964   0.992   1.044   1.084   1.116   1.173   1.266
  1.339   1.380   1.424   1.506   1.516   1.539   1.607   1.629
  1.669   1.693   1.709   1.785   1.838   1.912   1.943   1.974
  2.004   2.059   2.120   2.139   2.170   2.252   2.283   2.320
  2.364   2.388   2.416   2.493   2.516   2.550   2.562   2.598
  2.656   2.687   2.700   2.829   2.840   2.962   3.893   4.048
  4.179   4.341   4.381   4.470   4.555
 --------------------------------------------------------------
 
          Ground-State Mulliken Net Atomic Charges

     Atom                 Charge (a.u.)    Spin (a.u.)
  --------------------------------------------------------
      1 C                     0.098505      -0.052748
      2 C                    -0.229512       0.311632
      3 C                    -0.136948       0.030197
      4 C                    -0.152205       0.806821
      5 C                    -0.049803       0.002714
      6 N                    -0.344316       0.081352
      7 H                     0.157976       0.007475
      8 H                     0.142334      -0.010946
      9 H                     0.157397       0.032701
     10 H                     0.154162      -0.045347
     11 H                     0.158409      -0.000278
     12 C                    -0.126503      -0.163495
     13 H                     0.170504      -0.000078
  --------------------------------------------------------
  Sum of atomic charges =    -0.000000
  Sum of spin   charges =     1.000000

 -----------------------------------------------------------------
                    Cartesian Multipole Moments
 -----------------------------------------------------------------
    Charge (ESU x 10^10)
                -0.0000
    Dipole Moment (Debye)
         X      -1.1032      Y      -2.7833      Z       0.0081
       Tot       2.9940
    Quadrupole Moments (Debye-Ang)
        XX     -35.3507     XY      -0.6481     YY     -41.7237
        XZ       2.0440     YZ       4.0609     ZZ     -43.2921
    Octopole Moments (Debye-Ang^2)
       XXX       8.8463    XXY       4.6796    XYY      -4.0338
       YYY     -11.0274    XXZ      56.0027    XYZ       3.8834
       YYZ      70.6134    XZZ      -5.6512    YZZ      -7.7279
       ZZZ     202.0776
    Hexadecapole Moments (Debye-Ang^3)
      XXXX    -307.5416   XXXY     -17.8760   XXYY     -97.0220
      XYYY     -24.9490   YYYY    -252.3495   XXXZ      27.0334
      XXYZ       0.9309   XYYZ      24.6156   YYYZ      43.6340
      XXZZ    -173.7745   XYZZ     -14.9421   YYZZ    -187.9333
      XZZZ      66.3958   YZZZ      45.1486   ZZZZ    -799.4941
 -----------------------------------------------------------------
 Calculating analytic gradient of the SCF energy
 Gradient of SCF Energy
            1           2           3           4           5           6
    1  -0.0075060   0.0175071  -0.1126389   0.0007209   0.0030371   0.1096218
    2   0.0953349  -0.0409269   0.0888256  -0.0302910  -0.0078202  -0.0668479
    3  -0.0333909  -0.0042975   0.0181336  -0.0361057  -0.0275254   0.0100859
            7           8           9          10          11          12
    1   0.0128474  -0.0032675   0.0160918  -0.0084394  -0.0016943  -0.0233083
    2   0.0222803   0.0092093  -0.0110433  -0.0100375  -0.0248298   0.0390697
    3  -0.0021085   0.0012889   0.0058637  -0.0025476   0.0233109   0.0385901
           13
    1  -0.0029717
    2  -0.0629233
    3   0.0087024
 Max gradient component =       1.126E-01
 RMS gradient           =       4.017E-02
 Gradient time:  CPU 7.84 s  wall 3.40 s
 Geometry Optimization Parameters
   NAtoms,    NIC,     NZ,  NCons,   NDum,   NFix, NCnnct, MaxDiis
       13     131       0       0       0       0       0       0


** GEOMETRY OPTIMIZATION IN DELOCALIZED INTERNAL COORDINATES **
   Searching for a Minimum

   Optimization Cycle:   1

                       Coordinates (Angstroms)
     ATOM                X               Y               Z
      1  C         1.6499860692    0.3921450031   -1.9373029873
      2  C         0.8883821372   -0.9843308250   -1.6647543058
      3  C        -0.6771906625   -0.7525817476   -2.0425011588
      4  C        -1.2583215555    0.3572946005   -0.6028148607
      5  C        -0.6299951776    0.7167420613   -2.0415013992
      6  N         0.8475028357    1.2745899992   -2.2230316107
      7  H         2.7233729416    0.7120233212   -1.9077471139
      8  H         1.3168831144   -1.9463061043   -1.4686198327
      9  H        -0.9317825138   -1.5042254954   -2.7976980982
     10  H        -2.3200092242    0.5660513938   -0.4160906475
     11  H        -1.4572192687    1.1646398115   -2.5339712187
     12  C        -0.8450239148   -1.0057903764   -0.5481204747
     13  H        -1.0199127226   -2.1158395263   -0.1281450746
   Point Group: c1    Number of degrees of freedom:    33


   Energy is   -286.714998251


 Attempting to Generate Delocalized Internal Coordinates

 33 Hessian modes will be used to form the next step
  Hessian Eigenvalues:
     0.002432    0.008090    0.012321    0.014074    0.018763    0.021159
     0.023067    0.028735    0.033019    0.041287    0.049916    0.070154
     0.072824    0.076222    0.102084    0.135684    0.152735    0.159979
     0.178302    0.193192    0.220119    0.235416    0.243650    0.246904
     0.267122    0.278193    0.315206    0.329370    0.339031    0.341853
     0.370783    0.382848    0.839825

 Minimum Search - Taking Simple RFO Step
 Searching for Lamda that Minimizes Along All modes
 Value Taken    Lamda =  -0.09808289
 Calculated Step too Large.  Step scaled by  0.507510
 Step Taken.  Stepsize is  0.300000

                             Maximum     Tolerance    Cnvgd?
         Gradient           0.091218      0.000600      NO
         Displacement       0.156062      0.002400      NO
         Energy change     *********      0.000002      NO


 New Cartesian Coordinates Obtained by Inverse Iteration

 Displacement from previous Coordinates is:  0.418563
 ----------------------------------------------------------------
             Standard Nuclear Orientation (Angstroms)
    I     Atom           X                Y                Z
 ----------------------------------------------------------------
    1      C       1.5776155082     0.3648547109    -1.9096110121
    2      C       0.8644607120    -0.9894365996    -1.6632055140
    3      C      -0.6433534786    -0.7673006595    -2.0664931412
    4      C      -1.2237969112     0.3677765482    -0.6054999462
    5      C      -0.6396745092     0.7205690932    -2.0506789750
    6      N       0.7833881689     1.2833334382    -2.2115587204
    7      H       2.6485784757     0.6438586743    -1.8497138730
    8      H       1.2995975567    -1.9528336163    -1.4595069847
    9      H      -0.8971134161    -1.5205278478    -2.8205702173
   10      H      -2.2756843772     0.5810994128    -0.3914805086
   11      H      -1.4687142398     1.1832319876    -2.5505546515
   12      C      -0.7867878770    -0.9914494421    -0.5794752078
   13      H      -0.9518435542    -2.0487635843    -0.1539500310
 ----------------------------------------------------------------
 Nuclear Repulsion Energy =   273.6608615062 hartrees
 There are       25 alpha and       24 beta electrons
 Applying Cartesian multipole field
    Component          Value
    ---------          -----
     (2,0,0)        1.00000E-11
     (0,2,0)        2.00000E-11
     (0,0,2)       -3.00000E-11
 Nucleus-field energy     =    -0.0000000106 hartrees
 Requested basis set is 6-31G(d)
 There are 40 shells and 117 basis functions
 A cutoff of  1.0D-14 yielded    809 shell pairs
 There are      7081 function pairs
 Smallest overlap matrix eigenvalue = 1.73E-03
 Guess MOs from SCF MO coefficient file
 Reading MOs from coefficient file
 Reading MOs from coefficient file
 An unrestricted hybrid HF-DFT SCF calculation will be
 performed using Pulay DIIS extrapolation
 Exchange:     0.2000 Hartree-Fock + 0.0800 Slater + 0.7200 B88
 Correlation:  0.1900 VWN1RPA + 0.8100 LYP
 Using SG-1 standard quadrature grid
 SCF converges when DIIS error is below 1.0E-08
 Geometry optimization detected.  Setting ReadMinima to 0
 Setting SaveMinima to 0
Using Q-Chem read-in guess as SCF_GUESS READ specified.

 using 4 threads for integral computing
 -------------------------------------------------------
 OpenMP Integral computing Module                
 Release: version 1.0, May 2013, Q-Chem Inc. Pittsburgh 
 -------------------------------------------------------
 -------------------------------------------------------
 OpenMP BLAS3 based DFT computing Module                
 Release: version 1.0, May 2013, Q-Chem Inc. Pittsburgh 
 -------------------------------------------------------
 ---------------------------------------
  Cycle       Energy         DIIS Error
 ---------------------------------------
    1    -286.8192418212      3.57E-03
    2    -286.7560690285      1.19E-03
    3    -286.7540539759      1.64E-03
    4    -286.7587010516      3.38E-04
    5    -286.7588932680      8.86E-05
    6    -286.7589225037      2.00E-05
    7    -286.7589360684      1.50E-05
    8    -286.7589453234      1.06E-05
    9    -286.7589498116      4.08E-06
   10    -286.7589535823      2.07E-06
   11    -286.7589544479      7.19E-07
   12    -286.7589546739      4.76E-07
   13    -286.7589547756      1.29E-07
   14    -286.7589547887      5.65E-08
   15    -286.7589547900      2.58E-08
   16    -286.7589547904      1.00E-08
   17    -286.7589547905      5.06E-09 Convergence criterion met
 ---------------------------------------
 <S^2> = 0.7662
 SCF time:  CPU 44.61 s  wall 35.35 s
 SCF   energy in the final basis set = -286.75895479
 Total energy in the final basis set = -286.75895479
 
 --------------------------------------------------------------
 
                    Orbital Energies (a.u.)
 --------------------------------------------------------------
 
 Alpha MOs
 -- Occupied --
-14.323 -10.234 -10.231 -10.226 -10.221 -10.221 -10.208  -0.950
 -0.871  -0.723  -0.671  -0.609  -0.566  -0.531  -0.512  -0.466
 -0.418  -0.410  -0.380  -0.373  -0.359  -0.312  -0.260  -0.243
 -0.155
 -- Virtual --
 -0.026   0.045   0.080   0.112   0.117   0.134   0.148   0.156
  0.162   0.196   0.202   0.241   0.259   0.307   0.364   0.388
  0.479   0.512   0.518   0.530   0.546   0.563   0.590   0.602
  0.623   0.655   0.657   0.690   0.701   0.752   0.790   0.801
  0.808   0.810   0.824   0.845   0.859   0.876   0.893   0.948
  0.967   0.993   1.049   1.070   1.119   1.169   1.269   1.357
  1.381   1.426   1.496   1.515   1.526   1.604   1.636   1.685
  1.705   1.743   1.800   1.847   1.917   1.956   1.986   2.016
  2.047   2.121   2.137   2.169   2.254   2.311   2.320   2.348
  2.389   2.426   2.494   2.504   2.554   2.571   2.597   2.658
  2.699   2.706   2.832   2.858   2.964   3.899   4.060   4.190
  4.366   4.387   4.471   4.573
 
 Beta MOs
 -- Occupied --
-14.322 -10.235 -10.232 -10.226 -10.219 -10.218 -10.197  -0.945
 -0.864  -0.714  -0.665  -0.600  -0.562  -0.528  -0.502  -0.463
 -0.414  -0.403  -0.376  -0.371  -0.340  -0.304  -0.257  -0.231
 -- Virtual --
 -0.041  -0.012   0.053   0.082   0.116   0.124   0.138   0.150
  0.160   0.164   0.198   0.207   0.246   0.267   0.311   0.365
  0.395   0.483   0.516   0.532   0.540   0.547   0.574   0.599
  0.607   0.629   0.662   0.669   0.692   0.707   0.758   0.792
  0.803   0.811   0.813   0.829   0.848   0.863   0.878   0.899
  0.951   0.972   0.999   1.053   1.082   1.121   1.179   1.273
  1.362   1.388   1.431   1.502   1.518   1.532   1.607   1.642
  1.703   1.712   1.750   1.808   1.854   1.920   1.961   1.993
  2.024   2.054   2.129   2.147   2.174   2.271   2.322   2.331
  2.361   2.402   2.437   2.503   2.511   2.558   2.577   2.602
  2.663   2.703   2.710   2.841   2.860   2.965   3.904   4.064
  4.201   4.369   4.396   4.477   4.577
 --------------------------------------------------------------
 
          Ground-State Mulliken Net Atomic Charges

     Atom                 Charge (a.u.)    Spin (a.u.)
  --------------------------------------------------------
      1 C                     0.104013      -0.040921
      2 C                    -0.222963       0.197743
      3 C                    -0.132584       0.044674
      4 C                    -0.140353       0.847755
      5 C                    -0.056049      -0.004482
      6 N                    -0.350507       0.067524
      7 H                     0.152315       0.006206
      8 H                     0.148182      -0.006658
      9 H                     0.154697       0.030666
     10 H                     0.151899      -0.042427
     11 H                     0.155056       0.001353
     12 C                    -0.133512      -0.099511
     13 H                     0.169806      -0.001921
  --------------------------------------------------------
  Sum of atomic charges =    -0.000000
  Sum of spin   charges =     1.000000

 -----------------------------------------------------------------
                    Cartesian Multipole Moments
 -----------------------------------------------------------------
    Charge (ESU x 10^10)
                -0.0000
    Dipole Moment (Debye)
         X      -0.9969      Y      -2.9062      Z       0.0409
       Tot       3.0728
    Quadrupole Moments (Debye-Ang)
        XX     -35.7835     XY      -1.1952     YY     -41.6938
        XZ       1.9613     YZ       4.3434     ZZ     -43.1787
    Octopole Moments (Debye-Ang^2)
       XXX       8.6789    XXY       4.1614    XYY      -3.4026
       YYY     -11.0013    XXZ      57.2842    XYZ       4.5893
       YYZ      70.3224    XZZ      -5.4427    YZZ      -8.2840
       ZZZ     201.9036
    Hexadecapole Moments (Debye-Ang^3)
      XXXX    -290.4799   XXXY     -15.8109   XXYY     -93.6541
      XYYY     -22.2485   YYYY    -252.0953   XXXZ      23.5956
      XXYZ       1.5065   XYYZ      22.4875   YYYZ      42.2448
      XXZZ    -172.4022   XYZZ     -14.8280   YYZZ    -186.6405
      XZZZ      60.3679   YZZZ      43.9546   ZZZZ    -797.3271
 -----------------------------------------------------------------
 Calculating analytic gradient of the SCF energy
 Gradient of SCF Energy
            1           2           3           4           5           6
    1  -0.0015897   0.0213797  -0.0873683  -0.0016993   0.0110488   0.0738792
    2   0.0625745  -0.0389454   0.0770053  -0.0303807  -0.0064361  -0.0343162
    3  -0.0229968  -0.0139584   0.0252909  -0.0317331  -0.0211918   0.0015354
            7           8           9          10          11          12
    1   0.0082340  -0.0027867   0.0176382  -0.0062697  -0.0055355  -0.0258497
    2   0.0162812   0.0042803  -0.0107254  -0.0072213  -0.0172803   0.0297572
    3  -0.0011560   0.0042130   0.0052066  -0.0016051   0.0179883   0.0360932
           13
    1  -0.0010811
    2  -0.0445930
    3   0.0023138
 Max gradient component =       8.737E-02
 RMS gradient           =       3.056E-02
 Gradient time:  CPU 7.71 s  wall 5.39 s
 Geometry Optimization Parameters
   NAtoms,    NIC,     NZ,  NCons,   NDum,   NFix, NCnnct, MaxDiis
       13     131       0       0       0       0       0       0

 Cartesian Hessian Update
 Hessian Updated using BFGS Update


** GEOMETRY OPTIMIZATION IN DELOCALIZED INTERNAL COORDINATES **
   Searching for a Minimum

   Optimization Cycle:   2

                       Coordinates (Angstroms)
     ATOM                X               Y               Z
      1  C         1.5776155082    0.3648547109   -1.9096110121
      2  C         0.8644607120   -0.9894365996   -1.6632055140
      3  C        -0.6433534786   -0.7673006595   -2.0664931412
      4  C        -1.2237969112    0.3677765482   -0.6054999462
      5  C        -0.6396745092    0.7205690932   -2.0506789750
      6  N         0.7833881689    1.2833334382   -2.2115587204
      7  H         2.6485784757    0.6438586743   -1.8497138730
      8  H         1.2995975567   -1.9528336163   -1.4595069847
      9  H        -0.8971134161   -1.5205278478   -2.8205702173
     10  H        -2.2756843772    0.5810994128   -0.3914805086
     11  H        -1.4687142398    1.1832319876   -2.5505546515
     12  C        -0.7867878770   -0.9914494421   -0.5794752078
     13  H        -0.9518435542   -2.0487635843   -0.1539500310
   Point Group: c1    Number of degrees of freedom:    33


   Energy is   -286.758954791

 Hessian Updated using BFGS Update

 33 Hessian modes will be used to form the next step
  Hessian Eigenvalues:
     0.002424    0.008094    0.012320    0.014042    0.018761    0.021140
     0.023160    0.028851    0.033036    0.041117    0.049479    0.060784
     0.073177    0.076105    0.090706    0.141253    0.153069    0.155598
     0.169205    0.193711    0.207898    0.237322    0.239773    0.254569
     0.266084    0.282488    0.315944    0.330999    0.338967    0.341856
     0.372242    0.385881    0.851341

 Minimum Search - Taking Simple RFO Step
 Searching for Lamda that Minimizes Along All modes
 Value Taken    Lamda =  -0.08291115
 Calculated Step too Large.  Step scaled by  0.436588
 Step Taken.  Stepsize is  0.300000

                             Maximum     Tolerance    Cnvgd?
         Gradient           0.073410      0.000600      NO
         Displacement       0.174212      0.002400      NO
         Energy change     -0.043957      0.000002      NO


 New Cartesian Coordinates Obtained by Inverse Iteration

 Displacement from previous Coordinates is:  0.420397
 ----------------------------------------------------------------
             Standard Nuclear Orientation (Angstroms)
    I     Atom           X                Y                Z
 ----------------------------------------------------------------
    1      C       1.5142060809     0.3398088410    -1.8776673812
    2      C       0.8274572531    -0.9777963705    -1.6569216738
    3      C      -0.6216065106    -0.7847051267    -2.0978158050
    4      C      -1.1842677692     0.3783643894    -0.6101810367
    5      C      -0.6485035327     0.7204385921    -2.0642744958
    6      N       0.7268284329     1.2798378284    -2.2010329931
    7      H       2.5830244695     0.5797671377    -1.7833992236
    8      H       1.2696236036    -1.9377914049    -1.4448855638
    9      H      -0.8829910679    -1.5382236854    -2.8494780733
   10      H      -2.2243291196     0.5951310745    -0.3623543786
   11      H      -1.4768431494     1.1932545614    -2.5701560885
   12      C      -0.7220302155    -0.9811568027    -0.6180462373
   13      H      -0.8738964166    -1.9925169188    -0.1760858321
 ----------------------------------------------------------------
 Nuclear Repulsion Energy =   277.6370601215 hartrees
 There are       25 alpha and       24 beta electrons
 Applying Cartesian multipole field
    Component          Value
    ---------          -----
     (2,0,0)        1.00000E-11
     (0,2,0)        2.00000E-11
     (0,0,2)       -3.00000E-11
 Nucleus-field energy     =    -0.0000000108 hartrees
 Requested basis set is 6-31G(d)
 There are 40 shells and 117 basis functions
 A cutoff of  1.0D-14 yielded    810 shell pairs
 There are      7082 function pairs
 Smallest overlap matrix eigenvalue = 1.61E-03
 Guess MOs from SCF MO coefficient file
 Reading MOs from coefficient file
 Reading MOs from coefficient file
 An unrestricted hybrid HF-DFT SCF calculation will be
 performed using Pulay DIIS extrapolation
 Exchange:     0.2000 Hartree-Fock + 0.0800 Slater + 0.7200 B88
 Correlation:  0.1900 VWN1RPA + 0.8100 LYP
 Using SG-1 standard quadrature grid
 SCF converges when DIIS error is below 1.0E-08
 Geometry optimization detected.  Setting ReadMinima to 0
 Setting SaveMinima to 0
Using Q-Chem read-in guess as SCF_GUESS READ specified.

 using 4 threads for integral computing
 -------------------------------------------------------
 OpenMP Integral computing Module                
 Release: version 1.0, May 2013, Q-Chem Inc. Pittsburgh 
 -------------------------------------------------------
 -------------------------------------------------------
 OpenMP BLAS3 based DFT computing Module                
 Release: version 1.0, May 2013, Q-Chem Inc. Pittsburgh 
 -------------------------------------------------------
 ---------------------------------------
  Cycle       Energy         DIIS Error
 ---------------------------------------
    1    -286.8577785153      3.65E-03
    2    -286.7872408967      1.14E-03
    3    -286.7854108688      1.58E-03
    4    -286.7895855629      3.37E-04
    5    -286.7897653019      8.34E-05
    6    -286.7897855593      1.65E-05
    7    -286.7897925766      1.39E-05
    8    -286.7897959753      5.07E-06
    9    -286.7897975850      3.57E-06
   10    -286.7897985197      1.14E-06
   11    -286.7897988048      4.68E-07
   12    -286.7897988931      3.24E-07
   13    -286.7897989324      8.18E-08
   14    -286.7897989388      5.14E-08
   15    -286.7897989395      1.56E-08
   16    -286.7897989398      6.43E-09 Convergence criterion met
 ---------------------------------------
 <S^2> = 0.7574
 SCF time:  CPU 42.24 s  wall 36.99 s
 SCF   energy in the final basis set = -286.78979894
 Total energy in the final basis set = -286.78979894
 
 --------------------------------------------------------------
 
                    Orbital Energies (a.u.)
 --------------------------------------------------------------
 
 Alpha MOs
 -- Occupied --
-14.321 -10.228 -10.227 -10.224 -10.217 -10.217 -10.204  -0.959
 -0.868  -0.737  -0.667  -0.616  -0.569  -0.536  -0.513  -0.470
 -0.420  -0.413  -0.388  -0.369  -0.358  -0.309  -0.261  -0.250
 -0.160
 -- Virtual --
 -0.019   0.065   0.085   0.120   0.130   0.141   0.150   0.156
  0.174   0.200   0.204   0.250   0.263   0.320   0.376   0.392
  0.477   0.511   0.521   0.537   0.550   0.568   0.585   0.602
  0.626   0.645   0.661   0.681   0.702   0.755   0.793   0.798
  0.809   0.820   0.829   0.840   0.856   0.880   0.897   0.948
  0.965   1.011   1.046   1.074   1.129   1.190   1.281   1.373
  1.400   1.436   1.492   1.519   1.527   1.610   1.651   1.695
  1.750   1.787   1.833   1.861   1.924   1.970   1.990   2.038
  2.062   2.124   2.168   2.190   2.254   2.323   2.337   2.374
  2.422   2.448   2.493   2.519   2.567   2.595   2.604   2.670
  2.713   2.729   2.842   2.891   2.974   3.919   4.079   4.213
  4.394   4.410   4.483   4.591
 
 Beta MOs
 -- Occupied --
-14.320 -10.229 -10.228 -10.224 -10.215 -10.215 -10.191  -0.955
 -0.862  -0.728  -0.660  -0.607  -0.566  -0.534  -0.502  -0.467
 -0.416  -0.407  -0.383  -0.367  -0.339  -0.302  -0.259  -0.239
 -- Virtual --
 -0.038  -0.009   0.071   0.087   0.125   0.135   0.145   0.153
  0.161   0.176   0.203   0.209   0.254   0.271   0.324   0.378
  0.401   0.480   0.514   0.540   0.545   0.553   0.575   0.596
  0.606   0.631   0.656   0.671   0.683   0.708   0.761   0.796
  0.802   0.811   0.822   0.834   0.843   0.861   0.882   0.902
  0.952   0.971   1.018   1.052   1.085   1.131   1.198   1.285
  1.380   1.404   1.440   1.497   1.524   1.530   1.613   1.656
  1.714   1.757   1.795   1.839   1.867   1.930   1.974   1.999
  2.046   2.071   2.128   2.178   2.196   2.273   2.337   2.350
  2.382   2.436   2.456   2.500   2.526   2.571   2.599   2.610
  2.675   2.717   2.734   2.852   2.892   2.975   3.923   4.084
  4.224   4.400   4.416   4.489   4.594
 --------------------------------------------------------------
 
          Ground-State Mulliken Net Atomic Charges

     Atom                 Charge (a.u.)    Spin (a.u.)
  --------------------------------------------------------
      1 C                     0.106655      -0.028735
      2 C                    -0.214369       0.116422
      3 C                    -0.125933       0.055341
      4 C                    -0.125915       0.886620
      5 C                    -0.063632      -0.010567
      6 N                    -0.352112       0.048069
      7 H                     0.148222       0.005063
      8 H                     0.150291      -0.003338
      9 H                     0.151872       0.028431
     10 H                     0.148776      -0.039748
     11 H                     0.151215       0.002229
     12 C                    -0.141787      -0.056861
     13 H                     0.166717      -0.002926
  --------------------------------------------------------
  Sum of atomic charges =     0.000000
  Sum of spin   charges =     1.000000

 -----------------------------------------------------------------
                    Cartesian Multipole Moments
 -----------------------------------------------------------------
    Charge (ESU x 10^10)
                 0.0000
    Dipole Moment (Debye)
         X      -0.8781      Y      -2.9645      Z       0.0824
       Tot       3.0929
    Quadrupole Moments (Debye-Ang)
        XX     -36.1403     XY      -1.5944     YY     -41.7202
        XZ       1.9287     YZ       4.5621     ZZ     -42.9717
    Octopole Moments (Debye-Ang^2)
       XXX       8.9513    XXY       3.8886    XYY      -2.8904
       YYY     -10.5283    XXZ      58.3644    XYZ       4.9217
       YYZ      70.1717    XZZ      -5.3774    YZZ      -8.7799
       ZZZ     201.3927
    Hexadecapole Moments (Debye-Ang^3)
      XXXX    -273.8663   XXXY     -13.9817   XXYY     -90.3730
      XYYY     -19.7478   YYYY    -250.2636   XXXZ      19.0930
      XXYZ       1.7708   XYYZ      20.3941   YYYZ      40.0097
      XXZZ    -170.7193   XYZZ     -14.3408   YYZZ    -185.1452
      XZZZ      54.2429   YZZZ      42.7402   ZZZZ    -794.3323
 -----------------------------------------------------------------
 Calculating analytic gradient of the SCF energy
 Gradient of SCF Energy
            1           2           3           4           5           6
    1  -0.0036042   0.0195928  -0.0590909  -0.0031323   0.0219825   0.0419820
    2   0.0320399  -0.0220290   0.0626339  -0.0260040  -0.0033727  -0.0191460
    3  -0.0135373  -0.0255356   0.0338800  -0.0266587  -0.0163332  -0.0019419
            7           8           9          10          11          12
    1   0.0045675  -0.0041006   0.0172888  -0.0038911  -0.0068031  -0.0261274
    2   0.0106030   0.0029982  -0.0102969  -0.0047069  -0.0127791   0.0160192
    3  -0.0002830   0.0070969   0.0041283  -0.0007078   0.0143453   0.0298219
           13
    1   0.0013360
    2  -0.0259598
    3  -0.0042749
 Max gradient component =       6.263E-02
 RMS gradient           =       2.219E-02
 Gradient time:  CPU 7.73 s  wall 4.06 s
 Geometry Optimization Parameters
   NAtoms,    NIC,     NZ,  NCons,   NDum,   NFix, NCnnct, MaxDiis
       13     131       0       0       0       0       0       0

 Cartesian Hessian Update
 Hessian Updated using BFGS Update


** GEOMETRY OPTIMIZATION IN DELOCALIZED INTERNAL COORDINATES **
   Searching for a Minimum

   Optimization Cycle:   3

                       Coordinates (Angstroms)
     ATOM                X               Y               Z
      1  C         1.5142060809    0.3398088410   -1.8776673812
      2  C         0.8274572531   -0.9777963705   -1.6569216738
      3  C        -0.6216065106   -0.7847051267   -2.0978158050
      4  C        -1.1842677692    0.3783643894   -0.6101810367
      5  C        -0.6485035327    0.7204385921   -2.0642744958
      6  N         0.7268284329    1.2798378284   -2.2010329931
      7  H         2.5830244695    0.5797671377   -1.7833992236
      8  H         1.2696236036   -1.9377914049   -1.4448855638
      9  H        -0.8829910679   -1.5382236854   -2.8494780733
     10  H        -2.2243291196    0.5951310745   -0.3623543786
     11  H        -1.4768431494    1.1932545614   -2.5701560885
     12  C        -0.7220302155   -0.9811568027   -0.6180462373
     13  H        -0.8738964166   -1.9925169188   -0.1760858321
   Point Group: c1    Number of degrees of freedom:    33


   Energy is   -286.789798940

 Hessian Updated using BFGS Update

 33 Hessian modes will be used to form the next step
  Hessian Eigenvalues:
     0.002412    0.008106    0.012323    0.014013    0.018769    0.021146
     0.023200    0.028868    0.033035    0.041120    0.049293    0.059727
     0.073369    0.076129    0.090849    0.140409    0.153495    0.158979
     0.174018    0.193726    0.221663    0.239407    0.244791    0.265820
     0.279945    0.300273    0.317078    0.338606    0.341618    0.342743
     0.372361    0.387280    0.846057

 Minimum Search - Taking Simple RFO Step
 Searching for Lamda that Minimizes Along All modes
 Value Taken    Lamda =  -0.04837428
 Calculated Step too Large.  Step scaled by  0.464361
 Step Taken.  Stepsize is  0.300000

                             Maximum     Tolerance    Cnvgd?
         Gradient           0.047452      0.000600      NO
         Displacement       0.138987      0.002400      NO
         Energy change     -0.030844      0.000002      NO


 New Cartesian Coordinates Obtained by Inverse Iteration

 Displacement from previous Coordinates is:  0.357213
 ----------------------------------------------------------------
             Standard Nuclear Orientation (Angstroms)
    I     Atom           X                Y                Z
 ----------------------------------------------------------------
    1      C       1.4682310998     0.3258564375    -1.8445054516
    2      C       0.7951183723    -0.9739681415    -1.6440745487
    3      C      -0.6110436052    -0.8055572770    -2.1350395390
    4      C      -1.1491030533     0.3869007802    -0.6159065216
    5      C      -0.6629508275     0.7181803759    -2.0799200290
    6      N       0.6843330181     1.2782848694    -2.1888538409
    7      H       2.5344476020     0.5364693744    -1.7226363696
    8      H       1.2503467564    -1.9311684291    -1.4363326080
    9      H      -0.8880108499    -1.5543821843    -2.8854545878
   10      H      -2.1765144794     0.6082969135    -0.3330411620
   11      H      -1.4858091660     1.2048041384    -2.5934395424
   12      C      -0.6639393839    -0.9731365993    -0.6563281743
   13      H      -0.8084334251    -1.9461681425    -0.1767664079
 ----------------------------------------------------------------
 Nuclear Repulsion Energy =   280.3432860000 hartrees
 There are       25 alpha and       24 beta electrons
 Applying Cartesian multipole field
    Component          Value
    ---------          -----
     (2,0,0)        1.00000E-11
     (0,2,0)        2.00000E-11
     (0,0,2)       -3.00000E-11
 Nucleus-field energy     =    -0.0000000110 hartrees
 Requested basis set is 6-31G(d)
 There are 40 shells and 117 basis functions
 A cutoff of  1.0D-14 yielded    811 shell pairs
 There are      7083 function pairs
 Smallest overlap matrix eigenvalue = 1.53E-03
 Guess MOs from SCF MO coefficient file
 Reading MOs from coefficient file
 Reading MOs from coefficient file
 An unrestricted hybrid HF-DFT SCF calculation will be
 performed using Pulay DIIS extrapolation
 Exchange:     0.2000 Hartree-Fock + 0.0800 Slater + 0.7200 B88
 Correlation:  0.1900 VWN1RPA + 0.8100 LYP
 Using SG-1 standard quadrature grid
 SCF converges when DIIS error is below 1.0E-08
 Geometry optimization detected.  Setting ReadMinima to 0
 Setting SaveMinima to 0
Using Q-Chem read-in guess as SCF_GUESS READ specified.

 using 4 threads for integral computing
 -------------------------------------------------------
 OpenMP Integral computing Module                
 Release: version 1.0, May 2013, Q-Chem Inc. Pittsburgh 
 -------------------------------------------------------
 -------------------------------------------------------
 OpenMP BLAS3 based DFT computing Module                
 Release: version 1.0, May 2013, Q-Chem Inc. Pittsburgh 
 -------------------------------------------------------
 ---------------------------------------
  Cycle       Energy         DIIS Error
 ---------------------------------------
    1    -286.8515121026      3.11E-03
    2    -286.8072586398      8.70E-04
    3    -286.8062175041      1.21E-03
    4    -286.8086344088      2.79E-04
    5    -286.8087512969      6.90E-05
    6    -286.8087619923      1.26E-05
    7    -286.8087642932      7.56E-06
    8    -286.8087649446      2.30E-06
    9    -286.8087652329      1.31E-06
   10    -286.8087653362      6.10E-07
   11    -286.8087653746      2.31E-07
   12    -286.8087653943      1.43E-07
   13    -286.8087654039      5.19E-08
   14    -286.8087654075      2.43E-08
   15    -286.8087654079      8.74E-09 Convergence criterion met
 ---------------------------------------
 <S^2> = 0.7549
 SCF time:  CPU 39.77 s  wall 25.10 s
 SCF   energy in the final basis set = -286.80876541
 Total energy in the final basis set = -286.80876541
 
 --------------------------------------------------------------
 
                    Orbital Energies (a.u.)
 --------------------------------------------------------------
 
 Alpha MOs
 -- Occupied --
-14.319 -10.225 -10.223 -10.223 -10.214 -10.214 -10.201  -0.966
 -0.867  -0.745  -0.663  -0.618  -0.572  -0.540  -0.513  -0.470
 -0.422  -0.414  -0.392  -0.366  -0.355  -0.309  -0.262  -0.254
 -0.166
 -- Virtual --
 -0.014   0.087   0.090   0.123   0.136   0.145   0.154   0.158
  0.181   0.198   0.207   0.257   0.265   0.327   0.383   0.393
  0.476   0.516   0.523   0.544   0.553   0.571   0.581   0.602
  0.629   0.635   0.666   0.674   0.704   0.756   0.789   0.796
  0.811   0.826   0.834   0.837   0.855   0.881   0.901   0.946
  0.962   1.023   1.046   1.079   1.138   1.213   1.294   1.383
  1.415   1.446   1.492   1.517   1.545   1.618   1.662   1.702
  1.776   1.804   1.856   1.882   1.928   1.970   1.992   2.037
  2.082   2.133   2.189   2.201   2.251   2.319   2.340   2.410
  2.446   2.461   2.486   2.530   2.585   2.605   2.609   2.683
  2.727   2.749   2.846   2.910   2.979   3.934   4.095   4.228
  4.399   4.437   4.498   4.604
 
 Beta MOs
 -- Occupied --
-14.318 -10.225 -10.223 -10.223 -10.213 -10.212 -10.188  -0.962
 -0.861  -0.736  -0.655  -0.611  -0.569  -0.538  -0.502  -0.467
 -0.418  -0.409  -0.387  -0.364  -0.335  -0.303  -0.260  -0.245
 -- Virtual --
 -0.036  -0.007   0.089   0.094   0.128   0.140   0.149   0.157
  0.163   0.183   0.202   0.211   0.261   0.274   0.331   0.385
  0.402   0.478   0.519   0.545   0.553   0.556   0.574   0.590
  0.606   0.634   0.650   0.674   0.679   0.708   0.761   0.791
  0.801   0.813   0.828   0.838   0.840   0.859   0.884   0.906
  0.952   0.967   1.031   1.052   1.089   1.141   1.220   1.298
  1.390   1.420   1.450   1.497   1.522   1.547   1.621   1.668
  1.718   1.789   1.812   1.859   1.887   1.938   1.973   2.003
  2.044   2.094   2.136   2.199   2.208   2.269   2.331   2.351
  2.421   2.459   2.466   2.494   2.536   2.588   2.611   2.613
  2.687   2.732   2.753   2.856   2.911   2.980   3.937   4.101
  4.239   4.408   4.440   4.502   4.608
 --------------------------------------------------------------
 
          Ground-State Mulliken Net Atomic Charges

     Atom                 Charge (a.u.)    Spin (a.u.)
  --------------------------------------------------------
      1 C                     0.105243      -0.019565
      2 C                    -0.206033       0.074616
      3 C                    -0.119433       0.065534
      4 C                    -0.110600       0.915570
      5 C                    -0.072717      -0.016847
      6 N                    -0.350420       0.032279
      7 H                     0.145775       0.004306
      8 H                     0.151133      -0.001388
      9 H                     0.150046       0.025017
     10 H                     0.145482      -0.037840
     11 H                     0.147906       0.002610
     12 C                    -0.148725      -0.041510
     13 H                     0.162342      -0.002782
  --------------------------------------------------------
  Sum of atomic charges =    -0.000000
  Sum of spin   charges =     1.000000

 -----------------------------------------------------------------
                    Cartesian Multipole Moments
 -----------------------------------------------------------------
    Charge (ESU x 10^10)
                -0.0000
    Dipole Moment (Debye)
         X      -0.7861      Y      -2.9667      Z       0.1286
       Tot       3.0718
    Quadrupole Moments (Debye-Ang)
        XX     -36.4049     XY      -1.8842     YY     -41.7763
        XZ       1.9591     YZ       4.6872     ZZ     -42.7376
    Octopole Moments (Debye-Ang^2)
       XXX       9.3590    XXY       3.8038    XYY      -2.4922
       YYY      -9.8931    XXZ      59.1234    XYZ       5.0375
       YYZ      70.0659    XZZ      -5.5817    YZZ      -9.1053
       ZZZ     200.7552
    Hexadecapole Moments (Debye-Ang^3)
      XXXX    -261.7848   XXXY     -12.5553   XXYY     -88.0454
      XYYY     -18.0382   YYYY    -250.2666   XXXZ      14.5828
      XXYZ       1.7581   XYYZ      18.5451   YYYZ      37.7132
      XXZZ    -169.3133   XYZZ     -13.6078   YYZZ    -183.9007
      XZZZ      49.5336   YZZZ      41.4909   ZZZZ    -791.7142
 -----------------------------------------------------------------
 Calculating analytic gradient of the SCF energy
 Gradient of SCF Energy
            1           2           3           4           5           6
    1  -0.0046368   0.0162838  -0.0364531  -0.0026825   0.0290790   0.0158606
    2   0.0086568  -0.0086799   0.0473546  -0.0204739   0.0010597  -0.0081720
    3  -0.0044329  -0.0314193   0.0375238  -0.0195728  -0.0134055  -0.0043258
            7           8           9          10          11          12
    1   0.0019362  -0.0049721   0.0151797  -0.0021164  -0.0076328  -0.0228722
    2   0.0060857   0.0016854  -0.0094638  -0.0025946  -0.0088970   0.0073273
    3   0.0000086   0.0093662   0.0024350  -0.0007892   0.0111155   0.0208370
           13
    1   0.0030265
    2  -0.0138881
    3  -0.0073406
 Max gradient component =       4.735E-02
 RMS gradient           =       1.650E-02
 Gradient time:  CPU 7.69 s  wall 4.99 s
 Geometry Optimization Parameters
   NAtoms,    NIC,     NZ,  NCons,   NDum,   NFix, NCnnct, MaxDiis
       13     131       0       0       0       0       0       0

 Cartesian Hessian Update
 Hessian Updated using BFGS Update


** GEOMETRY OPTIMIZATION IN DELOCALIZED INTERNAL COORDINATES **
   Searching for a Minimum

   Optimization Cycle:   4

                       Coordinates (Angstroms)
     ATOM                X               Y               Z
      1  C         1.4682310998    0.3258564375   -1.8445054516
      2  C         0.7951183723   -0.9739681415   -1.6440745487
      3  C        -0.6110436052   -0.8055572770   -2.1350395390
      4  C        -1.1491030533    0.3869007802   -0.6159065216
      5  C        -0.6629508275    0.7181803759   -2.0799200290
      6  N         0.6843330181    1.2782848694   -2.1888538409
      7  H         2.5344476020    0.5364693744   -1.7226363696
      8  H         1.2503467564   -1.9311684291   -1.4363326080
      9  H        -0.8880108499   -1.5543821843   -2.8854545878
     10  H        -2.1765144794    0.6082969135   -0.3330411620
     11  H        -1.4858091660    1.2048041384   -2.5934395424
     12  C        -0.6639393839   -0.9731365993   -0.6563281743
     13  H        -0.8084334251   -1.9461681425   -0.1767664079
   Point Group: c1    Number of degrees of freedom:    33


   Energy is   -286.808765408

 Hessian Updated using BFGS Update

 33 Hessian modes will be used to form the next step
  Hessian Eigenvalues:
     0.002412    0.008137    0.012306    0.014053    0.018768    0.021142
     0.023061    0.028884    0.033035    0.040638    0.048042    0.055349
     0.073485    0.076684    0.091650    0.138059    0.153597    0.159000
     0.175229    0.193725    0.224581    0.239419    0.248268    0.266214
     0.279140    0.314082    0.323871    0.338844    0.341761    0.370935
     0.378304    0.419730    0.868290

 Minimum Search - Taking Simple RFO Step
 Searching for Lamda that Minimizes Along All modes
 Value Taken    Lamda =  -0.03002729
 Calculated Step too Large.  Step scaled by  0.464280
 Step Taken.  Stepsize is  0.300000

                             Maximum     Tolerance    Cnvgd?
         Gradient           0.023623      0.000600      NO
         Displacement       0.130845      0.002400      NO
         Energy change     -0.018966      0.000002      NO


 New Cartesian Coordinates Obtained by Inverse Iteration

 Displacement from previous Coordinates is:  0.267737
 ----------------------------------------------------------------
             Standard Nuclear Orientation (Angstroms)
    I     Atom           X                Y                Z
 ----------------------------------------------------------------
    1      C       1.4413658112     0.3209736629    -1.8179776767
    2      C       0.7732497630    -0.9756869456    -1.6270339568
    3      C      -0.6061802395    -0.8276418752    -2.1706881343
    4      C      -1.1255920227     0.3915898197    -0.6201409001
    5      C      -0.6800625563     0.7123062830    -2.0906805480
    6      N       0.6570885149     1.2788198385    -2.1727065441
    7      H       2.5055523667     0.5114050653    -1.6789678614
    8      H       1.2479866428    -1.9304692498    -1.4426536932
    9      H      -0.9009695085    -1.5663649684    -2.9221819797
   10      H      -2.1412482447     0.6182803655    -0.3066985465
   11      H      -1.4913084051     1.2134943487    -2.6165728912
   12      C      -0.6235942074    -0.9686534192    -0.6875782530
   13      H      -0.7696158559    -1.9036408097    -0.1584177978
 ----------------------------------------------------------------
 Nuclear Repulsion Energy =   281.6663568570 hartrees
 There are       25 alpha and       24 beta electrons
 Applying Cartesian multipole field
    Component          Value
    ---------          -----
     (2,0,0)        1.00000E-11
     (0,2,0)        2.00000E-11
     (0,0,2)       -3.00000E-11
 Nucleus-field energy     =    -0.0000000111 hartrees
 Requested basis set is 6-31G(d)
 There are 40 shells and 117 basis functions
 A cutoff of  1.0D-14 yielded    811 shell pairs
 There are      7083 function pairs
 Smallest overlap matrix eigenvalue = 1.46E-03
 Guess MOs from SCF MO coefficient file
 Reading MOs from coefficient file
 Reading MOs from coefficient file
 An unrestricted hybrid HF-DFT SCF calculation will be
 performed using Pulay DIIS extrapolation
 Exchange:     0.2000 Hartree-Fock + 0.0800 Slater + 0.7200 B88
 Correlation:  0.1900 VWN1RPA + 0.8100 LYP
 Using SG-1 standard quadrature grid
 SCF converges when DIIS error is below 1.0E-08
 Geometry optimization detected.  Setting ReadMinima to 0
 Setting SaveMinima to 0
Using Q-Chem read-in guess as SCF_GUESS READ specified.

 using 4 threads for integral computing
 -------------------------------------------------------
 OpenMP Integral computing Module                
 Release: version 1.0, May 2013, Q-Chem Inc. Pittsburgh 
 -------------------------------------------------------
 -------------------------------------------------------
 OpenMP BLAS3 based DFT computing Module                
 Release: version 1.0, May 2013, Q-Chem Inc. Pittsburgh 
 -------------------------------------------------------
 ---------------------------------------
  Cycle       Energy         DIIS Error
 ---------------------------------------
    1    -286.8411059037      2.38E-03
    2    -286.8198936940      6.09E-04
    3    -286.8193899454      8.58E-04
    4    -286.8205872976      2.06E-04
    5    -286.8206501126      5.32E-05
    6    -286.8206557791      1.09E-05
    7    -286.8206566603      6.18E-06
    8    -286.8206568590      2.26E-06
    9    -286.8206569297      6.83E-07
   10    -286.8206569531      3.74E-07
   11    -286.8206569608      6.28E-08
   12    -286.8206569652      5.15E-08
   13    -286.8206569670      2.16E-08
   14    -286.8206569686      1.00E-08
   15    -286.8206569689      5.12E-09 Convergence criterion met
 ---------------------------------------
 <S^2> = 0.7542
 SCF time:  CPU 39.55 s  wall 22.16 s
 SCF   energy in the final basis set = -286.82065697
 Total energy in the final basis set = -286.82065697
 
 --------------------------------------------------------------
 
                    Orbital Energies (a.u.)
 --------------------------------------------------------------
 
 Alpha MOs
 -- Occupied --
-14.318 -10.224 -10.222 -10.220 -10.213 -10.211 -10.198  -0.969
 -0.866  -0.747  -0.660  -0.617  -0.574  -0.541  -0.513  -0.468
 -0.424  -0.414  -0.392  -0.366  -0.349  -0.310  -0.261  -0.256
 -0.172
 -- Virtual --
 -0.011   0.088   0.109   0.125   0.138   0.148   0.154   0.163
  0.184   0.194   0.209   0.256   0.269   0.330   0.382   0.391
  0.476   0.523   0.526   0.548   0.555   0.566   0.580   0.602
  0.626   0.631   0.669   0.670   0.704   0.755   0.786   0.795
  0.813   0.830   0.834   0.837   0.855   0.881   0.904   0.942
  0.959   1.026   1.050   1.082   1.145   1.227   1.302   1.388
  1.422   1.450   1.495   1.522   1.569   1.626   1.667   1.706
  1.786   1.812   1.862   1.903   1.928   1.957   2.000   2.031
  2.088   2.144   2.192   2.208   2.247   2.314   2.346   2.427
  2.460   2.467   2.482   2.533   2.585   2.608   2.621   2.686
  2.733   2.771   2.845   2.918   2.977   3.943   4.110   4.235
  4.393   4.450   4.513   4.617
 
 Beta MOs
 -- Occupied --
-14.318 -10.224 -10.222 -10.220 -10.211 -10.211 -10.185  -0.965
 -0.861  -0.739  -0.651  -0.611  -0.571  -0.539  -0.501  -0.466
 -0.420  -0.410  -0.387  -0.363  -0.330  -0.305  -0.259  -0.249
 -- Virtual --
 -0.036  -0.005   0.090   0.112   0.130   0.142   0.152   0.158
  0.168   0.186   0.198   0.213   0.260   0.278   0.333   0.385
  0.401   0.479   0.528   0.549   0.554   0.560   0.569   0.586
  0.607   0.635   0.645   0.671   0.682   0.708   0.760   0.788
  0.799   0.815   0.831   0.837   0.842   0.858   0.884   0.908
  0.949   0.963   1.035   1.056   1.092   1.148   1.234   1.306
  1.393   1.427   1.453   1.500   1.527   1.571   1.630   1.675
  1.718   1.802   1.818   1.866   1.908   1.939   1.964   2.011
  2.038   2.100   2.147   2.206   2.213   2.263   2.323   2.358
  2.441   2.469   2.475   2.487   2.538   2.590   2.613   2.625
  2.691   2.738   2.775   2.855   2.919   2.978   3.946   4.116
  4.247   4.403   4.453   4.516   4.621
 --------------------------------------------------------------
 
          Ground-State Mulliken Net Atomic Charges

     Atom                 Charge (a.u.)    Spin (a.u.)
  --------------------------------------------------------
      1 C                     0.103082      -0.012838
      2 C                    -0.200441       0.054678
      3 C                    -0.114573       0.075578
      4 C                    -0.097017       0.934516
      5 C                    -0.081483      -0.023276
      6 N                    -0.347598       0.022735
      7 H                     0.144743       0.003881
      8 H                     0.150738      -0.000288
      9 H                     0.149201       0.021356
     10 H                     0.142852      -0.036546
     11 H                     0.145537       0.002836
     12 C                    -0.152932      -0.040539
     13 H                     0.157892      -0.002091
  --------------------------------------------------------
  Sum of atomic charges =    -0.000000
  Sum of spin   charges =     1.000000

 -----------------------------------------------------------------
                    Cartesian Multipole Moments
 -----------------------------------------------------------------
    Charge (ESU x 10^10)
                 0.0000
    Dipole Moment (Debye)
         X      -0.7230      Y      -2.9341      Z       0.1541
       Tot       3.0258
    Quadrupole Moments (Debye-Ang)
        XX     -36.5434     XY      -2.0636     YY     -41.8732
        XZ       1.9805     YZ       4.7495     ZZ     -42.4582
    Octopole Moments (Debye-Ang^2)
       XXX       9.7955    XXY       3.8013    XYY      -2.2016
       YYY      -9.1292    XXZ      59.4822    XYZ       5.0412
       YYZ      69.9237    XZZ      -5.8189    YZZ      -9.2916
       ZZZ     199.8021
    Hexadecapole Moments (Debye-Ang^3)
      XXXX    -254.8295   XXXY     -11.7006   XXYY     -86.6819
      XYYY     -17.1656   YYYY    -251.4996   XXXZ      10.8788
      XXYZ       1.5946   XYYZ      17.0997   YYYZ      35.5264
      XXZZ    -168.1269   XYZZ     -12.8728   YYZZ    -182.6501
      XZZZ      46.4775   YZZZ      40.1553   ZZZZ    -788.3191
 -----------------------------------------------------------------
 Calculating analytic gradient of the SCF energy
 Gradient of SCF Energy
            1           2           3           4           5           6
    1  -0.0026505   0.0126894  -0.0237015  -0.0014877   0.0292826   0.0009195
    2  -0.0032714  -0.0022741   0.0331140  -0.0154743   0.0033550  -0.0006973
    3   0.0013159  -0.0292807   0.0341359  -0.0118276  -0.0108175  -0.0051808
            7           8           9          10          11          12
    1   0.0001946  -0.0047782   0.0123629  -0.0010770  -0.0078795  -0.0176556
    2   0.0028932   0.0005921  -0.0080044  -0.0011008  -0.0059361   0.0029560
    3  -0.0000025   0.0098387   0.0010003  -0.0013721   0.0084154   0.0114099
           13
    1   0.0037809
    2  -0.0061520
    3  -0.0076348
 Max gradient component =       3.414E-02
 RMS gradient           =       1.275E-02
 Gradient time:  CPU 8.08 s  wall 3.54 s
 Geometry Optimization Parameters
   NAtoms,    NIC,     NZ,  NCons,   NDum,   NFix, NCnnct, MaxDiis
       13     131       0       0       0       0       0       0

 Cartesian Hessian Update
 Hessian Updated using BFGS Update


** GEOMETRY OPTIMIZATION IN DELOCALIZED INTERNAL COORDINATES **
   Searching for a Minimum

   Optimization Cycle:   5

                       Coordinates (Angstroms)
     ATOM                X               Y               Z
      1  C         1.4413658112    0.3209736629   -1.8179776767
      2  C         0.7732497630   -0.9756869456   -1.6270339568
      3  C        -0.6061802395   -0.8276418752   -2.1706881343
      4  C        -1.1255920227    0.3915898197   -0.6201409001
      5  C        -0.6800625563    0.7123062830   -2.0906805480
      6  N         0.6570885149    1.2788198385   -2.1727065441
      7  H         2.5055523667    0.5114050653   -1.6789678614
      8  H         1.2479866428   -1.9304692498   -1.4426536932
      9  H        -0.9009695085   -1.5663649684   -2.9221819797
     10  H        -2.1412482447    0.6182803655   -0.3066985465
     11  H        -1.4913084051    1.2134943487   -2.6165728912
     12  C        -0.6235942074   -0.9686534192   -0.6875782530
     13  H        -0.7696158559   -1.9036408097   -0.1584177978
   Point Group: c1    Number of degrees of freedom:    33


   Energy is   -286.820656969

 Hessian Updated using BFGS Update

 33 Hessian modes will be used to form the next step
  Hessian Eigenvalues:
     0.002491    0.008125    0.012251    0.014214    0.018746    0.021076
     0.022549    0.028884    0.032941    0.039338    0.047323    0.054065
     0.073254    0.077757    0.094622    0.136331    0.153718    0.158992
     0.175185    0.193723    0.225019    0.239484    0.248421    0.267059
     0.278829    0.314327    0.324914    0.338845    0.341731    0.371441
     0.380373    0.465124    0.905350

 Minimum Search - Taking Simple RFO Step
 Searching for Lamda that Minimizes Along All modes
 Value Taken    Lamda =  -0.01910296
 Calculated Step too Large.  Step scaled by  0.476476
 Step Taken.  Stepsize is  0.300000

                             Maximum     Tolerance    Cnvgd?
         Gradient           0.014473      0.000600      NO
         Displacement       0.157283      0.002400      NO
         Energy change     -0.011892      0.000002      NO


 New Cartesian Coordinates Obtained by Inverse Iteration

 Displacement from previous Coordinates is:  0.203427
 ----------------------------------------------------------------
             Standard Nuclear Orientation (Angstroms)
    I     Atom           X                Y                Z
 ----------------------------------------------------------------
    1      C       1.4264958900     0.3205387343    -1.7988095858
    2      C       0.7608937328    -0.9790744632    -1.6085897541
    3      C      -0.6006176555    -0.8485227202    -2.1997319805
    4      C      -1.1128806464     0.3940964337    -0.6220179835
    5      C      -0.6962593673     0.7041996857    -2.0952924492
    6      N       0.6396622946     1.2789554976    -2.1545368783
    7      H       2.4901249698     0.4988725929    -1.6527673333
    8      H       1.2590158580    -1.9311004855    -1.4666997220
    9      H      -0.9135215133    -1.5728373910    -2.9546142057
   10      H      -2.1186918172     0.6263563524    -0.2845249028
   11      H      -1.4899006229     1.2176831498    -2.6398784502
   12      C      -0.6008625831    -0.9677936859    -0.7072873110
   13      H      -0.7567864812    -1.8669615849    -0.1275482264
 ----------------------------------------------------------------
 Nuclear Repulsion Energy =   282.1013453527 hartrees
 There are       25 alpha and       24 beta electrons
 Applying Cartesian multipole field
    Component          Value
    ---------          -----
     (2,0,0)        1.00000E-11
     (0,2,0)        2.00000E-11
     (0,0,2)       -3.00000E-11
 Nucleus-field energy     =    -0.0000000111 hartrees
 Requested basis set is 6-31G(d)
 There are 40 shells and 117 basis functions
 A cutoff of  1.0D-14 yielded    811 shell pairs
 There are      7083 function pairs
 Smallest overlap matrix eigenvalue = 1.41E-03
 Guess MOs from SCF MO coefficient file
 Reading MOs from coefficient file
 Reading MOs from coefficient file
 An unrestricted hybrid HF-DFT SCF calculation will be
 performed using Pulay DIIS extrapolation
 Exchange:     0.2000 Hartree-Fock + 0.0800 Slater + 0.7200 B88
 Correlation:  0.1900 VWN1RPA + 0.8100 LYP
 Using SG-1 standard quadrature grid
 SCF converges when DIIS error is below 1.0E-08
 Geometry optimization detected.  Setting ReadMinima to 0
 Setting SaveMinima to 0
Using Q-Chem read-in guess as SCF_GUESS READ specified.

 using 4 threads for integral computing
 -------------------------------------------------------
 OpenMP Integral computing Module                
 Release: version 1.0, May 2013, Q-Chem Inc. Pittsburgh 
 -------------------------------------------------------
 -------------------------------------------------------
 OpenMP BLAS3 based DFT computing Module                
 Release: version 1.0, May 2013, Q-Chem Inc. Pittsburgh 
 -------------------------------------------------------
 ---------------------------------------
  Cycle       Energy         DIIS Error
 ---------------------------------------
    1    -286.8348894880      1.77E-03
    2    -286.8279561782      4.05E-04
    3    -286.8277666946      5.59E-04
    4    -286.8282687519      1.45E-04
    5    -286.8283001686      3.95E-05
    6    -286.8283031655      7.82E-06
    7    -286.8283035948      3.95E-06
    8    -286.8283036704      1.63E-06
    9    -286.8283036953      4.31E-07
   10    -286.8283037028      2.08E-07
   11    -286.8283037048      3.51E-08
   12    -286.8283037062      1.70E-08
   13    -286.8283037068      9.89E-09 Convergence criterion met
 ---------------------------------------
 <S^2> = 0.7541
 SCF time:  CPU 34.42 s  wall 21.40 s
 SCF   energy in the final basis set = -286.82830371
 Total energy in the final basis set = -286.82830371
 
 --------------------------------------------------------------
 
                    Orbital Energies (a.u.)
 --------------------------------------------------------------
 
 Alpha MOs
 -- Occupied --
-14.318 -10.223 -10.222 -10.218 -10.213 -10.210 -10.197  -0.969
 -0.864  -0.748  -0.659  -0.614  -0.575  -0.542  -0.512  -0.467
 -0.426  -0.414  -0.391  -0.365  -0.344  -0.312  -0.260  -0.258
 -0.176
 -- Virtual --
 -0.009   0.089   0.116   0.130   0.139   0.149   0.156   0.166
  0.187   0.191   0.209   0.253   0.273   0.330   0.379   0.388
  0.478   0.523   0.533   0.548   0.553   0.564   0.583   0.602
  0.621   0.629   0.667   0.671   0.703   0.755   0.784   0.794
  0.814   0.831   0.833   0.837   0.855   0.881   0.904   0.938
  0.957   1.026   1.054   1.083   1.149   1.235   1.303   1.387
  1.425   1.451   1.499   1.531   1.588   1.633   1.670   1.706
  1.791   1.813   1.865   1.914   1.928   1.942   2.008   2.025
  2.085   2.151   2.185   2.214   2.247   2.310   2.353   2.429
  2.467   2.478   2.482   2.529   2.584   2.610   2.625   2.685
  2.732   2.786   2.841   2.924   2.972   3.947   4.122   4.238
  4.382   4.458   4.520   4.630
 
 Beta MOs
 -- Occupied --
-14.318 -10.223 -10.222 -10.218 -10.211 -10.209 -10.184  -0.965
 -0.859  -0.739  -0.649  -0.609  -0.572  -0.539  -0.500  -0.465
 -0.421  -0.409  -0.387  -0.362  -0.325  -0.306  -0.258  -0.253
 -- Virtual --
 -0.037  -0.003   0.091   0.120   0.133   0.144   0.152   0.159
  0.172   0.189   0.194   0.213   0.257   0.281   0.333   0.383
  0.397   0.481   0.534   0.549   0.553   0.558   0.568   0.587
  0.608   0.632   0.643   0.668   0.684   0.707   0.759   0.786
  0.799   0.816   0.833   0.838   0.841   0.857   0.884   0.908
  0.946   0.959   1.035   1.060   1.094   1.151   1.242   1.308
  1.391   1.432   1.454   1.504   1.536   1.590   1.637   1.679
  1.715   1.806   1.819   1.870   1.920   1.937   1.953   2.017
  2.032   2.097   2.154   2.203   2.219   2.260   2.316   2.365
  2.445   2.471   2.485   2.490   2.535   2.590   2.615   2.631
  2.689   2.737   2.790   2.851   2.925   2.973   3.950   4.128
  4.251   4.391   4.462   4.523   4.633
 --------------------------------------------------------------
 
          Ground-State Mulliken Net Atomic Charges

     Atom                 Charge (a.u.)    Spin (a.u.)
  --------------------------------------------------------
      1 C                     0.101420      -0.007631
      2 C                    -0.197342       0.044931
      3 C                    -0.111991       0.084704
      4 C                    -0.086837       0.945275
      5 C                    -0.087930      -0.029080
      6 N                    -0.344525       0.017540
      7 H                     0.144257       0.003651
      8 H                     0.149793       0.000338
      9 H                     0.148871       0.018125
     10 H                     0.141187      -0.035685
     11 H                     0.143890       0.003135
     12 C                    -0.155029      -0.043934
     13 H                     0.154235      -0.001368
  --------------------------------------------------------
  Sum of atomic charges =    -0.000000
  Sum of spin   charges =     1.000000

 -----------------------------------------------------------------
                    Cartesian Multipole Moments
 -----------------------------------------------------------------
    Charge (ESU x 10^10)
                 0.0000
    Dipole Moment (Debye)
         X      -0.6821      Y      -2.8879      Z       0.1474
       Tot       2.9710
    Quadrupole Moments (Debye-Ang)
        XX     -36.6050     XY      -2.1611     YY     -41.9847
        XZ       1.9526     YZ       4.7867     ZZ     -42.1262
    Octopole Moments (Debye-Ang^2)
       XXX      10.2086    XXY       3.8214    XYY      -1.9669
       YYY      -8.2859    XXZ      59.5379    XYZ       5.0355
       YYZ      69.6776    XZZ      -5.9396    YZZ      -9.4006
       ZZZ     198.4345
    Hexadecapole Moments (Debye-Ang^3)
      XXXX    -251.3983   XXXY     -11.2442   XXYY     -85.9084
      XYYY     -16.7640   YYYY    -253.0688   XXXZ       8.1696
      XXYZ       1.4297   XYYZ      15.9475   YYYZ      33.5395
      XXZZ    -166.9948   XYZZ     -12.3209   YYZZ    -181.2187
      XZZZ      44.6580   YZZZ      38.8500   ZZZZ    -783.4662
 -----------------------------------------------------------------
 Calculating analytic gradient of the SCF energy
 Gradient of SCF Energy
            1           2           3           4           5           6
    1  -0.0006495   0.0093478  -0.0166009  -0.0001836   0.0250045  -0.0054006
    2  -0.0075027   0.0006679   0.0203555  -0.0109024   0.0039078   0.0031683
    3   0.0036054  -0.0222973   0.0256335  -0.0047401  -0.0079261  -0.0045053
            7           8           9          10          11          12
    1  -0.0006009  -0.0035431   0.0096165  -0.0006483  -0.0072104  -0.0125262
    2   0.0009264  -0.0002515  -0.0060180  -0.0001413  -0.0038767   0.0016797
    3  -0.0001550   0.0081640   0.0000814  -0.0019721   0.0060488   0.0036659
           13
    1   0.0033946
    2  -0.0020128
    3  -0.0056031
 Max gradient component =       2.563E-02
 RMS gradient           =       9.396E-03
 Gradient time:  CPU 8.06 s  wall 3.14 s
 Geometry Optimization Parameters
   NAtoms,    NIC,     NZ,  NCons,   NDum,   NFix, NCnnct, MaxDiis
       13     131       0       0       0       0       0       0

 Cartesian Hessian Update
 Hessian Updated using BFGS Update


** GEOMETRY OPTIMIZATION IN DELOCALIZED INTERNAL COORDINATES **
   Searching for a Minimum

   Optimization Cycle:   6

                       Coordinates (Angstroms)
     ATOM                X               Y               Z
      1  C         1.4264958900    0.3205387343   -1.7988095858
      2  C         0.7608937328   -0.9790744632   -1.6085897541
      3  C        -0.6006176555   -0.8485227202   -2.1997319805
      4  C        -1.1128806464    0.3940964337   -0.6220179835
      5  C        -0.6962593673    0.7041996857   -2.0952924492
      6  N         0.6396622946    1.2789554976   -2.1545368783
      7  H         2.4901249698    0.4988725929   -1.6527673333
      8  H         1.2590158580   -1.9311004855   -1.4666997220
      9  H        -0.9135215133   -1.5728373910   -2.9546142057
     10  H        -2.1186918172    0.6263563524   -0.2845249028
     11  H        -1.4899006229    1.2176831498   -2.6398784502
     12  C        -0.6008625831   -0.9677936859   -0.7072873110
     13  H        -0.7567864812   -1.8669615849   -0.1275482264
   Point Group: c1    Number of degrees of freedom:    33


   Energy is   -286.828303707

 Hessian Updated using BFGS Update

 33 Hessian modes will be used to form the next step
  Hessian Eigenvalues:
     0.002764    0.008133    0.012370    0.014353    0.018619    0.020829
     0.022143    0.028791    0.032749    0.037272    0.049312    0.053910
     0.073174    0.078400    0.097075    0.135938    0.153792    0.159148
     0.175188    0.193724    0.224958    0.239495    0.248442    0.267449
     0.278915    0.314323    0.324548    0.338843    0.341725    0.371428
     0.380440    0.475606    0.921419

 Minimum Search - Taking Simple RFO Step
 Searching for Lamda that Minimizes Along All modes
 Value Taken    Lamda =  -0.01076133
 Calculated Step too Large.  Step scaled by  0.543956
 Step Taken.  Stepsize is  0.300000

                             Maximum     Tolerance    Cnvgd?
         Gradient           0.009131      0.000600      NO
         Displacement       0.164657      0.002400      NO
         Energy change     -0.007647      0.000002      NO


 New Cartesian Coordinates Obtained by Inverse Iteration

 Displacement from previous Coordinates is:  0.172007
 ----------------------------------------------------------------
             Standard Nuclear Orientation (Angstroms)
    I     Atom           X                Y                Z
 ----------------------------------------------------------------
    1      C       1.4180047989     0.3216499759    -1.7848149222
    2      C       0.7531873418    -0.9829945840    -1.5885999164
    3      C      -0.5930508206    -0.8661234666    -2.2209900959
    4      C      -1.1074326154     0.3958188901    -0.6231364516
    5      C      -0.7113868991     0.6958592619    -2.0968033213
    6      N       0.6285584777     1.2767403838    -2.1394369270
    7      H       2.4817381753     0.4946290100    -1.6351422702
    8      H       1.2734374998    -1.9310114815    -1.5001618971
    9      H      -0.9279922408    -1.5728521080    -2.9797162654
   10      H      -2.1047503014     0.6315260272    -0.2644150929
   11      H      -1.4818838585     1.2185144402    -2.6663501659
   12      C      -0.5865422284    -0.9687886533    -0.7164167956
   13      H      -0.7552152709    -1.8385555800    -0.0963146613
 ----------------------------------------------------------------
 Nuclear Repulsion Energy =   282.1343601632 hartrees
 There are       25 alpha and       24 beta electrons
 Applying Cartesian multipole field
    Component          Value
    ---------          -----
     (2,0,0)        1.00000E-11
     (0,2,0)        2.00000E-11
     (0,0,2)       -3.00000E-11
 Nucleus-field energy     =    -0.0000000111 hartrees
 Requested basis set is 6-31G(d)
 There are 40 shells and 117 basis functions
 A cutoff of  1.0D-14 yielded    811 shell pairs
 There are      7083 function pairs
 Smallest overlap matrix eigenvalue = 1.36E-03
 Guess MOs from SCF MO coefficient file
 Reading MOs from coefficient file
 Reading MOs from coefficient file
 An unrestricted hybrid HF-DFT SCF calculation will be
 performed using Pulay DIIS extrapolation
 Exchange:     0.2000 Hartree-Fock + 0.0800 Slater + 0.7200 B88
 Correlation:  0.1900 VWN1RPA + 0.8100 LYP
 Using SG-1 standard quadrature grid
 SCF converges when DIIS error is below 1.0E-08
 Geometry optimization detected.  Setting ReadMinima to 0
 Setting SaveMinima to 0
Using Q-Chem read-in guess as SCF_GUESS READ specified.

 using 4 threads for integral computing
 -------------------------------------------------------
 OpenMP Integral computing Module                
 Release: version 1.0, May 2013, Q-Chem Inc. Pittsburgh 
 -------------------------------------------------------
 -------------------------------------------------------
 OpenMP BLAS3 based DFT computing Module                
 Release: version 1.0, May 2013, Q-Chem Inc. Pittsburgh 
 -------------------------------------------------------
 ---------------------------------------
  Cycle       Energy         DIIS Error
 ---------------------------------------
    1    -286.8330375321      1.42E-03
    2    -286.8328095959      2.86E-04
    3    -286.8327435710      3.77E-04
    4    -286.8329662490      1.10E-04
    5    -286.8329844690      3.07E-05
    6    -286.8329862314      5.63E-06
    7    -286.8329864810      2.65E-06
    8    -286.8329865208      1.06E-06
    9    -286.8329865328      3.32E-07
   10    -286.8329865368      1.34E-07
   11    -286.8329865378      2.81E-08
   12    -286.8329865385      1.08E-08
   13    -286.8329865389      7.18E-09 Convergence criterion met
 ---------------------------------------
 <S^2> = 0.7541
 SCF time:  CPU 34.41 s  wall 22.26 s
 SCF   energy in the final basis set = -286.83298654
 Total energy in the final basis set = -286.83298654
 
 --------------------------------------------------------------
 
                    Orbital Energies (a.u.)
 --------------------------------------------------------------
 
 Alpha MOs
 -- Occupied --
-14.318 -10.222 -10.221 -10.217 -10.213 -10.210 -10.196  -0.968
 -0.862  -0.747  -0.658  -0.612  -0.575  -0.541  -0.512  -0.466
 -0.427  -0.413  -0.390  -0.365  -0.338  -0.313  -0.260  -0.258
 -0.179
 -- Virtual --
 -0.007   0.090   0.115   0.133   0.143   0.149   0.158   0.168
  0.186   0.192   0.210   0.249   0.275   0.329   0.375   0.385
  0.481   0.522   0.533   0.547   0.554   0.565   0.587   0.600
[...]
     0.072145    0.097427    0.127235    0.154176    0.158954    0.164446
     0.174002    0.194135    0.237752    0.241339    0.264864    0.297720
     0.313580    0.321478    0.338575    0.340348    0.341791    0.372879
     0.387878    0.523771    0.857023

 Minimum Search - Taking Simple RFO Step
 Searching for Lamda that Minimizes Along All modes
 Value Taken    Lamda =  -0.00000217
 Step Taken.  Stepsize is  0.017989

                             Maximum     Tolerance    Cnvgd?
         Gradient           0.000169      0.000600     YES
         Displacement       0.006769      0.002400      NO
         Energy change     -0.000003      0.000002      NO


 New Cartesian Coordinates Obtained by Inverse Iteration

 Displacement from previous Coordinates is:  0.011607
 ----------------------------------------------------------------
             Standard Nuclear Orientation (Angstroms)
    I     Atom           X                Y                Z
 ----------------------------------------------------------------
    1      C       1.4123219293     0.3324063148    -1.7645252730
    2      C       0.7546041460    -0.9924022440    -1.5660751278
    3      C      -0.5679133799    -0.8883999171    -2.2521792075
    4      C      -1.1207972733     0.3898492858    -0.6491044807
    5      C      -0.7425207643     0.6717567191    -2.1088033174
    6      N       0.6150452807     1.2719972709    -2.1123219303
    7      H       2.4734294924     0.5158832407    -1.5989215278
    8      H       1.3096826931    -1.9254291447    -1.5516123809
    9      H      -0.9959753706    -1.5693956863    -2.9821440719
   10      H      -2.0660808244     0.6493747880    -0.1864950824
   11      H      -1.4414460145     1.2137873446    -2.7454757164
   12      C      -0.5634672479    -0.9735530457    -0.7180383283
   13      H      -0.7802106082    -1.8214628105    -0.0766023383
 ----------------------------------------------------------------
 Nuclear Repulsion Energy =   281.7635167792 hartrees
 There are       25 alpha and       24 beta electrons
 Applying Cartesian multipole field
    Component          Value
    ---------          -----
     (2,0,0)        1.00000E-11
     (0,2,0)        2.00000E-11
     (0,0,2)       -3.00000E-11
 Nucleus-field energy     =    -0.0000000111 hartrees
 Requested basis set is 6-31G(d)
 There are 40 shells and 117 basis functions
 A cutoff of  1.0D-14 yielded    811 shell pairs
 There are      7083 function pairs
 Smallest overlap matrix eigenvalue = 1.31E-03
 Guess MOs from SCF MO coefficient file
 Reading MOs from coefficient file
 Reading MOs from coefficient file
 An unrestricted hybrid HF-DFT SCF calculation will be
 performed using Pulay DIIS extrapolation
 Exchange:     0.2000 Hartree-Fock + 0.0800 Slater + 0.7200 B88
 Correlation:  0.1900 VWN1RPA + 0.8100 LYP
 Using SG-1 standard quadrature grid
 SCF converges when DIIS error is below 1.0E-08
 Geometry optimization detected.  Setting ReadMinima to 0
 Setting SaveMinima to 0
Using Q-Chem read-in guess as SCF_GUESS READ specified.

 using 4 threads for integral computing
 -------------------------------------------------------
 OpenMP Integral computing Module                
 Release: version 1.0, May 2013, Q-Chem Inc. Pittsburgh 
 -------------------------------------------------------
 -------------------------------------------------------
 OpenMP BLAS3 based DFT computing Module                
 Release: version 1.0, May 2013, Q-Chem Inc. Pittsburgh 
 -------------------------------------------------------
 ---------------------------------------
  Cycle       Energy         DIIS Error
 ---------------------------------------
    1    -286.8364678499      4.07E-05
    2    -286.8365114419      8.50E-06
    3    -286.8365115293      1.08E-05
    4    -286.8365117270      2.21E-06
    5    -286.8365117364      1.56E-06
    6    -286.8365117420      3.70E-07
    7    -286.8365117427      1.55E-07
    8    -286.8365117427      3.20E-08
    9    -286.8365117427      9.03E-09 Convergence criterion met
 ---------------------------------------
 <S^2> = 0.7545
 SCF time:  CPU 23.75 s  wall 18.08 s
 SCF   energy in the final basis set = -286.83651174
 Total energy in the final basis set = -286.83651174
 
 --------------------------------------------------------------
 
                    Orbital Energies (a.u.)
 --------------------------------------------------------------
 
 Alpha MOs
 -- Occupied --
-14.317 -10.220 -10.220 -10.215 -10.212 -10.211 -10.194  -0.964
 -0.858  -0.746  -0.657  -0.608  -0.574  -0.540  -0.512  -0.463
 -0.429  -0.412  -0.388  -0.366  -0.328  -0.315  -0.266  -0.256
 -0.174
 -- Virtual --
 -0.002   0.090   0.109   0.136   0.145   0.152   0.156   0.167
  0.182   0.200   0.214   0.244   0.277   0.326   0.369   0.379
  0.485   0.517   0.527   0.550   0.557   0.573   0.587   0.601
  0.617   0.620   0.669   0.677   0.704   0.754   0.776   0.791
  0.816   0.831   0.837   0.841   0.853   0.881   0.905   0.934
  0.946   1.018   1.071   1.100   1.155   1.244   1.280   1.366
  1.439   1.454   1.504   1.544   1.613   1.652   1.671   1.707
  1.796   1.810   1.872   1.886   1.914   1.937   2.003   2.021
  2.059   2.152   2.181   2.228   2.257   2.291   2.368   2.420
  2.474   2.484   2.510   2.523   2.580   2.616   2.619   2.683
  2.735   2.790   2.832   2.929   2.959   3.951   4.131   4.240
  4.356   4.474   4.518   4.656
 
 Beta MOs
 -- Occupied --
-14.317 -10.221 -10.220 -10.215 -10.211 -10.210 -10.181  -0.961
 -0.854  -0.736  -0.646  -0.602  -0.571  -0.538  -0.501  -0.461
 -0.425  -0.406  -0.384  -0.362  -0.317  -0.303  -0.263  -0.254
 -- Virtual --
 -0.036   0.004   0.092   0.114   0.139   0.149   0.155   0.158
  0.171   0.186   0.202   0.219   0.247   0.284   0.329   0.374
  0.387   0.487   0.524   0.542   0.554   0.562   0.576   0.592
  0.613   0.620   0.643   0.671   0.688   0.707   0.758   0.779
  0.795   0.817   0.836   0.839   0.843   0.857   0.884   0.908
  0.942   0.948   1.024   1.080   1.113   1.156   1.251   1.285
  1.369   1.445   1.459   1.511   1.548   1.616   1.657   1.681
  1.713   1.799   1.824   1.881   1.893   1.929   1.942   2.009
  2.030   2.074   2.160   2.195   2.234   2.268   2.298   2.382
  2.432   2.482   2.489   2.519   2.528   2.585   2.620   2.625
  2.687   2.741   2.794   2.840   2.931   2.960   3.953   4.137
  4.254   4.365   4.479   4.522   4.660
 --------------------------------------------------------------
 
          Ground-State Mulliken Net Atomic Charges

     Atom                 Charge (a.u.)    Spin (a.u.)
  --------------------------------------------------------
      1 C                     0.096304       0.007077
      2 C                    -0.192175       0.037626
      3 C                    -0.106938       0.107810
      4 C                    -0.071187       0.952613
      5 C                    -0.100014      -0.043946
      6 N                    -0.337290       0.012684
      7 H                     0.143712       0.003972
      8 H                     0.148613       0.001465
      9 H                     0.149519       0.008407
     10 H                     0.139625      -0.039821
     11 H                     0.141879       0.005597
     12 C                    -0.161600      -0.053923
     13 H                     0.149551       0.000439
  --------------------------------------------------------
  Sum of atomic charges =     0.000000
  Sum of spin   charges =     1.000000

 -----------------------------------------------------------------
                    Cartesian Multipole Moments
 -----------------------------------------------------------------
    Charge (ESU x 10^10)
                 0.0000
    Dipole Moment (Debye)
         X      -0.6514      Y      -2.7519      Z       0.1080
       Tot       2.8300
    Quadrupole Moments (Debye-Ang)
        XX     -36.6193     XY      -2.1086     YY     -42.1675
        XZ       1.8418     YZ       4.7719     ZZ     -41.3087
    Octopole Moments (Debye-Ang^2)
       XXX      11.0710    XXY       3.7992    XYY      -1.7301
       YYY      -6.0586    XXZ      59.4428    XYZ       4.7374
       YYZ      69.0707    XZZ      -6.5596    YZZ      -8.6971
       ZZZ     195.0706
    Hexadecapole Moments (Debye-Ang^3)
      XXXX    -250.8044   XXXY      -9.9653   XXYY     -84.5760
      XYYY     -15.9091   YYYY    -255.8825   XXXZ       3.3381
      XXYZ       1.8796   XYYZ      13.9561   YYYZ      29.1783
      XXZZ    -164.4410   XYZZ     -11.2384   YYZZ    -178.3800
      XZZZ      43.9338   YZZZ      33.1566   ZZZZ    -772.4512
 -----------------------------------------------------------------
 Calculating analytic gradient of the SCF energy
 Gradient of SCF Energy
            1           2           3           4           5           6
    1  -0.0000000  -0.0001097   0.0002415   0.0000183   0.0000248  -0.0000005
    2  -0.0000121   0.0000326  -0.0001901  -0.0001038   0.0001779  -0.0000568
    3   0.0000635  -0.0000220  -0.0000307   0.0000596  -0.0000400   0.0000277
            7           8           9          10          11          12
    1   0.0000192   0.0000072  -0.0000956  -0.0000056   0.0000319  -0.0001367
    2  -0.0000327   0.0000065   0.0000557  -0.0000028   0.0000189   0.0001230
    3  -0.0000174   0.0000072   0.0000048  -0.0000088  -0.0000109   0.0000190
           13
    1   0.0000051
    2  -0.0000161
    3  -0.0000519
 Max gradient component =       2.415E-04
 RMS gradient           =       7.487E-05
 Gradient time:  CPU 7.54 s  wall 2.14 s
 Geometry Optimization Parameters
   NAtoms,    NIC,     NZ,  NCons,   NDum,   NFix, NCnnct, MaxDiis
       13     131       0       0       0       0       0       0

 Cartesian Hessian Update
 Hessian Updated using BFGS Update


** GEOMETRY OPTIMIZATION IN DELOCALIZED INTERNAL COORDINATES **
   Searching for a Minimum

   Optimization Cycle:  21

                       Coordinates (Angstroms)
     ATOM                X               Y               Z
      1  C         1.4123219293    0.3324063148   -1.7645252730
      2  C         0.7546041460   -0.9924022440   -1.5660751278
      3  C        -0.5679133799   -0.8883999171   -2.2521792075
      4  C        -1.1207972733    0.3898492858   -0.6491044807
      5  C        -0.7425207643    0.6717567191   -2.1088033174
      6  N         0.6150452807    1.2719972709   -2.1123219303
      7  H         2.4734294924    0.5158832407   -1.5989215278
      8  H         1.3096826931   -1.9254291447   -1.5516123809
      9  H        -0.9959753706   -1.5693956863   -2.9821440719
     10  H        -2.0660808244    0.6493747880   -0.1864950824
     11  H        -1.4414460145    1.2137873446   -2.7454757164
     12  C        -0.5634672479   -0.9735530457   -0.7180383283
     13  H        -0.7802106082   -1.8214628105   -0.0766023383
   Point Group: c1    Number of degrees of freedom:    33


   Energy is   -286.836511743

 Hessian Updated using BFGS Update

 33 Hessian modes will be used to form the next step
  Hessian Eigenvalues:
     0.002029    0.008274    0.012327    0.013675    0.019578    0.023765
     0.027187    0.028769    0.032489    0.043283    0.049469    0.053609
     0.073045    0.098487    0.127298    0.154265    0.158995    0.164953
     0.175832    0.193270    0.237632    0.240022    0.265749    0.292929
     0.309795    0.317184    0.339421    0.341207    0.341898    0.372855
     0.387641    0.513998    0.858639

 Minimum Search - Taking Simple RFO Step
 Searching for Lamda that Minimizes Along All modes
 Value Taken    Lamda =   0.00000000
 Step Taken.  Stepsize is  0.005941

                             Maximum     Tolerance    Cnvgd?
         Gradient           0.000089      0.000600     YES
         Displacement       0.003605      0.002400      NO
         Energy change     -0.000001      0.000002     YES


                       Distance Matrix (Angstroms)
             C (  1)   C (  2)   C (  3)   C (  4)   C (  5)   N (  6)
   C (  2)  1.492345
   C (  3)  2.376869  1.493522
   C (  4)  2.768421  2.503714  2.123547
   C (  5)  2.208401  2.303337  1.576430  1.534042
   N (  6)  1.280408  2.333531  2.467036  2.435639  1.484347
   H (  7)  1.089513  2.286999  3.412993  3.719745  3.259848  2.070961
   H (  8)  2.270173  1.085753  2.256455  3.475956  3.356691  3.319707
   H (  9)  3.301415  2.324371  1.086205  3.049147  2.418621  3.380162
   H ( 10)  3.832745  3.543295  2.979313  1.083938  2.334005  3.359301
   H ( 11)  3.143738  3.328798  2.329290  2.275184  1.089791  2.152540
   C ( 12)  2.589287  1.567429  1.536509  1.474529  2.161789  2.894031
   H ( 13)  3.506485  2.293802  2.376723  2.309472  3.216738  3.957321
             H (  7)   H (  8)   H (  9)   H ( 10)   H ( 11)   C ( 12)
   H (  8)  2.704912
   H (  9)  4.277670  2.736648
   H ( 10)  4.756041  4.459702  3.726087
   H ( 11)  4.138588  4.341509  2.828527  2.693903
   C ( 12)  3.495299  2.260443  2.380812  2.274704  3.108988
   H ( 13)  4.285652  2.560101  2.924426  2.787575  4.095468  1.085066

 
 Final energy is   -286.836511742748     


 ******************************
 **  OPTIMIZATION CONVERGED  **
 ******************************

                       Coordinates (Angstroms)
     ATOM                X               Y               Z
      1  C         1.4123219293    0.3324063148   -1.7645252730
      2  C         0.7546041460   -0.9924022440   -1.5660751278
      3  C        -0.5679133799   -0.8883999171   -2.2521792075
      4  C        -1.1207972733    0.3898492858   -0.6491044807
      5  C        -0.7425207643    0.6717567191   -2.1088033174
      6  N         0.6150452807    1.2719972709   -2.1123219303
      7  H         2.4734294924    0.5158832407   -1.5989215278
      8  H         1.3096826931   -1.9254291447   -1.5516123809
      9  H        -0.9959753706   -1.5693956863   -2.9821440719
     10  H        -2.0660808244    0.6493747880   -0.1864950824
     11  H        -1.4414460145    1.2137873446   -2.7454757164
     12  C        -0.5634672479   -0.9735530457   -0.7180383283
     13  H        -0.7802106082   -1.8214628105   -0.0766023383

Z-matrix Print:
$molecule
0 2
N 
C  1 1.280408
H  2 1.089513 1 121.611020
C  1 1.484347 2 105.789467 3 -174.602445 0
H  4 1.089791 1 112.584692 2 -157.110931 0
C  2 1.492345 1 114.401695 3 177.969954 0
H  6 1.085753 2 122.637233 1 162.096580 0
C  6 1.493522 2 105.507163 1 17.323042 0
H  8 1.086205 6 127.881618 2 128.815117 0
C  4 1.534042 1 107.583422 2 69.451516 0
H  10 1.083938 4 125.250244 1 132.649749 0
C  10 1.474529 4 91.847009 1 -91.104668 0
H  12 1.085066 10 128.272877 4 -159.588738 0
$end

 
 --------------------------------------------------------------
 
                    Orbital Energies (a.u.)
 --------------------------------------------------------------
 
 Alpha MOs
 -- Occupied --
-14.317 -10.220 -10.220 -10.215 -10.212 -10.211 -10.194  -0.964
 -0.858  -0.746  -0.657  -0.608  -0.574  -0.540  -0.512  -0.463
 -0.429  -0.412  -0.388  -0.366  -0.328  -0.315  -0.266  -0.256
 -0.174
 -- Virtual --
 -0.002   0.090   0.109   0.136   0.145   0.152   0.156   0.167
  0.182   0.200   0.214   0.244   0.277   0.326   0.369   0.379
  0.485   0.517   0.527   0.550   0.557   0.573   0.587   0.601
  0.617   0.620   0.669   0.677   0.704   0.754   0.776   0.791
  0.816   0.831   0.837   0.841   0.853   0.881   0.905   0.934
  0.946   1.018   1.071   1.100   1.155   1.244   1.280   1.366
  1.439   1.454   1.504   1.544   1.613   1.652   1.671   1.707
  1.796   1.810   1.872   1.886   1.914   1.937   2.003   2.021
  2.059   2.152   2.181   2.228   2.257   2.291   2.368   2.420
  2.474   2.484   2.510   2.523   2.580   2.616   2.619   2.683
  2.735   2.790   2.832   2.929   2.959   3.951   4.131   4.240
  4.356   4.474   4.518   4.656
 
 Beta MOs
 -- Occupied --
-14.317 -10.221 -10.220 -10.215 -10.211 -10.210 -10.181  -0.961
 -0.854  -0.736  -0.646  -0.602  -0.571  -0.538  -0.501  -0.461
 -0.425  -0.406  -0.384  -0.362  -0.317  -0.303  -0.263  -0.254
 -- Virtual --
 -0.036   0.004   0.092   0.114   0.139   0.149   0.155   0.158
  0.171   0.186   0.202   0.219   0.247   0.284   0.329   0.374
  0.387   0.487   0.524   0.542   0.554   0.562   0.576   0.592
  0.613   0.620   0.643   0.671   0.688   0.707   0.758   0.779
  0.795   0.817   0.836   0.839   0.843   0.857   0.884   0.908
  0.942   0.948   1.024   1.080   1.113   1.156   1.251   1.285
  1.369   1.445   1.459   1.511   1.548   1.616   1.657   1.681
  1.713   1.799   1.824   1.881   1.893   1.929   1.942   2.009
  2.030   2.074   2.160   2.195   2.234   2.268   2.298   2.382
  2.432   2.482   2.489   2.519   2.528   2.585   2.620   2.625
  2.687   2.741   2.794   2.840   2.931   2.960   3.953   4.137
  4.254   4.365   4.479   4.522   4.660
 --------------------------------------------------------------
 
          Ground-State Mulliken Net Atomic Charges

     Atom                 Charge (a.u.)    Spin (a.u.)
  --------------------------------------------------------
      1 C                     0.096304       0.007077
      2 C                    -0.192175       0.037626
      3 C                    -0.106938       0.107810
      4 C                    -0.071187       0.952613
      5 C                    -0.100014      -0.043946
      6 N                    -0.337290       0.012684
      7 H                     0.143712       0.003972
      8 H                     0.148613       0.001465
      9 H                     0.149519       0.008407
     10 H                     0.139625      -0.039821
     11 H                     0.141879       0.005597
     12 C                    -0.161600      -0.053923
     13 H                     0.149551       0.000439
  --------------------------------------------------------
  Sum of atomic charges =     0.000000
  Sum of spin   charges =     1.000000

 -----------------------------------------------------------------
                    Cartesian Multipole Moments
 -----------------------------------------------------------------
    Charge (ESU x 10^10)
                 0.0000
    Dipole Moment (Debye)
         X      -0.6514      Y      -2.7519      Z       0.1080
       Tot       2.8300
    Quadrupole Moments (Debye-Ang)
        XX     -36.6193     XY      -2.1086     YY     -42.1675
        XZ       1.8418     YZ       4.7719     ZZ     -41.3087
    Octopole Moments (Debye-Ang^2)
       XXX      11.0710    XXY       3.7992    XYY      -1.7301
       YYY      -6.0586    XXZ      59.4428    XYZ       4.7374
       YYZ      69.0707    XZZ      -6.5596    YZZ      -8.6971
       ZZZ     195.0706
    Hexadecapole Moments (Debye-Ang^3)
      XXXX    -250.8044   XXXY      -9.9653   XXYY     -84.5760
      XYYY     -15.9091   YYYY    -255.8825   XXXZ       3.3381
      XXYZ       1.8796   XYYZ      13.9561   YYYZ      29.1783
      XXZZ    -164.4410   XYZZ     -11.2384   YYZZ    -178.3800
      XZZZ      43.9338   YZZZ      33.1566   ZZZZ    -772.4512
 -----------------------------------------------------------------
Archival summary:
1\1\c8-66\OPT\ProcedureUnspecified\6-31G*\166(2)\hpark21\TueMar115:52:492022TueMar115:52:492022\0\\#,OPT,ProcedureUnspecified,6-31G*,\\0,2\N\C,1,1.28041\H,2,1.08951,1,121.611\C,1,1.48435,2,105.789,3,-174.602,0\H,4,1.08979,1,112.585,2,-157.111,0\C,2,1.49234,1,114.402,3,177.97,0\H,6,1.08575,2,122.637,1,162.097,0\C,6,1.49352,2,105.507,1,17.323,0\H,8,1.0862,6,127.882,2,128.815,0\C,4,1.53404,1,107.583,2,69.4515,0\H,10,1.08394,4,125.25,1,132.65,0\C,10,1.47453,4,91.847,1,-91.1047,0\H,12,1.08507,10,128.273,4,-159.589,0\\\@

 Total job time:  632.29s(wall), 834.45s(cpu) 
 Tue Mar  1 15:52:49 2022

        *************************************************************
        *                                                           *
        *  Thank you very much for using Q-Chem.  Have a nice day.  *
        *                                                           *
        *************************************************************


