13   
From optimize.out: Frame 1 / 21, Energy=    -286.7149982513
C        0.0985050000   -0.0527480000   -0.0000000000
C       -0.2295120000    0.3116320000   -0.0000000000
C       -0.1369480000    0.0301970000   -0.0000000000
C       -0.1522050000    0.8068210000   -0.0000000000
C       -0.0498030000    0.0027140000   -0.0000000000
N       -0.3443160000    0.0813520000   -0.0000000000
H        0.1579760000    0.0074750000   -0.0000000000
H        0.1423340000   -0.0109460000   -0.0000000000
H        0.1573970000    0.0327010000   -0.0000000000
H        0.1541620000   -0.0453470000   -0.0000000000
H        0.1584090000   -0.0002780000   -0.0000000000
C       -0.1265030000   -0.1634950000   -0.0000000000
H        0.1705040000   -0.0000780000   -0.0000000000
13   
From optimize.out: Frame 2 / 21, Energy=    -286.7589547905
C        0.1040130000   -0.0409210000   -0.0000000000
C       -0.2229630000    0.1977430000   -0.0000000000
C       -0.1325840000    0.0446740000   -0.0000000000
C       -0.1403530000    0.8477550000   -0.0000000000
C       -0.0560490000   -0.0044820000   -0.0000000000
N       -0.3505070000    0.0675240000   -0.0000000000
H        0.1523150000    0.0062060000   -0.0000000000
H        0.1481820000   -0.0066580000   -0.0000000000
H        0.1546970000    0.0306660000   -0.0000000000
H        0.1518990000   -0.0424270000   -0.0000000000
H        0.1550560000    0.0013530000   -0.0000000000
C       -0.1335120000   -0.0995110000   -0.0000000000
H        0.1698060000   -0.0019210000   -0.0000000000
13   
From optimize.out: Frame 3 / 21, Energy=    -286.7897989398
C        0.1066550000   -0.0287350000   -0.0000000000
C       -0.2143690000    0.1164220000   -0.0000000000
C       -0.1259330000    0.0553410000   -0.0000000000
C       -0.1259150000    0.8866200000   -0.0000000000
C       -0.0636320000   -0.0105670000   -0.0000000000
N       -0.3521120000    0.0480690000   -0.0000000000
H        0.1482220000    0.0050630000   -0.0000000000
H        0.1502910000   -0.0033380000   -0.0000000000
H        0.1518720000    0.0284310000   -0.0000000000
H        0.1487760000   -0.0397480000   -0.0000000000
H        0.1512150000    0.0022290000   -0.0000000000
C       -0.1417870000   -0.0568610000   -0.0000000000
H        0.1667170000   -0.0029260000   -0.0000000000
13   
From optimize.out: Frame 4 / 21, Energy=    -286.8087654079
C        0.1052430000   -0.0195650000   -0.0000000000
C       -0.2060330000    0.0746160000   -0.0000000000
C       -0.1194330000    0.0655340000   -0.0000000000
C       -0.1106000000    0.9155700000   -0.0000000000
C       -0.0727170000   -0.0168470000   -0.0000000000
N       -0.3504200000    0.0322790000   -0.0000000000
H        0.1457750000    0.0043060000   -0.0000000000
H        0.1511330000   -0.0013880000   -0.0000000000
H        0.1500460000    0.0250170000   -0.0000000000
H        0.1454820000   -0.0378400000   -0.0000000000
H        0.1479060000    0.0026100000   -0.0000000000
C       -0.1487250000   -0.0415100000   -0.0000000000
H        0.1623420000   -0.0027820000   -0.0000000000
13   
From optimize.out: Frame 5 / 21, Energy=    -286.8206569689
C        0.1030820000   -0.0128380000   -0.0000000000
C       -0.2004410000    0.0546780000   -0.0000000000
C       -0.1145730000    0.0755780000   -0.0000000000
C       -0.0970170000    0.9345160000   -0.0000000000
C       -0.0814830000   -0.0232760000   -0.0000000000
N       -0.3475980000    0.0227350000   -0.0000000000
H        0.1447430000    0.0038810000   -0.0000000000
H        0.1507380000   -0.0002880000   -0.0000000000
H        0.1492010000    0.0213560000   -0.0000000000
H        0.1428520000   -0.0365460000   -0.0000000000
H        0.1455370000    0.0028360000   -0.0000000000
C       -0.1529320000   -0.0405390000   -0.0000000000
H        0.1578920000   -0.0020910000   -0.0000000000
13   
From optimize.out: Frame 6 / 21, Energy=    -286.8283037068
C        0.1014200000   -0.0076310000   -0.0000000000
C       -0.1973420000    0.0449310000   -0.0000000000
C       -0.1119910000    0.0847040000   -0.0000000000
C       -0.0868370000    0.9452750000   -0.0000000000
C       -0.0879300000   -0.0290800000   -0.0000000000
N       -0.3445250000    0.0175400000   -0.0000000000
H        0.1442570000    0.0036510000   -0.0000000000
H        0.1497930000    0.0003380000   -0.0000000000
H        0.1488710000    0.0181250000   -0.0000000000
H        0.1411870000   -0.0356850000   -0.0000000000
H        0.1438900000    0.0031350000   -0.0000000000
C       -0.1550290000   -0.0439340000   -0.0000000000
H        0.1542350000   -0.0013680000   -0.0000000000
13   
From optimize.out: Frame 7 / 21, Energy=    -286.8329865389
C        0.0997740000   -0.0031560000   -0.0000000000
C       -0.1953120000    0.0387590000   -0.0000000000
C       -0.1110380000    0.0928860000   -0.0000000000
C       -0.0800960000    0.9508560000   -0.0000000000
C       -0.0921400000   -0.0337980000   -0.0000000000
N       -0.3414690000    0.0143280000   -0.0000000000
H        0.1439960000    0.0035560000   -0.0000000000
H        0.1489220000    0.0007570000   -0.0000000000
H        0.1487820000    0.0153010000   -0.0000000000
H        0.1401960000   -0.0352670000   -0.0000000000
H        0.1428210000    0.0034660000   -0.0000000000
C       -0.1560820000   -0.0469060000   -0.0000000000
H        0.1516450000   -0.0007800000   -0.0000000000
13   
From optimize.out: Frame 8 / 21, Energy=    -286.8354742668
C        0.0978150000    0.0007970000   -0.0000000000
C       -0.1935140000    0.0344140000   -0.0000000000
C       -0.1105190000    0.1003770000   -0.0000000000
C       -0.0754070000    0.9528770000   -0.0000000000
C       -0.0952800000   -0.0375320000   -0.0000000000
N       -0.3383340000    0.0124800000   -0.0000000000
H        0.1438410000    0.0035780000   -0.0000000000
H        0.1485000000    0.0010450000   -0.0000000000
H        0.1488870000    0.0126550000   -0.0000000000
H        0.1394250000   -0.0353660000   -0.0000000000
H        0.1421690000    0.0038410000   -0.0000000000
C       -0.1577050000   -0.0488640000   -0.0000000000
H        0.1501210000   -0.0003020000   -0.0000000000
13   
From optimize.out: Frame 9 / 21, Energy=    -286.8362643901
C        0.0966150000    0.0037350000   -0.0000000000
C       -0.1916970000    0.0313530000   -0.0000000000
C       -0.1100530000    0.1068940000   -0.0000000000
C       -0.0723560000    0.9522030000   -0.0000000000
C       -0.0976290000   -0.0400560000   -0.0000000000
N       -0.3366740000    0.0118480000   -0.0000000000
H        0.1438950000    0.0037340000   -0.0000000000
H        0.1485750000    0.0012060000   -0.0000000000
H        0.1491680000    0.0104230000   -0.0000000000
H        0.1388150000   -0.0361300000   -0.0000000000
H        0.1420850000    0.0041700000   -0.0000000000
C       -0.1602860000   -0.0494150000   -0.0000000000
H        0.1495430000    0.0000360000   -0.0000000000
13   
From optimize.out: Frame 11 / 21, Energy=    -286.8363930197
C        0.0970470000    0.0050230000   -0.0000000000
C       -0.1925720000    0.0326320000   -0.0000000000
C       -0.1078180000    0.1085370000   -0.0000000000
C       -0.0718020000    0.9489160000   -0.0000000000
C       -0.0993620000   -0.0408180000   -0.0000000000
N       -0.3364280000    0.0122860000   -0.0000000000
H        0.1440360000    0.0039630000   -0.0000000000
H        0.1483810000    0.0013860000   -0.0000000000
H        0.1497640000    0.0090780000   -0.0000000000
H        0.1381370000   -0.0374770000   -0.0000000000
H        0.1423240000    0.0047670000   -0.0000000000
C       -0.1619260000   -0.0483830000   -0.0000000000
H        0.1502190000    0.0000890000   -0.0000000000
13   
From optimize.out: Frame 13 / 21, Energy=    -286.8364575590
C        0.0961850000    0.0042860000   -0.0000000000
C       -0.1919240000    0.0323450000   -0.0000000000
C       -0.1089220000    0.1079290000   -0.0000000000
C       -0.0725770000    0.9502200000   -0.0000000000
C       -0.0980460000   -0.0405120000   -0.0000000000
N       -0.3370160000    0.0123120000   -0.0000000000
H        0.1439870000    0.0039820000   -0.0000000000
H        0.1486210000    0.0013630000   -0.0000000000
H        0.1495770000    0.0094220000   -0.0000000000
H        0.1389850000   -0.0375940000   -0.0000000000
H        0.1422430000    0.0045960000   -0.0000000000
C       -0.1610530000   -0.0483660000   -0.0000000000
H        0.1499410000    0.0000180000   -0.0000000000
13   
From optimize.out: Frame 15 / 21, Energy=    -286.8364901340
C        0.0964660000    0.0048480000   -0.0000000000
C       -0.1918300000    0.0329840000   -0.0000000000
C       -0.1077170000    0.1081380000   -0.0000000000
C       -0.0719910000    0.9499930000   -0.0000000000
C       -0.0993010000   -0.0409860000   -0.0000000000
N       -0.3366620000    0.0123390000   -0.0000000000
H        0.1438960000    0.0039180000   -0.0000000000
H        0.1487440000    0.0013750000   -0.0000000000
H        0.1497520000    0.0090610000   -0.0000000000
H        0.1387090000   -0.0378470000   -0.0000000000
H        0.1421380000    0.0047600000   -0.0000000000
C       -0.1621570000   -0.0486620000   -0.0000000000
H        0.1499510000    0.0000770000   -0.0000000000
13   
From optimize.out: Frame 16 / 21, Energy=    -286.8364935466
C        0.0964840000    0.0049510000   -0.0000000000
C       -0.1918690000    0.0333780000   -0.0000000000
C       -0.1078330000    0.1080430000   -0.0000000000
C       -0.0718750000    0.9501620000   -0.0000000000
C       -0.0991360000   -0.0411210000   -0.0000000000
N       -0.3368930000    0.0123800000   -0.0000000000
H        0.1439530000    0.0039230000   -0.0000000000
H        0.1487650000    0.0013650000   -0.0000000000
H        0.1497030000    0.0090560000   -0.0000000000
H        0.1388480000   -0.0379540000   -0.0000000000
H        0.1421610000    0.0047890000   -0.0000000000
C       -0.1621970000   -0.0490630000   -0.0000000000
H        0.1498900000    0.0000920000   -0.0000000000
13   
From optimize.out: Frame 17 / 21, Energy=    -286.8364984739
C        0.0964040000    0.0052130000   -0.0000000000
C       -0.1918930000    0.0339320000   -0.0000000000
C       -0.1076940000    0.1079930000   -0.0000000000
C       -0.0718270000    0.9505150000   -0.0000000000
C       -0.0992320000   -0.0414650000   -0.0000000000
N       -0.3369280000    0.0123950000   -0.0000000000
H        0.1439280000    0.0039230000   -0.0000000000
H        0.1487830000    0.0013830000   -0.0000000000
H        0.1497020000    0.0089390000   -0.0000000000
H        0.1389530000   -0.0382030000   -0.0000000000
H        0.1421090000    0.0048950000   -0.0000000000
C       -0.1621350000   -0.0496500000   -0.0000000000
H        0.1498290000    0.0001290000   -0.0000000000
13   
From optimize.out: Frame 18 / 21, Energy=    -286.8365050526
C        0.0962700000    0.0059620000   -0.0000000000
C       -0.1919230000    0.0353540000   -0.0000000000
C       -0.1073220000    0.1081350000   -0.0000000000
C       -0.0715390000    0.9511340000   -0.0000000000
C       -0.0996100000   -0.0424020000   -0.0000000000
N       -0.3370130000    0.0124890000   -0.0000000000
H        0.1438730000    0.0039450000   -0.0000000000
H        0.1487990000    0.0014270000   -0.0000000000
H        0.1497090000    0.0086030000   -0.0000000000
H        0.1392020000   -0.0388670000   -0.0000000000
H        0.1420070000    0.0051780000   -0.0000000000
C       -0.1621600000   -0.0511980000   -0.0000000000
H        0.1497080000    0.0002400000   -0.0000000000
13   
From optimize.out: Frame 19 / 21, Energy=    -286.8365075338
C        0.0962740000    0.0062830000   -0.0000000000
C       -0.1919830000    0.0360430000   -0.0000000000
C       -0.1071680000    0.1080680000   -0.0000000000
C       -0.0714750000    0.9515640000   -0.0000000000
C       -0.0997560000   -0.0428580000   -0.0000000000
N       -0.3370670000    0.0125280000   -0.0000000000
H        0.1438180000    0.0039430000   -0.0000000000
H        0.1487570000    0.0014450000   -0.0000000000
H        0.1496710000    0.0085160000   -0.0000000000
H        0.1393050000   -0.0391520000   -0.0000000000
H        0.1419630000    0.0053090000   -0.0000000000
C       -0.1619950000   -0.0519850000   -0.0000000000
H        0.1496550000    0.0002970000   -0.0000000000
13   
From optimize.out: Frame 20 / 21, Energy=    -286.8365105536
C        0.0962370000    0.0068540000   -0.0000000000
C       -0.1921020000    0.0371800000   -0.0000000000
C       -0.1069260000    0.1078940000   -0.0000000000
C       -0.0712770000    0.9522560000   -0.0000000000
C       -0.1000260000   -0.0435960000   -0.0000000000
N       -0.3371180000    0.0126190000   -0.0000000000
H        0.1437220000    0.0039610000   -0.0000000000
H        0.1486790000    0.0014660000   -0.0000000000
H        0.1495870000    0.0084170000   -0.0000000000
H        0.1395190000   -0.0396160000   -0.0000000000
H        0.1418680000    0.0055160000   -0.0000000000
C       -0.1617450000   -0.0533410000   -0.0000000000
H        0.1495810000    0.0003900000   -0.0000000000
