13   
Frame   0 IRC: Energy =  -286.7950241677 ; +0.0000 kcal/mol
C       -0.1401800000    0.0460760000    0.0000000000
C        0.0119770000   -0.2160580000    0.0000000000
C       -0.1835790000    1.0426890000    0.0000000000
C       -0.1792570000   -0.0045100000   -0.0000000000
C       -0.0808320000    0.0680130000   -0.0000000000
N       -0.0828790000   -0.0103490000   -0.0000000000
H        0.1201990000    0.0031740000    0.0000000000
H        0.1415540000    0.0824270000    0.0000000000
H        0.1527040000    0.0110540000    0.0000000000
H        0.1426970000   -0.0011760000   -0.0000000000
H        0.1326720000   -0.0160890000    0.0000000000
C       -0.1778290000   -0.0040320000   -0.0000000000
H        0.1427530000   -0.0012190000   -0.0000000000
13   
Frame   1 IRC: Energy =  -286.7950238788 ; +0.0002 kcal/mol
C       -0.1401750000    0.0460670000    0.0000000000
C        0.0119880000   -0.2160710000    0.0000000000
C       -0.1835760000    1.0426790000    0.0000000000
C       -0.1791470000   -0.0044790000   -0.0000000000
C       -0.0808680000    0.0680200000   -0.0000000000
N       -0.0828820000   -0.0103370000   -0.0000000000
H        0.1201980000    0.0031750000    0.0000000000
H        0.1415530000    0.0824290000    0.0000000000
H        0.1527050000    0.0110650000    0.0000000000
H        0.1426790000   -0.0011780000   -0.0000000000
H        0.1326440000   -0.0160960000    0.0000000000
C       -0.1778730000   -0.0040590000   -0.0000000000
H        0.1427550000   -0.0012150000   -0.0000000000
13   
Frame   2 IRC: Energy =  -286.7950226123 ; +0.0010 kcal/mol
C       -0.1405150000    0.0461330000    0.0000000000
C        0.0122030000   -0.2159750000    0.0000000000
C       -0.1833980000    1.0424580000    0.0000000000
C       -0.1790390000   -0.0044020000   -0.0000000000
C       -0.0806940000    0.0682100000   -0.0000000000
N       -0.0828540000   -0.0103380000   -0.0000000000
H        0.1201930000    0.0031730000    0.0000000000
H        0.1415380000    0.0823990000    0.0000000000
H        0.1527220000    0.0110040000    0.0000000000
H        0.1426590000   -0.0011830000   -0.0000000000
H        0.1325990000   -0.0161500000    0.0000000000
C       -0.1781620000   -0.0041210000   -0.0000000000
H        0.1427490000   -0.0012090000   -0.0000000000
13   
Frame   3 IRC: Energy =  -286.7950193834 ; +0.0030 kcal/mol
C       -0.1410310000    0.0462570000    0.0000000000
C        0.0125050000   -0.2157820000    0.0000000000
C       -0.1831390000    1.0420630000    0.0000000000
C       -0.1792190000   -0.0043780000   -0.0000000000
C       -0.0803650000    0.0685300000   -0.0000000000
N       -0.0827510000   -0.0103440000   -0.0000000000
H        0.1201860000    0.0031690000    0.0000000000
H        0.1415150000    0.0823460000    0.0000000000
H        0.1527380000    0.0108930000    0.0000000000
H        0.1426510000   -0.0011800000   -0.0000000000
H        0.1325870000   -0.0162290000    0.0000000000
C       -0.1784250000   -0.0041350000   -0.0000000000
H        0.1427480000   -0.0012100000   -0.0000000000
13   
Frame   4 IRC: Energy =  -286.7950142311 ; +0.0062 kcal/mol
C       -0.1410730000    0.0462980000    0.0000000000
C        0.0125600000   -0.2158770000    0.0000000000
C       -0.1832830000    1.0423810000    0.0000000000
C       -0.1799280000   -0.0045730000   -0.0000000000
C       -0.0797300000    0.0684390000   -0.0000000000
N       -0.0827150000   -0.0104330000   -0.0000000000
H        0.1201720000    0.0031500000    0.0000000000
H        0.1415220000    0.0823600000    0.0000000000
H        0.1527410000    0.0108740000    0.0000000000
H        0.1426470000   -0.0011520000   -0.0000000000
H        0.1326420000   -0.0161780000    0.0000000000
C       -0.1783370000   -0.0040610000   -0.0000000000
H        0.1427810000   -0.0012280000   -0.0000000000
13   
Frame   5 IRC: Energy =  -286.7950047840 ; +0.0122 kcal/mol
C       -0.1396910000    0.0462370000    0.0000000000
C        0.0114430000   -0.2161860000    0.0000000000
C       -0.1837540000    1.0426610000    0.0000000000
C       -0.1773150000   -0.0043990000   -0.0000000000
C       -0.0810720000    0.0682000000   -0.0000000000
N       -0.0822110000   -0.0103610000   -0.0000000000
H        0.1201850000    0.0032080000    0.0000000000
H        0.1415480000    0.0825010000    0.0000000000
H        0.1526800000    0.0109840000    0.0000000000
H        0.1428510000   -0.0011600000   -0.0000000000
H        0.1326480000   -0.0160420000    0.0000000000
C       -0.1800680000   -0.0044350000   -0.0000000000
H        0.1427550000   -0.0012090000   -0.0000000000
13   
Frame   6 IRC: Energy =  -286.7949610853 ; +0.0396 kcal/mol
C       -0.1373570000    0.0457670000    0.0000000000
C        0.0101420000   -0.2177840000    0.0000000000
C       -0.1855550000    1.0466230000    0.0000000000
C       -0.1764150000   -0.0047680000   -0.0000000000
C       -0.0800770000    0.0661910000   -0.0000000000
N       -0.0826860000   -0.0109470000   -0.0000000000
H        0.1201700000    0.0031260000    0.0000000000
H        0.1416730000    0.0828600000    0.0000000000
H        0.1526480000    0.0114780000    0.0000000000
H        0.1430250000   -0.0011420000   -0.0000000000
H        0.1328870000   -0.0154090000    0.0000000000
C       -0.1812730000   -0.0047790000   -0.0000000000
H        0.1428170000   -0.0012170000   -0.0000000000
13   
Frame   7 IRC: Energy =  -286.7948117921 ; +0.1333 kcal/mol
C       -0.1358890000    0.0451960000    0.0000000000
C        0.0089470000   -0.2189430000    0.0000000000
C       -0.1859670000    1.0503730000    0.0000000000
C       -0.1719400000   -0.0036850000   -0.0000000000
C       -0.0813910000    0.0637490000   -0.0000000000
N       -0.0841110000   -0.0116620000   -0.0000000000
H        0.1202890000    0.0029500000    0.0000000000
H        0.1417690000    0.0830500000    0.0000000000
H        0.1526290000    0.0120400000    0.0000000000
H        0.1433120000   -0.0012690000   -0.0000000000
H        0.1334360000   -0.0148170000    0.0000000000
C       -0.1837820000   -0.0058580000   -0.0000000000
H        0.1426980000   -0.0011220000   -0.0000000000
13   
Frame   8 IRC: Energy =  -286.7943573914 ; +0.4184 kcal/mol
C       -0.1381300000    0.0459400000    0.0000000000
C        0.0091380000   -0.2193780000    0.0000000000
C       -0.1818820000    1.0527900000    0.0000000000
C       -0.1635690000    0.0008770000   -0.0000000000
C       -0.0916030000    0.0581370000   -0.0000000000
N       -0.0881490000   -0.0125310000   -0.0000000000
H        0.1207000000    0.0025590000    0.0000000000
H        0.1418370000    0.0827050000    0.0000000000
H        0.1527710000    0.0122480000    0.0000000000
H        0.1434860000   -0.0014410000   -0.0000000000
H        0.1340600000   -0.0141720000    0.0000000000
C       -0.1810640000   -0.0068780000   -0.0000000000
H        0.1424060000   -0.0008550000   -0.0000000000
13   
Frame   9 IRC: Energy =  -286.7936674406 ; +0.8514 kcal/mol
C       -0.1415340000    0.0494710000    0.0000000000
C        0.0107470000   -0.2218140000    0.0000000000
C       -0.1759850000    1.0557860000    0.0000000000
C       -0.1461910000    0.0079550000   -0.0000000000
C       -0.1164310000    0.0483760000   -0.0000000000
N       -0.0939980000   -0.0138860000   -0.0000000000
H        0.1212450000    0.0022790000    0.0000000000
H        0.1419670000    0.0824230000    0.0000000000
H        0.1531260000    0.0118980000    0.0000000000
H        0.1433630000   -0.0013160000   -0.0000000000
H        0.1336820000   -0.0126520000    0.0000000000
C       -0.1718640000   -0.0081150000   -0.0000000000
H        0.1418740000   -0.0004070000   -0.0000000000
13   
Frame  10 IRC: Energy =  -286.7927002126 ; +1.4583 kcal/mol
C       -0.1488690000    0.0549400000    0.0000000000
C        0.0188450000   -0.2250350000    0.0000000000
C       -0.1755760000    1.0591870000    0.0000000000
C       -0.1211790000    0.0144250000   -0.0000000000
C       -0.1476190000    0.0380180000   -0.0000000000
N       -0.1020840000   -0.0159830000   -0.0000000000
H        0.1218900000    0.0020010000    0.0000000000
H        0.1421870000    0.0821540000    0.0000000000
H        0.1535750000    0.0109770000    0.0000000000
H        0.1427050000   -0.0007560000   -0.0000000000
H        0.1331050000   -0.0105130000    0.0000000000
C       -0.1585340000   -0.0094910000   -0.0000000000
H        0.1415530000    0.0000760000   -0.0000000000
13   
Frame  11 IRC: Energy =  -286.7916991109 ; +2.0865 kcal/mol
C       -0.1519520000    0.0608240000    0.0000000000
C        0.0277210000   -0.2290600000    0.0000000000
C       -0.1828940000    1.0645940000    0.0000000000
C       -0.0949980000    0.0181550000   -0.0000000000
C       -0.1623970000    0.0272960000   -0.0000000000
N       -0.1125140000   -0.0184050000   -0.0000000000
H        0.1224400000    0.0018890000    0.0000000000
H        0.1425450000    0.0821990000    0.0000000000
H        0.1541330000    0.0095200000    0.0000000000
H        0.1415690000    0.0002410000   -0.0000000000
H        0.1330690000   -0.0077370000    0.0000000000
C       -0.1575760000   -0.0100210000   -0.0000000000
H        0.1408540000    0.0005040000   -0.0000000000
13   
Frame  12 IRC: Energy =  -286.7905923720 ; +2.7810 kcal/mol
C       -0.1538770000    0.0652750000    0.0000000000
C        0.0361650000   -0.2291470000    0.0000000000
C       -0.1942150000    1.0635840000    0.0000000000
C       -0.0833320000    0.0198970000   -0.0000000000
C       -0.1519670000    0.0189420000   -0.0000000000
N       -0.1238220000   -0.0189370000   -0.0000000000
H        0.1229510000    0.0021370000    0.0000000000
H        0.1427630000    0.0819600000    0.0000000000
H        0.1541730000    0.0077300000    0.0000000000
H        0.1405970000    0.0015860000   -0.0000000000
H        0.1349000000   -0.0052740000    0.0000000000
C       -0.1642610000   -0.0085030000   -0.0000000000
H        0.1399270000    0.0007500000   -0.0000000000
13   
Frame  13 IRC: Energy =  -286.7899276583 ; +3.1981 kcal/mol
C       -0.1450390000    0.0675500000    0.0000000000
C        0.0401240000   -0.2316900000    0.0000000000
C       -0.2035860000    1.0670420000    0.0000000000
C       -0.0816970000    0.0201900000   -0.0000000000
C       -0.1509370000    0.0112090000    0.0000000000
N       -0.1310970000   -0.0199350000   -0.0000000000
H        0.1234010000    0.0023670000    0.0000000000
H        0.1431350000    0.0822610000    0.0000000000
H        0.1540140000    0.0068490000    0.0000000000
H        0.1398370000    0.0027400000   -0.0000000000
H        0.1387330000   -0.0029550000    0.0000000000
C       -0.1656350000   -0.0064440000   -0.0000000000
H        0.1387450000    0.0008160000   -0.0000000000
13   
Frame  14 IRC: Energy =  -286.7895644580 ; +3.4260 kcal/mol
C       -0.1351830000    0.0679200000    0.0000000000
C        0.0417940000   -0.2345390000    0.0000000000
C       -0.2100060000    1.0707360000    0.0000000000
C       -0.0800700000    0.0199010000   -0.0000000000
C       -0.1579750000    0.0077970000    0.0000000000
N       -0.1344180000   -0.0205090000    0.0000000000
H        0.1238430000    0.0025700000    0.0000000000
H        0.1435770000    0.0827890000    0.0000000000
H        0.1536850000    0.0068440000    0.0000000000
H        0.1394200000    0.0033560000   -0.0000000000
H        0.1419160000   -0.0016720000    0.0000000000
C       -0.1645750000   -0.0059650000   -0.0000000000
H        0.1379910000    0.0007700000   -0.0000000000
13   
Frame  15 IRC: Energy =  -286.7891547357 ; +3.6831 kcal/mol
C       -0.1463970000    0.0693190000    0.0000000000
C        0.0467360000   -0.2317790000    0.0000000000
C       -0.2068720000    1.0685570000    0.0000000000
C       -0.0809430000    0.0199450000   -0.0000000000
C       -0.1507080000    0.0082330000    0.0000000000
N       -0.1357890000   -0.0217840000    0.0000000000
H        0.1239110000    0.0021820000    0.0000000000
H        0.1431530000    0.0815980000    0.0000000000
H        0.1538420000    0.0058000000    0.0000000000
H        0.1391100000    0.0034450000   -0.0000000000
H        0.1421330000   -0.0020030000    0.0000000000
C       -0.1663100000   -0.0042920000   -0.0000000000
H        0.1381340000    0.0007790000   -0.0000000000
13   
Frame  16 IRC: Energy =  -286.7887020513 ; +3.9672 kcal/mol
C       -0.1350570000    0.0681570000    0.0000000000
C        0.0515830000   -0.2399920000    0.0000000000
C       -0.2126080000    1.0895270000    0.0000000000
C       -0.0639110000    0.0173960000   -0.0000000000
C       -0.1749760000    0.0064100000    0.0000000000
N       -0.1390640000   -0.0267930000    0.0000000000
H        0.1244940000    0.0012860000    0.0000000000
H        0.1439750000    0.0824510000    0.0000000000
H        0.1549710000    0.0054150000    0.0000000000
H        0.1375970000    0.0039610000   -0.0000000000
H        0.1463030000   -0.0010920000    0.0000000000
C       -0.1705050000   -0.0072430000   -0.0000000000
H        0.1372000000    0.0005190000   -0.0000000000
13   
Frame  17 IRC: Energy =  -286.7882111416 ; +4.2752 kcal/mol
C       -0.1237160000    0.0641790000    0.0000000000
C        0.0540870000   -0.2397010000    0.0000000000
C       -0.2264690000    1.0809710000    0.0000000000
C       -0.0650370000    0.0170430000   -0.0000000000
C       -0.1742990000    0.0066130000    0.0000000000
N       -0.1404010000   -0.0210360000    0.0000000000
H        0.1251900000    0.0022860000    0.0000000000
H        0.1447050000    0.0830710000    0.0000000000
H        0.1522080000    0.0077270000    0.0000000000
H        0.1380420000    0.0043420000   -0.0000000000
H        0.1471630000   -0.0005820000    0.0000000000
C       -0.1678320000   -0.0053940000   -0.0000000000
H        0.1363580000    0.0004810000   -0.0000000000
13   
Frame  18 IRC: Energy =  -286.7875465707 ; +4.6923 kcal/mol
C       -0.1176620000    0.0598280000    0.0000000000
C        0.0563360000   -0.2437420000    0.0000000000
C       -0.2355000000    1.0914510000    0.0000000000
C       -0.0519290000    0.0141730000   -0.0000000000
C       -0.1730730000    0.0066160000    0.0000000000
N       -0.1429760000   -0.0206520000    0.0000000000
H        0.1254780000    0.0021500000    0.0000000000
H        0.1454110000    0.0838010000    0.0000000000
H        0.1520920000    0.0084930000    0.0000000000
H        0.1374330000    0.0043800000   -0.0000000000
H        0.1459790000   -0.0006350000    0.0000000000
C       -0.1772920000   -0.0060670000   -0.0000000000
H        0.1357040000    0.0002040000   -0.0000000000
13   
Frame  19 IRC: Energy =  -286.7869000008 ; +5.0980 kcal/mol
C       -0.1179650000    0.0552560000    0.0000000000
C        0.0591560000   -0.2475810000    0.0000000000
C       -0.2443320000    1.1026500000    0.0000000000
C       -0.0397770000    0.0111480000   -0.0000000000
C       -0.1615500000    0.0042760000    0.0000000000
N       -0.1435640000   -0.0198260000    0.0000000000
H        0.1255720000    0.0019530000    0.0000000000
H        0.1458250000    0.0843410000    0.0000000000
H        0.1523900000    0.0092560000    0.0000000000
H        0.1367830000    0.0041780000   -0.0000000000
H        0.1430760000   -0.0008270000    0.0000000000
C       -0.1909020000   -0.0047340000   -0.0000000000
H        0.1352880000   -0.0000900000   -0.0000000000
13   
Frame  20 IRC: Energy =  -286.7863767729 ; +5.4263 kcal/mol
C       -0.1217410000    0.0496020000    0.0000000000
C        0.0648000000   -0.2521260000    0.0000000000
C       -0.2582320000    1.1171140000    0.0000000000
C       -0.0285020000    0.0085760000   -0.0000000000
C       -0.1517590000    0.0004940000    0.0000000000
N       -0.1393540000   -0.0196820000    0.0000000000
H        0.1252230000    0.0016880000    0.0000000000
H        0.1462620000    0.0851420000    0.0000000000
H        0.1536260000    0.0103340000    0.0000000000
H        0.1362540000    0.0033230000   -0.0000000000
H        0.1395240000   -0.0010110000    0.0000000000
C       -0.2011510000   -0.0033010000   -0.0000000000
H        0.1350500000   -0.0001530000   -0.0000000000
13   
Frame  21 IRC: Energy =  -286.7859799298 ; +5.6753 kcal/mol
C       -0.1413550000    0.0535240000    0.0000000000
C        0.0794310000   -0.2499870000    0.0000000000
C       -0.2696140000    1.1113570000    0.0000000000
C       -0.0213760000    0.0154730000   -0.0000000000
C       -0.1390710000   -0.0014670000    0.0000000000
N       -0.1390260000   -0.0216160000    0.0000000000
H        0.1234870000    0.0020290000    0.0000000000
H        0.1452170000    0.0852440000    0.0000000000
H        0.1544340000    0.0112580000    0.0000000000
H        0.1364580000    0.0030840000   -0.0000000000
H        0.1375960000   -0.0013530000    0.0000000000
C       -0.2024650000   -0.0071470000   -0.0000000000
H        0.1362860000   -0.0003980000   -0.0000000000
13   
Frame  22 IRC: Energy =  -286.7854177492 ; +6.0281 kcal/mol
C       -0.1624840000    0.0595000000    0.0000000000
C        0.0904420000   -0.2494950000    0.0000000000
C       -0.2681790000    1.1067180000    0.0000000000
C       -0.0209160000    0.0293750000   -0.0000000000
C       -0.1417260000    0.0004030000    0.0000000000
N       -0.1380260000   -0.0256030000    0.0000000000
H        0.1218670000    0.0022640000    0.0000000000
H        0.1437820000    0.0855440000    0.0000000000
H        0.1555630000    0.0110650000    0.0000000000
H        0.1366960000    0.0019160000   -0.0000000000
H        0.1362770000   -0.0014780000    0.0000000000
C       -0.1911320000   -0.0200090000   -0.0000000000
H        0.1378350000   -0.0002000000   -0.0000000000
13   
Frame  23 IRC: Energy =  -286.7849093559 ; +6.3471 kcal/mol
C       -0.1844090000    0.0668270000    0.0000000000
C        0.1105590000   -0.2467500000    0.0000000000
C       -0.2705320000    1.0966080000    0.0000000000
C       -0.0259790000    0.0467390000   -0.0000000000
C       -0.1544980000    0.0039840000    0.0000000000
N       -0.1359320000   -0.0286080000    0.0000000000
H        0.1210220000    0.0024580000    0.0000000000
H        0.1426340000    0.0855300000    0.0000000000
H        0.1563630000    0.0103310000    0.0000000000
H        0.1368730000    0.0006110000   -0.0000000000
H        0.1358310000   -0.0014470000    0.0000000000
C       -0.1706790000   -0.0364220000   -0.0000000000
H        0.1387490000    0.0001380000   -0.0000000000
13   
Frame  24 IRC: Energy =  -286.7844183318 ; +6.6553 kcal/mol
C       -0.2008790000    0.0691280000    0.0000000000
C        0.1336610000   -0.2409210000    0.0000000000
C       -0.2796660000    1.0873170000    0.0000000000
C       -0.0266400000    0.0592360000   -0.0000000000
C       -0.1808160000    0.0066280000    0.0000000000
N       -0.1296010000   -0.0294540000    0.0000000000
H        0.1209460000    0.0025030000    0.0000000000
H        0.1425660000    0.0853770000    0.0000000000
H        0.1570330000    0.0096050000    0.0000000000
H        0.1369280000   -0.0004510000   -0.0000000000
H        0.1357260000   -0.0012980000    0.0000000000
C       -0.1479770000   -0.0480850000   -0.0000000000
H        0.1387190000    0.0004150000   -0.0000000000
13   
Frame  25 IRC: Energy =  -286.7839900960 ; +6.9240 kcal/mol
C       -0.2047210000    0.0648430000    0.0000000000
C        0.1433150000   -0.2316690000    0.0000000000
C       -0.2852530000    1.0776280000    0.0000000000
C       -0.0269060000    0.0682830000   -0.0000000000
C       -0.2120940000    0.0073390000    0.0000000000
N       -0.1219210000   -0.0272220000    0.0000000000
H        0.1215570000    0.0026650000    0.0000000000
H        0.1438120000    0.0849470000    0.0000000000
H        0.1569430000    0.0093050000    0.0000000000
H        0.1370360000   -0.0012070000   -0.0000000000
H        0.1356350000   -0.0010700000    0.0000000000
C       -0.1256890000   -0.0544480000   -0.0000000000
H        0.1382860000    0.0006060000   -0.0000000000
13   
Frame  26 IRC: Energy =  -286.7835950257 ; +7.1719 kcal/mol
C       -0.1935390000    0.0550920000    0.0000000000
C        0.1374960000   -0.2194730000    0.0000000000
C       -0.2854440000    1.0653330000    0.0000000000
C       -0.0339630000    0.0804460000   -0.0000000000
C       -0.2430550000    0.0060810000    0.0000000000
N       -0.1155240000   -0.0225740000    0.0000000000
H        0.1232820000    0.0028510000    0.0000000000
H        0.1457370000    0.0841940000    0.0000000000
H        0.1557690000    0.0095230000    0.0000000000
H        0.1370960000   -0.0020690000   -0.0000000000
H        0.1357650000   -0.0007300000    0.0000000000
C       -0.1015750000   -0.0595200000   -0.0000000000
H        0.1379530000    0.0008440000   -0.0000000000
13   
Frame  27 IRC: Energy =  -286.7830470031 ; +7.5158 kcal/mol
C       -0.1705130000    0.0473800000    0.0000000000
C        0.1143020000   -0.2156910000    0.0000000000
C       -0.2777360000    1.0653880000    0.0000000000
C       -0.0374900000    0.0743310000   -0.0000000000
C       -0.2534650000    0.0047100000    0.0000000000
N       -0.1164950000   -0.0175370000    0.0000000000
H        0.1254730000    0.0031580000    0.0000000000
H        0.1483880000    0.0835980000    0.0000000000
H        0.1552900000    0.0095770000    0.0000000000
H        0.1372210000   -0.0019840000   -0.0000000000
H        0.1353090000   -0.0004900000    0.0000000000
C       -0.0973270000   -0.0531550000   -0.0000000000
H        0.1370430000    0.0007140000   -0.0000000000
13   
Frame  28 IRC: Energy =  -286.7825476237 ; +7.8292 kcal/mol
C       -0.1483060000    0.0386060000    0.0000000000
C        0.0962720000   -0.2159380000    0.0000000000
C       -0.2724260000    1.0683440000    0.0000000000
C       -0.0454680000    0.0689030000   -0.0000000000
C       -0.2611140000    0.0023330000    0.0000000000
N       -0.1173800000   -0.0117280000    0.0000000000
H        0.1281470000    0.0030710000    0.0000000000
H        0.1508730000    0.0833230000    0.0000000000
H        0.1540420000    0.0099720000    0.0000000000
H        0.1372270000   -0.0021120000   -0.0000000000
H        0.1353640000   -0.0001570000    0.0000000000
C       -0.0936230000   -0.0452640000   -0.0000000000
H        0.1363930000    0.0006480000   -0.0000000000
13   
Frame  29 IRC: Energy =  -286.7819929208 ; +8.1772 kcal/mol
C       -0.1265760000    0.0284200000    0.0000000000
C        0.0832540000   -0.2249540000    0.0000000000
C       -0.2687830000    1.0868120000    0.0000000000
C       -0.0502470000    0.0489280000   -0.0000000000
C       -0.2583650000    0.0015760000    0.0000000000
N       -0.1211010000   -0.0062550000    0.0000000000
H        0.1308160000    0.0024010000    0.0000000000
H        0.1531240000    0.0838070000    0.0000000000
H        0.1533960000    0.0103550000    0.0000000000
H        0.1371690000   -0.0016330000   -0.0000000000
H        0.1353540000   -0.0000200000    0.0000000000
C       -0.1037380000   -0.0298390000   -0.0000000000
H        0.1356980000    0.0004020000   -0.0000000000
13   
Frame  30 IRC: Energy =  -286.7814834306 ; +8.4969 kcal/mol
C       -0.1124550000    0.0199050000    0.0000000000
C        0.0739850000   -0.2355380000    0.0000000000
C       -0.2656280000    1.1051990000    0.0000000000
C       -0.0591830000    0.0316890000   -0.0000000000
C       -0.2495650000    0.0017780000   -0.0000000000
N       -0.1257100000   -0.0013350000    0.0000000000
H        0.1335470000    0.0016480000    0.0000000000
H        0.1549410000    0.0841800000    0.0000000000
H        0.1529300000    0.0104870000    0.0000000000
H        0.1371210000   -0.0011830000   -0.0000000000
H        0.1355200000    0.0000820000    0.0000000000
C       -0.1108610000   -0.0171040000   -0.0000000000
H        0.1353590000    0.0001930000   -0.0000000000
13   
Frame  31 IRC: Energy =  -286.7812679447 ; +8.6322 kcal/mol
C       -0.1076400000    0.0216480000    0.0000000000
C        0.0661230000   -0.2354500000    0.0000000000
C       -0.2615960000    1.0978420000    0.0000000000
C       -0.0616090000    0.0371290000   -0.0000000000
C       -0.2499850000    0.0016450000    0.0000000000
N       -0.1264340000    0.0012960000    0.0000000000
H        0.1349310000    0.0022380000    0.0000000000
H        0.1556630000    0.0842280000    0.0000000000
H        0.1521730000    0.0104030000    0.0000000000
H        0.1370720000   -0.0013960000   -0.0000000000
H        0.1353140000    0.0003720000    0.0000000000
C       -0.1091020000   -0.0201820000   -0.0000000000
H        0.1350910000    0.0002280000   -0.0000000000
13   
Frame  32 IRC: Energy =  -286.7809950983 ; +8.8034 kcal/mol
C       -0.0993290000    0.0138060000    0.0000000000
C        0.0579230000   -0.2463190000    0.0000000000
C       -0.2574940000    1.1173470000    0.0000000000
C       -0.0701020000    0.0210010000   -0.0000000000
C       -0.2364990000    0.0036880000   -0.0000000000
N       -0.1309460000    0.0051510000   -0.0000000000
H        0.1374240000    0.0014510000    0.0000000000
H        0.1567950000    0.0849040000    0.0000000000
H        0.1521730000    0.0102980000    0.0000000000
H        0.1371060000   -0.0008400000   -0.0000000000
H        0.1354980000    0.0003400000    0.0000000000
C       -0.1175720000   -0.0108470000   -0.0000000000
H        0.1350240000    0.0000200000   -0.0000000000
13   
Frame  33 IRC: Energy =  -286.7809100000 ; +8.8568 kcal/mol
C       -0.0978650000    0.0107290000    0.0000000000
C        0.0555400000   -0.2494270000    0.0000000000
C       -0.2561870000    1.1239560000    0.0000000000
C       -0.0732610000    0.0164600000   -0.0000000000
C       -0.2311480000    0.0045010000   -0.0000000000
N       -0.1322410000    0.0063470000   -0.0000000000
H        0.1381520000    0.0011810000    0.0000000000
H        0.1570470000    0.0851610000    0.0000000000
H        0.1522580000    0.0102230000    0.0000000000
H        0.1371620000   -0.0006490000   -0.0000000000
H        0.1356400000    0.0002790000    0.0000000000
C       -0.1201640000   -0.0087380000   -0.0000000000
H        0.1350660000   -0.0000250000    0.0000000000
13   
Frame  34 IRC: Energy =  -286.7809000000 ; +8.8631 kcal/mol
C       -0.0977000000    0.0104820000    0.0000000000
C        0.0550330000   -0.2497690000    0.0000000000
C       -0.2558760000    1.1243810000    0.0000000000
C       -0.0734100000    0.0161640000   -0.0000000000
C       -0.2306550000    0.0045840000   -0.0000000000
N       -0.1322840000    0.0065250000   -0.0000000000
H        0.1382370000    0.0011850000    0.0000000000
H        0.1570870000    0.0852370000    0.0000000000
H        0.1522490000    0.0102240000    0.0000000000
H        0.1371710000   -0.0006350000   -0.0000000000
H        0.1356520000    0.0002800000    0.0000000000
C       -0.1205740000   -0.0086280000   -0.0000000000
H        0.1350710000   -0.0000290000    0.0000000000
13   
Frame  35 IRC: Energy =  -286.7808990000 ; +8.8637 kcal/mol
C       -0.0977480000    0.0104730000    0.0000000000
C        0.0549840000   -0.2497570000    0.0000000000
C       -0.2557920000    1.1244880000    0.0000000000
C       -0.0734170000    0.0161390000   -0.0000000000
C       -0.2306230000    0.0045850000   -0.0000000000
N       -0.1323000000    0.0065040000   -0.0000000000
H        0.1382580000    0.0011740000    0.0000000000
H        0.1571010000    0.0851860000    0.0000000000
H        0.1522510000    0.0102080000    0.0000000000
H        0.1371700000   -0.0006350000   -0.0000000000
H        0.1356480000    0.0002800000    0.0000000000
C       -0.1205990000   -0.0086150000   -0.0000000000
H        0.1350680000   -0.0000300000    0.0000000000
13   
Frame  36 IRC: Energy =  -286.7808940000 ; +8.8668 kcal/mol
C       -0.0976840000    0.0103230000    0.0000000000
C        0.0546540000   -0.2499500000    0.0000000000
C       -0.2555570000    1.1247990000    0.0000000000
C       -0.0735050000    0.0159540000   -0.0000000000
C       -0.2303140000    0.0046340000   -0.0000000000
N       -0.1323320000    0.0065950000   -0.0000000000
H        0.1383190000    0.0011700000    0.0000000000
H        0.1571330000    0.0852010000    0.0000000000
H        0.1522470000    0.0101990000    0.0000000000
H        0.1371740000   -0.0006260000   -0.0000000000
H        0.1356530000    0.0002800000    0.0000000000
C       -0.1208560000   -0.0085450000   -0.0000000000
H        0.1350690000   -0.0000320000    0.0000000000
13   
Frame  37 IRC: Energy =  -286.7808900000 ; +8.8693 kcal/mol
C       -0.0975940000    0.0102310000    0.0000000000
C        0.0544690000   -0.2501000000    0.0000000000
C       -0.2554690000    1.1249120000    0.0000000000
C       -0.0735590000    0.0158470000   -0.0000000000
C       -0.2301270000    0.0046680000   -0.0000000000
N       -0.1323460000    0.0066790000   -0.0000000000
H        0.1383480000    0.0011770000    0.0000000000
H        0.1571400000    0.0852620000    0.0000000000
H        0.1522420000    0.0102080000    0.0000000000
H        0.1371790000   -0.0006210000   -0.0000000000
H        0.1356600000    0.0002800000    0.0000000000
C       -0.1210130000   -0.0085090000   -0.0000000000
H        0.1350720000   -0.0000340000    0.0000000000
13   
Frame  38 IRC: Energy =  -286.7808890000 ; +8.8700 kcal/mol
C       -0.0976380000    0.0102160000    0.0000000000
C        0.0544130000   -0.2500890000    0.0000000000
C       -0.2553860000    1.1250210000    0.0000000000
C       -0.0735680000    0.0158210000   -0.0000000000
C       -0.2300920000    0.0046690000   -0.0000000000
N       -0.1323550000    0.0066610000   -0.0000000000
H        0.1383630000    0.0011670000    0.0000000000
H        0.1571550000    0.0852120000    0.0000000000
H        0.1522430000    0.0101920000    0.0000000000
H        0.1371770000   -0.0006200000   -0.0000000000
H        0.1356570000    0.0002800000    0.0000000000
C       -0.1210400000   -0.0084960000   -0.0000000000
H        0.1350700000   -0.0000340000    0.0000000000
13   