13   
Frame   0 IRC: Energy =  -286.7950241677 ; +0.0000 kcal/mol
C        1.5544248778    0.0938375700    0.1670720066
C        1.3562887175   -1.1013614845    1.0294028410
C        0.2277083839   -1.7217537314    1.3257774779
C       -1.6757192280    1.6059890312   -0.6392433728
C       -0.6859089170    0.4789258009   -0.4688471290
N        0.7040383159    0.7933185729   -0.4874789981
H        2.5958187031    0.4139758451    0.0889761868
H        2.2912922283   -1.4871489963    1.4555579624
H       -0.0462181725   -2.5797793952    1.9272082457
H       -2.1135536120    2.4648896085   -0.1548433297
H       -0.9659441616   -0.3983255422    0.1333582161
C       -1.5179894449    0.8453238443   -1.6743660847
H       -1.7242376900    0.5921088771   -2.7025740218
13   
Frame   1 IRC: Energy =  -286.7950238788 ; +0.0002 kcal/mol
C        1.5543915131    0.0938748634    0.1672739427
C        1.3563445110   -1.1017331070    1.0290497307
C        0.2278152203   -1.7222214103    1.3254218709
C       -1.6754458800    1.6065368904   -0.6396703703
C       -0.6860686604    0.4795117846   -0.4681804891
N        0.7040066430    0.7937570830   -0.4868178275
H        2.5957880718    0.4140338938    0.0893023767
H        2.2914704058   -1.4877263646    1.4547124428
H       -0.0459136889   -2.5803510875    1.9268012182
H       -2.1143657901    2.4655204614   -0.1563829120
H       -0.9660717076   -0.3972173287    0.1348755193
C       -1.5180136434    0.8448386281   -1.6741184237
H       -1.7239369946    0.5911756935   -2.7022670785
13   
Frame   2 IRC: Energy =  -286.7950226123 ; +0.0010 kcal/mol
C        1.5546710692    0.0939406677    0.1672352567
C        1.3563070526   -1.1021534280    1.0280578138
C        0.2276199955   -1.7227285861    1.3238273974
C       -1.6746790974    1.6076688321   -0.6404842883
C       -0.6859337623    0.4808610552   -0.4666386761
N        0.7044672227    0.7950516904   -0.4859454938
H        2.5961507755    0.4137748843    0.0893440148
H        2.2913107753   -1.4881500111    1.4538494809
H       -0.0470623863   -2.5807296753    1.9248656383
H       -2.1165410006    2.4655721167   -0.1579838568
H       -0.9655203713   -0.3948225619    0.1383350340
C       -1.5176047182    0.8436475862   -1.6733708913
H       -1.7231855546    0.5880674298   -2.7010914297
13   
Frame   3 IRC: Energy =  -286.7950193834 ; +0.0030 kcal/mol
C        1.5553418735    0.0938047829    0.1663957266
C        1.3559832391   -1.1016284910    1.0276811530
C        0.2267502360   -1.7214809142    1.3231044486
C       -1.6736668795    1.6078735332   -0.6402228906
C       -0.6850256104    0.4810148028   -0.4667611565
N        0.7056065692    0.7954182314   -0.4871342843
H        2.5970164697    0.4128445855    0.0883085170
H        2.2904577158   -1.4874162714    1.4547094111
H       -0.0500276976   -2.5786056870    1.9242880657
H       -2.1190181476    2.4622748514   -0.1547966663
H       -0.9637974763   -0.3950969474    0.1380649163
C       -1.5168944278    0.8436723233   -1.6730798146
H       -1.7227258643    0.5873252005   -2.7005574260
13   
Frame   4 IRC: Energy =  -286.7950142311 ; +0.0062 kcal/mol
C        1.5555593670    0.0925394151    0.1641642934
C        1.3553625419   -1.0995512848    1.0300236440
C        0.2259488562   -1.7184301437    1.3268194478
C       -1.6730021351    1.6061425037   -0.6378036185
C       -0.6840108920    0.4778102403   -0.4712272478
N        0.7062545555    0.7917604190   -0.4926330894
H        2.5974071405    0.4106937662    0.0848649368
H        2.2893792812   -1.4840523591    1.4593917647
H       -0.0512979101   -2.5736826164    1.9304374837
H       -2.1200307211    2.4545146054   -0.1435081559
H       -0.9628632622   -0.4020963105    0.1278259733
C       -1.5168012540    0.8474922125   -1.6746344732
H       -1.7219055677    0.5968595522   -2.7037209590
13   
Frame   5 IRC: Energy =  -286.7950047840 ; +0.0122 kcal/mol
C        1.5557635070    0.0944531216    0.1675447062
C        1.3567472823   -1.1022254843    1.0281313997
C        0.2270603994   -1.7201637777    1.3248818582
C       -1.6732104788    1.6110503448   -0.6445914395
C       -0.6846644322    0.4821774761   -0.4674166959
N        0.7051395546    0.7957107494   -0.4846327890
H        2.5977543143    0.4124581774    0.0874741956
H        2.2913447289   -1.4910982715    1.4528348817
H       -0.0492161885   -2.5789770558    1.9241091875
H       -2.1213079363    2.4593640981   -0.1511355345
H       -0.9667036775   -0.3908996472    0.1389911751
C       -1.5169804472    0.8434646902   -1.6744598135
H       -1.7217266260    0.5846855789   -2.7017311317
13   
Frame   6 IRC: Energy =  -286.7949610853 ; +0.0396 kcal/mol
C        1.5521736284    0.0931024507    0.1690195379
C        1.3578715513   -1.1034527932    1.0312781180
C        0.2314302460   -1.7251225969    1.3321597171
C       -1.6756311123    1.6155165087   -0.6498510170
C       -0.6890072806    0.4824625355   -0.4664239352
N        0.6986191764    0.7915780351   -0.4817715060
H        2.5936067517    0.4118658665    0.0842565761
H        2.2949478257   -1.4925730510    1.4510243507
H       -0.0332945518   -2.5876821467    1.9318565118
H       -2.1176113408    2.4660740434   -0.1549006908
H       -0.9797984338   -0.3892160936    0.1371747022
C       -1.5205544498    0.8437883534   -1.6758798243
H       -1.7127520104    0.5936588880   -2.7079425404
13   
Frame   7 IRC: Energy =  -286.7948117921 ; +0.1333 kcal/mol
C        1.5468459040    0.0975613800    0.1777527414
C        1.3599111509   -1.1129303798    1.0206482417
C        0.2387044129   -1.7475249828    1.3149440434
C       -1.6815196502    1.6319084442   -0.6704483472
C       -0.6988796943    0.5034048324   -0.4328542645
N        0.6871865676    0.8070492079   -0.4528528072
H        2.5870418848    0.4189601835    0.0902225898
H        2.3004652672   -1.5074583922    1.4272976495
H       -0.0098844216   -2.6251198666    1.9002110385
H       -2.1124538817    2.5116586091   -0.2190213304
H       -1.0023244910   -0.3432774595    0.1996095666
C       -1.5257033021    0.8165326450   -1.6613544563
H       -1.6893897466    0.5492357788   -2.6941546652
13   
Frame   8 IRC: Energy =  -286.7943573914 ; +0.4184 kcal/mol
C        1.5424388441    0.1131481900    0.1919633604
C        1.3568732064   -1.1279331614    0.9839853802
C        0.2372927216   -1.7741617683    1.2633116974
C       -1.6895092878    1.6506351750   -0.7003717184
C       -0.7078938291    0.5515384620   -0.3568366569
N        0.6777907380    0.8522332211   -0.3986461822
H        2.5816903524    0.4368956904    0.1095789783
H        2.2987691936   -1.5438331303    1.3641568948
H       -0.0011564182   -2.6766589986    1.8138902991
H       -2.1120340708    2.5797308223   -0.3516454986
H       -1.0168447030   -0.2440158683    0.3363141885
C       -1.5250426472    0.7513864044   -1.6158556065
H       -1.6423741000    0.4310349617   -2.6398451361
13   
Frame   9 IRC: Energy =  -286.7936674406 ; +0.8514 kcal/mol
C        1.5429956112    0.1371864133    0.2104881920
C        1.3498414999   -1.1425811337    0.9304003567
C        0.2239239813   -1.7869611578    1.1922651155
C       -1.6913319655    1.6595467444   -0.7332188138
C       -0.7096515863    0.6098123666   -0.2719927562
N        0.6775408959    0.9147261876   -0.3289446713
H        2.5830103309    0.4601608081    0.1422209016
H        2.2894050159   -1.5928341282    1.2736425579
H       -0.0226427747   -2.7139586702    1.6959548934
H       -2.1136059121    2.6253238877   -0.5040413764
H       -1.0165879924   -0.1128642499    0.4971844743
C       -1.5139198906    0.6719746175   -1.5529419526
H       -1.5989772134    0.2704683145   -2.5510169212
13   
Frame  10 IRC: Energy =  -286.7927002126 ; +1.4583 kcal/mol
C        1.5455414473    0.1648267689    0.2249427633
C        1.3357884151   -1.1501890498    0.8655777286
C        0.1980650022   -1.7812707091    1.1134592768
C       -1.6900368670    1.6505116263   -0.7563149444
C       -0.7053986230    0.6670944840   -0.1863292983
N        0.6837325715    0.9825348820   -0.2603032333
H        2.5883126556    0.4800325917    0.1713062184
H        2.2688716351   -1.6390487586    1.1689908952
H       -0.0717396164   -2.7256145320    1.5695152191
H       -2.1176865963    2.6353753362   -0.6509159180
H       -1.0014955348    0.0236032623    0.6538005288
C       -1.4920279496    0.5876131136   -1.4752274042
H       -1.5419265397    0.1045309846   -2.4385018320
13   
Frame  11 IRC: Energy =  -286.7916991109 ; +2.0865 kcal/mol
C        1.5478457227    0.1923339501    0.2375506939
C        1.3201134338   -1.1546189957    0.7963300352
C        0.1688722954   -1.7645365521    1.0376003917
C       -1.6834897668    1.6315089580   -0.7777460187
C       -0.7007261441    0.7221321919   -0.1060896298
N        0.6920865269    1.0515609451   -0.1838158621
H        2.5944370983    0.4966003209    0.1981025204
H        2.2456023168   -1.6829723991    1.0502442848
H       -0.1349861856   -2.7193954368    1.4461304644
H       -2.1228575380    2.6170121481   -0.7888813565
H       -0.9892206052    0.1634272119    0.7949839846
C       -1.4578402759    0.5080970159   -1.3944318912
H       -1.4798368782   -0.0611493585   -2.3099776167
13   
Frame  12 IRC: Energy =  -286.7905923720 ; +2.7810 kcal/mol
C        1.5525084543    0.2229443901    0.2482749215
C        1.3019685963   -1.1562782558    0.7183695475
C        0.1331565595   -1.7278968118    0.9639097717
C       -1.6759835794    1.5978718965   -0.7899186500
C       -0.6922903493    0.7689645207   -0.0323028359
N        0.7054597688    1.1197799949   -0.1049122529
H        2.6052903656    0.5081724720    0.2096703807
H        2.2150261172   -1.7253998670    0.9254101252
H       -0.2217140174   -2.6812882408    1.3308859213
H       -2.1383185662    2.5669038566   -0.9020757784
H       -0.9720904632    0.2907179755    0.9160277334
C       -1.4088023059    0.4334429866   -1.3118944843
H       -1.4042105801   -0.2179349176   -2.1714443999
13   
Frame  13 IRC: Energy =  -286.7899276583 ; +3.1981 kcal/mol
C        1.5521146209    0.2462608254    0.2665286529
C        1.2912197739   -1.1592710310    0.6601924031
C        0.1148565726   -1.7078904509    0.9144433727
C       -1.6574696178    1.5763893492   -0.8194005914
C       -0.6939383305    0.8093280539    0.0221147615
N        0.7094255559    1.1681987108   -0.0206678251
H        2.6082916292    0.5237723277    0.2375214235
H        2.1968251151   -1.7599136077    0.8045270262
H       -0.2685990970   -2.6650568996    1.2402237676
H       -2.1297253325    2.5282783190   -1.0114277750
H       -0.9941399399    0.4097268621    0.9992648944
C       -1.3679971920    0.3788801128   -1.2483606293
H       -1.3608637579   -0.3487025717   -2.0449594812
13   
Frame  14 IRC: Energy =  -286.7895644580 ; +3.4260 kcal/mol
C        1.5479055131    0.2626496463    0.2939453555
C        1.2871263603   -1.1649257792    0.6204498545
C        0.1119888986   -1.7047011734    0.8889220111
C       -1.6370068915    1.5670277519   -0.8531713445
C       -0.7023044317    0.8376384177    0.0535956909
N        0.7054178235    1.1936886632    0.0468197572
H        2.6058114673    0.5380053001    0.2690587765
H        2.1904108126   -1.7807703114    0.7149540480
H       -0.2785545141   -2.6689088003    1.1852126976
H       -2.1046093958    2.5088533613   -1.0998805651
H       -1.0331130824    0.4990014914    1.0429710528
C       -1.3455559477    0.3464867761   -1.2086107363
H       -1.3475166120   -0.4340453437   -1.9542665983
13   
Frame  15 IRC: Energy =  -286.7891547357 ; +3.6831 kcal/mol
C        1.5530937386    0.2585588883    0.2780560574
C        1.2819087327   -1.1556241617    0.6145249917
C        0.1016391123   -1.6856039159    0.8923172274
C       -1.6381390737    1.5568806514   -0.8337142680
C       -0.6929556334    0.8269532179    0.0551391162
N        0.7137472405    1.1963989193    0.0286416103
H        2.6094260149    0.5357462794    0.2710767564
H        2.1785232471   -1.7779967730    0.7044077411
H       -0.3043937044   -2.6405748170    1.1946897203
H       -2.1229291900    2.4932463165   -1.0660451486
H       -1.0098185862    0.4711260455    1.0439433649
C       -1.3338049369    0.3461084982   -1.2149126443
H       -1.3362969613   -0.4252191489   -1.9681245249
13   
Frame  16 IRC: Energy =  -286.7887020513 ; +3.9672 kcal/mol
C        1.5312151143    0.2672047157    0.3166289568
C        1.2753058638   -1.1613536868    0.5720689349
C        0.1131184495   -1.7323250217    0.8545058259
C       -1.5919378639    1.5566327453   -0.9013902175
C       -0.7167350303    0.8858716061    0.0958662266
N        0.6966885342    1.2226081844    0.1073527813
H        2.5828475522    0.5556638575    0.3519765752
H        2.1806540824   -1.7738581105    0.6041276686
H       -0.2631982616   -2.7113457073    1.1138265305
H       -2.0362120403    2.4810142610   -1.2382486258
H       -1.0919537893    0.6465835975    1.0995654710
C       -1.3255466474    0.3028376417   -1.1529907309
H       -1.3542459638   -0.5395340828   -1.8232893964
13   
Frame  17 IRC: Energy =  -286.7882111416 ; +4.2752 kcal/mol
C        1.5330330778    0.2951586985    0.3603661563
C        1.2665367134   -1.1610292289    0.5306132157
C        0.1066281641   -1.7020323599    0.8483388174
C       -1.5573645400    1.5333449622   -0.9484516930
C       -0.7172826964    0.9064521565    0.1169116589
N        0.6947636762    1.2442251191    0.2027322154
H        2.5913350255    0.5694768677    0.4032003971
H        2.1558925039   -1.8001554495    0.4573694351
H       -0.2804817438   -2.6912019411    1.0556187223
H       -2.0064327176    2.4432118497   -1.3184057825
H       -1.1373400780    0.7240180218    1.1126961666
C       -1.2880980298    0.2682469680   -1.1128964400
H       -1.3611893555   -0.6297156640   -1.7080928691
13   
Frame  18 IRC: Energy =  -286.7875465707 ; +4.6923 kcal/mol
C        1.5127057808    0.3071304134    0.4120097926
C        1.2637862916   -1.1626466476    0.5031985174
C        0.1211167029   -1.7358555448    0.8215280093
C       -1.5005336646    1.5185752236   -1.0166027636
C       -0.7405138421    0.9493513607    0.1403150624
N        0.6718226472    1.2561625393    0.2875272788
H        2.5692510306    0.5858662458    0.4808931316
H        2.1578376740   -1.7860873160    0.3658564275
H       -0.2413274026   -2.7439297333    0.9791945918
H       -1.8968804563    2.4140419090   -1.4723919020
H       -1.2192394229    0.8753296628    1.1226630370
C       -1.2885678741    0.2332539337   -1.0569663624
H       -1.4094574645   -0.7111920464   -1.5672248206
13   
Frame  19 IRC: Energy =  -286.7869000008 ; +5.0980 kcal/mol
C        1.4884546737    0.3149418213    0.4650958855
C        1.2615659877   -1.1621515061    0.4832747169
C        0.1371470508   -1.7761425888    0.7884027190
C       -1.4329862748    1.4930621398   -1.0877069879
C       -0.7648516047    0.9963047509    0.1575093014
N        0.6456268980    1.2640129447    0.3645729171
H        2.5408251938    0.5994502221    0.5700569386
H        2.1641613650   -1.7608373478    0.2972083140
H       -0.1947479955   -2.8015245339    0.8961033567
H       -1.7593455546    2.3645046948   -1.6362882388
H       -1.2983466169    1.0473230480    1.1120571137
C       -1.3023986756    0.1997894056   -0.9952206960
H       -1.4851044470   -0.7787330506   -1.4150653404
13   
Frame  20 IRC: Energy =  -286.7863767729 ; +5.4263 kcal/mol
C        1.4540368328    0.3125336809    0.5259823019
C        1.2672897239   -1.1687434427    0.4900013554
C        0.1695444372   -1.8433279228    0.7661699712
C       -1.3538015290    1.4672739983   -1.1709770570
C       -0.7971841850    1.0495506882    0.1565246730
N        0.6072068594    1.2593101049    0.4304879231
H        2.4970878233    0.6110473835    0.6743254312
H        2.1895136793   -1.7262765195    0.2754909232
H       -0.1082864648   -2.8886853439    0.8274413023
H       -1.5811681653    2.3071993728   -1.8111458771
H       -1.3800742770    1.2427210647    1.0618951575
C       -1.3460309770    0.1840235919   -0.9463269383
H       -1.6181337577   -0.8066266562   -1.2798691663
13   
Frame  21 IRC: Energy =  -286.7859799298 ; +5.6753 kcal/mol
C        1.4478283636    0.3144132499    0.5572309436
C        1.2679394691   -1.1660589504    0.5132607664
C        0.1535635824   -1.8560376570    0.6531871766
C       -1.2921082335    1.3918967936   -1.2329593331
C       -0.7929294626    1.1144834683    0.1528062943
N        0.6125970582    1.2700244165    0.4412859793
H        2.4880529416    0.6105906219    0.7274550353
H        2.2103258077   -1.7166374391    0.3859507081
H       -0.1103916927   -2.9066685190    0.6703612816
H       -1.4420324708    2.1583870338   -1.9792810296
H       -1.3776862067    1.4721342807    1.0048058299
C       -1.4001766129    0.1538272905   -0.8418978171
H       -1.7649825435   -0.8403545899   -1.0522058353
13   
Frame  22 IRC: Energy =  -286.7854177492 ; +6.0281 kcal/mol
C        1.4449824355    0.3055870098    0.5665600882
C        1.2695000178   -1.1725723683    0.5563595244
C        0.1560846475   -1.8795508323    0.5535622960
C       -1.2546268144    1.3303906903   -1.2832208328
C       -0.7841018271    1.1706456724    0.1297434665
N        0.6236001837    1.2710093156    0.4183994762
H        2.4819566277    0.6024425359    0.7509018373
H        2.2239250794   -1.7157914952    0.5682810898
H       -0.0895482600   -2.9345847423    0.5635230316
H       -1.3378483486    2.0212324295   -2.1094266495
H       -1.3460600414    1.6660967384    0.9260639950
C       -1.4702794489    0.1549991101   -0.7630820264
H       -1.9175842510   -0.8199040638   -0.8776652962
13   
Frame  23 IRC: Energy =  -286.7849093559 ; +6.3471 kcal/mol
C        1.4530845119    0.2966187210    0.5509622184
C        1.2613124149   -1.1762006061    0.5948787430
C        0.1595397480   -1.8898326125    0.4621786100
C       -1.2476553358    1.2833537136   -1.3072979995
C       -0.7634152967    1.2116489115    0.1069922656
N        0.6498407502    1.2737176811    0.3717571363
H        2.4931861612    0.5855601206    0.7282172383
H        2.2026433153   -1.7172779362    0.7575131397
H       -0.0862717352   -2.9443506747    0.4845283025
H       -1.3054212368    1.9092618827   -2.1856361680
H       -1.2891062179    1.7973644962    0.8660425583
C       -1.5178648160    0.1642456115   -0.6952033880
H       -2.0098722630   -0.7941093088   -0.7349326566
13   
Frame  24 IRC: Energy =  -286.7844183318 ; +6.6553 kcal/mol
C        1.4615362749    0.2860265871    0.5237732040
C        1.2496568252   -1.1790333292    0.6267630754
C        0.1741655589   -1.9051813578    0.3864444805
C       -1.2541308439    1.2581794734   -1.3169878759
C       -0.7443517172    1.2386006573    0.0887312290
N        0.6744929026    1.2730069616    0.3229348455
H        2.5071841372    0.5650109061    0.6830265024
H        2.1608972598   -1.7067754420    0.9350507074
H       -0.0779067069   -2.9570963942    0.4320772355
H       -1.3048220974    1.8391158751   -2.2259412913
H       -1.2353387435    1.8786031429    0.8271646817
C       -1.5496149758    0.1786899120   -0.6470017261
H       -2.0617678740   -0.7691469923   -0.6360350681
13   
Frame  25 IRC: Energy =  -286.7839900960 ; +6.9240 kcal/mol
C        1.4726170933    0.2768345493    0.4902341197
C        1.2370273821   -1.1798308216    0.6500886919
C        0.1943212112   -1.9160623890    0.3170733026
C       -1.2669678515    1.2435535641   -1.3163645311
C       -0.7257957278    1.2547100186    0.0768875843
N        0.6992980059    1.2716505504    0.2778994749
H        2.5254541422    0.5419967882    0.6254564996
H        2.1010210655   -1.6879653261    1.0955530499
H       -0.0750617532   -2.9622405952    0.3853609746
H       -1.3244851094    1.7948142730   -2.2430853822
H       -1.1866732835    1.9262815084    0.8067535075
C       -1.5664813683    0.1896438327   -0.6078205447
H       -2.0842738064   -0.7533859529   -0.5580367470
13   
Frame  26 IRC: Energy =  -286.7835950257 ; +7.1719 kcal/mol
C        1.4897522795    0.2704002814    0.4505615558
C        1.2111604116   -1.1730996724    0.6691322518
C        0.2077419626   -1.9143036255    0.2435420201
C       -1.2821705931    1.2108719329   -1.3114239999
C       -0.6925555609    1.2764543005    0.0604586192
N        0.7389369880    1.2758253968    0.2166677733
H        2.5521518473    0.5095106174    0.5602102073
H        2.0047793716   -1.6631514118    1.2470070055
H       -0.0880459255   -2.9521109540    0.3274854858
H       -1.3638039534    1.7189850076   -2.2607163379
H       -1.1174899346    1.9864375102    0.7755277943
C       -1.5692295627    0.1947992711   -0.5453305307
H       -2.0912273303   -0.7406186544   -0.4331218445
13   
Frame  27 IRC: Energy =  -286.7830470031 ; +7.5158 kcal/mol
C        1.4944697479    0.2625475970    0.4309266052
C        1.1992393850   -1.1746777467    0.7061451028
C        0.2456555183   -1.9323177722    0.2039432385
C       -1.3000394087    1.2230986553   -1.3055754057
C       -0.6888421454    1.2815934292    0.0574480137
N        0.7496062634    1.2710902128    0.1952226928
H        2.5666496957    0.4799977170    0.4815956678
H        1.9471318582   -1.6351808154    1.3640658696
H       -0.0675772810   -2.9651355958    0.2866855292
H       -1.3928452532    1.7289803049   -2.2549815485
H       -1.0999028885    1.9906706010    0.7818518197
C       -1.5733346700    0.2058929411   -0.5353050117
H       -2.0802108218   -0.7365595284   -0.4120225733
13   
Frame  28 IRC: Energy =  -286.7825476237 ; +7.8292 kcal/mol
C        1.5070098376    0.2524984229    0.3930221682
C        1.1680238745   -1.1665838845    0.7272258451
C        0.2776723739   -1.9463278739    0.1517499486
C       -1.3157567223    1.2036892482   -1.2997370427
C       -0.6593475399    1.2998191851    0.0402865590
N        0.7841194648    1.2702663090    0.1381065834
H        2.5867831572    0.4371117300    0.4150455185
H        1.8283461041   -1.5890700677    1.4962177564
H       -0.0550657650   -2.9721134241    0.2456746517
H       -1.4344167467    1.6775382900   -2.2627319026
H       -1.0382356018    2.0362018536    0.7548417736
C       -1.5715044554    0.2160485631   -0.4868704286
H       -2.0776279811   -0.7190783517   -0.3128314306
13   
Frame  29 IRC: Energy =  -286.7819929208 ; +8.1772 kcal/mol
C        1.5107273595    0.2328267740    0.3584106979
C        1.1327663001   -1.1620290855    0.7549548058
C        0.3352135286   -1.9935366910    0.1211336847
C       -1.3315764504    1.2039384094   -1.3024185746
C       -0.6326589676    1.3172818962    0.0147690331
N        0.8127878033    1.2585465267    0.0740628680
H        2.5961487237    0.3873074310    0.3641376724
H        1.6920373277   -1.5215569738    1.6299671012
H        0.0046127295   -3.0176791798    0.2375996158
H       -1.4701333295    1.6568139904   -2.2728671867
H       -0.9738467428    2.0772805563    0.7233635440
C       -1.5803004917    0.2413535957   -0.4584488557
H       -2.0957777902   -0.6805472495   -0.2446644061
13   
Frame  30 IRC: Energy =  -286.7814834306 ; +8.4969 kcal/mol
C        1.5137100738    0.2124123366    0.3241090142
C        1.0914212415   -1.1546423989    0.7735726618
C        0.3912997231   -2.0421732005    0.1018841551
C       -1.3414140721    1.1830156512   -1.3090030311
C       -0.5983179230    1.3451310523   -0.0217034479
N        0.8454086780    1.2468618556    0.0042705189
H        2.6034901032    0.3335890931    0.3222314883
H        1.5303905005   -1.4415860981    1.7395226103
H        0.0592609144   -3.0622626829    0.2455401557
H       -1.5009034375    1.5901613330   -2.2963066667
H       -0.8983446985    2.1471486618    0.6587628296
C       -1.5841450050    0.2701858635   -0.4100117385
H       -2.1118560984   -0.6278414668   -0.1328685496
13   
Frame  31 IRC: Energy =  -286.7812679447 ; +8.6322 kcal/mol
C        1.5274244783    0.2232527313    0.3078858395
C        1.0801918872   -1.1407052397    0.7647507556
C        0.3865330369   -2.0092744759    0.0679810071
C       -1.3450169106    1.1793963949   -1.2795154672
C       -0.5920970748    1.3312569576    0.0044010820
N        0.8568062708    1.2603301658    0.0124604229
H        2.6184175068    0.3260173956    0.2680377230
H        1.4787827576   -1.4293198920    1.7487306322
H        0.0236977986   -3.0218745908    0.1903490548
H       -1.5235064419    1.6030440673   -2.2567379727
H       -0.9019315802    2.1111535586    0.7054158122
C       -1.5552159034    0.2426597221   -0.3989780566
H       -2.0540858251   -0.6759367948   -0.1347808328
13   
Frame  32 IRC: Energy =  -286.7809950983 ; +8.8034 kcal/mol
C        1.5259288354    0.2007196409    0.2783065522
C        1.0347755143   -1.1322810893    0.7805074048
C        0.4522152649   -2.0674226963    0.0675218969
C       -1.3517891798    1.1614075157   -1.2883259987
C       -0.5591099765    1.3592910733   -0.0353172103
N        0.8862782686    1.2461306057   -0.0538627300
H        2.6195615056    0.2683575348    0.2372894352
H        1.3008748093   -1.3362106994    1.8282863225
H        0.0946027140   -3.0779323138    0.2177989037
H       -1.5488098172    1.5398111331   -2.2803377198
H       -0.8300239791    2.1801419681    0.6344661570
C       -1.5571948495    0.2752862790   -0.3557675998
H       -2.0673091100   -0.6172989519   -0.0305654136
13   
Frame  33 IRC: Energy =  -286.7809100000 ; +8.8568 kcal/mol
C        1.5232855775    0.1905443100    0.2698245260
C        1.0188013037   -1.1314765038    0.7876811148
C        0.4812462923   -2.0939250034    0.0753305934
C       -1.3537577105    1.1576625506   -1.2953796359
C       -0.5488718774    1.3694269432   -0.0526055671
N        0.8946980164    1.2377423048   -0.0778724885
H        2.6176403737    0.2488160514    0.2352589837
H        1.2381427619   -1.3028987806    1.8519078482
H        0.1297272805   -3.1046432764    0.2376314807
H       -1.5543903288    1.5199524449   -2.2926297846
H       -0.8046988802    2.2056737662    0.6039882133
C       -1.5620203594    0.2916320018   -0.3446992333
H       -2.0798024497   -0.5885068088    0.0015639493
13   
Frame  34 IRC: Energy =  -286.7809000000 ; +8.8631 kcal/mol
C        1.5231598812    0.1901704081    0.2689424219
C        1.0173835274   -1.1312266564    0.7877472792
C        0.4843735085   -2.0956141742    0.0749964149
C       -1.3536820000    1.1579990348   -1.2950526591
C       -0.5484340716    1.3697559695   -0.0525018617
N        0.8951729182    1.2376383416   -0.0784170272
H        2.6175775233    0.2473787568    0.2334463577
H        1.2311654687   -1.2996590926    1.8536384669
H        0.1323926285   -3.1062253016    0.2377141257
H       -1.5543756474    1.5201345748   -2.2923471981
H       -0.8039336661    2.2060253836    0.6041713461
C       -1.5616940107    0.2919918495   -0.3443113178
H       -2.0791060600   -0.5883690940    0.0019736514
13   
Frame  35 IRC: Energy =  -286.7808990000 ; +8.8637 kcal/mol
C        1.5231859469    0.1900904979    0.2689099210
C        1.0173494158   -1.1311458987    0.7877991373
C        0.4844814375   -2.0957831262    0.0749510285
C       -1.3536783749    1.1580153328   -1.2950379025
C       -0.5484018784    1.3697693853   -0.0525048068
N        0.8951601866    1.2376798728   -0.0784669848
H        2.6175723652    0.2473002244    0.2333462537
H        1.2308220174   -1.2994928766    1.8537172124
H        0.1325256979   -3.1062761002    0.2377269857
H       -1.5543788307    1.5201370467   -2.2923336587
H       -0.8038867490    2.2060495074    0.6041747976
C       -1.5616777272    0.2920128804   -0.3442866247
H       -2.0790735071   -0.5883567461    0.0020046412
13   
Frame  36 IRC: Energy =  -286.7808940000 ; +8.8668 kcal/mol
C        1.5231251639    0.1898253115    0.2683760421
C        1.0164948884   -1.1309507397    0.7878666965
C        0.4863918173   -2.0968749079    0.0747367335
C       -1.3536286769    1.1582199198   -1.2948379968
C       -0.5481265965    1.3699707911   -0.0524422038
N        0.8954304226    1.2376437454   -0.0788105555
H        2.6175319760    0.2464096218    0.2322257017
H        1.2265027141   -1.2974887481    1.8547622502
H        0.1341754791   -3.1072361655    0.2377864734
H       -1.5543659546    1.5202442934   -2.2921610284
H       -0.8034126199    2.2062692634    0.6042832906
C       -1.5614741524    0.2922355000   -0.3440449687
H       -2.0786444610   -0.5882678852    0.0022595652
13   
Frame  37 IRC: Energy =  -286.7808900000 ; +8.8693 kcal/mol
C        1.5230759069    0.1897103198    0.2680333425
C        1.0159192286   -1.1308959845    0.7878642100
C        0.4876426981   -2.0974815519    0.0746324449
C       -1.3535945809    1.1583490289   -1.2947106052
C       -0.5479632715    1.3701008877   -0.0523955746
N        0.8956254794    1.2375866951   -0.0790048205
H        2.6174982590    0.2458559924    0.2315329290
H        1.2237747007   -1.2962312222    1.8554180821
H        0.1352165382   -3.1078655865    0.2378164602
H       -1.5543513197    1.5203175822   -2.2920531100
H       -0.8031251226    2.2064013456    0.6043575066
C       -1.5613457961    0.2923710657   -0.3438989829
H       -2.0783727201   -0.5882185724    0.0024081180
13   
Frame  38 IRC: Energy =  -286.7808890000 ; +8.8700 kcal/mol
C        1.5230819044    0.1896352184    0.2679927368
C        1.0158774744   -1.1308109301    0.7879152220
C        0.4877739204   -2.0976616980    0.0745852915
C       -1.3535905996    1.1583670602   -1.2946939504
C       -0.5479282476    1.3701171078   -0.0523958041
N        0.8956257133    1.2376180916   -0.0790545781
H        2.6175010372    0.2457682498    0.2314201976
H        1.2233801170   -1.2960428268    1.8555066226
H        0.1353680241   -3.1079286288    0.2378302210
H       -1.5543534428    1.5203214128   -2.2920373368
H       -0.8030732309    2.2064275063    0.6043620537
C       -1.5613272445    0.2923946843   -0.3438722447
H       -2.0783354252   -0.5882052476    0.0024415689
13   