
Running Job 1 of 1 irc_reactant.in
qchem irc_reactant.in_86257.0 ./irc_reactant.d/ 1
/home/leeping/opt/qchem/5.0.2-openmp/exe/qcprog.exe_s irc_reactant.in_86257.0 ./irc_reactant.d/
Check license passed

                  Welcome to Q-Chem
     A Quantum Leap Into The Future Of Chemistry


 Q-Chem 5.0, Q-Chem, Inc., Pleasanton, CA (2017)

 Yihan Shao,  Zhengting Gan,  E. Epifanovsky,  A. T. B. Gilbert,  M. Wormit,  
 J. Kussmann,  A. W. Lange,  A. Behn,  Jia Deng,  Xintian Feng,  D. Ghosh,  
 M. Goldey,  P. R. Horn,  L. D. Jacobson,  I. Kaliman,  T. Kus,  A. Landau,  
 Jie Liu,  E. I. Proynov,  R. M. Richard,  R. P. Steele,  E. J. Sundstrom,  
 H. L. Woodcock III,  P. M. Zimmerman,  D. Zuev,  B. Albrecht,  E. Alguire,  
 S. A. Baeppler,  D. Barton,  Z. Benda,  Y. A. Bernard,  E. J. Berquist,  
 K. B. Bravaya,  H. Burton,  D. Casanova,  Chun-Min Chang,  Yunqing Chen,  
 A. Chien,  K. D. Closser,  M. P. Coons,  S. Dasgupta,  A. L. Dempwolff,  
 M. Diedenhofen,  Hainam Do,  R. G. Edgar,  Po-Tung Fang,  S. Fatehi,  
 Qingguo Feng,  J. Fosso-Tande,  Qinghui Ge,  A. Ghysels,  G. Gidofalvi,  
 J. Gomes,  J. Gonthier,  A. Gunina,  M. W. D. Hanson-Heine,  
 P. H. P. Harbach,  A. W. Hauser,  J. E. Herr,  E. G. Hohenstein,  
 Z. C. Holden,  Kerwin Hui,  T.-C. Jagau,  Hyunjun Ji,  B. Kaduk,  
 K. Khistyaev,  Jaehoon Kim,  P. Klunzinger,  K. Koh,  D. Kosenkov,  
 L. Koulias,  T. Kowalczyk,  C. M. Krauter,  A. Kunitsa,  Ka Un Lao,  
 A. Laurent,  K. V. Lawler,  Joonho Lee,  D. Lefrancois,  S. Lehtola,  
 D. S. Levine,  Yi-Pei Li,  You-Sheng Lin,  Fenglai Liu,  E. Livshits,  
 A. Luenser,  P. Manohar,  E. Mansoor,  S. F. Manzer,  Shan-Ping Mao,  
 Yuezhi Mao,  N. Mardirossian,  A. V. Marenich,  T. Markovich,  
 L. A. Martinez-Martinez,  S. A. Maurer,  N. J. Mayhall,  S. C. McKenzie,  
 J.-M. Mewes,  A. F. Morrison,  J. W. Mullinax,  K. Nanda,  
 T. S. Nguyen-Beck,  R. Olivares-Amaya,  J. A. Parkhill,  T. M. Perrine,  
 F. Plasser,  S. Prager,  A. Prociuk,  E. Ramos,  D. R. Rehn,  F. Rob,  
 M. Schneider,  N. Sergueev,  S. M. Sharada,  S. Sharma,  D. W. Small,  
 T. Stauch,  T. Stein,  Yu-Chuan Su,  A. J. W. Thom,  A. Tkatchenko,  
 T. Tsuchimochi,  L. Vogt,  O. Vydrov,  M. A. Watson,  J. Wenzel,  
 M. de Wergifosse,  T. A. Wesolowski,  A. White,  J. Witte,  A. Yamada,  
 Jun Yang,  K. Yao,  S. Yeganeh,  S. R. Yost,  Zhi-Qiang You,  A. Zech,  
 Igor Ying Zhang,  Xing Zhang,  Yan Zhao,  Ying Zhu,  B. R. Brooks,  
 G. K. L. Chan,  C. J. Cramer,  M. S. Gordon,  W. J. Hehre,  A. Klamt,  
 M. W. Schmidt,  C. D. Sherrill,  D. G. Truhlar,  A. Aspuru-Guzik,  R. Baer,  
 A. T. Bell,  N. A. Besley,  Jeng-Da Chai,  R. A. DiStasio Jr.,  A. Dreuw,  
 B. D. Dunietz,  T. R. Furlani,  Chao-Ping Hsu,  Yousung Jung,  Jing Kong,  
 D. S. Lambrecht,  WanZhen Liang,  C. Ochsenfeld,  V. A. Rassolov,  
 L. V. Slipchenko,  J. E. Subotnik,  T. Van Voorhis,  J. M. Herbert,  
 A. I. Krylov,  P. M. W. Gill,  M. Head-Gordon

 Contributors to earlier versions of Q-Chem not listed above: 
 R. D. Adamson,  B. Austin,  J. Baker,  G. J. O. Beran,  K. Brandhorst,  
 S. T. Brown,  E. F. C. Byrd,  A. K. Chakraborty,  C.-L. Cheng,  
 Siu Hung Chien,  D. M. Chipman,  D. L. Crittenden,  H. Dachsel,  
 R. J. Doerksen,  A. D. Dutoi,  L. Fusti-Molnar,  W. A. Goddard III,  
 A. Golubeva-Zadorozhnaya,  S. R. Gwaltney,  G. Hawkins,  A. Heyden,  
 S. Hirata,  G. Kedziora,  F. J. Keil,  C. Kelley,  Jihan Kim,  R. A. King,  
 R. Z. Khaliullin,  P. P. Korambath,  W. Kurlancheek,  A. M. Lee,  M. S. Lee,  
 S. V. Levchenko,  Ching Yeh Lin,  D. Liotard,  R. C. Lochan,  I. Lotan,  
 P. E. Maslen,  N. Nair,  D. P. O'Neill,  D. Neuhauser,  E. Neuscamman,  
 C. M. Oana,  R. Olson,  B. Peters,  R. Peverati,  P. A. Pieniazek,  
 Y. M. Rhee,  J. Ritchie,  M. A. Rohrdanz,  E. Rosta,  N. J. Russ,  
 H. F. Schaefer III,  N. E. Schultz,  N. Shenvi,  A. C. Simmonett,  A. Sodt,  
 D. Stuck,  K. S. Thanthiriwatte,  V. Vanovschi,  Tao Wang,  A. Warshel,  
 C. F. Williams,  Q. Wu,  X. Xu,  W. Zhang

 Please cite Q-Chem as follows:
 Y. Shao et al., Mol. Phys. 113, 184-215 (2015)
 DOI: 10.1080/00268976.2014.952696

 Q-Chem 5.0.2 for Intel X86 EM64T Linux

 Parts of Q-Chem use Armadillo 5.200.1 (Boston Tea Smuggler).
 http://arma.sourceforge.net/

 Q-Chem begins on Thu Mar  3 04:12:46 2022  

Host: 
0

     Scratch files written to ./irc_reactant.d//
 Dec517 15110_ 26548  26544 5633   
Processing $rem in /home/leeping/opt/qchem/5.0.2-openmp/config/preferences.
 MEM_STATIC 2000
 MEM_TOTAL  8000
 SYMMETRY   OFF
 SYM_IGNORE TRUE 

Checking the input file for inconsistencies... 	...done.

--------------------------------------------------------------
User input:
--------------------------------------------------------------
$molecule
0 2
C        1.5544248778    0.0938375700    0.1670720066
C        1.3562887175   -1.1013614845    1.0294028410
C        0.2277083839   -1.7217537314    1.3257774779
C       -1.6757192280    1.6059890312   -0.6392433728
C       -0.6859089170    0.4789258009   -0.4688471290
N        0.7040383159    0.7933185729   -0.4874789981
H        2.5958187031    0.4139758451    0.0889761868
H        2.2912922283   -1.4871489963    1.4555579624
H       -0.0462181725   -2.5797793952    1.9272082457
H       -2.1135536120    2.4648896085   -0.1548433297
H       -0.9659441616   -0.3983255422    0.1333582161
C       -1.5179894449    0.8453238443   -1.6743660847
H       -1.7242376900    0.5921088771   -2.7025740218
$end

$rem
method                b3lyp
basis                 6-31+g(d,p)
unrestricted          true
symmetry              off
sym_ignore            true
incdft                false
incfock               0
scf_convergence       6
thresh                14
jobtype               sp
scf_guess             read
scf_algorithm         diis
max_scf_cycles        100
stability_analysis    true
max_cis_cycles        100
cis_n_roots           4
$end

--------------------------------------------------------------
 ----------------------------------------------------------------
             Standard Nuclear Orientation (Angstroms)
    I     Atom           X                Y                Z
 ----------------------------------------------------------------
    1      C       1.5544248778     0.0938375700     0.1670720066
    2      C       1.3562887175    -1.1013614845     1.0294028410
    3      C       0.2277083839    -1.7217537314     1.3257774779
    4      C      -1.6757192280     1.6059890312    -0.6392433728
    5      C      -0.6859089170     0.4789258009    -0.4688471290
    6      N       0.7040383159     0.7933185729    -0.4874789981
    7      H       2.5958187031     0.4139758451     0.0889761868
    8      H       2.2912922283    -1.4871489963     1.4555579624
    9      H      -0.0462181725    -2.5797793952     1.9272082457
   10      H      -2.1135536120     2.4648896085    -0.1548433297
   11      H      -0.9659441616    -0.3983255422     0.1333582161
   12      C      -1.5179894449     0.8453238443    -1.6743660847
   13      H      -1.7242376900     0.5921088771    -2.7025740218
 ----------------------------------------------------------------
 Nuclear Repulsion Energy =   247.4335340243 hartrees
 There are       25 alpha and       24 beta electrons
 Requested basis set is 6-31+G(d,p)
 There are 53 shells and 163 basis functions

 Total QAlloc Memory Limit   8000 MB
 Mega-Array Size      1956 MB
 MEM_STATIC part      2000 MB

                       Distance Matrix (Angstroms)
             C (  1)   C (  2)   C (  3)   C (  4)   C (  5)   N (  6)
   C (  2)  1.487069
   C (  3)  2.529653  1.321521
   C (  4)  3.656580  4.393996  4.307925
   C (  5)  2.360462  2.985403  2.983013  1.509646
   N (  6)  1.280964  2.513200  3.136938  2.519268  1.425182
   H (  7)  1.092286  2.171885  3.420375  4.494133  3.329433  2.013712
   H (  8)  2.168568  1.097575  2.080928  5.449117  4.053703  3.390472
   H (  9)  3.578878  2.226836  1.083034  5.173259  3.937761  4.215613
   H ( 10)  4.379450  5.114723  5.020132  1.078913  2.465932  3.292965
   H ( 11)  2.568194  2.586488  2.144326  2.262293  1.100291  2.143431
   C ( 12)  3.659967  4.400162  4.317199  1.294206  1.509928  2.519685
   H ( 13)  4.385518  5.126903  5.039015  2.299487  2.465861  3.292971
             H (  7)   H (  8)   H (  9)   H ( 10)   H ( 11)   C ( 12)
   H (  8)  2.361050
   H (  9)  4.395683  2.623023
   H ( 10)  5.142362  6.133080  5.835880
   H ( 11)  3.653486  3.680127  2.970275  3.098075
   C ( 12)  4.496538  5.454125  5.183510  2.299269  2.262584
   H ( 13)  5.146588  6.143114  5.857603  3.185876  3.098142  1.078827

 
 A cutoff of  1.0D-14 yielded   1319 shell pairs
 There are     13025 function pairs
 Smallest overlap matrix eigenvalue = 2.55E-05

 Scale SEOQF with 1.000000e-01/1.000000e-01/1.000000e-01

 Standard Electronic Orientation quadrupole field applied
 Nucleus-field energy     =     0.0000000021 hartrees
 Guess MOs from SCF MO coefficient file
 Reading MOs from coefficient file
 Reading MOs from coefficient file
 An unrestricted hybrid HF-DFT SCF calculation will be
 performed using Pulay DIIS extrapolation
 Exchange:     0.2000 Hartree-Fock + 0.0800 Slater + 0.7200 B88
 Correlation:  0.1900 VWN1RPA + 0.8100 LYP
 Using SG-1 standard quadrature grid
 SCF converges when DIIS error is below 1.0E-06
Using Q-Chem read-in guess as SCF_GUESS READ specified.

 -------------------------------------------------------
 OpenMP BLAS3 based DFT computing Module                
 -------------------------------------------------------
 ---------------------------------------
  Cycle       Energy         DIIS Error
 ---------------------------------------
    1    -286.7950241675      4.26E-09
    2    -286.7950241676      4.46E-09 Convergence criterion met
 ---------------------------------------
 <S^2> = 0.7642
 SCF time:  CPU 6.02 s  wall 7.82 s
 SCF   energy in the final basis set = -286.79502417
 Total energy in the final basis set = -286.79502417
 
 Direct TDDFT/TDA calculation will be performed
 Exchange:     0.2000 Hartree-Fock + 0.0800 Slater + 0.7200 B88
 Correlation:  0.1900 VWN1RPA + 0.8100 LYP
 Using SG-1 standard quadrature grid
 CIS energy converged when residual is below 10e- 6
 ---------------------------------------------------
 Iter    Rts Conv    Rts Left    Ttl Dev     Max Dev
 ---------------------------------------------------
   1         0           4      0.003709    0.002084
   2         0           4      0.001575    0.000586
   3         0           4      0.000388    0.000116
   4         0           4      0.000143    0.000048
   5         0           4      0.000050    0.000021
   6         1           3      0.000019    0.000009
   7         2           2      0.000005    0.000002
   8         4           0      0.000002    0.000001    Roots Converged
 ---------------------------------------------------
 
 ---------------------------------------------------
         TDDFT/TDA Excitation Energies              
 ---------------------------------------------------

 Excited state   1: excitation energy (eV) =    2.6532
 Total energy for state  1:                  -286.69752240 au
    <S**2>     :  0.8211
    Trans. Mom.: -0.0130 X   0.0695 Y   0.1032 Z
    Strength   :     0.0010175100
    S(  1) --> V(  1) amplitude =  0.5355 alpha
    D( 21) --> S(  1) amplitude = -0.2232 beta
    D( 24) --> S(  1) amplitude =  0.7997 beta

 Excited state   2: excitation energy (eV) =    2.9093
 Total energy for state  2:                  -286.68810869 au
    <S**2>     :  1.1843
    Trans. Mom.:  0.0076 X  -0.0319 Y  -0.0479 Z
    Strength   :     0.0002401915
    S(  1) --> V(  1) amplitude =  0.8174 alpha
    D( 24) --> S(  1) amplitude = -0.5257 beta

 Excited state   3: excitation energy (eV) =    3.2099
 Total energy for state  3:                  -286.67706069 au
    <S**2>     :  2.5934
    Trans. Mom.:  0.0454 X   0.0960 Y  -0.0642 Z
    Strength   :     0.0012112734
    D( 24) --> V(  1) amplitude =  0.7098 alpha
    D( 23) --> S(  1) amplitude =  0.2566 beta
    D( 24) --> V(  1) amplitude =  0.5992 beta

 Excited state   4: excitation energy (eV) =    3.4203
 Total energy for state  4:                  -286.66932892 au
    <S**2>     :  0.9322
    Trans. Mom.:  0.1028 X   0.3609 Y  -0.2528 Z
    Strength   :     0.0171535858
    D( 23) --> S(  1) amplitude =  0.9136 beta
    D( 24) --> V(  1) amplitude = -0.3839 beta
 
 ---------------------------------------------------

 Stability analysis will be performed
 ---------------------------------------------------
 Iter    Rts Conv    Rts Left    Ttl Dev     Max Dev
 ---------------------------------------------------
   1         0           8      0.003839    0.000646
   2         0           8      0.001280    0.000374
   3         0           8      0.000457    0.000142
   4         0           8      0.000487    0.000265
   5         3           5      0.000286    0.000188
   6         3           5      0.000716    0.000535
   7         3           5      0.000198    0.000142
   8         6           2      0.000065    0.000046
   9         6           2      0.000018    0.000012
  10         6           2      0.000006    0.000003
  11         8           0      0.000003    0.000001    Roots Converged
 UKS-> UKS   stable,    smallest eigenvalue:      0.0721304
 UKS->CUKS   stable,    smallest eigenvalue:      0.1031537
 ---------------------------------------------------
  SETman timing summary (seconds)
  CPU time               171.97s
  System time              0.00s
  Wall time              180.66s
 
 --------------------------------------------------------------
 
                    Orbital Energies (a.u.)
 --------------------------------------------------------------
 
 Alpha MOs
 -- Occupied --
-14.337 -10.237 -10.237 -10.228 -10.219 -10.218 -10.215  -0.938
 -0.870  -0.786  -0.671  -0.600  -0.578  -0.541  -0.518  -0.496
 -0.460  -0.428  -0.385  -0.362  -0.313  -0.288  -0.282  -0.256
 -0.223
 -- Virtual --
 -0.064  -0.012   0.007   0.019   0.025   0.028   0.043   0.049
  0.055   0.062   0.075   0.088   0.092   0.096   0.107   0.108
  0.126   0.129   0.133   0.138   0.152   0.163   0.169   0.180
  0.192   0.192   0.197   0.199   0.209   0.224   0.246   0.249
  0.259   0.263   0.274   0.287   0.301   0.308   0.329   0.367
  0.370   0.414   0.449   0.484   0.614   0.655   0.656   0.683
  0.698   0.707   0.714   0.728   0.736   0.750   0.761   0.773
  0.791   0.846   0.871   0.896   0.913   0.943   0.962   0.979
  1.004   1.015   1.031   1.081   1.085   1.120   1.159   1.166
  1.195   1.254   1.267   1.292   1.317   1.360   1.369   1.412
  1.435   1.533   1.536   1.618   1.619   1.637   1.719   1.781
  1.805   1.830   1.853   1.861   1.947   1.963   1.981   2.048
  2.068   2.113   2.169   2.206   2.222   2.263   2.285   2.290
  2.347   2.399   2.403   2.406   2.444   2.463   2.495   2.526
  2.599   2.603   2.624   2.655   2.706   2.721   2.742   2.861
  2.865   2.891   3.087   3.137   3.198   3.272   3.338   3.406
  3.452   3.678   3.753   4.179   4.283   4.364   4.417   4.609
  4.722   4.885
 
 Beta MOs
 -- Occupied --
-14.337 -10.236 -10.236 -10.219 -10.218 -10.216 -10.213  -0.937
 -0.869  -0.773  -0.663  -0.590  -0.578  -0.536  -0.511  -0.489
 -0.448  -0.423  -0.386  -0.361  -0.310  -0.286  -0.256  -0.250
 -- Virtual --
 -0.094  -0.055  -0.011   0.010   0.019   0.027   0.028   0.045
  0.049   0.057   0.064   0.078   0.088   0.093   0.098   0.108
  0.109   0.128   0.130   0.135   0.139   0.153   0.164   0.172
  0.181   0.192   0.193   0.200   0.205   0.210   0.226   0.246
  0.251   0.261   0.263   0.275   0.288   0.304   0.310   0.335
  0.367   0.379   0.420   0.449   0.496   0.618   0.662   0.666
  0.685   0.698   0.710   0.719   0.735   0.736   0.751   0.762
  0.792   0.794   0.850   0.873   0.897   0.919   0.954   0.968
  0.983   1.011   1.013   1.035   1.087   1.098   1.120   1.161
  1.172   1.198   1.255   1.272   1.295   1.324   1.365   1.370
  1.415   1.439   1.541   1.546   1.622   1.638   1.664   1.730
  1.782   1.807   1.850   1.859   1.879   1.952   1.967   1.998
  2.053   2.068   2.118   2.171   2.212   2.229   2.264   2.286
  2.293   2.352   2.403   2.407   2.415   2.447   2.466   2.498
  2.529   2.603   2.610   2.627   2.657   2.712   2.735   2.752
  2.861   2.870   2.895   3.091   3.137   3.202   3.281   3.340
  3.412   3.457   3.690   3.753   4.179   4.289   4.373   4.434
  4.614   4.724   4.886
 --------------------------------------------------------------
 
          Ground-State Mulliken Net Atomic Charges

     Atom                 Charge (a.u.)    Spin (a.u.)
  --------------------------------------------------------
      1 C                    -0.140180       0.046029
      2 C                     0.011977      -0.216044
      3 C                    -0.183579       1.042672
      4 C                    -0.179257      -0.004506
      5 C                    -0.080832       0.068004
      6 N                    -0.082879      -0.010305
      7 H                     0.120199       0.003178
      8 H                     0.141554       0.082427
      9 H                     0.152704       0.011055
     10 H                     0.142697      -0.001175
     11 H                     0.132672      -0.016089
     12 C                    -0.177829      -0.004026
     13 H                     0.142753      -0.001219
  --------------------------------------------------------
  Sum of atomic charges =    -0.000000
  Sum of spin   charges =     1.000000

 -----------------------------------------------------------------
                    Cartesian Multipole Moments
 -----------------------------------------------------------------
    Charge (ESU x 10^10)
                 0.0000
    Dipole Moment (Debye)
         X      -0.5287      Y      -1.0891      Z       0.7335
       Tot       1.4156
    Quadrupole Moments (Debye-Ang)
        XX     -38.0273     XY      -3.6976     YY     -40.4974
        XZ       3.2137     YZ      -1.0098     ZZ     -39.8119
    Octopole Moments (Debye-Ang^2)
       XXX      10.4531    XXY      -1.9324    XYY      -8.4250
       YYY     -15.6552    XXZ       5.5677    XYZ      -0.5602
       YYZ      14.8823    XZZ      -6.4671    YZZ     -10.7102
       ZZZ      -0.0377
    Hexadecapole Moments (Debye-Ang^3)
      XXXX    -449.1940   XXXY      92.1090   XXYY    -129.9383
      XYYY      85.8853   YYYY    -361.9061   XXXZ     -98.3695
      XXYZ      40.1485   XYYZ     -35.6792   YYYZ     113.1027
      XXZZ    -122.0696   XYZZ      31.2815   YYZZ    -108.4023
      XZZZ     -85.8561   YZZZ     115.6446   ZZZZ    -287.3188
 -----------------------------------------------------------------
Archival summary:
1\1\c8-85\SP\ProcedureUnspecified\6-31+G**\166(2)\hpark21\ThuMar304:15:582022ThuMar304:15:582022\0\\#,ProcedureUnspecified,6-31+G**,\\0,2\N\C,1,1.28096\H,2,1.09229,1,115.872\C,1,1.42518,2,121.353,3,179.955,0\H,4,1.10029,1,115.547,2,-0.427422,0\C,2,1.48707,1,130.296,3,-179.981,0\H,6,1.09758,2,113.213,1,179.678,0\C,6,1.32152,2,128.4,1,-0.345422,0\H,8,1.08303,6,135.435,2,-179.893,0\C,4,1.50965,1,118.247,2,150.44,0\H,10,1.07891,4,144.07,1,-72.2962,0\C,10,1.29421,4,64.6322,1,104.783,0\H,12,1.07883,10,151.275,4,-176.381,0\\\@

 Total job time:  191.24s(wall), 178.21s(cpu) 
 Thu Mar  3 04:15:58 2022

        *************************************************************
        *                                                           *
        *  Thank you very much for using Q-Chem.  Have a nice day.  *
        *                                                           *
        *************************************************************


