13   
Frame   0 IRC: Energy =  -286.7950241677 ; +0.0000 kcal/mol
C        1.5544248778    0.0938375700    0.1670720066
C        1.3562887175   -1.1013614845    1.0294028410
C        0.2277083839   -1.7217537314    1.3257774779
C       -1.6757192280    1.6059890312   -0.6392433728
C       -0.6859089170    0.4789258009   -0.4688471290
N        0.7040383159    0.7933185729   -0.4874789981
H        2.5958187031    0.4139758451    0.0889761868
H        2.2912922283   -1.4871489963    1.4555579624
H       -0.0462181725   -2.5797793952    1.9272082457
H       -2.1135536120    2.4648896085   -0.1548433297
H       -0.9659441616   -0.3983255422    0.1333582161
C       -1.5179894449    0.8453238443   -1.6743660847
H       -1.7242376900    0.5921088771   -2.7025740218
13   
Frame   1 IRC: Energy =  -286.7948923001 ; +0.0827 kcal/mol
C        1.5497189377    0.0951568536    0.1730432659
C        1.3588112745   -1.1078194875    1.0263805188
C        0.2347817388   -1.7354442511    1.3242277838
C       -1.6783441917    1.6230689136   -0.6593410115
C       -0.6935558872    0.4921114696   -0.4509570767
N        0.6933517270    0.7987062087   -0.4684475320
H        2.5905820611    0.4151344955    0.0870053516
H        2.2974899265   -1.4994313091    1.4400925327
H       -0.0225085905   -2.6049311665    1.9172762062
H       -2.1152350980    2.4870766333   -0.1844435739
H       -0.9901770682   -0.3680503706    0.1659408829
C       -1.5229267272    0.8312305840   -1.6691874199
H       -1.7019881029    0.5731914265   -2.7015899278
13   
Frame   2 IRC: Energy =  -286.7946798085 ; +0.2161 kcal/mol
C        1.5455658454    0.1020886682    0.1818803062
C        1.3590287606   -1.1172880333    1.0099992800
C        0.2382943782   -1.7552618068    1.2999470996
C       -1.6838402913    1.6373477425   -0.6791397810
C       -0.7014979072    0.5173855517   -0.4107744661
N        0.6844574890    0.8201731924   -0.4371081476
H        2.5854874981    0.4241696657    0.0958447761
H        2.2999726318   -1.5180236666    1.4089580151
H       -0.0073493174   -2.6400897358    1.8751386298
H       -2.1123319449    2.5314306171   -0.2575428650
H       -1.0065419791   -0.3144462980    0.2393162949
C       -1.5255114107    0.7976105044   -1.6481390255
H       -1.6757337525    0.5149035984   -2.6783801165
13   
Frame   3 IRC: Energy =  -286.7944321479 ; +0.3715 kcal/mol
C        1.5431638791    0.1105838991    0.1896254759
C        1.3573729991   -1.1254649529    0.9900170342
C        0.2375249685   -1.7697795715    1.2718060820
C       -1.6881948588    1.6475543146   -0.6954488233
C       -0.7064108531    0.5436196748   -0.3693428249
N        0.6793365091    0.8447996952   -0.4075640787
H        2.5825707690    0.4339449995    0.1063945286
H        2.2990482261   -1.5378488775    1.3745446051
H       -0.0025923208   -2.6681799493    1.8280915045
H       -2.1121031367    2.5685318046   -0.3298266046
H       -1.0144558852   -0.2603460603    0.3138239916
C       -1.5251513360    0.7621040507   -1.6233409283
H       -1.6501089603    0.4504809732   -2.6487799621
13   
Frame   4 IRC: Energy =  -286.7941451558 ; +0.5516 kcal/mol
C        1.5426101111    0.1205425827    0.1976617798
C        1.3547101847   -1.1324390210    0.9675021028
C        0.2331803663   -1.7780989857    1.2414570739
C       -1.6900699613    1.6533764609   -0.7104758063
C       -0.7084345324    0.5694640851   -0.3307378431
N        0.6777138841    0.8714566689   -0.3772053156
H        2.5820963907    0.4440522682    0.1196199532
H        2.2958886809   -1.5589063166    1.3363137994
H       -0.0077658317   -2.6881327424    1.7776122147
H       -2.1125175845    2.5937556952   -0.3985239614
H       -1.0167657363   -0.2036723476    0.3857994620
C       -1.5216211785    0.7269585620   -1.5965027511
H       -1.6290247932    0.3816430904   -2.6125207083
13   
Frame   5 IRC: Energy =  -286.7938411583 ; +0.7424 kcal/mol
C        1.5428554268    0.1311340022    0.2058239580
C        1.3516119627   -1.1388930262    0.9438921439
C        0.2272900002   -1.7837384917    1.2101534228
C       -1.6908730466    1.6573029645   -0.7249484802
C       -0.7092090133    0.5951399998   -0.2933549910
N        0.6776038018    0.8989915336   -0.3464943128
H        2.5826779830    0.4543030517    0.1340022268
H        2.2917627548   -1.5804965198    1.2964325110
H       -0.0172328797   -2.7045672545    1.7256490000
H       -2.1132101495    2.6138443380   -0.4656707157
H       -1.0166526277   -0.1458859715    0.4566801034
C       -1.5167204094    0.6919691395   -1.5687825285
H       -1.6099038030    0.3108962344   -2.5733823378
13   
Frame   6 IRC: Energy =  -286.7934927276 ; +0.9610 kcal/mol
C        1.5434554723    0.1421791639    0.2130991594
C        1.3473030541   -1.1439553717    0.9186912739
C        0.2192530055   -1.7859332770    1.1780302084
C       -1.6910980285    1.6579147071   -0.7373907290
C       -0.7088833623    0.6201593870   -0.2565191392
N        0.6786593146    0.9269746515   -0.3165457867
H        2.5839681039    0.4637503010    0.1474746593
H        2.2856960170   -1.6011819991    1.2547390513
H       -0.0315112671   -2.7160640993    1.6731157606
H       -2.1143430169    2.6271395074   -0.5305717133
H       -1.0138618019   -0.0882137622    0.5254744465
C       -1.5099654914    0.6567361759   -1.5389041681
H       -1.5886719993    0.2404946156   -2.5306930230
13   
Frame   7 IRC: Energy =  -286.7930850487 ; +1.2168 kcal/mol
C        1.5445285221    0.1538293551    0.2191916469
C        1.3413797900   -1.1471620481    0.8913690489
C        0.2083536503   -1.7835347979    1.1448141707
C       -1.6905521547    1.6541064763   -0.7471255653
C       -0.7070907719    0.6443033463   -0.2204126693
N        0.6812690569    0.9555554798   -0.2876139636
H        2.5862029918    0.4721261006    0.1597338903
H        2.2770413594   -1.6206611003    1.2106292032
H       -0.0522051975   -2.7209769529    1.6198224380
H       -2.1160629930    2.6313761134   -0.5924781709
H       -1.0075004504   -0.0306937852    0.5914868746
C       -1.5007382114    0.6211784693   -1.5061481007
H       -1.5646255916    0.1705533436   -2.4832688029
13   
Frame   8 IRC: Energy =  -286.7926767653 ; +1.4730 kcal/mol
C        1.5455954169    0.1654710279    0.2252380597
C        1.3354212838   -1.1502928057    0.8639558448
C        0.1973812657   -1.7808787703    1.1116825491
C       -1.6898835242    1.6500665556   -0.7568168919
C       -0.7052891866    0.6683835488   -0.1844499662
N        0.6839282335    0.9841515749   -0.2585117856
H        2.5884560992    0.4804206325    0.1719338275
H        2.2683266331   -1.6400775155    1.1662096733
H       -0.0732209449   -2.7254688716    1.5666253650
H       -2.1178077074    2.6349452431   -0.6541472733
H       -1.0012080378    0.0268781468    0.6571072549
C       -1.4912272236    0.5857507286   -1.4733350533
H       -1.5404723077    0.1006505050   -2.4354916041
13   
Frame   9 IRC: Energy =  -286.7922582990 ; +1.7356 kcal/mol
C        1.5465586174    0.1769691896    0.2305082480
C        1.3288690505   -1.1521445488    0.8350099064
C        0.1851785445   -1.7738837954    1.0799730941
C       -1.6871467982    1.6421233298   -0.7657752056
C       -0.7033360633    0.6913896307   -0.1509093183
N        0.6874202355    1.0130048705   -0.2265396197
H        2.5910161518    0.4873460396    0.1831348376
H        2.2585999228   -1.6584378526    1.1165728998
H       -0.0996583786   -2.7228692536    1.5150498203
H       -2.1199691911    2.6272693237   -0.7118176287
H       -0.9960770458    0.0853253706    0.7161227602
C       -1.4769365772    0.5525125375   -1.4395620592
H       -1.5145184682    0.0313951584   -2.3817677349
13   
Frame  10 IRC: Energy =  -286.7918398327 ; +1.9982 kcal/mol
C        1.5475218179    0.1884673513    0.2357784363
C        1.3223168172   -1.1539962920    0.8060639680
C        0.1729758234   -1.7668888204    1.0482636392
C       -1.6844100723    1.6341801040   -0.7747335193
C       -0.7013829400    0.7143957126   -0.1173686704
N        0.6909122374    1.0418581662   -0.1945674539
H        2.5935762044    0.4942714467    0.1943358476
H        2.2488732125   -1.6767981896    1.0669361263
H       -0.1260958122   -2.7202696356    1.4634742755
H       -2.1221306748    2.6195934044   -0.7694879840
H       -0.9909460539    0.1437725944    0.7751382655
C       -1.4626459308    0.5192743464   -1.4057890650
H       -1.4885646287   -0.0378601882   -2.3280438657
13   
Frame  11 IRC: Energy =  -286.7913885753 ; +2.2814 kcal/mol
C        1.5491540207    0.2009228162    0.2405597638
C        1.3150222434   -1.1550845611    0.7744554007
C        0.1588509539   -1.7542559477    1.0169238230
C       -1.6813836345    1.6220708638   -0.7811614907
C       -0.6983591768    0.7352726956   -0.0853860761
N        0.6958388736    1.0707022669   -0.1616766008
H        2.5974823749    0.4998473064    0.2013483020
H        2.2370230581   -1.6948769597    1.0152175463
H       -0.1593208156   -2.7087030847    1.4137944397
H       -2.1271956886    2.6029524546   -0.8206421456
H       -0.9844141243    0.1991432395    0.8289471862
C       -1.4440808998    0.4871501279   -1.3712730364
H       -1.4586171850   -0.1051412177   -2.2711071122
13   
Frame  12 IRC: Energy =  -286.7909207040 ; +2.5750 kcal/mol
C        1.5511251795    0.2138633073    0.2450934057
C        1.3073515562   -1.1557860094    0.7414977888
C        0.1437522111   -1.7387665842    0.9857712877
C       -1.6782104115    1.6078508756   -0.7863074418
C       -0.6947929645    0.7550709519   -0.0541928834
N        0.7014923800    1.0995417089   -0.1283202866
H        2.6020705680    0.5047394060    0.2062385876
H        2.2240970420   -1.7128130715    0.9624442005
H       -0.1959848014   -2.6925933577    1.3650750816
H       -2.1337318018    2.5817692929   -0.8684948197
H       -0.9771723973    0.2529551088    0.8801181448
C       -1.4233502140    0.4555903136   -1.3363805428
H       -1.4266463463   -0.1714219420   -2.2125425224
13   
Frame  13 IRC: Energy =  -286.7904917148 ; +2.8442 kcal/mol
C        1.5524488164    0.2264751845    0.2510390736
C        1.3003409083   -1.1567314501    0.7095598158
C        0.1303854030   -1.7248672600    0.9564191032
C       -1.6731800208    1.5946188066   -0.7943830835
C       -0.6925399021    0.7750767475   -0.0240624102
N        0.7060603057    1.1271120133   -0.0921551674
H        2.6057448452    0.5105347493    0.2138878482
H        2.2122699498   -1.7306262630    0.9071048667
H       -0.2288137982   -2.6788303381    1.3171570033
H       -2.1370172978    2.5610548135   -0.9186348886
H       -0.9754294029    0.3087394231    0.9286322890
C       -1.4026232109    0.4251805619   -1.3022735890
H       -1.3976465956   -0.2377369886   -2.1522908610
13   
Frame  14 IRC: Energy =  -286.7901542139 ; +3.0559 kcal/mol
C        1.5522488519    0.2383138423    0.2603072004
C        1.2948833146   -1.1582509980    0.6800210250
C        0.1210937905   -1.7147092553    0.9313030955
C       -1.6637797650    1.5837112849   -0.8093522077
C       -0.6933766461    0.7955708775    0.0035675128
N        0.7080738895    1.1516960718   -0.0493810067
H        2.6072687030    0.5184554005    0.2280289019
H        2.2030285957   -1.7481502266    0.8457278327
H       -0.2526191700   -2.6705890572    1.2711243144
H       -2.1326541800    2.5414431312   -0.9741571350
H       -0.9866247767    0.3691648468    0.9708950214
C       -1.3819048732    0.3974768764   -1.2700149887
H       -1.3756377342   -0.3041327943   -2.0880695661
13   
Frame  15 IRC: Energy =  -286.7898411008 ; +3.2524 kcal/mol
C        1.5511115107    0.2501665921    0.2730625729
C        1.2902442358   -1.1606186647    0.6507210003
C        0.1141731515   -1.7071303856    0.9083611484
C       -1.6525929621    1.5741583031   -0.8274488021
C       -0.6959321311    0.8160749504    0.0296172638
N        0.7084704373    1.1742734497   -0.0045842547
H        2.6077005596    0.5271643149    0.2450373727
H        2.1952964652   -1.7648841556    0.7831800873
H       -0.2709716617   -2.6659748806    1.2271135867
H       -2.1237397286    2.5236489833   -1.0325077518
H       -1.0034279787    0.4310026988    1.0096809006
C       -1.3626490180    0.3711601665   -1.2388874762
H       -1.3576828800   -0.3690413723   -2.0233456477
13   
Frame  16 IRC: Energy =  -286.7895777887 ; +3.4177 kcal/mol
C        1.5480600023    0.2620481185    0.2929390653
C        1.2872766031   -1.1647182299    0.6219085470
C        0.1120941524   -1.7048182312    0.8898587356
C       -1.6377579461    1.5673713557   -0.8519318381
C       -0.7019973662    0.8365993270    0.0524402292
N        0.7055649215    1.1927530916    0.0443427237
H        2.6059024980    0.5374828995    0.2679012438
H        2.1906462402   -1.7800047964    0.7182416938
H       -0.2781891150   -2.6687674219    1.1872317989
H       -2.1055312398    2.5095663261   -1.0966340341
H       -1.0316826299    0.4957247960    1.0413668818
C       -1.3463796210    0.3476757264   -1.2100696983
H       -1.3480064995   -0.4309129614   -1.9575953486
13   
Frame  17 IRC: Energy =  -286.7890578065 ; +3.7440 kcal/mol
C        1.5484090686    0.2604101403    0.2863153200
C        1.2804949207   -1.1568509726    0.6054342640
C        0.1040970779   -1.6956078795    0.8842210174
C       -1.6282464307    1.5568275695   -0.8482051009
C       -0.6980472985    0.8395688742    0.0638596404
N        0.7100946155    1.2020108698    0.0454953143
H        2.6037350115    0.5400110484    0.2883990956
H        2.1789795034   -1.7771105990    0.6829356852
H       -0.2955729006   -2.6557283413    1.1773752241
H       -2.1043612389    2.4906271782   -1.1029175061
H       -1.0274054470    0.5086951683    1.0558532184
C       -1.3320366648    0.3368433050   -1.2016538706
H       -1.3401402172   -0.4496963615   -1.9371123019
13   
Frame  18 IRC: Energy =  -286.7888586106 ; +3.8689 kcal/mol
C        1.5387817583    0.2642145872    0.3032886575
C        1.2775894424   -1.1593721510    0.5867522103
C        0.1091483618   -1.7161666944    0.8675827639
C       -1.6079163871    1.5567184827   -0.8779847324
C       -0.7085110109    0.8654948922    0.0817809011
N        0.7025882268    1.2135438038    0.0801308042
H        2.5920396185    0.5487754343    0.3239976622
H        2.1799171406   -1.7752894521    0.6388091731
H       -0.2774455582   -2.6868698480    1.1417927755
H       -2.0662028564    2.4852446737   -1.1786926690
H       -1.0635476230    0.5859022305    1.0803287645
C       -1.3284027473    0.3178027127   -1.1744062032
H       -1.3480383655   -0.4999986717   -1.8733801077
13   
Frame  19 IRC: Energy =  -286.7886387010 ; +4.0069 kcal/mol
C        1.5314497166    0.2708120852    0.3222730985
C        1.2741742338   -1.1613118166    0.5667192106
C        0.1122808995   -1.7284158533    0.8537099937
C       -1.5874762902    1.5536275335   -0.9074633461
C       -0.7168057048    0.8885274585    0.0985820705
N        0.6964401376    1.2253977788    0.1196611836
H        2.5839428328    0.5574463811    0.3585868410
H        2.1774586821   -1.7772516956    0.5851890011
H       -0.2654286381   -2.7087462205    1.1063150042
H       -2.0323691166    2.4761359841   -1.2485926433
H       -1.0978107406    0.6565762553    1.1012599440
C       -1.3207140265    0.2983738290   -1.1478166945
H       -1.3551419857   -0.5511717193   -1.8084236634
13   
Frame  20 IRC: Energy =  -286.7883427323 ; +4.1927 kcal/mol
C        1.5325457641    0.2876655006    0.3486421922
C        1.2688873258   -1.1611162014    0.5417256182
C        0.1083679159   -1.7101524518    0.8499919133
C       -1.5666320837    1.5395873631   -0.9358366409
C       -0.7171358919    0.9009354422    0.1112703308
N        0.6952796435    1.2384305971    0.1771653050
H        2.5890599180    0.5657742247    0.3894696083
H        2.1625299627   -1.7931063229    0.4967086767
H       -0.2758488243   -2.6966015733    1.0712216018
H       -2.0144152065    2.4533449656   -1.2969192759
H       -1.1251740677    0.7032613565    1.1091764212
C       -1.2981363096    0.2775191624   -1.1236439052
H       -1.3593281464   -0.6055420628   -1.7389718455
13   
Frame  21 IRC: Energy =  -286.7880335502 ; +4.3867 kcal/mol
C        1.5276010721    0.2983578658    0.3741667382
C        1.2658017260   -1.1614614471    0.5232872640
C        0.1104998951   -1.7110708333    0.8411742415
C       -1.5421777870    1.5293980870   -0.9666635095
C       -0.7234906893    0.9179159887    0.1231656838
N        0.6886332103    1.2474151219    0.2253917587
H        2.5854335824    0.5738565545    0.4239620053
H        2.1564123062   -1.7963960623    0.4329146747
H       -0.2700186407   -2.7052922388    1.0351961196
H       -1.9771573787    2.4354168495   -1.3595550547
H       -1.1592258067    0.7644526008    1.1153595850
C       -1.2882235849    0.2588958791   -1.0979504046
H       -1.3740879048   -0.6514883657   -1.6704491016
13   
Frame  22 IRC: Energy =  -286.7877137904 ; +4.5873 kcal/mol
C        1.5178205463    0.3041180840    0.3990151927
C        1.2644783542   -1.1622396719    0.5100966187
C        0.1174710889   -1.7273449366    0.8282741594
C       -1.5148334804    1.5222915933   -0.9994545541
C       -0.7346684086    0.9385570396    0.1344262853
N        0.6775950814    1.2531588391    0.2661910988
H        2.5748078174    0.5817423415    0.4613440434
H        2.1573482292   -1.7896271474    0.3888829803
H       -0.2511794393   -2.7306623375    0.9984244732
H       -1.9244460559    2.4213816653   -1.4336458307
H       -1.1986318651    0.8372565453    1.1201551677
C       -1.2884496516    0.2420589001   -1.0710395190
H       -1.3973122166   -0.6906909147   -1.6026701157
13   
Frame  23 IRC: Energy =  -286.7874087065 ; +4.7788 kcal/mol
C        1.5075348644    0.3087959925    0.4233290181
C        1.2633128697   -1.1625410716    0.4989502863
C        0.1245347567   -1.7444457067    0.8144649047
C       -1.4861309446    1.5131352236   -1.0317638858
C       -0.7457032355    0.9593629471    0.1439812857
N        0.6662370866    1.2578364336    0.3039552527
H        2.5631899619    0.5887626746    0.4999049891
H        2.1591860362   -1.7807034186    0.3512190069
H       -0.2313955583   -2.7562103231    0.9614775520
H       -1.8675547239    2.4034793894   -1.5073385232
H       -1.2361069698    0.9120027685    1.1204016004
C       -1.2915169320    0.2261184955   -1.0438007087
H       -1.4255872115   -0.7255934048   -1.5347807781
13   
Frame  24 IRC: Energy =  -286.7871197109 ; +4.9601 kcal/mol
C        1.4966954131    0.3122874362    0.4470567645
C        1.2623204665   -1.1623197596    0.4900449995
C        0.1316997977   -1.7624526971    0.7996589838
C       -1.4559394716    1.5017317099   -1.0635451474
C       -0.7565814190    0.9803495762    0.1516665479
N        0.6545284439    1.2613453079    0.3383921319
H        2.5504845430    0.5948342675    0.5397582932
H        2.1620125192   -1.7694175090    0.3205355464
H       -0.2105760875   -2.7819533144    0.9243384888
H       -1.8060811231    2.3813378756   -1.5805948229
H       -1.2714652970    0.9888781838    1.1156610997
C       -1.2976988477    0.2111609464   -1.0162024162
H       -1.4593989374   -0.7557820237   -1.4667704693
13   
Frame  25 IRC: Energy =  -286.7868492496 ; +5.1298 kcal/mol
C        1.4851162657    0.3147082402    0.4710016511
C        1.2621211697   -1.1627909005    0.4839271769
C        0.1402894819   -1.7826593269    0.7862462217
C       -1.4253056365    1.4905607819   -1.0957838880
C       -0.7679877498    1.0014694172    0.1574137960
N        0.6419002911    1.2635567860    0.3709664379
H        2.5365828247    0.6005751055    0.5801706110
H        2.1666204492   -1.7574850706    0.2951018044
H       -0.1863615350   -2.8099788220    0.8894433819
H       -1.7420629824    2.3589462827   -1.6532488069
H       -1.3062739089    1.0662759597    1.1071915826
C       -1.3066308534    0.1982601778   -0.9904781756
H       -1.4980078163   -0.7814386310   -1.4019517930
13   
Frame  26 IRC: Energy =  -286.7866375618 ; +5.2627 kcal/mol
C        1.4711914787    0.3137339536    0.4956351074
C        1.2644368817   -1.1654578694    0.4866486436
C        0.1533968324   -1.8098412024    0.7772512856
C       -1.3932690331    1.4801274029   -1.1294733336
C       -0.7810688811    1.0230116847    0.1570154345
N        0.6263562930    1.2616541087    0.3976343635
H        2.5188875378    0.6052670907    0.6223556091
H        2.1768775010   -1.7435024336    0.2863153718
H       -0.1513808863   -2.8452423855    0.8616640542
H       -1.6699758865    2.3357616672   -1.7239927964
H       -1.3393393259    1.1453301855    1.0868970337
C       -1.3242836314    0.1918816371   -0.9706967151
H       -1.5518288804   -0.7927238397   -1.3472540583
13   
Frame  27 IRC: Energy =  -286.7864258740 ; +5.3955 kcal/mol
C        1.4572666917    0.3127596670    0.5202685638
C        1.2667525937   -1.1681248384    0.4893701103
C        0.1665041830   -1.8370230779    0.7682563495
C       -1.3612324296    1.4696940240   -1.1631627792
C       -0.7941500123    1.0445539522    0.1566170731
N        0.6108122948    1.2597514315    0.4243022891
H        2.5011922509    0.6099590760    0.6645406072
H        2.1871345528   -1.7295197967    0.2775289391
H       -0.1164002376   -2.8805059489    0.8338847264
H       -1.5978887906    2.3125770518   -1.7947367858
H       -1.3724047428    1.2243844114    1.0666024847
C       -1.3419364094    0.1855030964   -0.9509152545
H       -1.6056499445   -0.8040090484   -1.2925563236
13   
Frame  28 IRC: Energy =  -286.7862673280 ; +5.4950 kcal/mol
C        1.4523246064    0.3130520450    0.5346003281
C        1.2674689163   -1.1680030897    0.4964160410
C        0.1651370960   -1.8468331254    0.7350105790
C       -1.3367872076    1.4464858076   -1.1880710761
C       -0.7960107801    1.0674584233    0.1554991857
N        0.6086934160    1.2622649923    0.4334659063
H        2.4945961039    0.6109214137    0.6889779823
H        2.1952534317   -1.7236181688    0.3059544975
H       -0.1088670631   -2.8936449026    0.7841203879
H       -1.5427960956    2.2661585927   -1.8575156732
H       -1.3794156739    1.3059906660    1.0461505589
C       -1.3609637383    0.1756957894   -0.9175265537
H       -1.6586330118   -0.8159284434   -1.2170821637
13   
Frame  29 IRC: Energy =  -286.7861248309 ; +5.5844 kcal/mol
C        1.4500952891    0.3137269547    0.5458209906
C        1.2677022248   -1.1670391508    0.5047679560
C        0.1593987417   -1.8513968962    0.6944410779
C       -1.3146345760    1.4194196016   -1.2103274739
C       -0.7944830079    1.0907742787    0.1541640021
N        0.6106289114    1.2661122531    0.4373432379
H        2.4913518874    0.6107574013    0.7080555909
H        2.2027265843   -1.7201569986    0.3456180443
H       -0.1096230016   -2.9001022437    0.7277165957
H       -1.4928356947    2.2127235332   -1.9178891069
H       -1.3785581732    1.3883676310    1.0256511055
C       -1.3804061804    0.1648529979   -0.8800284783
H       -1.7113630049   -0.8280393622   -1.1353335418
13   
Frame  30 IRC: Energy =  -286.7859823337 ; +5.6738 kcal/mol
C        1.4478659718    0.3144018643    0.5570416530
C        1.2679355332   -1.1660752118    0.5131198711
C        0.1536603874   -1.8559606670    0.6538715768
C       -1.2924819445    1.3923533957   -1.2325838716
C       -0.7929552358    1.1140901340    0.1528288186
N        0.6125644068    1.2699595139    0.4412205694
H        2.4881076710    0.6105933888    0.7271331994
H        2.2101997370   -1.7166958284    0.3852815912
H       -0.1103789402   -2.9065595848    0.6713128034
H       -1.4428752938    2.1592884737   -1.9782625405
H       -1.3777006726    1.4707445961    1.0051516520
C       -1.3998486224    0.1540102064   -0.8425304029
H       -1.7640929979   -0.8401502809   -1.0535849199
13   
Frame  31 IRC: Energy =  -286.7857496582 ; +5.8198 kcal/mol
C        1.4466626590    0.3107979833    0.5610522020
C        1.2685786767   -1.1687268749    0.5309142062
C        0.1545962217   -1.8656687565    0.6123803896
C       -1.2767556803    1.3667036246   -1.2535466633
C       -0.7893136245    1.1374877529    0.1433596591
N        0.6171039865    1.2704278355    0.4319115675
H        2.4855558647    0.6072531302    0.7370589480
H        2.2158961289   -1.7162909368    0.4606340302
H       -0.1018541315   -2.9181031262    0.6265998669
H       -1.3993581985    2.1022079077   -2.0325892449
H       -1.3647319910    1.5515821521    0.9725528298
C       -1.4288910413    0.1543072729   -0.8096145244
H       -1.8274888706   -0.8319779650   -0.9807132668
13   
Frame  32 IRC: Energy =  -286.7855154352 ; +5.9668 kcal/mol
C        1.4454769517    0.3071206813    0.5649390306
C        1.2692288526   -1.1714405791    0.5488705667
C        0.1556465804   -1.8754651188    0.5708733869
C       -1.2611396880    1.3410781585   -1.2744872576
C       -0.7856357411    1.1608867747    0.1337509263
N        0.6216882506    1.2708381769    0.4223762974
H        2.4830159398    0.6038583695    0.7468276570
H        2.2215620329   -1.7159384887    0.5365988655
H       -0.0931700717   -2.9297339432    0.5820875372
H       -1.3559516657    2.0450647875   -2.0868121917
H       -1.3515554901    1.6323932929    0.9397463909
C       -1.4580981890    0.1547954915   -0.7767772731
H       -1.8910677622   -0.8234576030   -0.9079939362
13   
Frame  33 IRC: Energy =  -286.7852579960 ; +6.1284 kcal/mol
C        1.4475283626    0.3027688915    0.5616587471
C        1.2669272156   -1.1737124747    0.5684634737
C        0.1571703487   -1.8827816908    0.5248466692
C       -1.2524361567    1.3156101936   -1.2907866355
C       -0.7776014690    1.1835301791    0.1225943240
N        0.6318457946    1.2718603692    0.4037429868
H        2.4854853001    0.5971375503    0.7437736232
H        2.2172376801   -1.7162585817    0.6277437485
H       -0.0885186730   -2.9376535053    0.5387004045
H       -1.3276587307    1.9860477638   -2.1333740759
H       -1.3281633597    1.7073451944    0.9072033728
C       -1.4852322671    0.1579046515   -0.7417524244
H       -1.9465840455   -0.8117985409   -0.8328142140
13   
Frame  34 IRC: Energy =  -286.7849839467 ; +6.3003 kcal/mol
C        1.4518957864    0.2979345359    0.5532507162
C        1.2625136887   -1.1756682760    0.5892272566
C        0.1590328204   -1.8883240839    0.4755862979
C       -1.2486781815    1.2902549136   -1.3037654310
C       -0.7664503958    1.2056329731    0.1103302903
N        0.6459907707    1.2733203134    0.3786004358
H        2.4915385796    0.5880370852    0.7315454912
H        2.2057657463   -1.7170598476    0.7297492754
H       -0.0867524624   -2.9429178307    0.4961182997
H       -1.3101788977    1.9256900463   -2.1744548130
H       -1.2974624040    1.7781050726    0.8748488203
C       -1.5108831569    0.1628889776   -0.7051624478
H       -1.9963318937   -0.7978938796   -0.7558741918
13   
Frame  35 IRC: Energy =  -286.7846643157 ; +6.5009 kcal/mol
C        1.4573022724    0.2913328316    0.5373938360
C        1.2554958194   -1.1776142458    0.6107902729
C        0.1668386001   -1.8974922372    0.4243843149
C       -1.2508868678    1.2707907823   -1.3121336271
C       -0.7539018243    1.2250988876    0.0978792935
N        0.6621431392    1.2733630042    0.3473929021
H        2.5001716992    0.5753052582    0.7056652921
H        2.1818103995   -1.7120367805    0.8461113354
H       -0.0820972586   -2.9507112877    0.4583531670
H       -1.3051222428    1.8742562792   -2.2057500022
H       -1.2622741436    1.8379057608    0.8466409761
C       -1.5337093885    0.1714538829   -0.6711488719
H       -2.0357702043   -0.7816521358   -0.6855788888
13   
Frame  36 IRC: Energy =  -286.7843281964 ; +6.7118 kcal/mol
C        1.4638685739    0.2840918401    0.5167138723
C        1.2469985705   -1.1792011860    0.6316726688
C        0.1784079358   -1.9074716054    0.3718431826
C       -1.2568327869    1.2551010009   -1.3168566738
C       -0.7404460385    1.2419913678    0.0862383697
N        0.6797138995    1.2727214631    0.3134557667
H        2.5110296217    0.5601668771    0.6709091247
H        2.1482944732   -1.7028162746    0.9688333616
H       -0.0773078989   -2.9581791495    0.4222443616
H       -1.3089607830    1.8297912405   -2.2295497925
H       -1.2250956007    1.8886385213    0.8228685224
C       -1.5531650268    0.1809955015   -0.6387548415
H       -2.0665049396   -0.7658295968   -0.6196179226
13   
Frame  37 IRC: Energy =  -286.7839935899 ; +6.9218 kcal/mol
C        1.4725266869    0.2769095455    0.4905077589
C        1.2371304234   -1.1798243150    0.6498983825
C        0.1941567650   -1.9159736127    0.3176392892
C       -1.2668631167    1.2436728942   -1.3163696168
C       -0.7259471227    1.2545785853    0.0769842144
N        0.6990956256    1.2716616171    0.2782669102
H        2.5253050806    0.5421845561    0.6259262026
H        2.1015095843   -1.6881187944    1.0942435409
H       -0.0750849646   -2.9621986246    0.3857421239
H       -1.3243246825    1.7951757216   -2.2429455067
H       -1.1870703360    1.9258925094    0.8069200385
C       -1.5663437585    0.1895544617   -0.6081402168
H       -2.0840901847   -0.7535145444   -0.5586731210
13   
Frame  38 IRC: Energy =  -286.7837301513 ; +7.0871 kcal/mol
C        1.4838915434    0.2726009897    0.4641307357
C        1.2200076738   -1.1754019227    0.6626187960
C        0.2031516721   -1.9149051742    0.2686918745
C       -1.2769708098    1.2220500090   -1.3131138064
C       -0.7039246725    1.2690171186    0.0660778069
N        0.7253792940    1.2743974769    0.2376108105
H        2.5430204494    0.5206218403    0.5825263522
H        2.0376968525   -1.6716384980    1.1952053124
H       -0.0836049579   -2.9555755883    0.3472805997
H       -1.3503557560    1.7449208396   -2.2546860341
H       -1.1411526682    1.9658623940    0.7862079037
C       -1.5682895996    0.1930359601   -0.5667039476
H       -2.0888490212   -0.7449854448   -0.4758464034
13   