
Running Job 1 of 1 qcts2.in
qchem qcts2.in_70757.0 ./qcts2.d/ 1
/home/leeping/opt/qchem/5.0.2-openmp/exe/qcprog.exe_s qcts2.in_70757.0 ./qcts2.d/
Check license passed

                  Welcome to Q-Chem
     A Quantum Leap Into The Future Of Chemistry


 Q-Chem 5.0, Q-Chem, Inc., Pleasanton, CA (2017)

 Yihan Shao,  Zhengting Gan,  E. Epifanovsky,  A. T. B. Gilbert,  M. Wormit,  
 J. Kussmann,  A. W. Lange,  A. Behn,  Jia Deng,  Xintian Feng,  D. Ghosh,  
 M. Goldey,  P. R. Horn,  L. D. Jacobson,  I. Kaliman,  T. Kus,  A. Landau,  
 Jie Liu,  E. I. Proynov,  R. M. Richard,  R. P. Steele,  E. J. Sundstrom,  
 H. L. Woodcock III,  P. M. Zimmerman,  D. Zuev,  B. Albrecht,  E. Alguire,  
 S. A. Baeppler,  D. Barton,  Z. Benda,  Y. A. Bernard,  E. J. Berquist,  
 K. B. Bravaya,  H. Burton,  D. Casanova,  Chun-Min Chang,  Yunqing Chen,  
 A. Chien,  K. D. Closser,  M. P. Coons,  S. Dasgupta,  A. L. Dempwolff,  
 M. Diedenhofen,  Hainam Do,  R. G. Edgar,  Po-Tung Fang,  S. Fatehi,  
 Qingguo Feng,  J. Fosso-Tande,  Qinghui Ge,  A. Ghysels,  G. Gidofalvi,  
 J. Gomes,  J. Gonthier,  A. Gunina,  M. W. D. Hanson-Heine,  
 P. H. P. Harbach,  A. W. Hauser,  J. E. Herr,  E. G. Hohenstein,  
 Z. C. Holden,  Kerwin Hui,  T.-C. Jagau,  Hyunjun Ji,  B. Kaduk,  
 K. Khistyaev,  Jaehoon Kim,  P. Klunzinger,  K. Koh,  D. Kosenkov,  
 L. Koulias,  T. Kowalczyk,  C. M. Krauter,  A. Kunitsa,  Ka Un Lao,  
 A. Laurent,  K. V. Lawler,  Joonho Lee,  D. Lefrancois,  S. Lehtola,  
 D. S. Levine,  Yi-Pei Li,  You-Sheng Lin,  Fenglai Liu,  E. Livshits,  
 A. Luenser,  P. Manohar,  E. Mansoor,  S. F. Manzer,  Shan-Ping Mao,  
 Yuezhi Mao,  N. Mardirossian,  A. V. Marenich,  T. Markovich,  
 L. A. Martinez-Martinez,  S. A. Maurer,  N. J. Mayhall,  S. C. McKenzie,  
 J.-M. Mewes,  A. F. Morrison,  J. W. Mullinax,  K. Nanda,  
 T. S. Nguyen-Beck,  R. Olivares-Amaya,  J. A. Parkhill,  T. M. Perrine,  
 F. Plasser,  S. Prager,  A. Prociuk,  E. Ramos,  D. R. Rehn,  F. Rob,  
 M. Schneider,  N. Sergueev,  S. M. Sharada,  S. Sharma,  D. W. Small,  
 T. Stauch,  T. Stein,  Yu-Chuan Su,  A. J. W. Thom,  A. Tkatchenko,  
 T. Tsuchimochi,  L. Vogt,  O. Vydrov,  M. A. Watson,  J. Wenzel,  
 M. de Wergifosse,  T. A. Wesolowski,  A. White,  J. Witte,  A. Yamada,  
 Jun Yang,  K. Yao,  S. Yeganeh,  S. R. Yost,  Zhi-Qiang You,  A. Zech,  
 Igor Ying Zhang,  Xing Zhang,  Yan Zhao,  Ying Zhu,  B. R. Brooks,  
 G. K. L. Chan,  C. J. Cramer,  M. S. Gordon,  W. J. Hehre,  A. Klamt,  
 M. W. Schmidt,  C. D. Sherrill,  D. G. Truhlar,  A. Aspuru-Guzik,  R. Baer,  
 A. T. Bell,  N. A. Besley,  Jeng-Da Chai,  R. A. DiStasio Jr.,  A. Dreuw,  
 B. D. Dunietz,  T. R. Furlani,  Chao-Ping Hsu,  Yousung Jung,  Jing Kong,  
 D. S. Lambrecht,  WanZhen Liang,  C. Ochsenfeld,  V. A. Rassolov,  
 L. V. Slipchenko,  J. E. Subotnik,  T. Van Voorhis,  J. M. Herbert,  
 A. I. Krylov,  P. M. W. Gill,  M. Head-Gordon

 Contributors to earlier versions of Q-Chem not listed above: 
 R. D. Adamson,  B. Austin,  J. Baker,  G. J. O. Beran,  K. Brandhorst,  
 S. T. Brown,  E. F. C. Byrd,  A. K. Chakraborty,  C.-L. Cheng,  
 Siu Hung Chien,  D. M. Chipman,  D. L. Crittenden,  H. Dachsel,  
 R. J. Doerksen,  A. D. Dutoi,  L. Fusti-Molnar,  W. A. Goddard III,  
 A. Golubeva-Zadorozhnaya,  S. R. Gwaltney,  G. Hawkins,  A. Heyden,  
 S. Hirata,  G. Kedziora,  F. J. Keil,  C. Kelley,  Jihan Kim,  R. A. King,  
 R. Z. Khaliullin,  P. P. Korambath,  W. Kurlancheek,  A. M. Lee,  M. S. Lee,  
 S. V. Levchenko,  Ching Yeh Lin,  D. Liotard,  R. C. Lochan,  I. Lotan,  
 P. E. Maslen,  N. Nair,  D. P. O'Neill,  D. Neuhauser,  E. Neuscamman,  
 C. M. Oana,  R. Olson,  B. Peters,  R. Peverati,  P. A. Pieniazek,  
 Y. M. Rhee,  J. Ritchie,  M. A. Rohrdanz,  E. Rosta,  N. J. Russ,  
 H. F. Schaefer III,  N. E. Schultz,  N. Shenvi,  A. C. Simmonett,  A. Sodt,  
 D. Stuck,  K. S. Thanthiriwatte,  V. Vanovschi,  Tao Wang,  A. Warshel,  
 C. F. Williams,  Q. Wu,  X. Xu,  W. Zhang

 Please cite Q-Chem as follows:
 Y. Shao et al., Mol. Phys. 113, 184-215 (2015)
 DOI: 10.1080/00268976.2014.952696

 Q-Chem 5.0.2 for Intel X86 EM64T Linux

 Parts of Q-Chem use Armadillo 5.200.1 (Boston Tea Smuggler).
 http://arma.sourceforge.net/

 Q-Chem begins on Wed Mar  2 23:03:25 2022  

Host: 
0

     Scratch files written to ./qcts2.d//
 Dec517 15110_ 26548  26544 5633   
Processing $rem in /home/leeping/opt/qchem/5.0.2-openmp/config/preferences.
 MEM_STATIC 2000
 MEM_TOTAL  8000
 SYMMETRY   OFF
 SYM_IGNORE TRUE 

Checking the input file for inconsistencies... 	...done.

--------------------------------------------------------------
User input:
--------------------------------------------------------------
$molecule
0 2
C        1.4561485708    0.2751398970    0.3654313167
C        1.0665299911   -1.1802554370    0.4549359792
C        0.8038749381   -1.9646318485   -0.5625651577
C       -1.4501366220    1.2196744880   -1.0271908076
C       -0.7139947650    1.2870922374    0.2742366890
N        0.7330210542    1.3154535979    0.3066850230
H        2.5406148539    0.4388347657    0.3983295307
H        1.1062235658   -1.5950301236    1.4733846645
H        0.5625565941   -3.0091881594   -0.7171620873
H       -1.6565733180    1.7345136664   -1.9544659509
H       -1.0885028546    1.9549114157    1.0558853931
C       -1.5882919331    0.1805991868   -0.2585564341
H       -2.0111098943   -0.7996300891   -0.1002312424
$end

$rem
method                b3lyp
basis                 6-31+g(d,p)
unrestricted          true
symmetry              off
sym_ignore            true
incdft                false
incfock               0
scf_convergence       8
thresh                14
jobtype               ts
scf_guess             read
scf_algorithm         diis
max_scf_cycles        100
geom_opt_max_cycles   500
geom_opt_dmax         100
geom_opt_tol_gradient 10
geom_opt_hessian      read
$end

--------------------------------------------------------------
 ----------------------------------------------------------------
             Standard Nuclear Orientation (Angstroms)
    I     Atom           X                Y                Z
 ----------------------------------------------------------------
    1      C       1.4561485708     0.2751398970     0.3654313167
    2      C       1.0665299911    -1.1802554370     0.4549359792
    3      C       0.8038749381    -1.9646318485    -0.5625651577
    4      C      -1.4501366220     1.2196744880    -1.0271908076
    5      C      -0.7139947650     1.2870922374     0.2742366890
    6      N       0.7330210542     1.3154535979     0.3066850230
    7      H       2.5406148539     0.4388347657     0.3983295307
    8      H       1.1062235658    -1.5950301236     1.4733846645
    9      H       0.5625565941    -3.0091881594    -0.7171620873
   10      H      -1.6565733180     1.7345136664    -1.9544659509
   11      H      -1.0885028546     1.9549114157     1.0558853931
   12      C      -1.5882919331     0.1805991868    -0.2585564341
   13      H      -2.0111098943    -0.7996300891    -0.1002312424
 ----------------------------------------------------------------
 Nuclear Repulsion Energy =   251.1802126936 hartrees
 There are       25 alpha and       24 beta electrons
 Requested basis set is 6-31+G(d,p)
 There are 53 shells and 163 basis functions

 Total QAlloc Memory Limit   8000 MB
 Mega-Array Size      1956 MB
 MEM_STATIC part      2000 MB
 A cutoff of  1.0D-14 yielded   1358 shell pairs
 There are     13306 function pairs
 
 -------------------------------------------------------
 OpenMP Integral Computing Module                       
 Release: version 1.0, May 2013, Q-Chem Inc. Pittsburgh 
 -------------------------------------------------------
 Integral Job Info:
 Integral job number is                      11
 Integral operator is                         1
 short-range coefficients                     0
 long-range coefficients              100000000
 Omega coefficients                           0
 if combine SR and LR in K                    0
 Integral screening is                        0
 Integral computing path is                   2
 max size of driver memory is            800000
 size of driver memory is                593474
 size of scratch memory is              2361544
 max col of scratch BK array               1296
 max len of scratch array in speh3          155
 max len of scratch index in speh4           18
 max int batch size is                      520
 min int batch size is                       52
 fixed nKL is                                52
 max L of basis functions is                  2
 order of int derivative is                   0
 number of shells is                         53
 number of basis is                         163
 number of cartesian basis is               163
 number of contracted shell pairs          1358
 number of primitive shell pairs           4486
 maxK2 (contraction) of shell pair           36
 max number of K2 of shell pair               1
 max number of CS2 of shell pair            128
 max number of PS2 of shell pair            756
 mem total for path MDJ                  531564
 -------------------------------------------------------
 Smallest overlap matrix eigenvalue = 6.33E-05

 Scale SEOQF with 1.000000e-01/1.000000e-01/1.000000e-01

 Standard Electronic Orientation quadrupole field applied
 Nucleus-field energy     =     0.0000000064 hartrees
 Guess MOs from SCF MO coefficient file
 Reading MOs from coefficient file
 Reading MOs from coefficient file
 An unrestricted hybrid HF-DFT SCF calculation will be
 performed using Pulay DIIS extrapolation
 Exchange:     0.2000 Hartree-Fock + 0.0800 Slater + 0.7200 B88
 Correlation:  0.1900 VWN1RPA + 0.8100 LYP
 Using SG-1 standard quadrature grid
 SCF converges when DIIS error is below 1.0E-08
Using Q-Chem read-in guess as SCF_GUESS READ specified.

 using 4 threads for integral computing
 -------------------------------------------------------
 OpenMP Integral computing Module                
 Release: version 1.0, May 2013, Q-Chem Inc. Pittsburgh 
 -------------------------------------------------------
 -------------------------------------------------------
 OpenMP BLAS3 based DFT computing Module                
 Release: version 1.0, May 2013, Q-Chem Inc. Pittsburgh 
 -------------------------------------------------------
 ---------------------------------------
  Cycle       Energy         DIIS Error
 ---------------------------------------
    1    -286.7807257180      2.41E-10
    2    -286.7807257180      2.91E-10 Convergence criterion met
 ---------------------------------------
 <S^2> = 0.7606
 SCF time:  CPU 9.74 s  wall 3.30 s
 SCF   energy in the final basis set = -286.78072572
 Total energy in the final basis set = -286.78072572
 
 --------------------------------------------------------------
 
                    Orbital Energies (a.u.)
 --------------------------------------------------------------
 
 Alpha MOs
 -- Occupied --
-14.339 -10.245 -10.239 -10.229 -10.218 -10.214 -10.212  -0.937
 -0.866  -0.791  -0.670  -0.604  -0.574  -0.541  -0.510  -0.489
 -0.470  -0.442  -0.385  -0.349  -0.302  -0.297  -0.270  -0.263
 -0.230
 -- Virtual --
 -0.026  -0.018  -0.007   0.011   0.019   0.025   0.030   0.042
  0.044   0.071   0.073   0.078   0.090   0.096   0.101   0.111
  0.115   0.127   0.134   0.136   0.145   0.153   0.162   0.179
  0.186   0.199   0.202   0.210   0.218   0.224   0.239   0.245
  0.257   0.260   0.279   0.293   0.307   0.317   0.326   0.340
  0.391   0.418   0.443   0.495   0.594   0.630   0.646   0.671
  0.675   0.706   0.720   0.742   0.750   0.763   0.773   0.775
  0.799   0.810   0.848   0.868   0.899   0.912   0.933   0.956
  0.979   1.013   1.025   1.053   1.085   1.102   1.115   1.138
  1.154   1.162   1.217   1.271   1.324   1.372   1.386   1.445
  1.492   1.517   1.589   1.610   1.637   1.680   1.716   1.741
  1.767   1.796   1.823   1.857   1.917   1.970   1.997   2.045
  2.055   2.123   2.147   2.204   2.239   2.270   2.287   2.303
  2.362   2.374   2.386   2.435   2.446   2.470   2.519   2.531
  2.563   2.618   2.622   2.633   2.675   2.701   2.748   2.818
  2.856   2.955   2.983   3.107   3.176   3.270   3.350   3.396
  3.452   3.589   3.754   4.177   4.318   4.406   4.442   4.566
  4.728   4.876
 
 Beta MOs
 -- Occupied --
-14.339 -10.244 -10.239 -10.220 -10.214 -10.214 -10.212  -0.937
 -0.866  -0.778  -0.663  -0.592  -0.574  -0.537  -0.507  -0.476
 -0.462  -0.440  -0.384  -0.348  -0.297  -0.293  -0.265  -0.244
 -- Virtual --
 -0.094  -0.024  -0.010  -0.006   0.012   0.021   0.025   0.031
  0.043   0.045   0.072   0.074   0.085   0.091   0.097   0.102
  0.114   0.117   0.127   0.135   0.137   0.146   0.153   0.162
  0.180   0.186   0.201   0.203   0.213   0.224   0.227   0.240
  0.246   0.259   0.260   0.281   0.294   0.308   0.318   0.330
  0.341   0.395   0.433   0.445   0.495   0.599   0.638   0.662
  0.674   0.682   0.708   0.728   0.743   0.755   0.763   0.778
  0.788   0.805   0.812   0.852   0.873   0.900   0.914   0.939
  0.965   0.981   1.014   1.028   1.063   1.093   1.104   1.120
  1.139   1.157   1.165   1.219   1.275   1.325   1.373   1.390
  1.447   1.493   1.520   1.605   1.626   1.676   1.682   1.731
  1.747   1.774   1.801   1.826   1.866   1.936   1.972   2.011
  2.047   2.057   2.124   2.154   2.210   2.242   2.272   2.289
  2.307   2.367   2.380   2.391   2.441   2.447   2.473   2.521
  2.533   2.568   2.620   2.628   2.635   2.681   2.720   2.754
  2.819   2.857   2.963   2.988   3.109   3.177   3.283   3.350
  3.397   3.453   3.606   3.754   4.177   4.330   4.408   4.460
  4.570   4.729   4.876
 --------------------------------------------------------------
 
          Ground-State Mulliken Net Atomic Charges

     Atom                 Charge (a.u.)    Spin (a.u.)
  --------------------------------------------------------
      1 C                    -0.103488       0.007548
      2 C                     0.035549      -0.257873
      3 C                    -0.246401       1.133947
      4 C                    -0.088899       0.009539
      5 C                    -0.222881       0.006395
      6 N                    -0.128833       0.009268
      7 H                     0.139958       0.001069
      8 H                     0.158231       0.085674
      9 H                     0.151425       0.010759
     10 H                     0.137796      -0.000243
     11 H                     0.134825       0.000299
     12 C                    -0.101960      -0.006251
     13 H                     0.134677      -0.000130
  --------------------------------------------------------
  Sum of atomic charges =     0.000000
  Sum of spin   charges =     1.000000

 -----------------------------------------------------------------
                    Cartesian Multipole Moments
 -----------------------------------------------------------------
    Charge (ESU x 10^10)
                -0.0000
    Dipole Moment (Debye)
         X      -0.9194      Y      -2.1059      Z       0.2966
       Tot       2.3169
    Quadrupole Moments (Debye-Ang)
        XX     -41.1638     XY      -2.0316     YY     -41.0360
        XZ       1.9039     YZ      -2.3194     ZZ     -40.5880
    Octopole Moments (Debye-Ang^2)
       XXX      -1.3354    XXY      -4.9454    XYY     -11.0227
       YYY     -34.0891    XXZ       3.5208    XYZ       0.0892
       YYZ      -2.0657    XZZ      -4.5728    YZZ      -1.7629
       ZZZ       6.5747
    Hexadecapole Moments (Debye-Ang^3)
      XXXX    -427.0403   XXXY      99.2072   XXYY    -156.3060
      XYYY      66.8256   YYYY    -438.5818   XXXZ     -44.3561
      XXYZ      -6.3665   XYYZ     -12.6204   YYYZ       1.6654
      XXZZ     -92.2887   XYZZ      18.0279   YYZZ     -91.3826
      XZZZ     -39.4303   YZZZ     -15.7598   ZZZZ    -138.7514
 -----------------------------------------------------------------
 Calculating analytic gradient of the SCF energy
 Gradient of SCF Energy
            1           2           3           4           5           6
    1  -0.0034669   0.0003044   0.0000683   0.0000314   0.0007850   0.0013749
    2   0.0010364  -0.0015267   0.0021107  -0.0022852  -0.0020864  -0.0002405
    3  -0.0001148  -0.0007775  -0.0000918   0.0022652  -0.0017127   0.0005166
            7           8           9          10          11          12
    1   0.0006169   0.0000051  -0.0001006  -0.0001433  -0.0000775   0.0008004
    2   0.0001751   0.0001527  -0.0004388   0.0001161   0.0003286   0.0031912
    3  -0.0000366   0.0003986   0.0004686  -0.0005335   0.0006351  -0.0012270
           13
    1  -0.0001983
    2  -0.0005330
    3   0.0002099
 Max gradient component =       3.467E-03
 RMS gradient           =       1.194E-03
 Gradient time:  CPU 15.65 s  wall 4.05 s
 Geometry Optimization Parameters
   NAtoms,    NIC,     NZ,  NCons,   NDum,   NFix, NCnnct, MaxDiis
       13      83       0       0       0       0       0       0

 Cartesian Hessian read from HESS file


** GEOMETRY OPTIMIZATION IN DELOCALIZED INTERNAL COORDINATES **
   Searching for a Transition State

   Optimization Cycle:   1

                       Coordinates (Angstroms)
     ATOM                X               Y               Z
      1  C         1.4561485708    0.2751398970    0.3654313167
      2  C         1.0665299911   -1.1802554370    0.4549359792
      3  C         0.8038749381   -1.9646318485   -0.5625651577
      4  C        -1.4501366220    1.2196744880   -1.0271908076
      5  C        -0.7139947650    1.2870922374    0.2742366890
      6  N         0.7330210542    1.3154535979    0.3066850230
      7  H         2.5406148539    0.4388347657    0.3983295307
      8  H         1.1062235658   -1.5950301236    1.4733846645
      9  H         0.5625565941   -3.0091881594   -0.7171620873
     10  H        -1.6565733180    1.7345136664   -1.9544659509
     11  H        -1.0885028546    1.9549114157    1.0558853931
     12  C        -1.5882919331    0.1805991868   -0.2585564341
     13  H        -2.0111098943   -0.7996300891   -0.1002312424
   Point Group: c1    Number of degrees of freedom:    33


   Energy is   -286.780725718


 Attempting to Generate Delocalized Internal Coordinates

 Transforming Cartesian Hessian to Internal Coordinates
 Hessian Transformation does not Include Derivative of B-matrix

 33 Hessian modes will be used to form the next step
  Hessian Eigenvalues:
    -0.003161    0.001256    0.003822    0.003898    0.014862    0.025458
     0.028214    0.029321    0.038464    0.052292    0.059354    0.061334
     0.068029    0.074679    0.089494    0.104714    0.108478    0.131083
     0.141827    0.165247    0.230918    0.268899    0.285954    0.324932
     0.331412    0.339619    0.369559    0.373040    0.374508    0.443991
     0.522236    0.660759    0.769628

 Transition State Search - Taking P-RFO Step
 Searching for Lamda that Maximizes Along the Lowest mode
 Value Taken    Lamda =   0.00002205
 Searching for Lamda that Minimizes Along All other modes
 Value Taken    Lamda =  -0.00019223
 Calculated Step too Large.  Step scaled by  0.364901
 Step Taken.  Stepsize is  0.100000

                             Maximum     Tolerance    Cnvgd?
         Gradient           0.003343      0.000010      NO
         Displacement       0.055923      0.001200      NO
         Energy change     *********      0.000001      NO


 New Cartesian Coordinates Obtained by Inverse Iteration

 Displacement from previous Coordinates is:  0.296375
 ----------------------------------------------------------------
             Standard Nuclear Orientation (Angstroms)
    I     Atom           X                Y                Z
 ----------------------------------------------------------------
    1      C       1.4606328990     0.2735340572     0.3535565348
    2      C       1.0780075339    -1.1815975081     0.4696961861
    3      C       0.7932711230    -1.9825776479    -0.5290814337
    4      C      -1.4644633793     1.2516862417    -1.0252575227
    5      C      -0.7175257796     1.2729999934     0.2711244676
    6      N       0.7306591165     1.3091218843     0.2866065248
    7      H       2.5441009811     0.4430024111     0.3750966974
    8      H       1.1448759054    -1.5830548661     1.4919616217
    9      H       0.5527359888    -3.0295787896    -0.6652242775
   10      H      -1.6813901555     1.7992280270    -1.9308829007
   11      H      -1.0867032476     1.9096876267     1.0804808524
   12      C      -1.5895084879     0.1817082822    -0.2959975982
   13      H      -2.0043323168    -0.8066761146    -0.1733622359
 ----------------------------------------------------------------
 Nuclear Repulsion Energy =   250.9040417512 hartrees
 There are       25 alpha and       24 beta electrons
 Applying Cartesian multipole field
    Component          Value
    ---------          -----
     (2,0,0)        1.00000E-11
     (0,2,0)        2.00000E-11
     (0,0,2)       -3.00000E-11
 Nucleus-field energy     =     0.0000000065 hartrees
 Requested basis set is 6-31+G(d,p)
 There are 53 shells and 163 basis functions
 A cutoff of  1.0D-14 yielded   1358 shell pairs
 There are     13306 function pairs
 Smallest overlap matrix eigenvalue = 6.27E-05
 Guess MOs from SCF MO coefficient file
 Reading MOs from coefficient file
 Reading MOs from coefficient file
 An unrestricted hybrid HF-DFT SCF calculation will be
 performed using Pulay DIIS extrapolation
 Exchange:     0.2000 Hartree-Fock + 0.0800 Slater + 0.7200 B88
 Correlation:  0.1900 VWN1RPA + 0.8100 LYP
 Using SG-1 standard quadrature grid
 SCF converges when DIIS error is below 1.0E-08
 Geometry optimization detected.  Setting ReadMinima to 0
 Setting SaveMinima to 0
Using Q-Chem read-in guess as SCF_GUESS READ specified.

 using 4 threads for integral computing
 -------------------------------------------------------
 OpenMP Integral computing Module                
 Release: version 1.0, May 2013, Q-Chem Inc. Pittsburgh 
 -------------------------------------------------------
 -------------------------------------------------------
 OpenMP BLAS3 based DFT computing Module                
 Release: version 1.0, May 2013, Q-Chem Inc. Pittsburgh 
 -------------------------------------------------------
 ---------------------------------------
  Cycle       Energy         DIIS Error
 ---------------------------------------
    1    -286.7793671513      9.06E-04
    2    -286.7807282729      7.70E-05
    3    -286.7807431023      8.88E-05
    4    -286.7807707372      2.59E-05
    5    -286.7807732385      1.24E-05
    6    -286.7807739466      3.50E-06
    7    -286.7807740412      2.67E-06
    8    -286.7807740862      6.13E-07
    9    -286.7807741031      3.84E-07
   10    -286.7807741065      1.20E-07
   11    -286.7807741069      9.34E-08
   12    -286.7807741070      2.13E-08
   13    -286.7807741070      4.72E-09 Convergence criterion met
 ---------------------------------------
 <S^2> = 0.7606
 SCF time:  CPU 62.61 s  wall 20.04 s
 SCF   energy in the final basis set = -286.78077411
 Total energy in the final basis set = -286.78077411
 
 --------------------------------------------------------------
 
                    Orbital Energies (a.u.)
 --------------------------------------------------------------
 
 Alpha MOs
 -- Occupied --
-14.339 -10.245 -10.239 -10.229 -10.218 -10.213 -10.212  -0.937
 -0.866  -0.791  -0.669  -0.605  -0.574  -0.541  -0.510  -0.489
 -0.470  -0.443  -0.385  -0.348  -0.303  -0.296  -0.270  -0.263
 -0.230
 -- Virtual --
 -0.027  -0.017  -0.006   0.011   0.019   0.025   0.031   0.042
  0.044   0.071   0.073   0.077   0.090   0.096   0.101   0.111
  0.115   0.127   0.135   0.135   0.145   0.153   0.160   0.179
  0.186   0.199   0.203   0.209   0.218   0.223   0.238   0.245
  0.256   0.260   0.278   0.292   0.308   0.317   0.326   0.341
  0.392   0.418   0.443   0.495   0.594   0.631   0.647   0.668
  0.678   0.705   0.720   0.741   0.749   0.763   0.774   0.776
  0.797   0.807   0.850   0.866   0.898   0.910   0.934   0.957
  0.979   1.012   1.024   1.053   1.087   1.100   1.112   1.137
  1.150   1.162   1.216   1.272   1.319   1.371   1.383   1.445
  1.493   1.522   1.588   1.612   1.637   1.678   1.716   1.740
  1.767   1.795   1.822   1.857   1.918   1.970   1.996   2.043
  2.053   2.122   2.146   2.205   2.238   2.269   2.287   2.304
  2.362   2.373   2.385   2.434   2.447   2.471   2.516   2.533
  2.563   2.618   2.621   2.635   2.673   2.702   2.748   2.822
  2.858   2.951   2.979   3.107   3.176   3.272   3.351   3.398
  3.449   3.589   3.753   4.177   4.316   4.403   4.443   4.564
  4.729   4.874
 
 Beta MOs
 -- Occupied --
-14.339 -10.244 -10.239 -10.220 -10.214 -10.213 -10.212  -0.937
 -0.866  -0.778  -0.663  -0.593  -0.574  -0.537  -0.507  -0.476
 -0.463  -0.441  -0.384  -0.346  -0.298  -0.292  -0.266  -0.243
 -- Virtual --
 -0.094  -0.025  -0.010  -0.006   0.012   0.020   0.025   0.032
  0.043   0.045   0.072   0.075   0.084   0.090   0.097   0.103
  0.114   0.117   0.127   0.136   0.136   0.146   0.153   0.160
  0.180   0.186   0.201   0.204   0.211   0.223   0.226   0.239
  0.246   0.258   0.260   0.280   0.293   0.308   0.318   0.329
  0.342   0.396   0.434   0.445   0.495   0.599   0.639   0.662
  0.674   0.683   0.708   0.727   0.741   0.754   0.764   0.777
  0.789   0.803   0.809   0.853   0.871   0.899   0.912   0.941
  0.965   0.981   1.014   1.027   1.062   1.095   1.102   1.118
  1.138   1.152   1.165   1.218   1.276   1.320   1.373   1.387
  1.448   1.494   1.525   1.603   1.628   1.674   1.681   1.731
  1.747   1.773   1.800   1.825   1.866   1.937   1.972   2.011
  2.045   2.054   2.123   2.152   2.210   2.240   2.271   2.289
  2.308   2.366   2.379   2.390   2.440   2.448   2.474   2.519
  2.535   2.569   2.620   2.627   2.637   2.679   2.721   2.754
  2.822   2.859   2.958   2.985   3.109   3.177   3.285   3.351
  3.398   3.450   3.606   3.753   4.177   4.327   4.405   4.461
  4.568   4.730   4.875
 --------------------------------------------------------------
 
          Ground-State Mulliken Net Atomic Charges

     Atom                 Charge (a.u.)    Spin (a.u.)
  --------------------------------------------------------
      1 C                    -0.101430       0.007239
      2 C                     0.040479      -0.256682
      3 C                    -0.247171       1.133298
      4 C                    -0.082895       0.010324
      5 C                    -0.221636       0.006178
      6 N                    -0.130503       0.009010
      7 H                     0.140000       0.001087
      8 H                     0.158122       0.085649
      9 H                     0.151688       0.010489
     10 H                     0.137586      -0.000326
     11 H                     0.135208       0.000295
     12 C                    -0.114311      -0.006448
     13 H                     0.134864      -0.000114
  --------------------------------------------------------
  Sum of atomic charges =    -0.000000
  Sum of spin   charges =     1.000000

 -----------------------------------------------------------------
                    Cartesian Multipole Moments
 -----------------------------------------------------------------
    Charge (ESU x 10^10)
                -0.0000
    Dipole Moment (Debye)
         X      -0.8806      Y      -2.0777      Z       0.3371
       Tot       2.2816
    Quadrupole Moments (Debye-Ang)
        XX     -41.0711     XY      -2.0787     YY     -40.9224
        XZ       2.0064     YZ      -2.2918     ZZ     -40.6438
    Octopole Moments (Debye-Ang^2)
       XXX      -0.8571    XXY      -4.7651    XYY     -11.1072
       YYY     -33.9147    XXZ       3.4671    XYZ       0.0896
       YYZ      -1.9497    XZZ      -4.3189    YZZ      -1.5115
       ZZZ       7.3525
    Hexadecapole Moments (Debye-Ang^3)
      XXXX    -429.6296   XXXY     100.4185   XXYY    -156.8247
      XYYY      67.9548   YYYY    -440.6708   XXXZ     -45.9922
      XXYZ      -5.5156   XYYZ     -12.2110   YYYZ       3.2777
      XXZZ     -92.3144   XYZZ      18.2374   YYZZ     -91.7781
      XZZZ     -41.7064   YZZZ     -12.7188   ZZZZ    -138.1173
 -----------------------------------------------------------------
 Calculating analytic gradient of the SCF energy
 Gradient of SCF Energy
            1           2           3           4           5           6
    1  -0.0022040   0.0001977   0.0000557   0.0000147   0.0005223   0.0008609
    2   0.0006870  -0.0009734   0.0013401  -0.0014432  -0.0013841  -0.0001364
    3  -0.0001148  -0.0004974  -0.0000553   0.0014614  -0.0010764   0.0003654
            7           8           9          10          11          12
    1   0.0003946   0.0000012  -0.0000642  -0.0000983  -0.0000438   0.0005013
    2   0.0001136   0.0001062  -0.0002829   0.0000661   0.0002242   0.0020025
    3  -0.0000323   0.0002537   0.0002998  -0.0003415   0.0003912  -0.0007997
           13
    1  -0.0001380
    2  -0.0003198
    3   0.0001459
 Max gradient component =       2.204E-03
 RMS gradient           =       7.619E-04
 Gradient time:  CPU 15.64 s  wall 4.02 s
 Geometry Optimization Parameters
   NAtoms,    NIC,     NZ,  NCons,   NDum,   NFix, NCnnct, MaxDiis
       13      83       0       0       0       0       0       0

 Cartesian Hessian Update
 Hessian Updated using Powell/Murtagh-Sargent Update
  Mixing factors:     0.999935 Powell
                      0.000065 Murtagh-Sargent


** GEOMETRY OPTIMIZATION IN DELOCALIZED INTERNAL COORDINATES **
   Searching for a Transition State

   Optimization Cycle:   2

                       Coordinates (Angstroms)
     ATOM                X               Y               Z
      1  C         1.4606328990    0.2735340572    0.3535565348
      2  C         1.0780075339   -1.1815975081    0.4696961861
      3  C         0.7932711230   -1.9825776479   -0.5290814337
      4  C        -1.4644633793    1.2516862417   -1.0252575227
      5  C        -0.7175257796    1.2729999934    0.2711244676
      6  N         0.7306591165    1.3091218843    0.2866065248
      7  H         2.5441009811    0.4430024111    0.3750966974
      8  H         1.1448759054   -1.5830548661    1.4919616217
      9  H         0.5527359888   -3.0295787896   -0.6652242775
     10  H        -1.6813901555    1.7992280270   -1.9308829007
     11  H        -1.0867032476    1.9096876267    1.0804808524
     12  C        -1.5895084879    0.1817082822   -0.2959975982
     13  H        -2.0043323168   -0.8066761146   -0.1733622359
   Point Group: c1    Number of degrees of freedom:    33


   Energy is   -286.780774107

 Hessian Updated using Powell/Murtagh-Sargent Update
  Mixing factors:     0.852778 Powell
                      0.147222 Murtagh-Sargent

 33 Hessian modes will be used to form the next step
  Hessian Eigenvalues:
    -0.003302    0.001898    0.003833    0.003898    0.014865    0.025708
     0.028236    0.029345    0.038475    0.052294    0.059370    0.061350
     0.068030    0.074683    0.089501    0.104723    0.108529    0.131086
     0.141927    0.165276    0.230919    0.268905    0.285954    0.324932
     0.331412    0.339619    0.369563    0.373042    0.374514    0.443990
     0.522237    0.660761    0.769634

 Transition State Search - Taking P-RFO Step
 Searching for Lamda that Maximizes Along the Lowest mode
 Value Taken    Lamda =   0.00000628
 Searching for Lamda that Minimizes Along All other modes
 Value Taken    Lamda =  -0.00005779
 Calculated Step too Large.  Step scaled by  0.899563
 Step Taken.  Stepsize is  0.100000

                             Maximum     Tolerance    Cnvgd?
         Gradient           0.002125      0.000010      NO
         Displacement       0.056002      0.001200      NO
         Energy change     -0.000048      0.000001      NO


 New Cartesian Coordinates Obtained by Inverse Iteration

 Displacement from previous Coordinates is:  0.283078
 ----------------------------------------------------------------
             Standard Nuclear Orientation (Angstroms)
    I     Atom           X                Y                Z
 ----------------------------------------------------------------
    1      C       1.4645797421     0.2708354004     0.3430481959
    2      C       1.0898269120    -1.1839043700     0.4844382798
    3      C       0.7845098988    -2.0010319328    -0.4956128592
    4      C      -1.4791536498     1.2825316865    -1.0231852540
    5      C      -0.7220596480     1.2607422045     0.2670855526
    6      N       0.7272726177     1.3014790865     0.2663345495
    7      H       2.5465919333     0.4463647570     0.3547595840
    8      H       1.1862916117    -1.5737815363     1.5086335221
    9      H       0.5472365929    -3.0501040195    -0.6167239325
   10      H      -1.7048487231     1.8606031715    -1.9069518497
   11      H      -1.0846019572     1.8677043574     1.1011974915
   12      C      -1.5938806205     0.1853515953    -0.3309781321
   13      H      -2.0014045291    -0.8093068032    -0.2433282316
 ----------------------------------------------------------------
 Nuclear Repulsion Energy =   250.5524709208 hartrees
 There are       25 alpha and       24 beta electrons
 Applying Cartesian multipole field
    Component          Value
    ---------          -----
     (2,0,0)        1.00000E-11
     (0,2,0)        2.00000E-11
     (0,0,2)       -3.00000E-11
 Nucleus-field energy     =     0.0000000066 hartrees
 Requested basis set is 6-31+G(d,p)
 There are 53 shells and 163 basis functions
 A cutoff of  1.0D-14 yielded   1358 shell pairs
 There are     13306 function pairs
 Smallest overlap matrix eigenvalue = 6.20E-05
 Guess MOs from SCF MO coefficient file
 Reading MOs from coefficient file
 Reading MOs from coefficient file
 An unrestricted hybrid HF-DFT SCF calculation will be
 performed using Pulay DIIS extrapolation
 Exchange:     0.2000 Hartree-Fock + 0.0800 Slater + 0.7200 B88
 Correlation:  0.1900 VWN1RPA + 0.8100 LYP
 Using SG-1 standard quadrature grid
 SCF converges when DIIS error is below 1.0E-08
 Geometry optimization detected.  Setting ReadMinima to 0
 Setting SaveMinima to 0
Using Q-Chem read-in guess as SCF_GUESS READ specified.

 using 4 threads for integral computing
 -------------------------------------------------------
 OpenMP Integral computing Module                
 Release: version 1.0, May 2013, Q-Chem Inc. Pittsburgh 
 -------------------------------------------------------
 -------------------------------------------------------
 OpenMP BLAS3 based DFT computing Module                
 Release: version 1.0, May 2013, Q-Chem Inc. Pittsburgh 
 -------------------------------------------------------
 ---------------------------------------
  Cycle       Energy         DIIS Error
 ---------------------------------------
    1    -286.7792679956      8.48E-04
    2    -286.7807589584      7.17E-05
    3    -286.7807740747      8.09E-05
    4    -286.7807972044      2.42E-05
    5    -286.7807995330      1.15E-05
    6    -286.7808002100      2.82E-06
    7    -286.7808003126      2.08E-06
    8    -286.7808003465      7.50E-07
    9    -286.7808003638      4.18E-07
   10    -286.7808003672      1.31E-07
   11    -286.7808003675      9.30E-08
   12    -286.7808003676      1.86E-08
   13    -286.7808003677      4.21E-09 Convergence criterion met
 ---------------------------------------
 <S^2> = 0.7607
 SCF time:  CPU 62.52 s  wall 18.16 s
 SCF   energy in the final basis set = -286.78080037
 Total energy in the final basis set = -286.78080037
 
 --------------------------------------------------------------
 
                    Orbital Energies (a.u.)
 --------------------------------------------------------------
 
 Alpha MOs
 -- Occupied --
-14.339 -10.246 -10.239 -10.229 -10.218 -10.213 -10.212  -0.937
 -0.866  -0.791  -0.669  -0.605  -0.574  -0.541  -0.510  -0.489
 -0.470  -0.445  -0.384  -0.346  -0.304  -0.296  -0.271  -0.263
 -0.229
 -- Virtual --
 -0.029  -0.017  -0.006   0.011   0.019   0.025   0.031   0.042
  0.044   0.071   0.073   0.077   0.090   0.096   0.101   0.111
  0.115   0.128   0.134   0.135   0.145   0.153   0.159   0.179
  0.186   0.198   0.204   0.209   0.217   0.223   0.237   0.244
  0.256   0.261   0.277   0.291   0.308   0.317   0.326   0.341
  0.392   0.419   0.443   0.494   0.594   0.631   0.647   0.666
  0.680   0.705   0.719   0.739   0.748   0.762   0.774   0.778
  0.795   0.805   0.851   0.865   0.898   0.909   0.936   0.957
  0.979   1.012   1.022   1.052   1.088   1.099   1.110   1.135
  1.146   1.163   1.216   1.273   1.314   1.371   1.380   1.446
  1.494   1.527   1.587   1.613   1.637   1.675   1.715   1.738
  1.767   1.793   1.821   1.858   1.919   1.971   1.994   2.039
  2.053   2.120   2.144   2.204   2.236   2.268   2.287   2.304
  2.361   2.373   2.383   2.434   2.448   2.472   2.514   2.535
  2.563   2.618   2.620   2.636   2.672   2.703   2.748   2.825
  2.860   2.945   2.976   3.107   3.175   3.275   3.352   3.400
  3.447   3.589   3.752   4.176   4.313   4.401   4.444   4.562
  4.729   4.873
 
 Beta MOs
 -- Occupied --
-14.339 -10.245 -10.239 -10.220 -10.214 -10.213 -10.212  -0.936
 -0.865  -0.777  -0.663  -0.593  -0.573  -0.537  -0.507  -0.475
 -0.463  -0.443  -0.383  -0.345  -0.300  -0.291  -0.266  -0.242
 -- Virtual --
 -0.094  -0.025  -0.010  -0.005   0.012   0.020   0.025   0.032
  0.043   0.045   0.072   0.075   0.083   0.090   0.097   0.103
  0.114   0.117   0.127   0.135   0.137   0.146   0.153   0.160
  0.180   0.187   0.201   0.205   0.210   0.222   0.226   0.238
  0.245   0.258   0.261   0.278   0.292   0.309   0.319   0.329
  0.342   0.396   0.435   0.445   0.495   0.599   0.640   0.661
  0.673   0.684   0.708   0.726   0.739   0.754   0.764   0.776
  0.790   0.802   0.806   0.855   0.871   0.899   0.910   0.944
  0.965   0.981   1.013   1.025   1.062   1.095   1.102   1.116
  1.136   1.148   1.166   1.218   1.277   1.315   1.372   1.384
  1.449   1.494   1.530   1.602   1.629   1.673   1.680   1.730
  1.747   1.772   1.799   1.823   1.866   1.938   1.972   2.009
  2.040   2.054   2.121   2.150   2.210   2.239   2.270   2.289
  2.308   2.365   2.379   2.388   2.440   2.449   2.475   2.517
  2.537   2.569   2.620   2.625   2.638   2.678   2.723   2.754
  2.825   2.861   2.951   2.983   3.109   3.176   3.288   3.352
  3.401   3.448   3.607   3.752   4.177   4.325   4.402   4.463
  4.566   4.730   4.873
 --------------------------------------------------------------
 
          Ground-State Mulliken Net Atomic Charges

     Atom                 Charge (a.u.)    Spin (a.u.)
  --------------------------------------------------------
      1 C                    -0.098651       0.006765
      2 C                     0.043753      -0.255454
      3 C                    -0.247712       1.133294
      4 C                    -0.076850       0.011140
      5 C                    -0.221127       0.006006
      6 N                    -0.132277       0.008756
      7 H                     0.140115       0.001082
      8 H                     0.157949       0.085596
      9 H                     0.152082       0.009947
     10 H                     0.137398      -0.000387
     11 H                     0.135711       0.000271
     12 C                    -0.125451      -0.006921
     13 H                     0.135060      -0.000095
  --------------------------------------------------------
  Sum of atomic charges =    -0.000000
  Sum of spin   charges =     1.000000

 -----------------------------------------------------------------
                    Cartesian Multipole Moments
 -----------------------------------------------------------------
    Charge (ESU x 10^10)
                 0.0000
    Dipole Moment (Debye)
         X      -0.8378      Y      -2.0501      Z       0.3741
       Tot       2.2460
    Quadrupole Moments (Debye-Ang)
        XX     -40.9747     XY      -2.1354     YY     -40.7956
        XZ       2.1063     YZ      -2.2474     ZZ     -40.6957
    Octopole Moments (Debye-Ang^2)
       XXX      -0.3126    XXY      -4.6100    XYY     -11.1168
       YYY     -33.7105    XXZ       3.4376    XYZ       0.0874
       YYZ      -1.8550    XZZ      -4.0441    YZZ      -1.3115
       ZZZ       8.0514
    Hexadecapole Moments (Debye-Ang^3)
      XXXX    -432.7929   XXXY     101.9731   XXYY    -157.4377
      XYYY      69.2255   YYYY    -442.7007   XXXZ     -47.5809
      XXYZ      -4.6515   XYYZ     -11.8432   YYYZ       4.9956
      XXZZ     -92.4571   XYZZ      18.5929   YYZZ     -92.2451
      XZZZ     -43.9585   YZZZ      -9.5742   ZZZZ    -137.6990
 -----------------------------------------------------------------
 Calculating analytic gradient of the SCF energy
 Gradient of SCF Energy
            1           2           3           4           5           6
    1  -0.0002424   0.0000305   0.0000146   0.0000104   0.0000890   0.0000722
    2   0.0001166  -0.0001210   0.0001415  -0.0001766  -0.0002239   0.0000207
    3  -0.0000357  -0.0000503  -0.0000243   0.0001260  -0.0000740   0.0000561
            7           8           9          10          11          12
    1   0.0000413   0.0000094   0.0000076  -0.0000245   0.0000076   0.0000130
    2   0.0000212   0.0000263  -0.0000253   0.0000086   0.0000217   0.0001997
    3  -0.0000165   0.0000162   0.0000297  -0.0000334   0.0000395  -0.0000423
           13
    1  -0.0000289
    2  -0.0000095
    3   0.0000090
 Max gradient component =       2.424E-04
 RMS gradient           =       8.531E-05
 Gradient time:  CPU 16.00 s  wall 4.54 s
 Geometry Optimization Parameters
   NAtoms,    NIC,     NZ,  NCons,   NDum,   NFix, NCnnct, MaxDiis
       13      83       0       0       0       0       0       0

 Cartesian Hessian Update
 Hessian Updated using Powell/Murtagh-Sargent Update
  Mixing factors:     0.999827 Powell
                      0.000173 Murtagh-Sargent


** GEOMETRY OPTIMIZATION IN DELOCALIZED INTERNAL COORDINATES **
   Searching for a Transition State

   Optimization Cycle:   3

                       Coordinates (Angstroms)
     ATOM                X               Y               Z
      1  C         1.4645797421    0.2708354004    0.3430481959
      2  C         1.0898269120   -1.1839043700    0.4844382798
      3  C         0.7845098988   -2.0010319328   -0.4956128592
      4  C        -1.4791536498    1.2825316865   -1.0231852540
      5  C        -0.7220596480    1.2607422045    0.2670855526
      6  N         0.7272726177    1.3014790865    0.2663345495
      7  H         2.5465919333    0.4463647570    0.3547595840
      8  H         1.1862916117   -1.5737815363    1.5086335221
      9  H         0.5472365929   -3.0501040195   -0.6167239325
     10  H        -1.7048487231    1.8606031715   -1.9069518497
     11  H        -1.0846019572    1.8677043574    1.1011974915
     12  C        -1.5938806205    0.1853515953   -0.3309781321
     13  H        -2.0014045291   -0.8093068032   -0.2433282316
   Point Group: c1    Number of degrees of freedom:    33


   Energy is   -286.780800368

 Hessian Updated using Powell/Murtagh-Sargent Update
  Mixing factors:     0.984909 Powell
                      0.015091 Murtagh-Sargent

 33 Hessian modes will be used to form the next step
  Hessian Eigenvalues:
    -0.003343    0.001772    0.003834    0.003895    0.014864    0.025704
     0.028242    0.029340    0.038444    0.052268    0.059384    0.061342
     0.068012    0.074683    0.089465    0.104710    0.108517    0.131085
     0.141932    0.165286    0.230900    0.268904    0.285941    0.324933
     0.331410    0.339622    0.369563    0.373040    0.374511    0.444002
     0.522224    0.660761    0.769623

 Transition State Search - Taking P-RFO Step
 Searching for Lamda that Maximizes Along the Lowest mode
 Value Taken    Lamda =   0.00000001
 Searching for Lamda that Minimizes Along All other modes
 Value Taken    Lamda =  -0.00000158
 Step Taken.  Stepsize is  0.023369

                             Maximum     Tolerance    Cnvgd?
         Gradient           0.000150      0.000010      NO
         Displacement       0.012419      0.001200      NO
         Energy change     -0.000026      0.000001      NO


 New Cartesian Coordinates Obtained by Inverse Iteration

 Displacement from previous Coordinates is:  0.066733
 ----------------------------------------------------------------
             Standard Nuclear Orientation (Angstroms)
    I     Atom           X                Y                Z
 ----------------------------------------------------------------
    1      C       1.4653715619     0.2701481738     0.3400632454
    2      C       1.0913119466    -1.1840870202     0.4878800299
    3      C       0.7840403192    -2.0053655862    -0.4881395462
    4      C      -1.4830014250     1.2899011054    -1.0219581042
    5      C      -0.7224467244     1.2580115545     0.2658810887
    6      N       0.7271784674     1.3000962885     0.2607919332
    7      H       2.5472383323     0.4462540117     0.3488997530
    8      H       1.1904301293    -1.5702059566     1.5132394720
    9      H       0.5470006199    -3.0548808630    -0.6052756731
   10      H      -1.7119374810     1.8749576791    -1.9002109467
   11      H      -1.0832187571     1.8569971733     1.1064770072
   12      C      -1.5936036309     0.1861243274    -0.3392297427
   13      H      -1.9980031772    -0.8104672904    -0.2597016003
 ----------------------------------------------------------------
 Nuclear Repulsion Energy =   250.4935911621 hartrees
 There are       25 alpha and       24 beta electrons
 Applying Cartesian multipole field
    Component          Value
    ---------          -----
     (2,0,0)        1.00000E-11
     (0,2,0)        2.00000E-11
     (0,0,2)       -3.00000E-11
 Nucleus-field energy     =     0.0000000067 hartrees
 Requested basis set is 6-31+G(d,p)
 There are 53 shells and 163 basis functions
 A cutoff of  1.0D-14 yielded   1358 shell pairs
 There are     13306 function pairs
 Smallest overlap matrix eigenvalue = 6.18E-05
 Guess MOs from SCF MO coefficient file
 Reading MOs from coefficient file
 Reading MOs from coefficient file
 An unrestricted hybrid HF-DFT SCF calculation will be
 performed using Pulay DIIS extrapolation
 Exchange:     0.2000 Hartree-Fock + 0.0800 Slater + 0.7200 B88
 Correlation:  0.1900 VWN1RPA + 0.8100 LYP
 Using SG-1 standard quadrature grid
 SCF converges when DIIS error is below 1.0E-08
 Geometry optimization detected.  Setting ReadMinima to 0
 Setting SaveMinima to 0
Using Q-Chem read-in guess as SCF_GUESS READ specified.

 using 4 threads for integral computing
 -------------------------------------------------------
 OpenMP Integral computing Module                
 Release: version 1.0, May 2013, Q-Chem Inc. Pittsburgh 
 -------------------------------------------------------
 -------------------------------------------------------
 OpenMP BLAS3 based DFT computing Module                
 Release: version 1.0, May 2013, Q-Chem Inc. Pittsburgh 
 -------------------------------------------------------
 ---------------------------------------
  Cycle       Energy         DIIS Error
 ---------------------------------------
    1    -286.7811101294      2.07E-04
    2    -286.7807991758      1.61E-05
    3    -286.7807995801      2.07E-05
    4    -286.7808010922      5.75E-06
    5    -286.7808012054      2.27E-06
    6    -286.7808012193      1.15E-06
    7    -286.7808012236      4.46E-07
    8    -286.7808012244      6.55E-08
    9    -286.7808012245      4.14E-08
   10    -286.7808012245      2.05E-08
   11    -286.7808012245      6.01E-09 Convergence criterion met
 ---------------------------------------
 <S^2> = 0.7607
 SCF time:  CPU 52.93 s  wall 16.26 s
 SCF   energy in the final basis set = -286.78080122
 Total energy in the final basis set = -286.78080122
 
 --------------------------------------------------------------
 
                    Orbital Energies (a.u.)
 --------------------------------------------------------------
 
 Alpha MOs
 -- Occupied --
-14.339 -10.246 -10.239 -10.229 -10.218 -10.213 -10.212  -0.936
 -0.866  -0.791  -0.669  -0.605  -0.574  -0.541  -0.510  -0.489
 -0.470  -0.445  -0.384  -0.346  -0.305  -0.296  -0.271  -0.263
 -0.229
 -- Virtual --
 -0.029  -0.017  -0.006   0.011   0.019   0.025   0.031   0.042
  0.044   0.071   0.073   0.077   0.090   0.096   0.101   0.111
  0.115   0.128   0.134   0.136   0.145   0.152   0.159   0.179
  0.186   0.198   0.204   0.209   0.217   0.223   0.237   0.244
  0.256   0.261   0.277   0.290   0.309   0.317   0.326   0.341
  0.393   0.419   0.443   0.494   0.594   0.631   0.647   0.665
  0.681   0.705   0.719   0.739   0.748   0.762   0.774   0.778
  0.795   0.804   0.852   0.865   0.897   0.908   0.936   0.958
  0.979   1.011   1.022   1.052   1.088   1.099   1.109   1.135
  1.145   1.163   1.216   1.273   1.313   1.370   1.380   1.447
  1.494   1.528   1.587   1.613   1.637   1.674   1.716   1.738
  1.767   1.793   1.821   1.858   1.919   1.971   1.994   2.038
  2.053   2.120   2.144   2.204   2.236   2.268   2.287   2.304
  2.361   2.372   2.383   2.433   2.449   2.472   2.514   2.536
  2.563   2.617   2.620   2.637   2.672   2.704   2.748   2.825
  2.860   2.944   2.975   3.107   3.175   3.275   3.352   3.401
  3.446   3.589   3.751   4.176   4.312   4.400   4.444   4.562
  4.729   4.873
 
 Beta MOs
 -- Occupied --
-14.339 -10.245 -10.239 -10.220 -10.214 -10.213 -10.212  -0.936
 -0.865  -0.777  -0.663  -0.593  -0.573  -0.537  -0.507  -0.475
 -0.463  -0.443  -0.383  -0.345  -0.300  -0.291  -0.267  -0.242
 -- Virtual --
 -0.094  -0.025  -0.010  -0.005   0.012   0.020   0.025   0.032
  0.043   0.046   0.071   0.075   0.083   0.090   0.097   0.103
  0.114   0.117   0.127   0.135   0.137   0.146   0.153   0.159
  0.180   0.187   0.201   0.205   0.210   0.222   0.226   0.238
  0.245   0.258   0.261   0.278   0.292   0.309   0.319   0.329
  0.342   0.397   0.435   0.444   0.494   0.599   0.641   0.661
  0.673   0.684   0.708   0.726   0.738   0.754   0.764   0.776
  0.791   0.802   0.805   0.855   0.871   0.898   0.909   0.944
  0.965   0.982   1.013   1.025   1.062   1.095   1.102   1.115
  1.135   1.147   1.166   1.218   1.277   1.314   1.372   1.383
  1.449   1.494   1.531   1.601   1.630   1.672   1.680   1.730
  1.747   1.772   1.799   1.823   1.866   1.938   1.973   2.009
  2.039   2.054   2.120   2.150   2.210   2.239   2.270   2.289
  2.308   2.364   2.379   2.388   2.440   2.450   2.475   2.516
  2.538   2.569   2.620   2.625   2.638   2.678   2.723   2.754
  2.826   2.861   2.950   2.983   3.109   3.175   3.288   3.352
  3.401   3.447   3.607   3.751   4.177   4.324   4.402   4.463
  4.566   4.730   4.873
 --------------------------------------------------------------
 
          Ground-State Mulliken Net Atomic Charges

     Atom                 Charge (a.u.)    Spin (a.u.)
  --------------------------------------------------------
      1 C                    -0.097893       0.006495
      2 C                     0.044097      -0.255278
      3 C                    -0.247527       1.133479
      4 C                    -0.075579       0.011268
      5 C                    -0.220813       0.006013
      6 N                    -0.132723       0.008754
      7 H                     0.140177       0.001081
      8 H                     0.157945       0.085599
      9 H                     0.152150       0.009874
     10 H                     0.137347      -0.000395
     11 H                     0.135814       0.000267
     12 C                    -0.128124      -0.007064
     13 H                     0.135131      -0.000093
  --------------------------------------------------------
  Sum of atomic charges =    -0.000000
  Sum of spin   charges =     1.000000

 -----------------------------------------------------------------
                    Cartesian Multipole Moments
 -----------------------------------------------------------------
    Charge (ESU x 10^10)
                 0.0000
    Dipole Moment (Debye)
         X      -0.8316      Y      -2.0446      Z       0.3849
       Tot       2.2406
    Quadrupole Moments (Debye-Ang)
        XX     -40.9649     XY      -2.1466     YY     -40.7734
        XZ       2.1262     YZ      -2.2348     ZZ     -40.7057
    Octopole Moments (Debye-Ang^2)
       XXX      -0.2331    XXY      -4.5560    XYY     -11.1534
       YYY     -33.6685    XXZ       3.4148    XYZ       0.1027
       YYZ      -1.8202    XZZ      -4.0047    YZZ      -1.2796
       ZZZ       8.2488
    Hexadecapole Moments (Debye-Ang^3)
      XXXX    -433.3896   XXXY     102.2938   XXYY    -157.5879
      XYYY      69.5225   YYYY    -443.2405   XXXZ     -47.8806
      XXYZ      -4.4492   XYYZ     -11.7373   YYYZ       5.3833
      XXZZ     -92.4627   XYZZ      18.6993   YYZZ     -92.3725
      XZZZ     -44.4094   YZZZ      -8.8251   ZZZZ    -137.5755
 -----------------------------------------------------------------
 Calculating analytic gradient of the SCF energy
 Gradient of SCF Energy
            1           2           3           4           5           6
    1  -0.0000012   0.0000119   0.0000054  -0.0000098  -0.0000005  -0.0000081
    2   0.0000069   0.0000050   0.0000035  -0.0000037  -0.0000149   0.0000105
    3  -0.0000104  -0.0000093  -0.0000053   0.0000092   0.0000021   0.0000084
            7           8           9          10          11          12
    1  -0.0000009   0.0000156   0.0000133  -0.0000167  -0.0000003  -0.0000045
    2   0.0000115   0.0000046   0.0000029  -0.0000050  -0.0000032  -0.0000163
    3  -0.0000107  -0.0000079  -0.0000074   0.0000082   0.0000058   0.0000123
           13
    1  -0.0000042
    2  -0.0000019
    3   0.0000047
 Max gradient component =       1.674E-05
 RMS gradient           =       8.561E-06
 Gradient time:  CPU 15.63 s  wall 4.06 s
 Geometry Optimization Parameters
   NAtoms,    NIC,     NZ,  NCons,   NDum,   NFix, NCnnct, MaxDiis
       13      83       0       0       0       0       0       0

 Cartesian Hessian Update
 Hessian Updated using Powell/Murtagh-Sargent Update
  Mixing factors:     0.999861 Powell
                      0.000139 Murtagh-Sargent


** GEOMETRY OPTIMIZATION IN DELOCALIZED INTERNAL COORDINATES **
   Searching for a Transition State

   Optimization Cycle:   4

                       Coordinates (Angstroms)
     ATOM                X               Y               Z
      1  C         1.4653715619    0.2701481738    0.3400632454
      2  C         1.0913119466   -1.1840870202    0.4878800299
      3  C         0.7840403192   -2.0053655862   -0.4881395462
      4  C        -1.4830014250    1.2899011054   -1.0219581042
      5  C        -0.7224467244    1.2580115545    0.2658810887
      6  N         0.7271784674    1.3000962885    0.2607919332
      7  H         2.5472383323    0.4462540117    0.3488997530
      8  H         1.1904301293   -1.5702059566    1.5132394720
      9  H         0.5470006199   -3.0548808630   -0.6052756731
     10  H        -1.7119374810    1.8749576791   -1.9002109467
     11  H        -1.0832187571    1.8569971733    1.1064770072
     12  C        -1.5936036309    0.1861243274   -0.3392297427
     13  H        -1.9980031772   -0.8104672904   -0.2597016003
   Point Group: c1    Number of degrees of freedom:    33


   Energy is   -286.780801225

 Hessian Updated using Powell/Murtagh-Sargent Update
  Mixing factors:     0.971417 Powell
                      0.028583 Murtagh-Sargent

 33 Hessian modes will be used to form the next step
  Hessian Eigenvalues:
    -0.003332    0.001578    0.003834    0.003888    0.014862    0.025682
     0.028247    0.029342    0.038406    0.052246    0.059373    0.061332
     0.067970    0.074683    0.089431    0.104698    0.108523    0.131086
     0.141923    0.165287    0.230875    0.268894    0.285922    0.324933
     0.331408    0.339619    0.369563    0.373039    0.374510    0.443906
     0.522219    0.660761    0.769619

 Transition State Search - Taking P-RFO Step
 Searching for Lamda that Maximizes Along the Lowest mode
 Value Taken    Lamda =   0.00000000
 Searching for Lamda that Minimizes Along All other modes
 Value Taken    Lamda =   0.00000000
 Step Taken.  Stepsize is  0.003731

                             Maximum     Tolerance    Cnvgd?
         Gradient           0.000031      0.000010      NO
         Displacement       0.002094      0.001200      NO
         Energy change     -0.000001      0.000001     YES


 New Cartesian Coordinates Obtained by Inverse Iteration

 Displacement from previous Coordinates is:  0.009594
 ----------------------------------------------------------------
             Standard Nuclear Orientation (Angstroms)
    I     Atom           X                Y                Z
 ----------------------------------------------------------------
    1      C       1.4654978291     0.2701017705     0.3397065807
    2      C       1.0914971679    -1.1840572982     0.4884132181
    3      C       0.7837244936    -2.0057521936    -0.4870967366
    4      C      -1.4835318726     1.2908638298    -1.0218046363
    5      C      -0.7224398320     1.2575649783     0.2656561190
    6      N       0.7272229639     1.2999530831     0.2599420606
    7      H       2.5473606977     0.4462584056     0.3481804624
    8      H       1.1910930428    -1.5697235819     1.5138956807
    9      H       0.5465676644    -3.0553049146    -0.6036564065
   10      H      -1.7130329042     1.8768970455    -1.8992560399
   11      H      -1.0829948790     1.8553160100     1.1072345242
   12      C      -1.5934196931     0.1861545465    -0.3404513770
   13      H      -1.9971844973    -0.8107880839    -0.2620465332
 ----------------------------------------------------------------
 Nuclear Repulsion Energy =   250.4904895731 hartrees
 There are       25 alpha and       24 beta electrons
 Applying Cartesian multipole field
    Component          Value
    ---------          -----
     (2,0,0)        1.00000E-11
     (0,2,0)        2.00000E-11
     (0,0,2)       -3.00000E-11
 Nucleus-field energy     =     0.0000000067 hartrees
 Requested basis set is 6-31+G(d,p)
 There are 53 shells and 163 basis functions
 A cutoff of  1.0D-14 yielded   1358 shell pairs
 There are     13306 function pairs
 Smallest overlap matrix eigenvalue = 6.17E-05
 Guess MOs from SCF MO coefficient file
 Reading MOs from coefficient file
 Reading MOs from coefficient file
 An unrestricted hybrid HF-DFT SCF calculation will be
 performed using Pulay DIIS extrapolation
 Exchange:     0.2000 Hartree-Fock + 0.0800 Slater + 0.7200 B88
 Correlation:  0.1900 VWN1RPA + 0.8100 LYP
 Using SG-1 standard quadrature grid
 SCF converges when DIIS error is below 1.0E-08
 Geometry optimization detected.  Setting ReadMinima to 0
 Setting SaveMinima to 0
Using Q-Chem read-in guess as SCF_GUESS READ specified.

 using 4 threads for integral computing
 -------------------------------------------------------
 OpenMP Integral computing Module                
 Release: version 1.0, May 2013, Q-Chem Inc. Pittsburgh 
 -------------------------------------------------------
 -------------------------------------------------------
 OpenMP BLAS3 based DFT computing Module                
 Release: version 1.0, May 2013, Q-Chem Inc. Pittsburgh 
 -------------------------------------------------------
 ---------------------------------------
  Cycle       Energy         DIIS Error
 ---------------------------------------
    1    -286.7809028382      3.08E-05
    2    -286.7808011929      2.42E-06
    3    -286.7808012063      3.01E-06
    4    -286.7808012360      9.68E-07
    5    -286.7808012391      3.73E-07
    6    -286.7808012395      1.86E-07
    7    -286.7808012396      6.61E-08
    8    -286.7808012396      1.21E-08
    9    -286.7808012396      8.75E-09 Convergence criterion met
 ---------------------------------------
 <S^2> = 0.7607
 SCF time:  CPU 43.44 s  wall 15.82 s
 SCF   energy in the final basis set = -286.78080124
 Total energy in the final basis set = -286.78080124
 
 --------------------------------------------------------------
 
                    Orbital Energies (a.u.)
 --------------------------------------------------------------
 
 Alpha MOs
 -- Occupied --
-14.339 -10.246 -10.239 -10.229 -10.218 -10.213 -10.212  -0.936
 -0.866  -0.791  -0.669  -0.605  -0.574  -0.541  -0.510  -0.489
 -0.470  -0.445  -0.384  -0.346  -0.305  -0.296  -0.271  -0.263
 -0.229
 -- Virtual --
 -0.029  -0.017  -0.006   0.011   0.019   0.025   0.031   0.042
  0.044   0.071   0.073   0.077   0.090   0.096   0.101   0.111
  0.115   0.128   0.134   0.136   0.145   0.152   0.159   0.179
  0.186   0.198   0.204   0.209   0.217   0.223   0.237   0.244
  0.256   0.261   0.277   0.290   0.309   0.317   0.326   0.341
  0.393   0.419   0.443   0.494   0.594   0.631   0.647   0.665
  0.681   0.705   0.719   0.739   0.748   0.762   0.774   0.778
  0.795   0.804   0.852   0.865   0.897   0.908   0.936   0.958
  0.979   1.011   1.022   1.052   1.088   1.099   1.109   1.135
  1.145   1.163   1.216   1.273   1.313   1.370   1.380   1.447
  1.494   1.528   1.587   1.613   1.637   1.674   1.716   1.738
  1.768   1.793   1.821   1.858   1.919   1.971   1.994   2.038
  2.053   2.120   2.144   2.204   2.236   2.268   2.287   2.304
  2.361   2.372   2.383   2.433   2.449   2.472   2.514   2.536
  2.563   2.617   2.620   2.637   2.672   2.704   2.748   2.825
  2.860   2.944   2.975   3.107   3.175   3.275   3.352   3.401
  3.446   3.589   3.751   4.176   4.312   4.400   4.444   4.562
  4.729   4.873
 
 Beta MOs
 -- Occupied --
-14.339 -10.245 -10.239 -10.220 -10.214 -10.213 -10.212  -0.936
 -0.865  -0.777  -0.663  -0.593  -0.573  -0.537  -0.507  -0.475
 -0.463  -0.443  -0.383  -0.345  -0.301  -0.291  -0.267  -0.242
 -- Virtual --
 -0.094  -0.026  -0.010  -0.005   0.012   0.020   0.025   0.032
  0.043   0.046   0.071   0.075   0.083   0.090   0.096   0.103
  0.114   0.117   0.127   0.135   0.137   0.146   0.153   0.159
  0.180   0.187   0.201   0.205   0.210   0.222   0.226   0.238
  0.245   0.258   0.261   0.278   0.292   0.309   0.319   0.329
  0.342   0.397   0.435   0.444   0.494   0.599   0.641   0.661
  0.673   0.684   0.708   0.726   0.738   0.754   0.764   0.776
  0.791   0.802   0.805   0.855   0.871   0.898   0.909   0.944
  0.965   0.982   1.013   1.025   1.062   1.095   1.102   1.115
  1.135   1.147   1.166   1.218   1.277   1.314   1.372   1.383
  1.449   1.494   1.531   1.601   1.630   1.672   1.680   1.730
  1.747   1.772   1.799   1.823   1.866   1.938   1.973   2.009
  2.039   2.054   2.120   2.150   2.210   2.239   2.270   2.289
  2.308   2.364   2.379   2.388   2.440   2.450   2.475   2.516
  2.538   2.569   2.620   2.625   2.638   2.678   2.723   2.754
  2.826   2.861   2.950   2.983   3.109   3.175   3.288   3.352
  3.401   3.447   3.607   3.751   4.177   4.324   4.402   4.463
  4.566   4.730   4.873
 --------------------------------------------------------------
 
          Ground-State Mulliken Net Atomic Charges

     Atom                 Charge (a.u.)    Spin (a.u.)
  --------------------------------------------------------
      1 C                    -0.097736       0.006464
      2 C                     0.044156      -0.255236
      3 C                    -0.247519       1.133460
      4 C                    -0.075425       0.011302
      5 C                    -0.220822       0.006013
      6 N                    -0.132791       0.008752
      7 H                     0.140178       0.001083
      8 H                     0.157946       0.085596
      9 H                     0.152153       0.009877
     10 H                     0.137339      -0.000397
     11 H                     0.135827       0.000268
     12 C                    -0.128444      -0.007090
     13 H                     0.135139      -0.000093
  --------------------------------------------------------
  Sum of atomic charges =    -0.000000
  Sum of spin   charges =     1.000000

 -----------------------------------------------------------------
                    Cartesian Multipole Moments
 -----------------------------------------------------------------
    Charge (ESU x 10^10)
                -0.0000
    Dipole Moment (Debye)
         X      -0.8308      Y      -2.0441      Z       0.3867
       Tot       2.2401
    Quadrupole Moments (Debye-Ang)
        XX     -40.9639     XY      -2.1480     YY     -40.7713
        XZ       2.1296     YZ      -2.2329     ZZ     -40.7068
    Octopole Moments (Debye-Ang^2)
       XXX      -0.2202    XXY      -4.5485    XYY     -11.1609
       YYY     -33.6638    XXZ       3.4125    XYZ       0.1047
       YYZ      -1.8137    XZZ      -3.9990    YZZ      -1.2767
       ZZZ       8.2784
    Hexadecapole Moments (Debye-Ang^3)
      XXXX    -433.4403   XXXY     102.3052   XXYY    -157.5950
      XYYY      69.5484   YYYY    -443.2912   XXXZ     -47.9279
      XXYZ      -4.4214   XYYZ     -11.7212   YYYZ       5.4372
      XXZZ     -92.4560   XYZZ      18.7053   YYZZ     -92.3840
      XZZZ     -44.4797   YZZZ      -8.7151   ZZZZ    -137.5629
 -----------------------------------------------------------------
 Calculating analytic gradient of the SCF energy
 Gradient of SCF Energy
            1           2           3           4           5           6
    1   0.0000007   0.0000083   0.0000071  -0.0000108  -0.0000054  -0.0000048
    2   0.0000066   0.0000044   0.0000045  -0.0000046  -0.0000033   0.0000026
    3  -0.0000054  -0.0000068  -0.0000070   0.0000084   0.0000039  -0.0000017
            7           8           9          10          11          12
    1  -0.0000004   0.0000146   0.0000118  -0.0000175  -0.0000038  -0.0000024
    2   0.0000117   0.0000034   0.0000036  -0.0000053  -0.0000069  -0.0000077
    3  -0.0000107  -0.0000079  -0.0000074   0.0000106   0.0000079   0.0000084
           13
    1   0.0000026
    2  -0.0000092
    3   0.0000077
 Max gradient component =       1.753E-05
 RMS gradient           =       7.558E-06
 Gradient time:  CPU 15.63 s  wall 4.43 s
 Geometry Optimization Parameters
   NAtoms,    NIC,     NZ,  NCons,   NDum,   NFix, NCnnct, MaxDiis
       13      83       0       0       0       0       0       0

 Cartesian Hessian Update
 Hessian Updated using Powell/Murtagh-Sargent Update
**WARNING** Small Scalar Product
 Hessian Update Skipped this cycle


** GEOMETRY OPTIMIZATION IN DELOCALIZED INTERNAL COORDINATES **
   Searching for a Transition State

   Optimization Cycle:   5

                       Coordinates (Angstroms)
     ATOM                X               Y               Z
      1  C         1.4654978291    0.2701017705    0.3397065807
      2  C         1.0914971679   -1.1840572982    0.4884132181
      3  C         0.7837244936   -2.0057521936   -0.4870967366
      4  C        -1.4835318726    1.2908638298   -1.0218046363
      5  C        -0.7224398320    1.2575649783    0.2656561190
      6  N         0.7272229639    1.2999530831    0.2599420606
      7  H         2.5473606977    0.4462584056    0.3481804624
      8  H         1.1910930428   -1.5697235819    1.5138956807
      9  H         0.5465676644   -3.0553049146   -0.6036564065
     10  H        -1.7130329042    1.8768970455   -1.8992560399
     11  H        -1.0829948790    1.8553160100    1.1072345242
     12  C        -1.5934196931    0.1861545465   -0.3404513770
     13  H        -1.9971844973   -0.8107880839   -0.2620465332
   Point Group: c1    Number of degrees of freedom:    33


   Energy is   -286.780801240

 Hessian Updated using Powell/Murtagh-Sargent Update
**WARNING** Small Scalar Product
 Hessian Update Skipped this cycle

 33 Hessian modes will be used to form the next step
  Hessian Eigenvalues:
    -0.003332    0.001578    0.003834    0.003888    0.014862    0.025682
     0.028247    0.029342    0.038406    0.052246    0.059373    0.061332
     0.067970    0.074683    0.089431    0.104698    0.108523    0.131086
     0.141923    0.165287    0.230875    0.268894    0.285922    0.324933
     0.331408    0.339619    0.369563    0.373039    0.374510    0.443906
     0.522219    0.660761    0.769619

 Transition State Search - Taking P-RFO Step
 Searching for Lamda that Maximizes Along the Lowest mode
 Value Taken    Lamda =   0.00000000
 Searching for Lamda that Minimizes Along All other modes
 Value Taken    Lamda =   0.00000000
 Step Taken.  Stepsize is  0.000286

                             Maximum     Tolerance    Cnvgd?
         Gradient           0.000001      0.000010     YES
         Displacement       0.000152      0.001200     YES
         Energy change     -0.000000      0.000001     YES


                       Distance Matrix (Angstroms)
             C (  1)   C (  2)   C (  3)   C (  4)   C (  5)   N (  6)
   C (  2)  1.508830
   C (  3)  2.515538  1.312069
   C (  4)  3.404768  3.877727  4.036588
   C (  5)  2.401591  3.049837  3.672112  1.495970
   N (  6)  1.269648  2.520953  3.389535  2.555464  1.450294
   H (  7)  1.096143  2.190236  3.133761  4.340312  3.369959  2.012332
   H (  8)  2.199767  1.100124  2.088071  4.665443  3.635006  3.165852
   H (  9)  3.576688  2.234084  1.082308  4.815115  4.578966  4.443727
   H ( 10)  4.206876  4.789133  4.827314  1.079827  2.460019  3.309056
   H ( 11)  3.097873  3.788027  4.575410  2.238715  1.093417  2.074421
   C ( 12)  3.134747  3.126224  3.236785  1.302574  1.507943  2.643180
   H ( 13)  3.677037  3.200387  3.035135  2.293036  2.486268  3.485699
             H (  7)   H (  8)   H (  9)   H ( 10)   H ( 11)   C ( 12)
   H (  8)  2.694910
   H (  9)  4.143683  2.665782
   H ( 10)  5.024804  5.653560  5.577723
   H ( 11)  3.967504  4.131313  5.449479  3.071872
   C ( 12)  4.205702  3.778257  3.893056  2.302779  2.267692
   H ( 13)  4.754517  3.727609  3.409579  3.159881  3.133494  1.078456

 
 Final energy is   -286.780801239642     


 ******************************
 **  OPTIMIZATION CONVERGED  **
 ******************************

                       Coordinates (Angstroms)
     ATOM                X               Y               Z
      1  C         1.4654978291    0.2701017705    0.3397065807
      2  C         1.0914971679   -1.1840572982    0.4884132181
      3  C         0.7837244936   -2.0057521936   -0.4870967366
      4  C        -1.4835318726    1.2908638298   -1.0218046363
      5  C        -0.7224398320    1.2575649783    0.2656561190
      6  N         0.7272229639    1.2999530831    0.2599420606
      7  H         2.5473606977    0.4462584056    0.3481804624
      8  H         1.1910930428   -1.5697235819    1.5138956807
      9  H         0.5465676644   -3.0553049146   -0.6036564065
     10  H        -1.7130329042    1.8768970455   -1.8992560399
     11  H        -1.0829948790    1.8553160100    1.1072345242
     12  C        -1.5934196931    0.1861545465   -0.3404513770
     13  H        -1.9971844973   -0.8107880839   -0.2620465332

Z-matrix Print:
$molecule
0 2
N 
C  1 1.269648
H  2 1.096143 1 116.361719
C  1 1.450294 2 123.867374 3 -178.598151 0
H  4 1.093417 1 108.461164 2 121.400507 0
C  4 1.495970 1 120.298103 2 -96.955221 0
H  6 1.079827 4 145.038422 1 -63.588458 0
C  6 1.302574 4 64.777646 1 114.680875 0
H  8 1.078456 6 148.606248 4 -178.453900 0
C  2 1.508830 1 130.075645 3 176.928096 0
H  10 1.100124 2 114.034960 1 -100.999753 0
C  10 1.312069 2 126.045977 1 84.996352 0
H  12 1.082308 10 137.627197 2 175.977367 0
$end

 
 --------------------------------------------------------------
 
                    Orbital Energies (a.u.)
 --------------------------------------------------------------
 
 Alpha MOs
 -- Occupied --
-14.339 -10.246 -10.239 -10.229 -10.218 -10.213 -10.212  -0.936
 -0.866  -0.791  -0.669  -0.605  -0.574  -0.541  -0.510  -0.489
 -0.470  -0.445  -0.384  -0.346  -0.305  -0.296  -0.271  -0.263
 -0.229
 -- Virtual --
 -0.029  -0.017  -0.006   0.011   0.019   0.025   0.031   0.042
  0.044   0.071   0.073   0.077   0.090   0.096   0.101   0.111
  0.115   0.128   0.134   0.136   0.145   0.152   0.159   0.179
  0.186   0.198   0.204   0.209   0.217   0.223   0.237   0.244
  0.256   0.261   0.277   0.290   0.309   0.317   0.326   0.341
  0.393   0.419   0.443   0.494   0.594   0.631   0.647   0.665
  0.681   0.705   0.719   0.739   0.748   0.762   0.774   0.778
  0.795   0.804   0.852   0.865   0.897   0.908   0.936   0.958
  0.979   1.011   1.022   1.052   1.088   1.099   1.109   1.135
  1.145   1.163   1.216   1.273   1.313   1.370   1.380   1.447
  1.494   1.528   1.587   1.613   1.637   1.674   1.716   1.738
  1.768   1.793   1.821   1.858   1.919   1.971   1.994   2.038
  2.053   2.120   2.144   2.204   2.236   2.268   2.287   2.304
  2.361   2.372   2.383   2.433   2.449   2.472   2.514   2.536
  2.563   2.617   2.620   2.637   2.672   2.704   2.748   2.825
  2.860   2.944   2.975   3.107   3.175   3.275   3.352   3.401
  3.446   3.589   3.751   4.176   4.312   4.400   4.444   4.562
  4.729   4.873
 
 Beta MOs
 -- Occupied --
-14.339 -10.245 -10.239 -10.220 -10.214 -10.213 -10.212  -0.936
 -0.865  -0.777  -0.663  -0.593  -0.573  -0.537  -0.507  -0.475
 -0.463  -0.443  -0.383  -0.345  -0.301  -0.291  -0.267  -0.242
 -- Virtual --
 -0.094  -0.026  -0.010  -0.005   0.012   0.020   0.025   0.032
  0.043   0.046   0.071   0.075   0.083   0.090   0.096   0.103
  0.114   0.117   0.127   0.135   0.137   0.146   0.153   0.159
  0.180   0.187   0.201   0.205   0.210   0.222   0.226   0.238
  0.245   0.258   0.261   0.278   0.292   0.309   0.319   0.329
  0.342   0.397   0.435   0.444   0.494   0.599   0.641   0.661
  0.673   0.684   0.708   0.726   0.738   0.754   0.764   0.776
  0.791   0.802   0.805   0.855   0.871   0.898   0.909   0.944
  0.965   0.982   1.013   1.025   1.062   1.095   1.102   1.115
  1.135   1.147   1.166   1.218   1.277   1.314   1.372   1.383
  1.449   1.494   1.531   1.601   1.630   1.672   1.680   1.730
  1.747   1.772   1.799   1.823   1.866   1.938   1.973   2.009
  2.039   2.054   2.120   2.150   2.210   2.239   2.270   2.289
  2.308   2.364   2.379   2.388   2.440   2.450   2.475   2.516
  2.538   2.569   2.620   2.625   2.638   2.678   2.723   2.754
  2.826   2.861   2.950   2.983   3.109   3.175   3.288   3.352
  3.401   3.447   3.607   3.751   4.177   4.324   4.402   4.463
  4.566   4.730   4.873
 --------------------------------------------------------------
 
          Ground-State Mulliken Net Atomic Charges

     Atom                 Charge (a.u.)    Spin (a.u.)
  --------------------------------------------------------
      1 C                    -0.097736       0.006464
      2 C                     0.044156      -0.255236
      3 C                    -0.247519       1.133460
      4 C                    -0.075425       0.011302
      5 C                    -0.220822       0.006013
      6 N                    -0.132791       0.008752
      7 H                     0.140178       0.001083
      8 H                     0.157946       0.085596
      9 H                     0.152153       0.009877
     10 H                     0.137339      -0.000397
     11 H                     0.135827       0.000268
     12 C                    -0.128444      -0.007090
     13 H                     0.135139      -0.000093
  --------------------------------------------------------
  Sum of atomic charges =    -0.000000
  Sum of spin   charges =     1.000000

 -----------------------------------------------------------------
                    Cartesian Multipole Moments
 -----------------------------------------------------------------
    Charge (ESU x 10^10)
                -0.0000
    Dipole Moment (Debye)
         X      -0.8308      Y      -2.0441      Z       0.3867
       Tot       2.2401
    Quadrupole Moments (Debye-Ang)
        XX     -40.9639     XY      -2.1480     YY     -40.7713
        XZ       2.1296     YZ      -2.2329     ZZ     -40.7068
    Octopole Moments (Debye-Ang^2)
       XXX      -0.2202    XXY      -4.5485    XYY     -11.1609
       YYY     -33.6638    XXZ       3.4125    XYZ       0.1047
       YYZ      -1.8137    XZZ      -3.9990    YZZ      -1.2767
       ZZZ       8.2784
    Hexadecapole Moments (Debye-Ang^3)
      XXXX    -433.4403   XXXY     102.3052   XXYY    -157.5950
      XYYY      69.5484   YYYY    -443.2912   XXXZ     -47.9279
      XXYZ      -4.4214   XYYZ     -11.7212   YYYZ       5.4372
      XXZZ     -92.4560   XYZZ      18.7053   YYZZ     -92.3840
      XZZZ     -44.4797   YZZZ      -8.7151   ZZZZ    -137.5629
 -----------------------------------------------------------------
Archival summary:
1\1\c8-85\TS\ProcedureUnspecified\6-31+G**\166(2)\hpark21\WedMar223:05:062022WedMar223:05:062022\0\\#,TS,ProcedureUnspecified,6-31+G**,\\0,2\N\C,1,1.26965\H,2,1.09614,1,116.362\C,1,1.45029,2,123.867,3,-178.598,0\H,4,1.09342,1,108.461,2,121.401,0\C,4,1.49597,1,120.298,2,-96.9552,0\H,6,1.07983,4,145.038,1,-63.5885,0\C,6,1.30257,4,64.7776,1,114.681,0\H,8,1.07846,6,148.606,4,-178.454,0\C,2,1.50883,1,130.076,3,176.928,0\H,10,1.10012,2,114.035,1,-101,0\C,10,1.31207,2,126.046,1,84.9964,0\H,12,1.08231,10,137.627,2,175.977,0\\\@

 Total job time:  101.08s(wall), 316.12s(cpu) 
 Wed Mar  2 23:05:06 2022

        *************************************************************
        *                                                           *
        *  Thank you very much for using Q-Chem.  Have a nice day.  *
        *                                                           *
        *************************************************************


