
Running Job 1 of 1 qcts2.in
qchem qcts2.in_69159.0 ./qcts2.d/ 1
/home/leeping/opt/qchem/5.0.2-openmp/exe/qcprog.exe_s qcts2.in_69159.0 ./qcts2.d/
Check license passed

                  Welcome to Q-Chem
     A Quantum Leap Into The Future Of Chemistry


 Q-Chem 5.0, Q-Chem, Inc., Pleasanton, CA (2017)

 Yihan Shao,  Zhengting Gan,  E. Epifanovsky,  A. T. B. Gilbert,  M. Wormit,  
 J. Kussmann,  A. W. Lange,  A. Behn,  Jia Deng,  Xintian Feng,  D. Ghosh,  
 M. Goldey,  P. R. Horn,  L. D. Jacobson,  I. Kaliman,  T. Kus,  A. Landau,  
 Jie Liu,  E. I. Proynov,  R. M. Richard,  R. P. Steele,  E. J. Sundstrom,  
 H. L. Woodcock III,  P. M. Zimmerman,  D. Zuev,  B. Albrecht,  E. Alguire,  
 S. A. Baeppler,  D. Barton,  Z. Benda,  Y. A. Bernard,  E. J. Berquist,  
 K. B. Bravaya,  H. Burton,  D. Casanova,  Chun-Min Chang,  Yunqing Chen,  
 A. Chien,  K. D. Closser,  M. P. Coons,  S. Dasgupta,  A. L. Dempwolff,  
 M. Diedenhofen,  Hainam Do,  R. G. Edgar,  Po-Tung Fang,  S. Fatehi,  
 Qingguo Feng,  J. Fosso-Tande,  Qinghui Ge,  A. Ghysels,  G. Gidofalvi,  
 J. Gomes,  J. Gonthier,  A. Gunina,  M. W. D. Hanson-Heine,  
 P. H. P. Harbach,  A. W. Hauser,  J. E. Herr,  E. G. Hohenstein,  
 Z. C. Holden,  Kerwin Hui,  T.-C. Jagau,  Hyunjun Ji,  B. Kaduk,  
 K. Khistyaev,  Jaehoon Kim,  P. Klunzinger,  K. Koh,  D. Kosenkov,  
 L. Koulias,  T. Kowalczyk,  C. M. Krauter,  A. Kunitsa,  Ka Un Lao,  
 A. Laurent,  K. V. Lawler,  Joonho Lee,  D. Lefrancois,  S. Lehtola,  
 D. S. Levine,  Yi-Pei Li,  You-Sheng Lin,  Fenglai Liu,  E. Livshits,  
 A. Luenser,  P. Manohar,  E. Mansoor,  S. F. Manzer,  Shan-Ping Mao,  
 Yuezhi Mao,  N. Mardirossian,  A. V. Marenich,  T. Markovich,  
 L. A. Martinez-Martinez,  S. A. Maurer,  N. J. Mayhall,  S. C. McKenzie,  
 J.-M. Mewes,  A. F. Morrison,  J. W. Mullinax,  K. Nanda,  
 T. S. Nguyen-Beck,  R. Olivares-Amaya,  J. A. Parkhill,  T. M. Perrine,  
 F. Plasser,  S. Prager,  A. Prociuk,  E. Ramos,  D. R. Rehn,  F. Rob,  
 M. Schneider,  N. Sergueev,  S. M. Sharada,  S. Sharma,  D. W. Small,  
 T. Stauch,  T. Stein,  Yu-Chuan Su,  A. J. W. Thom,  A. Tkatchenko,  
 T. Tsuchimochi,  L. Vogt,  O. Vydrov,  M. A. Watson,  J. Wenzel,  
 M. de Wergifosse,  T. A. Wesolowski,  A. White,  J. Witte,  A. Yamada,  
 Jun Yang,  K. Yao,  S. Yeganeh,  S. R. Yost,  Zhi-Qiang You,  A. Zech,  
 Igor Ying Zhang,  Xing Zhang,  Yan Zhao,  Ying Zhu,  B. R. Brooks,  
 G. K. L. Chan,  C. J. Cramer,  M. S. Gordon,  W. J. Hehre,  A. Klamt,  
 M. W. Schmidt,  C. D. Sherrill,  D. G. Truhlar,  A. Aspuru-Guzik,  R. Baer,  
 A. T. Bell,  N. A. Besley,  Jeng-Da Chai,  R. A. DiStasio Jr.,  A. Dreuw,  
 B. D. Dunietz,  T. R. Furlani,  Chao-Ping Hsu,  Yousung Jung,  Jing Kong,  
 D. S. Lambrecht,  WanZhen Liang,  C. Ochsenfeld,  V. A. Rassolov,  
 L. V. Slipchenko,  J. E. Subotnik,  T. Van Voorhis,  J. M. Herbert,  
 A. I. Krylov,  P. M. W. Gill,  M. Head-Gordon

 Contributors to earlier versions of Q-Chem not listed above: 
 R. D. Adamson,  B. Austin,  J. Baker,  G. J. O. Beran,  K. Brandhorst,  
 S. T. Brown,  E. F. C. Byrd,  A. K. Chakraborty,  C.-L. Cheng,  
 Siu Hung Chien,  D. M. Chipman,  D. L. Crittenden,  H. Dachsel,  
 R. J. Doerksen,  A. D. Dutoi,  L. Fusti-Molnar,  W. A. Goddard III,  
 A. Golubeva-Zadorozhnaya,  S. R. Gwaltney,  G. Hawkins,  A. Heyden,  
 S. Hirata,  G. Kedziora,  F. J. Keil,  C. Kelley,  Jihan Kim,  R. A. King,  
 R. Z. Khaliullin,  P. P. Korambath,  W. Kurlancheek,  A. M. Lee,  M. S. Lee,  
 S. V. Levchenko,  Ching Yeh Lin,  D. Liotard,  R. C. Lochan,  I. Lotan,  
 P. E. Maslen,  N. Nair,  D. P. O'Neill,  D. Neuhauser,  E. Neuscamman,  
 C. M. Oana,  R. Olson,  B. Peters,  R. Peverati,  P. A. Pieniazek,  
 Y. M. Rhee,  J. Ritchie,  M. A. Rohrdanz,  E. Rosta,  N. J. Russ,  
 H. F. Schaefer III,  N. E. Schultz,  N. Shenvi,  A. C. Simmonett,  A. Sodt,  
 D. Stuck,  K. S. Thanthiriwatte,  V. Vanovschi,  Tao Wang,  A. Warshel,  
 C. F. Williams,  Q. Wu,  X. Xu,  W. Zhang

 Please cite Q-Chem as follows:
 Y. Shao et al., Mol. Phys. 113, 184-215 (2015)
 DOI: 10.1080/00268976.2014.952696

 Q-Chem 5.0.2 for Intel X86 EM64T Linux

 Parts of Q-Chem use Armadillo 5.200.1 (Boston Tea Smuggler).
 http://arma.sourceforge.net/

 Q-Chem begins on Wed Mar  2 22:49:43 2022  

Host: 
0

     Scratch files written to ./qcts2.d//
 Dec517 15110_ 26548  26544 5633   
Processing $rem in /home/leeping/opt/qchem/5.0.2-openmp/config/preferences.
 MEM_STATIC 2000
 MEM_TOTAL  8000
 SYMMETRY   OFF
 SYM_IGNORE TRUE 

Checking the input file for inconsistencies... 	...done.

--------------------------------------------------------------
User input:
--------------------------------------------------------------
$molecule
0 2
C        1.4561485708    0.2751398970    0.3654313167
C        1.0665299911   -1.1802554370    0.4549359792
C        0.8038749381   -1.9646318485   -0.5625651577
C       -1.4501366220    1.2196744880   -1.0271908076
C       -0.7139947650    1.2870922374    0.2742366890
N        0.7330210542    1.3154535979    0.3066850230
H        2.5406148539    0.4388347657    0.3983295307
H        1.1062235658   -1.5950301236    1.4733846645
H        0.5625565941   -3.0091881594   -0.7171620873
H       -1.6565733180    1.7345136664   -1.9544659509
H       -1.0885028546    1.9549114157    1.0558853931
C       -1.5882919331    0.1805991868   -0.2585564341
H       -2.0111098943   -0.7996300891   -0.1002312424
$end

$rem
method                b3lyp
basis                 6-31+g(d,p)
unrestricted          true
symmetry              off
sym_ignore            true
incdft                false
incfock               0
scf_convergence       8
thresh                14
jobtype               sp
scf_guess             core
scf_guess_mix         5
scf_algorithm         diis
max_scf_cycles        100
$end

--------------------------------------------------------------
 ----------------------------------------------------------------
             Standard Nuclear Orientation (Angstroms)
    I     Atom           X                Y                Z
 ----------------------------------------------------------------
    1      C       1.4561485708     0.2751398970     0.3654313167
    2      C       1.0665299911    -1.1802554370     0.4549359792
    3      C       0.8038749381    -1.9646318485    -0.5625651577
    4      C      -1.4501366220     1.2196744880    -1.0271908076
    5      C      -0.7139947650     1.2870922374     0.2742366890
    6      N       0.7330210542     1.3154535979     0.3066850230
    7      H       2.5406148539     0.4388347657     0.3983295307
    8      H       1.1062235658    -1.5950301236     1.4733846645
    9      H       0.5625565941    -3.0091881594    -0.7171620873
   10      H      -1.6565733180     1.7345136664    -1.9544659509
   11      H      -1.0885028546     1.9549114157     1.0558853931
   12      C      -1.5882919331     0.1805991868    -0.2585564341
   13      H      -2.0111098943    -0.7996300891    -0.1002312424
 ----------------------------------------------------------------
 Nuclear Repulsion Energy =   251.1802126936 hartrees
 There are       25 alpha and       24 beta electrons
 Requested basis set is 6-31+G(d,p)
 There are 53 shells and 163 basis functions

 Total QAlloc Memory Limit   8000 MB
 Mega-Array Size      1956 MB
 MEM_STATIC part      2000 MB

                       Distance Matrix (Angstroms)
             C (  1)   C (  2)   C (  3)   C (  4)   C (  5)   N (  6)
   C (  2)  1.509301
   C (  3)  2.510621  1.311313
   C (  4)  3.358279  3.780208  3.928900
   C (  5)  2.396223  3.048069  3.684817  1.496718
   N (  6)  1.268313  2.522255  3.394050  2.560191  1.447657
   H (  7)  1.097244  2.190339  3.117088  4.309051  3.365624  2.011033
   H (  8)  2.201714  1.100387  2.091199  4.550870  3.613555  3.157750
   H (  9)  3.571740  2.229977  1.083159  4.693648  4.590259  4.447454
   H ( 10)  4.147377  4.660085  4.655628  1.080516  2.460845  3.316410
   H ( 11)  3.126277  3.851568  4.643630  2.238428  1.094173  2.070787
   C ( 12)  3.109167  3.067422  3.227522  1.299832  1.507511  2.644974
   H ( 13)  3.659761  3.150389  3.081415  2.291623  2.485386  3.488469
             H (  7)   H (  8)   H (  9)   H ( 10)   H ( 11)   C ( 12)
   H (  8)  2.711057
   H (  9)  4.128668  2.663440
   H ( 10)  4.983053  5.519879  5.381279
   H ( 11)  3.987651  4.194427  5.523765  3.071399
   C ( 12)  4.188801  3.662362  3.874431  2.301178  2.264008
   H ( 13)  4.743475  3.581438  3.447682  3.160026  3.126549  1.079209

 
 A cutoff of  1.0D-14 yielded   1358 shell pairs
 There are     13306 function pairs
 
 -------------------------------------------------------
 OpenMP Integral Computing Module                       
 Release: version 1.0, May 2013, Q-Chem Inc. Pittsburgh 
 -------------------------------------------------------
 Integral Job Info:
 Integral job number is                      11
 Integral operator is                         1
 short-range coefficients                     0
 long-range coefficients              100000000
 Omega coefficients                           0
 if combine SR and LR in K                    0
 Integral screening is                        0
 Integral computing path is                   2
 max size of driver memory is            800000
 size of driver memory is                593474
 size of scratch memory is              2361544
 max col of scratch BK array               1296
 max len of scratch array in speh3          155
 max len of scratch index in speh4           18
 max int batch size is                      520
 min int batch size is                       52
 fixed nKL is                                52
 max L of basis functions is                  2
 order of int derivative is                   0
 number of shells is                         53
 number of basis is                         163
 number of cartesian basis is               163
 number of contracted shell pairs          1358
 number of primitive shell pairs           4486
 maxK2 (contraction) of shell pair           36
 max number of K2 of shell pair               1
 max number of CS2 of shell pair            128
 max number of PS2 of shell pair            756
 mem total for path MDJ                  531564
 -------------------------------------------------------
 Smallest overlap matrix eigenvalue = 6.33E-05

 Scale SEOQF with 1.000000e-01/1.000000e-01/1.000000e-01

 Standard Electronic Orientation quadrupole field applied
 Nucleus-field energy     =     0.0000000064 hartrees
 Guess MOs from core Hamiltonian diagonalization
 Mixing HOMO and LUMO in initial guess
 Adding  50% of the LUMO to the HOMO
 An unrestricted hybrid HF-DFT SCF calculation will be
 performed using Pulay DIIS extrapolation
 Exchange:     0.2000 Hartree-Fock + 0.0800 Slater + 0.7200 B88
 Correlation:  0.1900 VWN1RPA + 0.8100 LYP
 Using SG-1 standard quadrature grid
 SCF converges when DIIS error is below 1.0E-08
 using 4 threads for integral computing
 -------------------------------------------------------
 OpenMP Integral computing Module                
 Release: version 1.0, May 2013, Q-Chem Inc. Pittsburgh 
 -------------------------------------------------------
 -------------------------------------------------------
 OpenMP BLAS3 based DFT computing Module                
 Release: version 1.0, May 2013, Q-Chem Inc. Pittsburgh 
 -------------------------------------------------------
 ---------------------------------------
  Cycle       Energy         DIIS Error
 ---------------------------------------
    1    -227.6745281593      1.00E-01
    2    -193.3470794703      9.56E-02
    3    -246.7589357161      6.87E-02
    4    -221.0616639881      9.50E-02
    5    -285.5235599141      1.49E-02
    6    -284.3121730839      2.41E-02
    7    -286.6944328180      4.12E-03
    8    -286.7253127203      3.72E-03
    9    -286.7742711743      1.08E-03
   10    -286.7795533978      3.79E-04
   11    -286.7803742779      1.85E-04
   12    -286.7806296124      6.20E-05
   13    -286.7806881219      3.28E-05
   14    -286.7807114226      8.52E-06
   15    -286.7807204439      2.66E-06
   16    -286.7807231649      1.04E-06
   17    -286.7807245458      5.54E-07
   18    -286.7807253310      3.12E-07
   19    -286.7807256684      1.71E-07
   20    -286.7807257175      2.77E-08
   21    -286.7807257180      8.12E-09 Convergence criterion met
 ---------------------------------------
 <S^2> = 0.7606
 SCF time:  CPU 101.67 s  wall 32.52 s
 SCF   energy in the final basis set = -286.78072572
 Total energy in the final basis set = -286.78072572
 
 --------------------------------------------------------------
 
                    Orbital Energies (a.u.)
 --------------------------------------------------------------
 
 Alpha MOs
 -- Occupied --
-14.339 -10.245 -10.239 -10.229 -10.218 -10.214 -10.212  -0.937
 -0.866  -0.791  -0.670  -0.604  -0.574  -0.541  -0.510  -0.489
 -0.470  -0.442  -0.385  -0.349  -0.302  -0.297  -0.270  -0.263
 -0.230
 -- Virtual --
 -0.026  -0.018  -0.007   0.011   0.019   0.025   0.030   0.042
  0.044   0.071   0.073   0.078   0.090   0.096   0.101   0.111
  0.115   0.127   0.134   0.136   0.145   0.153   0.162   0.179
  0.186   0.199   0.202   0.210   0.218   0.224   0.239   0.245
  0.257   0.260   0.279   0.293   0.307   0.317   0.326   0.340
  0.391   0.418   0.443   0.495   0.594   0.630   0.646   0.671
  0.675   0.706   0.720   0.742   0.750   0.763   0.773   0.775
  0.799   0.810   0.848   0.868   0.899   0.912   0.933   0.956
  0.979   1.013   1.025   1.053   1.085   1.102   1.115   1.138
  1.154   1.162   1.217   1.271   1.324   1.372   1.386   1.445
  1.492   1.517   1.589   1.610   1.637   1.680   1.716   1.741
  1.767   1.796   1.823   1.857   1.917   1.970   1.997   2.045
  2.055   2.123   2.147   2.204   2.239   2.270   2.287   2.303
  2.362   2.374   2.386   2.435   2.446   2.470   2.519   2.531
  2.563   2.618   2.622   2.633   2.675   2.701   2.748   2.818
  2.856   2.955   2.983   3.107   3.176   3.270   3.350   3.396
  3.452   3.589   3.754   4.177   4.318   4.406   4.442   4.566
  4.728   4.876
 
 Beta MOs
 -- Occupied --
-14.339 -10.244 -10.239 -10.220 -10.214 -10.214 -10.212  -0.937
 -0.866  -0.778  -0.663  -0.592  -0.574  -0.537  -0.507  -0.476
 -0.462  -0.440  -0.384  -0.348  -0.297  -0.293  -0.265  -0.244
 -- Virtual --
 -0.094  -0.024  -0.010  -0.006   0.012   0.021   0.025   0.031
  0.043   0.045   0.072   0.074   0.085   0.091   0.097   0.102
  0.114   0.117   0.127   0.135   0.137   0.146   0.153   0.162
  0.180   0.186   0.201   0.203   0.213   0.224   0.227   0.240
  0.246   0.259   0.260   0.281   0.294   0.308   0.318   0.330
  0.341   0.395   0.433   0.445   0.495   0.599   0.638   0.662
  0.674   0.682   0.708   0.728   0.743   0.755   0.763   0.778
  0.788   0.805   0.812   0.852   0.873   0.900   0.914   0.939
  0.965   0.981   1.014   1.028   1.063   1.093   1.104   1.120
  1.139   1.157   1.165   1.219   1.275   1.325   1.373   1.390
  1.447   1.493   1.520   1.605   1.626   1.676   1.682   1.731
  1.747   1.774   1.801   1.826   1.866   1.936   1.972   2.011
  2.047   2.057   2.124   2.154   2.210   2.242   2.272   2.289
  2.307   2.367   2.380   2.391   2.441   2.447   2.473   2.521
  2.533   2.568   2.620   2.628   2.635   2.681   2.720   2.754
  2.819   2.857   2.963   2.988   3.109   3.177   3.283   3.350
  3.397   3.453   3.606   3.754   4.177   4.330   4.408   4.460
  4.570   4.729   4.876
 --------------------------------------------------------------
 
          Ground-State Mulliken Net Atomic Charges

     Atom                 Charge (a.u.)    Spin (a.u.)
  --------------------------------------------------------
      1 C                    -0.103488       0.007538
      2 C                     0.035549      -0.257867
      3 C                    -0.246401       1.133945
      4 C                    -0.088899       0.009535
      5 C                    -0.222881       0.006397
      6 N                    -0.128833       0.009275
      7 H                     0.139958       0.001070
      8 H                     0.158231       0.085672
      9 H                     0.151425       0.010758
     10 H                     0.137796      -0.000243
     11 H                     0.134825       0.000298
     12 C                    -0.101960      -0.006248
     13 H                     0.134677      -0.000130
  --------------------------------------------------------
  Sum of atomic charges =     0.000000
  Sum of spin   charges =     1.000000

 -----------------------------------------------------------------
                    Cartesian Multipole Moments
 -----------------------------------------------------------------
    Charge (ESU x 10^10)
                -0.0000
    Dipole Moment (Debye)
         X      -0.9194      Y      -2.1059      Z       0.2966
       Tot       2.3169
    Quadrupole Moments (Debye-Ang)
        XX     -41.1638     XY      -2.0316     YY     -41.0360
        XZ       1.9039     YZ      -2.3194     ZZ     -40.5880
    Octopole Moments (Debye-Ang^2)
       XXX      -1.3354    XXY      -4.9454    XYY     -11.0227
       YYY     -34.0891    XXZ       3.5208    XYZ       0.0892
       YYZ      -2.0657    XZZ      -4.5728    YZZ      -1.7629
       ZZZ       6.5747
    Hexadecapole Moments (Debye-Ang^3)
      XXXX    -427.0403   XXXY      99.2072   XXYY    -156.3060
      XYYY      66.8256   YYYY    -438.5819   XXXZ     -44.3561
      XXYZ      -6.3665   XYYZ     -12.6204   YYYZ       1.6654
      XXZZ     -92.2887   XYZZ      18.0279   YYZZ     -91.3826
      XZZZ     -39.4303   YZZZ     -15.7599   ZZZZ    -138.7514
 -----------------------------------------------------------------
Archival summary:
1\1\c8-85\SP\ProcedureUnspecified\6-31+G**\166(2)\hpark21\WedMar222:50:172022WedMar222:50:172022\0\\#,ProcedureUnspecified,6-31+G**,\\0,2\N\C,1,1.26831\H,2,1.09724,1,116.265\C,1,1.44766,2,123.701,3,-179.167,0\H,4,1.09417,1,108.31,2,128.194,0\C,4,1.49672,1,120.797,2,-89.973,0\H,6,1.08052,4,144.956,1,-63.7308,0\C,6,1.29983,4,64.7928,1,114.857,0\H,8,1.07921,6,148.701,4,-178.98,0\C,2,1.5093,1,130.279,3,177.186,0\H,10,1.10039,2,114.145,1,-98.938,0\C,10,1.31131,2,125.626,1,86.6636,0\H,12,1.08316,10,137.073,2,176.318,0\\\@

 Total job time:  33.95s(wall), 103.46s(cpu) 
 Wed Mar  2 22:50:17 2022

        *************************************************************
        *                                                           *
        *  Thank you very much for using Q-Chem.  Have a nice day.  *
        *                                                           *
        *************************************************************


