
Running Job 1 of 1 qcts1.in
qchem qcts1.in_65377.0 ./qcts1.d/ 1
/home/leeping/opt/qchem/5.0.2-openmp/exe/qcprog.exe_s qcts1.in_65377.0 ./qcts1.d/
Check license passed

                  Welcome to Q-Chem
     A Quantum Leap Into The Future Of Chemistry


 Q-Chem 5.0, Q-Chem, Inc., Pleasanton, CA (2017)

 Yihan Shao,  Zhengting Gan,  E. Epifanovsky,  A. T. B. Gilbert,  M. Wormit,  
 J. Kussmann,  A. W. Lange,  A. Behn,  Jia Deng,  Xintian Feng,  D. Ghosh,  
 M. Goldey,  P. R. Horn,  L. D. Jacobson,  I. Kaliman,  T. Kus,  A. Landau,  
 Jie Liu,  E. I. Proynov,  R. M. Richard,  R. P. Steele,  E. J. Sundstrom,  
 H. L. Woodcock III,  P. M. Zimmerman,  D. Zuev,  B. Albrecht,  E. Alguire,  
 S. A. Baeppler,  D. Barton,  Z. Benda,  Y. A. Bernard,  E. J. Berquist,  
 K. B. Bravaya,  H. Burton,  D. Casanova,  Chun-Min Chang,  Yunqing Chen,  
 A. Chien,  K. D. Closser,  M. P. Coons,  S. Dasgupta,  A. L. Dempwolff,  
 M. Diedenhofen,  Hainam Do,  R. G. Edgar,  Po-Tung Fang,  S. Fatehi,  
 Qingguo Feng,  J. Fosso-Tande,  Qinghui Ge,  A. Ghysels,  G. Gidofalvi,  
 J. Gomes,  J. Gonthier,  A. Gunina,  M. W. D. Hanson-Heine,  
 P. H. P. Harbach,  A. W. Hauser,  J. E. Herr,  E. G. Hohenstein,  
 Z. C. Holden,  Kerwin Hui,  T.-C. Jagau,  Hyunjun Ji,  B. Kaduk,  
 K. Khistyaev,  Jaehoon Kim,  P. Klunzinger,  K. Koh,  D. Kosenkov,  
 L. Koulias,  T. Kowalczyk,  C. M. Krauter,  A. Kunitsa,  Ka Un Lao,  
 A. Laurent,  K. V. Lawler,  Joonho Lee,  D. Lefrancois,  S. Lehtola,  
 D. S. Levine,  Yi-Pei Li,  You-Sheng Lin,  Fenglai Liu,  E. Livshits,  
 A. Luenser,  P. Manohar,  E. Mansoor,  S. F. Manzer,  Shan-Ping Mao,  
 Yuezhi Mao,  N. Mardirossian,  A. V. Marenich,  T. Markovich,  
 L. A. Martinez-Martinez,  S. A. Maurer,  N. J. Mayhall,  S. C. McKenzie,  
 J.-M. Mewes,  A. F. Morrison,  J. W. Mullinax,  K. Nanda,  
 T. S. Nguyen-Beck,  R. Olivares-Amaya,  J. A. Parkhill,  T. M. Perrine,  
 F. Plasser,  S. Prager,  A. Prociuk,  E. Ramos,  D. R. Rehn,  F. Rob,  
 M. Schneider,  N. Sergueev,  S. M. Sharada,  S. Sharma,  D. W. Small,  
 T. Stauch,  T. Stein,  Yu-Chuan Su,  A. J. W. Thom,  A. Tkatchenko,  
 T. Tsuchimochi,  L. Vogt,  O. Vydrov,  M. A. Watson,  J. Wenzel,  
 M. de Wergifosse,  T. A. Wesolowski,  A. White,  J. Witte,  A. Yamada,  
 Jun Yang,  K. Yao,  S. Yeganeh,  S. R. Yost,  Zhi-Qiang You,  A. Zech,  
 Igor Ying Zhang,  Xing Zhang,  Yan Zhao,  Ying Zhu,  B. R. Brooks,  
 G. K. L. Chan,  C. J. Cramer,  M. S. Gordon,  W. J. Hehre,  A. Klamt,  
 M. W. Schmidt,  C. D. Sherrill,  D. G. Truhlar,  A. Aspuru-Guzik,  R. Baer,  
 A. T. Bell,  N. A. Besley,  Jeng-Da Chai,  R. A. DiStasio Jr.,  A. Dreuw,  
 B. D. Dunietz,  T. R. Furlani,  Chao-Ping Hsu,  Yousung Jung,  Jing Kong,  
 D. S. Lambrecht,  WanZhen Liang,  C. Ochsenfeld,  V. A. Rassolov,  
 L. V. Slipchenko,  J. E. Subotnik,  T. Van Voorhis,  J. M. Herbert,  
 A. I. Krylov,  P. M. W. Gill,  M. Head-Gordon

 Contributors to earlier versions of Q-Chem not listed above: 
 R. D. Adamson,  B. Austin,  J. Baker,  G. J. O. Beran,  K. Brandhorst,  
 S. T. Brown,  E. F. C. Byrd,  A. K. Chakraborty,  C.-L. Cheng,  
 Siu Hung Chien,  D. M. Chipman,  D. L. Crittenden,  H. Dachsel,  
 R. J. Doerksen,  A. D. Dutoi,  L. Fusti-Molnar,  W. A. Goddard III,  
 A. Golubeva-Zadorozhnaya,  S. R. Gwaltney,  G. Hawkins,  A. Heyden,  
 S. Hirata,  G. Kedziora,  F. J. Keil,  C. Kelley,  Jihan Kim,  R. A. King,  
 R. Z. Khaliullin,  P. P. Korambath,  W. Kurlancheek,  A. M. Lee,  M. S. Lee,  
 S. V. Levchenko,  Ching Yeh Lin,  D. Liotard,  R. C. Lochan,  I. Lotan,  
 P. E. Maslen,  N. Nair,  D. P. O'Neill,  D. Neuhauser,  E. Neuscamman,  
 C. M. Oana,  R. Olson,  B. Peters,  R. Peverati,  P. A. Pieniazek,  
 Y. M. Rhee,  J. Ritchie,  M. A. Rohrdanz,  E. Rosta,  N. J. Russ,  
 H. F. Schaefer III,  N. E. Schultz,  N. Shenvi,  A. C. Simmonett,  A. Sodt,  
 D. Stuck,  K. S. Thanthiriwatte,  V. Vanovschi,  Tao Wang,  A. Warshel,  
 C. F. Williams,  Q. Wu,  X. Xu,  W. Zhang

 Please cite Q-Chem as follows:
 Y. Shao et al., Mol. Phys. 113, 184-215 (2015)
 DOI: 10.1080/00268976.2014.952696

 Q-Chem 5.0.2 for Intel X86 EM64T Linux

 Parts of Q-Chem use Armadillo 5.200.1 (Boston Tea Smuggler).
 http://arma.sourceforge.net/

 Q-Chem begins on Wed Mar  2 22:18:01 2022  

Host: 
0

     Scratch files written to ./qcts1.d//
 Dec517 15110_ 26548  26544 5633   
Processing $rem in /home/leeping/opt/qchem/5.0.2-openmp/config/preferences.
 MEM_STATIC 2000
 MEM_TOTAL  8000
 SYMMETRY   OFF
 SYM_IGNORE TRUE 

Checking the input file for inconsistencies... 	...done.

--------------------------------------------------------------
User input:
--------------------------------------------------------------
$molecule
0 2
C        1.5435678408    0.2246571329    0.2984686107
C        1.1139254691   -1.1471046782    0.6879482707
C        0.8726693082   -2.1610249913   -0.1093211630
C       -1.5401636358    1.2768631253   -0.8463533246
C       -0.5608147784    1.3685686564    0.1968716833
N        0.7813626290    1.2118635802    0.0950800573
H        2.6231269576    0.3947805127    0.2013452330
H        0.9647598714   -1.2572108845    1.7742782439
H        0.6061246096   -3.1898798147    0.1158775877
H       -2.3782757265    1.9813035230   -0.9095102924
H       -0.8284293305    1.7462170154    1.1937572012
C       -1.3257921628    0.0228694814   -1.2839254496
H       -2.1117008707   -0.6144190614   -1.7057997420
$end

$rem
method                b3lyp
basis                 6-31g(d)
unrestricted          true
symmetry              off
sym_ignore            true
incdft                false
incfock               0
scf_convergence       8
thresh                14
jobtype               freq
scf_guess             read
scf_algorithm         diis
max_scf_cycles        100
$end

--------------------------------------------------------------
 ----------------------------------------------------------------
             Standard Nuclear Orientation (Angstroms)
    I     Atom           X                Y                Z
 ----------------------------------------------------------------
    1      C       1.5435678408     0.2246571329     0.2984686107
    2      C       1.1139254691    -1.1471046782     0.6879482707
    3      C       0.8726693082    -2.1610249913    -0.1093211630
    4      C      -1.5401636358     1.2768631253    -0.8463533246
    5      C      -0.5608147784     1.3685686564     0.1968716833
    6      N       0.7813626290     1.2118635802     0.0950800573
    7      H       2.6231269576     0.3947805127     0.2013452330
    8      H       0.9647598714    -1.2572108845     1.7742782439
    9      H       0.6061246096    -3.1898798147     0.1158775877
   10      H      -2.3782757265     1.9813035230    -0.9095102924
   11      H      -0.8284293305     1.7462170154     1.1937572012
   12      C      -1.3257921628     0.0228694814    -1.2839254496
   13      H      -2.1117008707    -0.6144190614    -1.7057997420
 ----------------------------------------------------------------
 Nuclear Repulsion Energy =   245.7532298298 hartrees
 There are       25 alpha and       24 beta electrons
 Requested basis set is 6-31G(d)
 There are 40 shells and 117 basis functions

 Total QAlloc Memory Limit   8000 MB
 Mega-Array Size      1956 MB
 MEM_STATIC part      2000 MB

                       Distance Matrix (Angstroms)
             C (  1)   C (  2)   C (  3)   C (  4)   C (  5)   N (  6)
   C (  2)  1.489301
   C (  3)  2.511549  1.312203
   C (  4)  3.453571  3.908182  4.264276
   C (  5)  2.397349  3.061784  3.821866  1.433824
   N (  6)  1.263685  2.454959  3.380310  2.505994  1.355123
   H (  7)  1.097189  2.211760  3.113319  4.382777  3.329530  2.017675
   H (  8)  2.170015  1.102037  2.091245  4.423108  3.422033  2.991600
   H (  9)  3.545589  2.181297  1.086417  5.048191  4.706141  4.405279
   H ( 10)  4.463841  4.953209  5.326146  1.096657  2.214202  3.403609
   H ( 11)  2.956866  3.521349  4.456264  2.211088  1.099098  2.020905
   C ( 12)  3.282974  3.348036  3.313959  1.345334  2.142162  2.784863
   H ( 13)  4.252309  4.051969  3.721182  2.154588  3.155574  3.866302
             H (  7)   H (  8)   H (  9)   H ( 10)   H ( 11)   C ( 12)
   H (  8)  2.820173
   H (  9)  4.114048  2.571793
   H ( 10)  5.363309  5.372763  6.057987
   H ( 11)  3.837252  3.545858  5.252125  2.623171
   C ( 12)  4.235364  4.029621  4.001688  2.254634  3.058792
   H ( 13)  5.203295  4.689215  4.163902  2.728171  3.953077  1.096251

 
 A cutoff of  1.0D-14 yielded    780 shell pairs
 There are      7012 function pairs
 Smallest overlap matrix eigenvalue = 3.87E-03
 Guess MOs from SCF MO coefficient file
 Reading MOs from coefficient file
 Reading MOs from coefficient file
 An unrestricted hybrid HF-DFT SCF calculation will be
 performed using Pulay DIIS extrapolation
 Exchange:     0.2000 Hartree-Fock + 0.0800 Slater + 0.7200 B88
 Correlation:  0.1900 VWN1RPA + 0.8100 LYP
 Using SG-1 standard quadrature grid
 SCF converges when DIIS error is below 1.0E-08
Using Q-Chem read-in guess as SCF_GUESS READ specified.

 -------------------------------------------------------
 OpenMP BLAS3 based DFT computing Module                
 -------------------------------------------------------
 ---------------------------------------
  Cycle       Energy         DIIS Error
 ---------------------------------------
    1    -286.6947013068      4.43E-09
    2    -286.6947013068      8.98E-09 Convergence criterion met
 ---------------------------------------
 <S^2> = 0.8046
 SCF time:  CPU 3.24 s  wall 4.35 s
 SCF   energy in the final basis set = -286.69470131
 Total energy in the final basis set = -286.69470131
 
 --------------------------------------------------------------
 
                    Orbital Energies (a.u.)
 --------------------------------------------------------------
 
 Alpha MOs
 -- Occupied --
-14.373 -10.267 -10.264 -10.211 -10.202 -10.188 -10.168  -0.963
 -0.806  -0.773  -0.699  -0.613  -0.567  -0.516  -0.500  -0.476
 -0.470  -0.454  -0.390  -0.325  -0.319  -0.279  -0.262  -0.238
 -0.177
 -- Virtual --
 -0.047  -0.031   0.010   0.031   0.118   0.131   0.134   0.154
  0.174   0.196   0.261   0.295   0.315   0.360   0.374   0.379
  0.485   0.489   0.510   0.529   0.550   0.571   0.588   0.602
  0.607   0.621   0.653   0.675   0.680   0.700   0.744   0.756
  0.779   0.793   0.839   0.849   0.864   0.875   0.889   0.914
  0.934   0.948   0.991   1.014   1.035   1.087   1.098   1.178
  1.203   1.386   1.428   1.458   1.516   1.553   1.631   1.637
  1.675   1.731   1.812   1.814   1.850   1.868   1.892   1.931
  1.943   1.998   2.072   2.125   2.142   2.157   2.235   2.315
  2.333   2.360   2.381   2.452   2.505   2.581   2.667   2.730
  2.782   2.830   2.854   2.965   3.140   3.960   4.067   4.115
  4.203   4.223   4.348   4.464
 
 Beta MOs
 -- Occupied --
-14.373 -10.266 -10.265 -10.203 -10.196 -10.187 -10.164  -0.964
 -0.805  -0.764  -0.694  -0.603  -0.561  -0.512  -0.498  -0.474
 -0.460  -0.444  -0.389  -0.324  -0.319  -0.272  -0.260  -0.165
 -- Virtual --
 -0.073  -0.048  -0.029   0.023   0.032   0.121   0.132   0.139
  0.156   0.179   0.198   0.261   0.297   0.318   0.363   0.378
  0.389   0.488   0.496   0.519   0.541   0.558   0.573   0.590
  0.603   0.622   0.626   0.658   0.676   0.682   0.705   0.748
  0.762   0.785   0.796   0.839   0.850   0.868   0.884   0.893
  0.917   0.937   0.963   0.993   1.021   1.045   1.089   1.100
  1.179   1.205   1.388   1.429   1.461   1.518   1.557   1.639
  1.656   1.696   1.756   1.815   1.824   1.869   1.873   1.901
  1.942   1.952   2.009   2.077   2.127   2.146   2.175   2.238
  2.320   2.338   2.363   2.383   2.455   2.506   2.584   2.672
  2.741   2.789   2.842   2.856   2.965   3.141   3.960   4.092
  4.119   4.209   4.228   4.349   4.463
 --------------------------------------------------------------
 
          Ground-State Mulliken Net Atomic Charges

     Atom                 Charge (a.u.)    Spin (a.u.)
  --------------------------------------------------------
      1 C                     0.074573       0.028166
      2 C                    -0.190751      -0.159338
      3 C                    -0.137790       0.970263
      4 C                    -0.141814       0.009759
      5 C                     0.037708      -0.123285
      6 N                    -0.259636      -0.015824
      7 H                     0.171066       0.000633
      8 H                     0.160866       0.077181
      9 H                     0.156942       0.009691
     10 H                     0.113716       0.004847
     11 H                     0.163690       0.006519
     12 C                    -0.270945       0.180905
     13 H                     0.122374       0.010481
  --------------------------------------------------------
  Sum of atomic charges =     0.000000
  Sum of spin   charges =     1.000000

 -----------------------------------------------------------------
                    Cartesian Multipole Moments
 -----------------------------------------------------------------
    Charge (ESU x 10^10)
                -0.0000
    Dipole Moment (Debye)
         X       0.1801      Y      -0.0154      Z       2.5746
       Tot       2.5810
    Quadrupole Moments (Debye-Ang)
        XX     -37.9019     XY      -1.3138     YY     -38.9239
        XZ       1.0487     YZ      -0.0566     ZZ     -41.1679
    Octopole Moments (Debye-Ang^2)
       XXX      -6.6720    XXY       1.0083    XYY      -9.9628
       YYY     -22.6905    XXZ       3.4697    XYZ      -1.9488
       YYZ       9.7114    XZZ      -4.6107    YZZ      -3.0240
       ZZZ      21.1385
    Hexadecapole Moments (Debye-Ang^3)
      XXXX    -397.1857   XXXY      95.5620   XXYY    -151.4612
      XYYY      76.1227   YYYY    -428.3275   XXXZ     -73.8389
      XXYZ       8.3542   XYYZ     -25.7263   YYYZ      18.7954
      XXZZ     -94.7689   XYZZ      29.7214   YYZZ    -108.0884
      XZZZ     -76.8692   YZZZ      20.7217   ZZZZ    -171.2786
 -----------------------------------------------------------------
 Calculating MO derivatives via CPSCF
   1         3          39      0.336032    0.086898
   2         3          39      0.051836    0.014825
   3         3          39      0.012177    0.003318
   4         3          39      0.001501    0.000398
   5        21          21      0.000143    0.000046
   6        39           3      0.000008    0.000003
   7        42           0      0.000000    0.000000    Roots Converged
 Time for AOints: 5.7 s (CPU) 5.9 s (wall)
 ------------------------------------------------------------------------------
                     AOints        : Timing summary (seconds)
 ------------------------------------------------------------------------------
     job step          cpu (% of tot)      sys (% of tot)     wall (% of tot)
 ------------------------------------------------------------------------------
  cpscf_lag         0.5108E+02 (27.4)   0.2300E-04 (31.5)   0.5142E+02 (27.3)
  iterzp            0.1292E+03 (69.4)   0.4800E-04 (65.8)   0.1307E+03 (69.4)
  make_fx           0.0000E+00 ( 0.0)   0.0000E+00 ( 0.0)   0.0000E+00 ( 0.0)
  AOints            0.5651E+01 ( 3.0)   0.1000E-05 ( 1.4)   0.5871E+01 ( 3.1)
 ------------------------------------------------------------------------------
   Grand Totals     0.1861E+03          0.7300E-04          0.1882E+03
 ------------------------------------------------------------------------------
 Calculating analytic Hessian of the SCF energy
 Polarizability Matrix (a.u.)
            1           2           3
    1 -84.0915663  19.5618949 -21.3582320
    2  19.5618949 -98.3174131  -5.6704597
    3 -21.3582320  -5.6704597 -57.4489484
 
 Direct stationary perturbation theory relativistic correction:
 
 rels  =       0.069326208006
 relv  =      -0.330254885681
 rel2e =       0.147943147450
 E_rel =      -0.112985530225
 
 Hessian of the SCF Energy
            1           2           3           4           5           6
    1   0.7315062  -0.1762374   0.0044524  -0.0962594  -0.0452425   0.0158283
    2  -0.1762374   0.6924154  -0.1212419  -0.0414044  -0.1680662   0.0444430
    3   0.0044524  -0.1212419   0.1919147   0.0125803   0.0241127  -0.0888814
    4  -0.0962594  -0.0414044   0.0125803   0.1648287   0.1385683   0.0035324
    5  -0.0452425  -0.1680662   0.0241127   0.1385683   0.6668231   0.1764831
    6   0.0158283   0.0444430  -0.0888814   0.0035324   0.1764831   0.5940705
    7  -0.0062952  -0.0121657  -0.0024571  -0.0465365  -0.0870967  -0.0603414
    8  -0.0070126  -0.0333835  -0.0141143  -0.0853340  -0.3888142  -0.2754360
    9   0.0014493  -0.0102467   0.0132538  -0.0470611  -0.2321770  -0.2548834
   10  -0.0006503  -0.0034697  -0.0034915   0.0002921   0.0030847  -0.0032788
   11   0.0087075   0.0015343  -0.0079271  -0.0037603  -0.0054438   0.0013476
   12   0.0030814   0.0000484  -0.0039696  -0.0004517  -0.0015743  -0.0034720
   13  -0.0575063   0.0030968   0.0136882   0.0067188   0.0009482  -0.0017168
   14   0.0233108  -0.0132458   0.0007337   0.0056933   0.0049136  -0.0059428
   15  -0.0089131  -0.0017102   0.0014761  -0.0002281   0.0047637  -0.0044130
   16  -0.2941633   0.2906668  -0.0596829   0.0115444   0.0064740   0.0028103
   17   0.2604305  -0.4084646   0.0795388   0.0173423  -0.0497255   0.0138793
   18  -0.0497369   0.0757896  -0.0509302  -0.0013919   0.0221378   0.0210175
   19  -0.2983187  -0.0497316   0.0248876  -0.0039577  -0.0035380   0.0014687
   20  -0.0587639  -0.0619794   0.0074934  -0.0254522  -0.0068961   0.0018756
   21   0.0286681   0.0058929  -0.0490584   0.0076640   0.0051868   0.0116746
   22   0.0087522  -0.0043043   0.0093890  -0.0347271  -0.0056094   0.0370414
   23  -0.0065646  -0.0065438   0.0295250  -0.0056806  -0.0443453   0.0288888
   24   0.0020620   0.0036032  -0.0088004   0.0362474   0.0325208  -0.2822404
   25   0.0105839  -0.0025340  -0.0005448  -0.0002364  -0.0022053   0.0036427
   26  -0.0027471   0.0005152  -0.0031250  -0.0034398  -0.0092492   0.0127049
   27   0.0000428   0.0009122  -0.0030971  -0.0080570  -0.0265619   0.0051249
   28  -0.0007394   0.0000844   0.0011132   0.0001192   0.0014357   0.0005101
   29  -0.0007912   0.0001057   0.0005446  -0.0002717  -0.0014871   0.0008741
   30  -0.0012231   0.0006699   0.0008080  -0.0001342  -0.0017671  -0.0007511
   31  -0.0022486  -0.0038536   0.0031840   0.0007131   0.0002226   0.0009592
   32   0.0007592   0.0029120   0.0024208   0.0005205   0.0006233  -0.0037004
   33  -0.0020463   0.0026845  -0.0021231  -0.0007611  -0.0019756   0.0008748
   34   0.0046981   0.0029218  -0.0032747  -0.0038823  -0.0106041   0.0000796
   35   0.0055083  -0.0081545   0.0018475   0.0044422   0.0039585   0.0044719
   36   0.0030140  -0.0009804  -0.0004421  -0.0015508  -0.0005476   0.0012827
   37   0.0006408  -0.0030692   0.0001562   0.0013831   0.0035625  -0.0005358
   38  -0.0013570   0.0023550   0.0001919  -0.0012237  -0.0022912   0.0001110
   39   0.0033212   0.0001355  -0.0001502  -0.0003883  -0.0006014   0.0005964
            7           8           9          10          11          12
    1  -0.0062952  -0.0070126   0.0014493  -0.0006503   0.0087075   0.0030814
    2  -0.0121657  -0.0333835  -0.0102467  -0.0034697   0.0015343   0.0000484
    3  -0.0024571  -0.0141143   0.0132538  -0.0034915  -0.0079271  -0.0039696
    4  -0.0465365  -0.0853340  -0.0470611   0.0002921  -0.0037603  -0.0004517
    5  -0.0870967  -0.3888142  -0.2321770   0.0030847  -0.0054438  -0.0015743
    6  -0.0603414  -0.2754360  -0.2548834  -0.0032788   0.0013476  -0.0034720
    7   0.0838006   0.1752956   0.0386180   0.0010185  -0.0001021   0.0010303
    8   0.1752956   0.7395422   0.2169422  -0.0025775   0.0029233  -0.0004874
    9   0.0386180   0.2169422   0.3123582   0.0055315  -0.0013347   0.0029070
   10   0.0010185  -0.0025775   0.0055315   0.4748390  -0.2016465   0.1341575
   11  -0.0001021   0.0029233  -0.0013347  -0.2016465   0.6262865   0.1523525
   12   0.0010303  -0.0004874   0.0029070   0.1341575   0.1523525   0.3175143
   13   0.0016554  -0.0067022   0.0103039  -0.1783906   0.0623750  -0.0850978
   14   0.0026659  -0.0052031   0.0073685   0.0012218  -0.0194038  -0.0217823
   15  -0.0020515  -0.0027548   0.0007473  -0.1360519   0.0115599  -0.2128706
   16  -0.0054960   0.0052461  -0.0150159  -0.0293325  -0.0181881  -0.0134934
   17   0.0033200   0.0061912   0.0033404   0.0131961   0.0032760   0.0079553
   18  -0.0009602   0.0004034  -0.0031227  -0.0202636   0.0154165   0.0166551
   19   0.0000715   0.0005238   0.0005715  -0.0002915   0.0002465   0.0001432
   20  -0.0003554   0.0000307   0.0029930   0.0004657  -0.0007955  -0.0001819
   21   0.0018711   0.0006694  -0.0016328   0.0018668  -0.0008513   0.0006593
   22   0.0175917  -0.0053677  -0.0023808  -0.0008390   0.0004854  -0.0000341
   23  -0.0024656  -0.0003689  -0.0271580  -0.0011921   0.0012959   0.0002076
   24   0.0020164  -0.0084209  -0.0236915  -0.0009882   0.0006218  -0.0002732
   25  -0.0451903  -0.0771686   0.0116343   0.0002636   0.0007049  -0.0000155
   26  -0.0776727  -0.3224544   0.0461789  -0.0004712   0.0000514  -0.0001307
   27   0.0237711   0.0798204  -0.0406329  -0.0020375   0.0002879  -0.0008092
   28  -0.0002123  -0.0004711  -0.0004332  -0.1980924   0.1280720  -0.0157747
   29  -0.0002908   0.0011691  -0.0022456   0.1292060  -0.1513839   0.0063051
   30   0.0002155   0.0003307   0.0003728  -0.0151619  -0.0092088  -0.0582252
   31   0.0001264   0.0001858  -0.0008458   0.0066545  -0.0096428  -0.0229462
   32  -0.0004374  -0.0011657   0.0000189  -0.0119752  -0.0016402  -0.0195438
   33   0.0001461   0.0006889  -0.0002505   0.0110910  -0.0087349  -0.0089988
   34  -0.0008517   0.0050966  -0.0047359  -0.0754886   0.0033939  -0.0138467
   35  -0.0010402   0.0008745  -0.0029757   0.0987505  -0.4382638  -0.1071654
   36  -0.0019955   0.0013360  -0.0044989   0.0353007  -0.1412389  -0.0449658
   37   0.0003180  -0.0017141   0.0023642   0.0000171   0.0293545   0.0132478
   38   0.0003452   0.0006588  -0.0007042  -0.0245924  -0.0184365  -0.0160031
   39   0.0001372   0.0010224  -0.0009265  -0.0066742  -0.0122907  -0.0041512
           13          14          15          16          17          18
    1  -0.0575063   0.0233108  -0.0089131  -0.2941633   0.2604305  -0.0497369
    2   0.0030968  -0.0132458  -0.0017102   0.2906668  -0.4084646   0.0757896
    3   0.0136882   0.0007337   0.0014761  -0.0596829   0.0795388  -0.0509302
    4   0.0067188   0.0056933  -0.0002281   0.0115444   0.0173423  -0.0013919
    5   0.0009482   0.0049136   0.0047637   0.0064740  -0.0497255   0.0221378
    6  -0.0017168  -0.0059428  -0.0044130   0.0028103   0.0138793   0.0210175
    7   0.0016554   0.0026659  -0.0020515  -0.0054960   0.0033200  -0.0009602
    8  -0.0067022  -0.0052031  -0.0027548   0.0052461   0.0061912   0.0004034
    9   0.0103039   0.0073685   0.0007473  -0.0150159   0.0033404  -0.0031227
   10  -0.1783906   0.0012218  -0.1360519  -0.0293325   0.0131961  -0.0202636
   11   0.0623750  -0.0194038   0.0115599  -0.0181881   0.0032760   0.0154165
   12  -0.0850978  -0.0217823  -0.2128706  -0.0134934   0.0079553   0.0166551
   13   0.5944968  -0.1322047   0.0569379  -0.3038303   0.0753564  -0.0051732
   14  -0.1322047   0.1541061   0.0875365   0.0753404  -0.0410791  -0.0192192
   15   0.0569379   0.0875365   0.5559422   0.0271573  -0.0062092  -0.0903243
   16  -0.3038303   0.0753404   0.0271573   0.6832589  -0.3902984   0.0605748
   17   0.0753564  -0.0410791  -0.0062092  -0.3902984   0.4999939  -0.0728232
   18  -0.0051732  -0.0192192  -0.0903243   0.0605748  -0.0728232   0.1147164
   19   0.0021110  -0.0006186   0.0002200  -0.0275976   0.0131828  -0.0014482
   20   0.0018588   0.0001463   0.0042317   0.0394349  -0.0006815  -0.0040088
   21  -0.0006653   0.0040671   0.0156085  -0.0082293  -0.0027614  -0.0071205
   22  -0.0026150  -0.0006213   0.0012743   0.0007457  -0.0012851  -0.0019932
   23  -0.0043368  -0.0022580  -0.0008887   0.0033791   0.0006754  -0.0042897
   24  -0.0024317  -0.0006860  -0.0007580   0.0029459  -0.0001830   0.0011465
   25  -0.0002917  -0.0006398   0.0001666  -0.0004428  -0.0026901   0.0006382
   26  -0.0012764  -0.0006122  -0.0005841   0.0013840   0.0004502   0.0006493
   27  -0.0032850  -0.0021321  -0.0010354   0.0040721   0.0000668   0.0013513
   28  -0.0169983   0.0075823  -0.0042089  -0.0015649   0.0029056  -0.0044624
   29  -0.0070330   0.0081441   0.0018725  -0.0004048   0.0007145  -0.0033137
   30  -0.0206748   0.0057835   0.0099012   0.0060493   0.0015783  -0.0045626
   31  -0.0643648   0.0161146   0.0521236  -0.0198747   0.0212733   0.0298869
   32   0.0337144  -0.0811310  -0.0761282   0.0053322   0.0033566  -0.0113801
   33   0.0502959  -0.0792044  -0.2635316   0.0082685  -0.0042403   0.0021795
   34   0.0234437   0.0009991   0.0237757  -0.0098962  -0.0094995  -0.0069901
   35  -0.0296514   0.0026780  -0.0213028  -0.0281166  -0.0173186   0.0019838
   36  -0.0179598   0.0214736  -0.0254509  -0.0014673  -0.0175621  -0.0010696
   37  -0.0044287   0.0011562  -0.0102018  -0.0033508  -0.0032337   0.0013197
   38   0.0038548  -0.0070551  -0.0003865   0.0097505   0.0026116  -0.0013458
   39   0.0057785   0.0020040   0.0147085  -0.0139893  -0.0025796   0.0000638
           19          20          21          22          23          24
    1  -0.2983187  -0.0587639   0.0286681   0.0087522  -0.0065646   0.0020620
    2  -0.0497316  -0.0619794   0.0058929  -0.0043043  -0.0065438   0.0036032
    3   0.0248876   0.0074934  -0.0490584   0.0093890   0.0295250  -0.0088004
    4  -0.0039577  -0.0254522   0.0076640  -0.0347271  -0.0056806   0.0362474
    5  -0.0035380  -0.0068961   0.0051868  -0.0056094  -0.0443453   0.0325208
    6   0.0014687   0.0018756   0.0116746   0.0370414   0.0288888  -0.2822404
    7   0.0000715  -0.0003554   0.0018711   0.0175917  -0.0024656   0.0020164
    8   0.0005238   0.0000307   0.0006694  -0.0053677  -0.0003689  -0.0084209
    9   0.0005715   0.0029930  -0.0016328  -0.0023808  -0.0271580  -0.0236915
   10  -0.0002915   0.0004657   0.0018668  -0.0008390  -0.0011921  -0.0009882
   11   0.0002465  -0.0007955  -0.0008513   0.0004854   0.0012959   0.0006218
   12   0.0001432  -0.0001819   0.0006593  -0.0000341   0.0002076  -0.0002732
   13   0.0021110   0.0018588  -0.0006653  -0.0026150  -0.0043368  -0.0024317
   14  -0.0006186   0.0001463   0.0040671  -0.0006213  -0.0022580  -0.0006860
   15   0.0002200   0.0042317   0.0156085   0.0012743  -0.0008887  -0.0007580
   16  -0.0275976   0.0394349  -0.0082293   0.0007457   0.0033791   0.0029459
   17   0.0131828  -0.0006815  -0.0027614  -0.0012851   0.0006754  -0.0001830
   18  -0.0014482  -0.0040088  -0.0071205  -0.0019932  -0.0042897   0.0011465
   19   0.3289051   0.0411198  -0.0261805  -0.0007330  -0.0010339   0.0003578
   20   0.0411198   0.0712512  -0.0133078  -0.0001823  -0.0014240   0.0010437
   21  -0.0261805  -0.0133078   0.0302423  -0.0024915  -0.0009807  -0.0005980
   22  -0.0007330  -0.0001823  -0.0024915   0.0165871   0.0139932  -0.0398326
   23  -0.0010339  -0.0014240  -0.0009807   0.0139932   0.0515404  -0.0291570
   24   0.0003578   0.0010437  -0.0005980  -0.0398326  -0.0291570   0.3117332
   25   0.0001920   0.0014646  -0.0006784  -0.0044766   0.0015351  -0.0007620
   26  -0.0003027  -0.0007727   0.0004377   0.0012517   0.0001892  -0.0002831
   27   0.0000163  -0.0004577   0.0001702  -0.0011983   0.0019847   0.0029766
   28  -0.0001309   0.0001445  -0.0000589  -0.0001490  -0.0001631  -0.0000675
   29  -0.0000417   0.0002409   0.0001250   0.0003112   0.0006302   0.0004089
   30   0.0000023   0.0001600   0.0003069  -0.0001605   0.0003272  -0.0000903
   31  -0.0003289  -0.0001238  -0.0024449  -0.0002230   0.0004769  -0.0000190
   32   0.0004863   0.0001931   0.0023092  -0.0002693   0.0004042  -0.0000967
   33   0.0001764  -0.0002267  -0.0002177   0.0004021   0.0000197   0.0000246
   34   0.0002477   0.0001019   0.0006455   0.0002859   0.0028988   0.0009581
   35  -0.0004151   0.0009501  -0.0006328   0.0017572  -0.0002041   0.0004506
   36  -0.0000396   0.0001747   0.0000757  -0.0002848   0.0009790   0.0004156
   37  -0.0001689   0.0002873   0.0000332  -0.0001997  -0.0008462  -0.0004867
   38   0.0001225  -0.0002632  -0.0001543  -0.0001591   0.0004088   0.0001778
   39  -0.0001756   0.0002107  -0.0001103   0.0002690   0.0005420   0.0001552
           25          26          27          28          29          30
    1   0.0105839  -0.0027471   0.0000428  -0.0007394  -0.0007912  -0.0012231
    2  -0.0025340   0.0005152   0.0009122   0.0000844   0.0001057   0.0006699
    3  -0.0005448  -0.0031250  -0.0030971   0.0011132   0.0005446   0.0008080
    4  -0.0002364  -0.0034398  -0.0080570   0.0001192  -0.0002717  -0.0001342
    5  -0.0022053  -0.0092492  -0.0265619   0.0014357  -0.0014871  -0.0017671
    6   0.0036427   0.0127049   0.0051249   0.0005101   0.0008741  -0.0007511
    7  -0.0451903  -0.0776727   0.0237711  -0.0002123  -0.0002908   0.0002155
    8  -0.0771686  -0.3224544   0.0798204  -0.0004711   0.0011691   0.0003307
    9   0.0116343   0.0461789  -0.0406329  -0.0004332  -0.0022456   0.0003728
   10   0.0002636  -0.0004712  -0.0020375  -0.1980924   0.1292060  -0.0151619
   11   0.0007049   0.0000514   0.0002879   0.1280720  -0.1513839  -0.0092088
   12  -0.0000155  -0.0001307  -0.0008092  -0.0157747   0.0063051  -0.0582252
   13  -0.0002917  -0.0012764  -0.0032850  -0.0169983  -0.0070330  -0.0206748
   14  -0.0006398  -0.0006122  -0.0021321   0.0075823   0.0081441   0.0057835
   15   0.0001666  -0.0005841  -0.0010354  -0.0042089   0.0018725   0.0099012
   16  -0.0004428   0.0013840   0.0040721  -0.0015649  -0.0004048   0.0060493
   17  -0.0026901   0.0004502   0.0000668   0.0029056   0.0007145   0.0015783
   18   0.0006382   0.0006493   0.0013513  -0.0044624  -0.0033137  -0.0045626
   19   0.0001920  -0.0003027   0.0000163  -0.0001309  -0.0000417   0.0000023
   20   0.0014646  -0.0007727  -0.0004577   0.0001445   0.0002409   0.0001600
   21  -0.0006784   0.0004377   0.0001702  -0.0000589   0.0001250   0.0003069
   22  -0.0044766   0.0012517  -0.0011983  -0.0001490   0.0003112  -0.0001605
   23   0.0015351   0.0001892   0.0019847  -0.0001631   0.0006302   0.0003272
   24  -0.0007620  -0.0002831   0.0029766  -0.0000675   0.0004089  -0.0000903
   25   0.0394448   0.0825045  -0.0144795   0.0000032  -0.0000971   0.0000447
   26   0.0825045   0.3310379  -0.0562195   0.0000385   0.0001718  -0.0000084
   27  -0.0144795  -0.0562195   0.0345813  -0.0000037   0.0008400   0.0001196
   28   0.0000032   0.0000385  -0.0000037   0.2094209  -0.1420798   0.0263385
   29  -0.0000971   0.0001718   0.0008400  -0.1420798   0.1565203  -0.0002083
   30   0.0000447  -0.0000084   0.0001196   0.0263385  -0.0002083   0.0352517
   31  -0.0001572   0.0001962   0.0002430   0.0001072   0.0002596   0.0009502
   32  -0.0000962  -0.0000567   0.0001378  -0.0008803  -0.0005157   0.0001604
   33   0.0000129   0.0000125   0.0000795   0.0001040   0.0000153  -0.0000210
   34   0.0005535   0.0004285   0.0021171   0.0083562   0.0233839  -0.0008357
   35  -0.0010034   0.0008626   0.0008190   0.0041804  -0.0151025   0.0024952
   36   0.0003953   0.0000672   0.0008515  -0.0077200  -0.0085320   0.0211075
   37  -0.0002461   0.0001064  -0.0012013  -0.0001194  -0.0021503   0.0045898
   38   0.0002256  -0.0001331   0.0005023  -0.0008493   0.0007926  -0.0003125
   39  -0.0000546   0.0003003   0.0003197   0.0046637   0.0033142  -0.0042174
           31          32          33          34          35          36
    1  -0.0022486   0.0007592  -0.0020463   0.0046981   0.0055083   0.0030140
    2  -0.0038536   0.0029120   0.0026845   0.0029218  -0.0081545  -0.0009804
    3   0.0031840   0.0024208  -0.0021231  -0.0032747   0.0018475  -0.0004421
    4   0.0007131   0.0005205  -0.0007611  -0.0038823   0.0044422  -0.0015508
    5   0.0002226   0.0006233  -0.0019756  -0.0106041   0.0039585  -0.0005476
    6   0.0009592  -0.0037004   0.0008748   0.0000796   0.0044719   0.0012827
    7   0.0001264  -0.0004374   0.0001461  -0.0008517  -0.0010402  -0.0019955
    8   0.0001858  -0.0011657   0.0006889   0.0050966   0.0008745   0.0013360
    9  -0.0008458   0.0000189  -0.0002505  -0.0047359  -0.0029757  -0.0044989
   10   0.0066545  -0.0119752   0.0110910  -0.0754886   0.0987505   0.0353007
   11  -0.0096428  -0.0016402  -0.0087349   0.0033939  -0.4382638  -0.1412389
   12  -0.0229462  -0.0195438  -0.0089988  -0.0138467  -0.1071654  -0.0449658
   13  -0.0643648   0.0337144   0.0502959   0.0234437  -0.0296514  -0.0179598
   14   0.0161146  -0.0811310  -0.0792044   0.0009991   0.0026780   0.0214736
   15   0.0521236  -0.0761282  -0.2635316   0.0237757  -0.0213028  -0.0254509
   16  -0.0198747   0.0053322   0.0082685  -0.0098962  -0.0281166  -0.0014673
   17   0.0212733   0.0033566  -0.0042403  -0.0094995  -0.0173186  -0.0175621
   18   0.0298869  -0.0113801   0.0021795  -0.0069901   0.0019838  -0.0010696
   19  -0.0003289   0.0004863   0.0001764   0.0002477  -0.0004151  -0.0000396
   20  -0.0001238   0.0001931  -0.0002267   0.0001019   0.0009501   0.0001747
   21  -0.0024449   0.0023092  -0.0002177   0.0006455  -0.0006328   0.0000757
   22  -0.0002230  -0.0002693   0.0004021   0.0002859   0.0017572  -0.0002848
   23   0.0004769   0.0004042   0.0000197   0.0028988  -0.0002041   0.0009790
   24  -0.0000190  -0.0000967   0.0000246   0.0009581   0.0004506   0.0004156
   25  -0.0001572  -0.0000962   0.0000129   0.0005535  -0.0010034   0.0003953
   26   0.0001962  -0.0000567   0.0000125   0.0004285   0.0008626   0.0000672
   27   0.0002430   0.0001378   0.0000795   0.0021171   0.0008190   0.0008515
   28   0.0001072  -0.0008803   0.0001040   0.0083562   0.0041804  -0.0077200
   29   0.0002596  -0.0005157   0.0000153   0.0233839  -0.0151025  -0.0085320
   30   0.0009502   0.0001604  -0.0000210  -0.0008357   0.0024952   0.0211075
   31   0.0802622  -0.0305988  -0.0619758  -0.0007328   0.0073963  -0.0015084
   32  -0.0305988   0.0576819   0.0967086   0.0010969   0.0200174   0.0082810
   33  -0.0619758   0.0967086   0.2784612  -0.0042537  -0.0039299  -0.0086452
   34  -0.0007328   0.0010969  -0.0042537   0.2185991   0.0981974   0.0868426
   35   0.0073963   0.0200174  -0.0039299   0.0981974   0.5656596   0.1898243
   36  -0.0015084   0.0082810  -0.0086452   0.0868426   0.1898243   0.1369763
   37   0.0000665   0.0023477  -0.0014601  -0.1653326  -0.1600055  -0.0930264
   38  -0.0019064  -0.0006792  -0.0018179  -0.1184150  -0.1159572  -0.0532747
   39   0.0023931   0.0008124   0.0021682  -0.0804818  -0.0658855  -0.0756370
           37          38          39
    1   0.0006408  -0.0013570   0.0033212
    2  -0.0030692   0.0023550   0.0001355
    3   0.0001562   0.0001919  -0.0001502
    4   0.0013831  -0.0012237  -0.0003883
    5   0.0035625  -0.0022912  -0.0006014
    6  -0.0005358   0.0001110   0.0005964
    7   0.0003180   0.0003452   0.0001372
    8  -0.0017141   0.0006588   0.0010224
    9   0.0023642  -0.0007042  -0.0009265
   10   0.0000171  -0.0245924  -0.0066742
   11   0.0293545  -0.0184365  -0.0122907
   12   0.0132478  -0.0160031  -0.0041512
   13  -0.0044287   0.0038548   0.0057785
   14   0.0011562  -0.0070551   0.0020040
   15  -0.0102018  -0.0003865   0.0147085
   16  -0.0033508   0.0097505  -0.0139893
   17  -0.0032337   0.0026116  -0.0025796
   18   0.0013197  -0.0013458   0.0000638
   19  -0.0001689   0.0001225  -0.0001756
   20   0.0002873  -0.0002632   0.0002107
   21   0.0000332  -0.0001543  -0.0001103
   22  -0.0001997  -0.0001591   0.0002690
   23  -0.0008462   0.0004088   0.0005420
   24  -0.0004867   0.0001778   0.0001552
   25  -0.0002461   0.0002256  -0.0000546
   26   0.0001064  -0.0001331   0.0003003
   27  -0.0012013   0.0005023   0.0003197
   28  -0.0001194  -0.0008493   0.0046637
   29  -0.0021503   0.0007926   0.0033142
   30   0.0045898  -0.0003125  -0.0042174
   31   0.0000665  -0.0019064   0.0023931
   32   0.0023477  -0.0006792   0.0008124
   33  -0.0014601  -0.0018179   0.0021682
   34  -0.1653326  -0.1184150  -0.0804818
   35  -0.1600055  -0.1159572  -0.0658855
   36  -0.0930264  -0.0532747  -0.0756370
   37   0.1714206   0.1342044   0.0852012
   38   0.1342044   0.1379888   0.0730157
   39   0.0852012   0.0730157   0.0671808
 Gradient time:  CPU 243.95 s  wall 248.94 s
 **********************************************************************
 **                                                                  **
 **                       VIBRATIONAL ANALYSIS                       **
 **                       --------------------                       **
 **                                                                  **
 **        VIBRATIONAL FREQUENCIES (CM**-1) AND NORMAL MODES         **
 **     FORCE CONSTANTS (mDYN/ANGSTROM) AND REDUCED MASSES (AMU)     **
 **                  INFRARED INTENSITIES (KM/MOL)                   **
 **                                                                  **
 **********************************************************************
 

 Mode:                 1                      2                      3
 Frequency:      -447.67                -225.05                  69.62
 Force Cnst:      0.3220                 0.0692                 0.0098
 Red. Mass:       2.7269                 2.3178                 3.4443
 IR Active:          YES                    YES                    YES
 IR Intens:       85.143                 10.569                 13.005
 Raman Active:       YES                    YES                    YES
               X      Y      Z        X      Y      Z        X      Y      Z
 C         -0.005 -0.019 -0.018    0.028  0.033  0.063   -0.048 -0.012  0.014
 C          0.010 -0.011  0.023    0.165 -0.023  0.007   -0.054 -0.041 -0.066
 C         -0.027  0.025 -0.014   -0.243  0.116 -0.052    0.070 -0.015 -0.131
 C          0.034 -0.138  0.128    0.017 -0.024 -0.058    0.102 -0.015 -0.142
 C          0.049  0.236  0.032   -0.012 -0.029 -0.026    0.015  0.176 -0.037
 N         -0.043 -0.045  0.053   -0.020 -0.012  0.031   -0.012  0.039  0.142
 H         -0.017 -0.004 -0.116    0.025  0.133  0.183   -0.043 -0.027  0.034
 H          0.083 -0.007  0.032    0.848 -0.235  0.077   -0.105 -0.077 -0.077
 H         -0.020  0.024 -0.005   -0.128  0.093 -0.003    0.106 -0.040 -0.208
 H         -0.086 -0.260  0.313    0.039 -0.005 -0.114    0.271  0.154 -0.503
 H          0.131  0.673 -0.120   -0.048 -0.044 -0.030   -0.057  0.478 -0.175
 C          0.002 -0.095 -0.202    0.004 -0.049  0.021   -0.080 -0.165  0.255
 H         -0.255  0.221 -0.225    0.030 -0.057 -0.009   -0.061 -0.167  0.236
 TransDip   0.107  0.241  0.134    0.021  0.102 -0.010    0.018  0.070 -0.090

 Mode:                 4                      5                      6
 Frequency:       137.57                 199.22                 299.23
 Force Cnst:      0.0386                 0.0843                 0.1180
 Red. Mass:       3.4633                 3.6040                 2.2363
 IR Active:          YES                    YES                    YES
 IR Intens:       17.147                  1.655                 17.001
 Raman Active:       YES                    YES                    YES
               X      Y      Z        X      Y      Z        X      Y      Z
 C          0.004  0.036 -0.044    0.081 -0.012  0.222   -0.111 -0.023  0.083
 C         -0.176  0.090 -0.062   -0.054  0.015  0.140   -0.031 -0.082  0.009
 C         -0.175  0.101 -0.076    0.058  0.208 -0.140    0.031 -0.077 -0.029
 C          0.022 -0.154  0.072   -0.043 -0.026  0.029   -0.090  0.043  0.037
 C          0.039 -0.042  0.039    0.083 -0.043 -0.104   -0.006  0.097 -0.113
 N          0.074  0.106 -0.007    0.081 -0.082 -0.139    0.011  0.042 -0.094
 H          0.016 -0.069 -0.075    0.092 -0.023  0.337   -0.086 -0.067  0.243
 H         -0.424  0.148 -0.088   -0.409 -0.092  0.076    0.370 -0.284  0.042
 H         -0.367  0.147 -0.096   -0.118  0.183 -0.483    0.338 -0.165 -0.061
 H         -0.111 -0.310  0.117   -0.055 -0.025  0.179   -0.313 -0.204  0.294
 H          0.009 -0.129  0.064    0.169 -0.037 -0.081    0.051  0.117 -0.101
 C          0.243 -0.112  0.072   -0.166 -0.046  0.001    0.158  0.052  0.051
 H          0.356 -0.311  0.166   -0.295  0.005  0.161    0.068 -0.103  0.432
 TransDip  -0.117 -0.047 -0.040   -0.009  0.001  0.040   -0.057 -0.092  0.075

 Mode:                 7                      8                      9
 Frequency:       384.21                 488.70                 533.70
 Force Cnst:      0.2999                 0.2598                 0.3120
 Red. Mass:       3.4478                 1.8462                 1.8589
 IR Active:          YES                    YES                    YES
 IR Intens:        7.696                 23.041                 16.181
 Raman Active:       YES                    YES                    YES
               X      Y      Z        X      Y      Z        X      Y      Z
 C         -0.074 -0.092 -0.105   -0.085 -0.009 -0.003    0.056  0.051  0.108
 C          0.038 -0.030  0.197   -0.117  0.000  0.047    0.049 -0.025 -0.078
 C          0.042  0.162 -0.039    0.009  0.017 -0.009   -0.015 -0.073 -0.013
 C          0.038  0.054 -0.004    0.022 -0.069  0.044   -0.087 -0.035  0.050
 C         -0.069  0.041  0.090    0.054 -0.014  0.079    0.008  0.110  0.029
 N         -0.138 -0.162 -0.122    0.079  0.109 -0.065   -0.037 -0.060 -0.100
 H         -0.112 -0.114 -0.563   -0.058 -0.178 -0.006    0.052  0.156  0.258
 H         -0.010 -0.014  0.182    0.437 -0.144  0.106   -0.230 -0.012 -0.111
 H          0.008  0.097 -0.399    0.473 -0.119 -0.076   -0.207  0.027  0.246
 H          0.100  0.100 -0.261    0.221  0.146 -0.242    0.084  0.135 -0.311
 H          0.036  0.126  0.085    0.087 -0.095  0.114    0.156  0.072  0.084
 C          0.158  0.036  0.099   -0.092 -0.010 -0.036    0.003  0.029  0.046
 H          0.319  0.018 -0.172    0.238 -0.113 -0.447    0.495 -0.213 -0.461
 TransDip  -0.013  0.064 -0.060    0.046 -0.077 -0.125   -0.001  0.090 -0.093

 Mode:                10                     11                     12
 Frequency:       591.28                 703.86                 809.73
 Force Cnst:      0.5557                 0.8538                 0.5041
 Red. Mass:       2.6979                 2.9250                 1.3050
 IR Active:          YES                    YES                    YES
 IR Intens:      101.834                 48.253                 24.235
 Raman Active:       YES                    YES                    YES
               X      Y      Z        X      Y      Z        X      Y      Z
 C         -0.051  0.075  0.089   -0.095  0.073  0.034    0.041  0.035  0.009
 C         -0.068  0.072 -0.105    0.167 -0.175  0.089    0.072 -0.033  0.008
 C          0.001 -0.028 -0.010   -0.007 -0.098 -0.003   -0.131  0.001  0.011
 C          0.206  0.027  0.025    0.057 -0.018  0.002    0.005 -0.001 -0.006
 C         -0.025 -0.057  0.093   -0.049  0.005  0.070   -0.011  0.007  0.012
 N         -0.104 -0.048 -0.163    0.044  0.217 -0.100   -0.004  0.003 -0.008
 H         -0.050  0.149  0.245   -0.110  0.038 -0.187    0.032  0.063 -0.047
 H          0.096 -0.068 -0.094   -0.351 -0.139  0.022   -0.470  0.128 -0.045
 H          0.159 -0.009  0.290   -0.628 -0.011 -0.379    0.783 -0.276 -0.179
 H          0.175 -0.017  0.030    0.049 -0.038 -0.101   -0.002 -0.011 -0.024
 H          0.091 -0.031  0.112   -0.077 -0.037  0.074   -0.011  0.000  0.014
 C          0.062 -0.083  0.047   -0.011 -0.038 -0.029    0.004 -0.004 -0.005
 H         -0.502  0.574  0.041   -0.220  0.178  0.016   -0.031  0.001  0.050
 TransDip   0.142  0.191  0.218   -0.198 -0.099 -0.026    0.106 -0.112 -0.033

 Mode:                13                     14                     15
 Frequency:       828.12                 855.53                 891.38
 Force Cnst:      0.5601                 0.6095                 0.7278
 Red. Mass:       1.3863                 1.4134                 1.5547
 IR Active:          YES                    YES                    YES
 IR Intens:       41.581                 69.083                 34.130
 Raman Active:       YES                    YES                    YES
               X      Y      Z        X      Y      Z        X      Y      Z
 C         -0.051 -0.025  0.056   -0.001  0.001  0.044   -0.062 -0.076  0.001
 C          0.041 -0.008  0.002    0.012  0.006 -0.012    0.059 -0.003  0.012
 C          0.004  0.039 -0.060   -0.006  0.014 -0.024   -0.003  0.058 -0.042
 C          0.072  0.009 -0.048   -0.015  0.017  0.055   -0.090 -0.018  0.013
 C          0.020  0.055  0.056   -0.063 -0.151 -0.002    0.021  0.003 -0.087
 N         -0.005 -0.005 -0.020    0.032  0.025 -0.009    0.047  0.038  0.039
 H         -0.071 -0.123 -0.332   -0.010 -0.087 -0.208   -0.059 -0.159 -0.093
 H         -0.151 -0.171 -0.047   -0.075 -0.155 -0.044   -0.212 -0.115 -0.044
 H          0.085  0.142  0.611    0.043  0.056  0.267    0.116  0.127  0.487
 H         -0.074 -0.141  0.154    0.144  0.197 -0.111   -0.045  0.015 -0.106
 H         -0.114 -0.228  0.120    0.055  0.775 -0.322    0.023 -0.192 -0.002
 C         -0.062  0.013 -0.049    0.017  0.025 -0.025    0.052 -0.029  0.072
 H          0.117 -0.393  0.286    0.053 -0.105  0.104   -0.199  0.565 -0.421
 TransDip  -0.199  0.042  0.038   -0.185 -0.002 -0.191    0.086  0.117  0.118

 Mode:                16                     17                     18
 Frequency:       919.57                 957.55                1029.51
 Force Cnst:      0.9461                 0.7745                 1.1583
 Red. Mass:       1.8990                 1.4337                 1.8549
 IR Active:          YES                    YES                    YES
 IR Intens:        9.085                 25.993                 27.249
 Raman Active:       YES                    YES                    YES
               X      Y      Z        X      Y      Z        X      Y      Z
 C         -0.178 -0.066 -0.092    0.021  0.079  0.031    0.062 -0.069 -0.066
 C          0.100 -0.001 -0.001   -0.030 -0.026  0.018   -0.005 -0.017  0.025
 C          0.000  0.048  0.005   -0.008 -0.037 -0.008    0.005  0.024 -0.021
 C          0.088  0.003  0.052    0.067  0.040 -0.039    0.000  0.057 -0.116
 C          0.067 -0.053 -0.051    0.037 -0.049 -0.067   -0.110 -0.001  0.144
 N         -0.043  0.012  0.008   -0.044  0.012  0.013    0.084  0.023 -0.038
 H         -0.145  0.152  0.696   -0.016  0.076 -0.344    0.119 -0.074  0.495
 H         -0.216  0.300 -0.010    0.012 -0.093  0.017   -0.018  0.031  0.025
 H         -0.010  0.062  0.046   -0.001 -0.050 -0.048    0.040  0.046  0.149
 H          0.142  0.093  0.293   -0.165 -0.172  0.615   -0.470 -0.492  0.045
 H          0.083  0.103 -0.105   -0.010  0.106 -0.134    0.034  0.331  0.057
 C         -0.034  0.015  0.007   -0.042 -0.012  0.086   -0.029 -0.011  0.032
 H          0.223 -0.224 -0.070    0.271  0.022 -0.534    0.043  0.065 -0.217
 TransDip  -0.094  0.003 -0.020    0.149  0.062  0.025   -0.163 -0.007  0.035

 Mode:                19                     20                     21
 Frequency:      1061.49                1219.09                1236.66
 Force Cnst:      1.6960                 1.2142                 1.1307
 Red. Mass:       2.5547                 1.3866                 1.2549
 IR Active:          YES                    YES                    YES
 IR Intens:       68.053                 28.650                 61.129
 Raman Active:       YES                    YES                    YES
               X      Y      Z        X      Y      Z        X      Y      Z
 C          0.122  0.114 -0.169   -0.056  0.049  0.016    0.026 -0.004  0.046
 C         -0.105 -0.142  0.176   -0.008 -0.023  0.016   -0.015 -0.054  0.031
 C          0.005 -0.016 -0.111   -0.002 -0.017 -0.029   -0.001 -0.030 -0.089
 C          0.008 -0.014  0.044   -0.004 -0.014 -0.017    0.028 -0.019  0.043
 C          0.010 -0.005 -0.035    0.119 -0.064  0.003   -0.038  0.008 -0.026
 N         -0.062  0.026  0.016   -0.033 -0.011  0.036    0.011  0.008 -0.023
 H          0.109  0.484  0.317   -0.107  0.227 -0.161    0.035 -0.094 -0.063
 H         -0.081 -0.366  0.140    0.046  0.238  0.053    0.199  0.833  0.160
 H          0.066  0.069  0.509   -0.009 -0.006  0.042    0.010  0.008  0.171
 H          0.163  0.159 -0.049   -0.313 -0.440 -0.460    0.029 -0.033 -0.041
 H         -0.026 -0.089 -0.015    0.533  0.091  0.061   -0.391 -0.013 -0.123
 C          0.018  0.010 -0.011   -0.019  0.068  0.001   -0.003  0.026  0.015
 H         -0.056  0.004  0.140   -0.047  0.056  0.098   -0.004  0.059 -0.015
 TransDip   0.013  0.261  0.039   -0.049  0.144 -0.080   -0.129  0.205 -0.061

 Mode:                22                     23                     24
 Frequency:      1271.18                1414.35                1468.45
 Force Cnst:      1.5404                 1.5117                 3.4702
 Red. Mass:       1.6179                 1.2827                 2.7314
 IR Active:          YES                    YES                    YES
 IR Intens:       26.369                  7.692                 89.326
 Raman Active:       YES                    YES                    YES
               X      Y      Z        X      Y      Z        X      Y      Z
 C         -0.012  0.015  0.021   -0.031 -0.080  0.023   -0.028  0.100 -0.022
 C         -0.006 -0.029  0.022   -0.019  0.018 -0.010    0.015 -0.013  0.006
 C         -0.002 -0.016 -0.049   -0.001  0.000  0.005   -0.001 -0.005 -0.002
 C         -0.106  0.075 -0.098   -0.047 -0.001 -0.035   -0.123 -0.104 -0.148
 C          0.012 -0.005  0.066    0.048  0.002  0.058    0.241 -0.039  0.147
 N          0.003  0.015  0.010    0.072 -0.015 -0.021   -0.070 -0.022 -0.029
 H         -0.019  0.005 -0.061   -0.206  0.869 -0.162    0.081 -0.497  0.196
 H          0.080  0.384  0.080    0.021  0.003 -0.008   -0.034 -0.045 -0.002
 H          0.001  0.007  0.106    0.021 -0.008 -0.019   -0.020  0.000  0.003
 H          0.151  0.452  0.379   -0.002  0.071  0.060    0.050  0.138  0.171
 H          0.578  0.025  0.229   -0.358  0.073 -0.080   -0.579  0.251 -0.188
 C          0.049 -0.125 -0.038    0.012 -0.009  0.002    0.029  0.083  0.028
 H         -0.063 -0.080  0.028   -0.027  0.041 -0.018   -0.104  0.205  0.104
 TransDip   0.069  0.124  0.084   -0.022 -0.066  0.056    0.206  0.162  0.152

 Mode:                25                     26                     27
 Frequency:      1554.48                1695.58                1807.52
 Force Cnst:      4.6529                13.4057                22.3642
 Red. Mass:       3.2682                 7.9141                11.6181
 IR Active:          YES                    YES                    YES
 IR Intens:       10.532                 11.520                 98.694
 Raman Active:       YES                    YES                    YES
               X      Y      Z        X      Y      Z        X      Y      Z
 C         -0.024  0.059 -0.019   -0.035 -0.045 -0.021   -0.346  0.537 -0.115
 C          0.006  0.004  0.009    0.128  0.521  0.293    0.003 -0.056  0.017
 C         -0.002 -0.011 -0.004   -0.086 -0.381 -0.310   -0.003  0.003 -0.010
 C         -0.043  0.302  0.135    0.005 -0.017 -0.006    0.008 -0.029 -0.001
 C          0.146 -0.029  0.015   -0.012  0.005 -0.000   -0.189  0.048 -0.004
 N         -0.022 -0.022  0.002    0.021 -0.026  0.015    0.482 -0.431  0.075
 H          0.018 -0.177  0.065   -0.016 -0.078  0.105   -0.242 -0.100  0.040
 H         -0.022 -0.040  0.001   -0.076 -0.241  0.202   -0.040 -0.000  0.003
 H         -0.006 -0.015 -0.015   -0.137 -0.477 -0.053   -0.036  0.020  0.055
 H         -0.385 -0.108 -0.444    0.015 -0.002 -0.002    0.049  0.016  0.099
 H         -0.518 -0.048 -0.164    0.012  0.002  0.013   -0.104 -0.057  0.019
 C          0.020 -0.245 -0.077   -0.008  0.015  0.004   -0.004  0.005  0.013
 H         -0.006 -0.267 -0.174    0.020 -0.007 -0.003   -0.001  0.067 -0.067
 TransDip   0.037  0.094  0.025   -0.009 -0.102  0.037   -0.267  0.129 -0.115

 Mode:                28                     29                     30
 Frequency:      3004.72                3048.46                3067.34
 Force Cnst:      5.7486                 5.9309                 6.0063
 Red. Mass:       1.0807                 1.0832                 1.0835
 IR Active:          YES                    YES                    YES
 IR Intens:       16.026                100.287                 37.231
 Raman Active:       YES                    YES                    YES
               X      Y      Z        X      Y      Z        X      Y      Z
 C          0.002  0.000 -0.002    0.000  0.001 -0.000    0.006  0.003 -0.001
 C          0.011  0.007 -0.080   -0.000  0.000  0.001   -0.000 -0.001  0.000
 C         -0.000 -0.003  0.000   -0.000  0.000  0.000   -0.000  0.000  0.000
 C         -0.001  0.001 -0.000   -0.059  0.051 -0.005    0.013 -0.009  0.003
 C         -0.000  0.000 -0.000    0.005 -0.005 -0.013    0.019 -0.027 -0.074
 N          0.001 -0.000  0.000    0.000 -0.000 -0.000    0.001 -0.001 -0.000
 H         -0.028 -0.002 -0.000   -0.006 -0.002  0.000   -0.076 -0.014  0.007
 H         -0.134 -0.113  0.979    0.001  0.000 -0.008    0.001  0.001 -0.003
 H          0.014  0.056 -0.005   -0.000 -0.002 -0.000    0.000  0.001  0.000
 H          0.008 -0.006  0.000    0.714 -0.591  0.060   -0.125  0.100 -0.015
 H         -0.001  0.001  0.002   -0.053  0.068  0.172   -0.252  0.335  0.879
 C         -0.000 -0.000 -0.000    0.016  0.014  0.008   -0.008 -0.005 -0.004
 H          0.003  0.003  0.002   -0.207 -0.189 -0.116    0.082  0.068  0.047
 TransDip  -0.052  0.052 -0.105   -0.191  0.253 -0.050    0.115 -0.132 -0.087

 Mode:                31                     32                     33
 Frequency:      3091.45                3099.65                3220.41
 Force Cnst:      6.1237                 6.2286                 6.7245
 Red. Mass:       1.0875                 1.1003                 1.1005
 IR Active:          YES                    YES                    YES
 IR Intens:       38.712                 77.221                 10.931
 Raman Active:       YES                    YES                    YES
               X      Y      Z        X      Y      Z        X      Y      Z
 C         -0.083 -0.012  0.007    0.005  0.001 -0.000    0.001  0.001 -0.000
 C          0.000  0.000 -0.002   -0.000  0.000  0.001    0.001  0.007  0.012
 C         -0.000 -0.001  0.001    0.000  0.001  0.000   -0.023 -0.087  0.007
 C         -0.001  0.001  0.000   -0.025  0.027  0.000   -0.000  0.000  0.000
 C          0.003 -0.003 -0.005    0.000  0.001  0.005   -0.000  0.000  0.000
 N          0.000 -0.001  0.000   -0.000  0.000  0.000    0.000 -0.000  0.000
 H          0.974  0.160 -0.091   -0.058 -0.009  0.005   -0.014 -0.003  0.002
 H         -0.007 -0.004  0.025    0.000 -0.000 -0.009    0.007  0.005 -0.049
 H          0.003  0.015 -0.003   -0.002 -0.009 -0.000    0.249  0.946 -0.180
 H          0.009 -0.008  0.001    0.239 -0.195  0.021    0.003 -0.003  0.000
 H         -0.019  0.026  0.066    0.013 -0.021 -0.060    0.001 -0.001 -0.002
 C         -0.004 -0.004 -0.002   -0.052 -0.057 -0.033   -0.000 -0.000 -0.000
 H          0.044  0.039  0.023    0.661  0.566  0.362    0.006  0.003  0.003
 TransDip  -0.183 -0.074 -0.030   -0.243  0.028 -0.139    0.035 -0.098 -0.019

 STANDARD THERMODYNAMIC QUANTITIES AT   298.15 K  AND     1.00 ATM

   This Molecule has  2 Imaginary Frequencies
   Zero point vibrational energy:       58.555 kcal/mol

   Atom    1 Element C  Has Mass   12.00000
   Atom    2 Element C  Has Mass   12.00000
   Atom    3 Element C  Has Mass   12.00000
   Atom    4 Element C  Has Mass   12.00000
   Atom    5 Element C  Has Mass   12.00000
   Atom    6 Element N  Has Mass   14.00307
   Atom    7 Element H  Has Mass    1.00783
   Atom    8 Element H  Has Mass    1.00783
   Atom    9 Element H  Has Mass    1.00783
   Atom   10 Element H  Has Mass    1.00783
   Atom   11 Element H  Has Mass    1.00783
   Atom   12 Element C  Has Mass   12.00000
   Atom   13 Element H  Has Mass    1.00783
   Molecular Mass:    92.050050 amu
   Principal axes and moments of inertia in amu*Bohr^2:
                             1           2           3
    Eigenvalues --      389.23042   829.57406  1127.35921
          X              -0.67192     0.56033    -0.48431
          Y               0.68748     0.71510    -0.12646
          Z              -0.27547     0.41792     0.86571
   Rotational Symmetry Number is   1
   The Molecule is an Asymmetric Top
   Translational Enthalpy:        0.889 kcal/mol
   Rotational Enthalpy:           0.889 kcal/mol
   Vibrational Enthalpy:         61.040 kcal/mol
   gas constant (RT):             0.592 kcal/mol
   Translational Entropy:        39.471  cal/mol.K
   Rotational Entropy:           27.389  cal/mol.K
   Vibrational Entropy:          14.863  cal/mol.K

   Total Enthalpy:               63.410 kcal/mol
   Total Entropy:                81.723  cal/mol.K
Archival summary:
1\1\c8-85\FREQ\ProcedureUnspecified\6-31G*\166(2)\hpark21\WedMar222:22:152022WedMar222:22:152022\0\\#,FREQ,ProcedureUnspecified,6-31G*,\\0,2\N\C,1,1.26369\H,2,1.09719,1,117.264\C,1,1.35512,2,132.504,3,-176.021,0\H,4,1.0991,1,110.428,2,92.7782,0\C,4,1.43382,1,127.913,2,-96.3133,0\H,6,1.09666,4,121.522,1,-138.751,0\C,6,1.34533,4,100.803,1,58.4751,0\H,8,1.09625,6,123.559,4,149.219,0\C,2,1.4893,1,125.99,3,178.591,0\H,10,1.10204,2,112.884,1,-84.3455,0\C,10,1.3122,2,127.29,1,93.4666,0\H,12,1.08642,10,130.61,2,176.606,0\\\@

 Total job time:  254.71s(wall), 247.39s(cpu) 
 Wed Mar  2 22:22:15 2022

        *************************************************************
        *                                                           *
        *  Thank you very much for using Q-Chem.  Have a nice day.  *
        *                                                           *
        *************************************************************


