
Running Job 1 of 1 qcts1.in
qchem qcts1.in_68896.0 ./qcts1.d/ 1
/home/leeping/opt/qchem/5.0.2-openmp/exe/qcprog.exe_s qcts1.in_68896.0 ./qcts1.d/
Check license passed

                  Welcome to Q-Chem
     A Quantum Leap Into The Future Of Chemistry


 Q-Chem 5.0, Q-Chem, Inc., Pleasanton, CA (2017)

 Yihan Shao,  Zhengting Gan,  E. Epifanovsky,  A. T. B. Gilbert,  M. Wormit,  
 J. Kussmann,  A. W. Lange,  A. Behn,  Jia Deng,  Xintian Feng,  D. Ghosh,  
 M. Goldey,  P. R. Horn,  L. D. Jacobson,  I. Kaliman,  T. Kus,  A. Landau,  
 Jie Liu,  E. I. Proynov,  R. M. Richard,  R. P. Steele,  E. J. Sundstrom,  
 H. L. Woodcock III,  P. M. Zimmerman,  D. Zuev,  B. Albrecht,  E. Alguire,  
 S. A. Baeppler,  D. Barton,  Z. Benda,  Y. A. Bernard,  E. J. Berquist,  
 K. B. Bravaya,  H. Burton,  D. Casanova,  Chun-Min Chang,  Yunqing Chen,  
 A. Chien,  K. D. Closser,  M. P. Coons,  S. Dasgupta,  A. L. Dempwolff,  
 M. Diedenhofen,  Hainam Do,  R. G. Edgar,  Po-Tung Fang,  S. Fatehi,  
 Qingguo Feng,  J. Fosso-Tande,  Qinghui Ge,  A. Ghysels,  G. Gidofalvi,  
 J. Gomes,  J. Gonthier,  A. Gunina,  M. W. D. Hanson-Heine,  
 P. H. P. Harbach,  A. W. Hauser,  J. E. Herr,  E. G. Hohenstein,  
 Z. C. Holden,  Kerwin Hui,  T.-C. Jagau,  Hyunjun Ji,  B. Kaduk,  
 K. Khistyaev,  Jaehoon Kim,  P. Klunzinger,  K. Koh,  D. Kosenkov,  
 L. Koulias,  T. Kowalczyk,  C. M. Krauter,  A. Kunitsa,  Ka Un Lao,  
 A. Laurent,  K. V. Lawler,  Joonho Lee,  D. Lefrancois,  S. Lehtola,  
 D. S. Levine,  Yi-Pei Li,  You-Sheng Lin,  Fenglai Liu,  E. Livshits,  
 A. Luenser,  P. Manohar,  E. Mansoor,  S. F. Manzer,  Shan-Ping Mao,  
 Yuezhi Mao,  N. Mardirossian,  A. V. Marenich,  T. Markovich,  
 L. A. Martinez-Martinez,  S. A. Maurer,  N. J. Mayhall,  S. C. McKenzie,  
 J.-M. Mewes,  A. F. Morrison,  J. W. Mullinax,  K. Nanda,  
 T. S. Nguyen-Beck,  R. Olivares-Amaya,  J. A. Parkhill,  T. M. Perrine,  
 F. Plasser,  S. Prager,  A. Prociuk,  E. Ramos,  D. R. Rehn,  F. Rob,  
 M. Schneider,  N. Sergueev,  S. M. Sharada,  S. Sharma,  D. W. Small,  
 T. Stauch,  T. Stein,  Yu-Chuan Su,  A. J. W. Thom,  A. Tkatchenko,  
 T. Tsuchimochi,  L. Vogt,  O. Vydrov,  M. A. Watson,  J. Wenzel,  
 M. de Wergifosse,  T. A. Wesolowski,  A. White,  J. Witte,  A. Yamada,  
 Jun Yang,  K. Yao,  S. Yeganeh,  S. R. Yost,  Zhi-Qiang You,  A. Zech,  
 Igor Ying Zhang,  Xing Zhang,  Yan Zhao,  Ying Zhu,  B. R. Brooks,  
 G. K. L. Chan,  C. J. Cramer,  M. S. Gordon,  W. J. Hehre,  A. Klamt,  
 M. W. Schmidt,  C. D. Sherrill,  D. G. Truhlar,  A. Aspuru-Guzik,  R. Baer,  
 A. T. Bell,  N. A. Besley,  Jeng-Da Chai,  R. A. DiStasio Jr.,  A. Dreuw,  
 B. D. Dunietz,  T. R. Furlani,  Chao-Ping Hsu,  Yousung Jung,  Jing Kong,  
 D. S. Lambrecht,  WanZhen Liang,  C. Ochsenfeld,  V. A. Rassolov,  
 L. V. Slipchenko,  J. E. Subotnik,  T. Van Voorhis,  J. M. Herbert,  
 A. I. Krylov,  P. M. W. Gill,  M. Head-Gordon

 Contributors to earlier versions of Q-Chem not listed above: 
 R. D. Adamson,  B. Austin,  J. Baker,  G. J. O. Beran,  K. Brandhorst,  
 S. T. Brown,  E. F. C. Byrd,  A. K. Chakraborty,  C.-L. Cheng,  
 Siu Hung Chien,  D. M. Chipman,  D. L. Crittenden,  H. Dachsel,  
 R. J. Doerksen,  A. D. Dutoi,  L. Fusti-Molnar,  W. A. Goddard III,  
 A. Golubeva-Zadorozhnaya,  S. R. Gwaltney,  G. Hawkins,  A. Heyden,  
 S. Hirata,  G. Kedziora,  F. J. Keil,  C. Kelley,  Jihan Kim,  R. A. King,  
 R. Z. Khaliullin,  P. P. Korambath,  W. Kurlancheek,  A. M. Lee,  M. S. Lee,  
 S. V. Levchenko,  Ching Yeh Lin,  D. Liotard,  R. C. Lochan,  I. Lotan,  
 P. E. Maslen,  N. Nair,  D. P. O'Neill,  D. Neuhauser,  E. Neuscamman,  
 C. M. Oana,  R. Olson,  B. Peters,  R. Peverati,  P. A. Pieniazek,  
 Y. M. Rhee,  J. Ritchie,  M. A. Rohrdanz,  E. Rosta,  N. J. Russ,  
 H. F. Schaefer III,  N. E. Schultz,  N. Shenvi,  A. C. Simmonett,  A. Sodt,  
 D. Stuck,  K. S. Thanthiriwatte,  V. Vanovschi,  Tao Wang,  A. Warshel,  
 C. F. Williams,  Q. Wu,  X. Xu,  W. Zhang

 Please cite Q-Chem as follows:
 Y. Shao et al., Mol. Phys. 113, 184-215 (2015)
 DOI: 10.1080/00268976.2014.952696

 Q-Chem 5.0.2 for Intel X86 EM64T Linux

 Parts of Q-Chem use Armadillo 5.200.1 (Boston Tea Smuggler).
 http://arma.sourceforge.net/

 Q-Chem begins on Wed Mar  2 22:47:33 2022  

Host: 
0

     Scratch files written to ./qcts1.d//
 Dec517 15110_ 26548  26544 5633   
Processing $rem in /home/leeping/opt/qchem/5.0.2-openmp/config/preferences.
 MEM_STATIC 2000
 MEM_TOTAL  8000
 SYMMETRY   OFF
 SYM_IGNORE TRUE 

Checking the input file for inconsistencies... 	...done.

--------------------------------------------------------------
User input:
--------------------------------------------------------------
$molecule
0 2
C        1.4561485708    0.2751398970    0.3654313167
C        1.0665299911   -1.1802554370    0.4549359792
C        0.8038749381   -1.9646318485   -0.5625651577
C       -1.4501366220    1.2196744880   -1.0271908076
C       -0.7139947650    1.2870922374    0.2742366890
N        0.7330210542    1.3154535979    0.3066850230
H        2.5406148539    0.4388347657    0.3983295307
H        1.1062235658   -1.5950301236    1.4733846645
H        0.5625565941   -3.0091881594   -0.7171620873
H       -1.6565733180    1.7345136664   -1.9544659509
H       -1.0885028546    1.9549114157    1.0558853931
C       -1.5882919331    0.1805991868   -0.2585564341
H       -2.0111098943   -0.7996300891   -0.1002312424
$end

$rem
method                b3lyp
basis                 6-31g(d)
unrestricted          true
symmetry              off
sym_ignore            true
incdft                false
incfock               0
scf_convergence       8
thresh                14
jobtype               sp
scf_guess             read
scf_algorithm         diis
max_scf_cycles        100
$end

--------------------------------------------------------------
 ----------------------------------------------------------------
             Standard Nuclear Orientation (Angstroms)
    I     Atom           X                Y                Z
 ----------------------------------------------------------------
    1      C       1.4561485708     0.2751398970     0.3654313167
    2      C       1.0665299911    -1.1802554370     0.4549359792
    3      C       0.8038749381    -1.9646318485    -0.5625651577
    4      C      -1.4501366220     1.2196744880    -1.0271908076
    5      C      -0.7139947650     1.2870922374     0.2742366890
    6      N       0.7330210542     1.3154535979     0.3066850230
    7      H       2.5406148539     0.4388347657     0.3983295307
    8      H       1.1062235658    -1.5950301236     1.4733846645
    9      H       0.5625565941    -3.0091881594    -0.7171620873
   10      H      -1.6565733180     1.7345136664    -1.9544659509
   11      H      -1.0885028546     1.9549114157     1.0558853931
   12      C      -1.5882919331     0.1805991868    -0.2585564341
   13      H      -2.0111098943    -0.7996300891    -0.1002312424
 ----------------------------------------------------------------
 Nuclear Repulsion Energy =   251.1802126936 hartrees
 There are       25 alpha and       24 beta electrons
 Requested basis set is 6-31G(d)
 There are 40 shells and 117 basis functions

 Total QAlloc Memory Limit   8000 MB
 Mega-Array Size      1956 MB
 MEM_STATIC part      2000 MB

                       Distance Matrix (Angstroms)
             C (  1)   C (  2)   C (  3)   C (  4)   C (  5)   N (  6)
   C (  2)  1.509301
   C (  3)  2.510621  1.311313
   C (  4)  3.358279  3.780208  3.928900
   C (  5)  2.396223  3.048069  3.684817  1.496718
   N (  6)  1.268313  2.522255  3.394050  2.560191  1.447657
   H (  7)  1.097244  2.190339  3.117088  4.309051  3.365624  2.011033
   H (  8)  2.201714  1.100387  2.091199  4.550870  3.613555  3.157750
   H (  9)  3.571740  2.229977  1.083159  4.693648  4.590259  4.447454
   H ( 10)  4.147377  4.660085  4.655628  1.080516  2.460845  3.316410
   H ( 11)  3.126277  3.851568  4.643630  2.238428  1.094173  2.070787
   C ( 12)  3.109167  3.067422  3.227522  1.299832  1.507511  2.644974
   H ( 13)  3.659761  3.150389  3.081415  2.291623  2.485386  3.488469
             H (  7)   H (  8)   H (  9)   H ( 10)   H ( 11)   C ( 12)
   H (  8)  2.711057
   H (  9)  4.128668  2.663440
   H ( 10)  4.983053  5.519879  5.381279
   H ( 11)  3.987651  4.194427  5.523765  3.071399
   C ( 12)  4.188801  3.662362  3.874431  2.301178  2.264008
   H ( 13)  4.743475  3.581438  3.447682  3.160026  3.126549  1.079209

 
 A cutoff of  1.0D-14 yielded    789 shell pairs
 There are      7041 function pairs
 
 -------------------------------------------------------
 OpenMP Integral Computing Module                       
 Release: version 1.0, May 2013, Q-Chem Inc. Pittsburgh 
 -------------------------------------------------------
 Integral Job Info:
 Integral job number is                      11
 Integral operator is                         1
 short-range coefficients                     0
 long-range coefficients              100000000
 Omega coefficients                           0
 if combine SR and LR in K                    0
 Integral screening is                        0
 Integral computing path is                   2
 max size of driver memory is            800000
 size of driver memory is                593474
 size of scratch memory is              2361544
 max col of scratch BK array               1296
 max len of scratch array in speh3          155
 max len of scratch index in speh4           18
 max int batch size is                      520
 min int batch size is                       52
 fixed nKL is                                52
 max L of basis functions is                  2
 order of int derivative is                   0
 number of shells is                         40
 number of basis is                         117
 number of cartesian basis is               117
 number of contracted shell pairs           789
 number of primitive shell pairs           3328
 maxK2 (contraction) of shell pair           36
 max number of K2 of shell pair               1
 max number of CS2 of shell pair             86
 max number of PS2 of shell pair            462
 mem total for path MDJ                  531564
 -------------------------------------------------------
 Smallest overlap matrix eigenvalue = 2.34E-03

 Scale SEOQF with 1.000000e-01/1.000000e-01/1.000000e-01

 Standard Electronic Orientation quadrupole field applied
 Nucleus-field energy     =     0.0000000064 hartrees
 Guess MOs from SCF MO coefficient file
 Reading MOs from coefficient file
 Reading MOs from coefficient file
 An unrestricted hybrid HF-DFT SCF calculation will be
 performed using Pulay DIIS extrapolation
 Exchange:     0.2000 Hartree-Fock + 0.0800 Slater + 0.7200 B88
 Correlation:  0.1900 VWN1RPA + 0.8100 LYP
 Using SG-1 standard quadrature grid
 SCF converges when DIIS error is below 1.0E-08
Using Q-Chem read-in guess as SCF_GUESS READ specified.

 using 4 threads for integral computing
 -------------------------------------------------------
 OpenMP Integral computing Module                
 Release: version 1.0, May 2013, Q-Chem Inc. Pittsburgh 
 -------------------------------------------------------
 -------------------------------------------------------
 OpenMP BLAS3 based DFT computing Module                
 Release: version 1.0, May 2013, Q-Chem Inc. Pittsburgh 
 -------------------------------------------------------
 ---------------------------------------
  Cycle       Energy         DIIS Error
 ---------------------------------------
    1    -286.7564126690      3.66E-09
    2    -286.7564126690      5.71E-09 Convergence criterion met
 ---------------------------------------
 <S^2> = 0.7613
 SCF time:  CPU 4.53 s  wall 1.26 s
 SCF   energy in the final basis set = -286.75641267
 Total energy in the final basis set = -286.75641267
 
 --------------------------------------------------------------
 
                    Orbital Energies (a.u.)
 --------------------------------------------------------------
 
 Alpha MOs
 -- Occupied --
-14.323 -10.233 -10.228 -10.215 -10.205 -10.203 -10.202  -0.924
 -0.854  -0.778  -0.658  -0.594  -0.566  -0.533  -0.501  -0.479
 -0.459  -0.431  -0.374  -0.338  -0.290  -0.285  -0.258  -0.251
 -0.218
 -- Virtual --
 -0.007   0.007   0.020   0.125   0.128   0.130   0.148   0.152
  0.168   0.186   0.240   0.268   0.301   0.346   0.367   0.389
  0.445   0.506   0.512   0.528   0.558   0.566   0.575   0.587
  0.612   0.619   0.656   0.675   0.712   0.722   0.734   0.758
  0.763   0.833   0.851   0.864   0.869   0.882   0.892   0.915
  0.944   0.994   1.003   1.030   1.074   1.109   1.185   1.241
  1.289   1.421   1.448   1.493   1.519   1.551   1.633   1.650
  1.700   1.732   1.758   1.774   1.839   1.885   1.907   1.926
  1.954   2.039   2.094   2.148   2.162   2.251   2.317   2.339
  2.375   2.398   2.431   2.457   2.516   2.582   2.656   2.738
  2.795   2.834   2.915   2.949   3.105   3.946   4.079   4.178
  4.197   4.326   4.402   4.509
 
 Beta MOs
 -- Occupied --
-14.323 -10.232 -10.228 -10.207 -10.203 -10.202 -10.200  -0.924
 -0.853  -0.765  -0.652  -0.582  -0.566  -0.528  -0.499  -0.465
 -0.452  -0.429  -0.373  -0.337  -0.285  -0.282  -0.253  -0.231
 -- Virtual --
 -0.074  -0.004   0.019   0.021   0.128   0.130   0.135   0.149
  0.156   0.171   0.187   0.242   0.269   0.304   0.348   0.376
  0.398   0.451   0.510   0.528   0.535   0.559   0.580   0.582
  0.592   0.617   0.629   0.657   0.680   0.716   0.723   0.742
  0.762   0.767   0.836   0.852   0.865   0.874   0.884   0.896
  0.925   0.948   1.002   1.010   1.032   1.080   1.113   1.186
  1.244   1.291   1.425   1.449   1.495   1.521   1.554   1.655
  1.662   1.723   1.736   1.776   1.784   1.859   1.893   1.917
  1.931   1.971   2.040   2.099   2.163   2.168   2.252   2.317
  2.345   2.378   2.401   2.433   2.458   2.518   2.584   2.660
  2.750   2.804   2.844   2.915   2.951   3.108   3.946   4.105
  4.180   4.208   4.327   4.401   4.510
 --------------------------------------------------------------
 
          Ground-State Mulliken Net Atomic Charges

     Atom                 Charge (a.u.)    Spin (a.u.)
  --------------------------------------------------------
      1 C                     0.033292       0.038982
      2 C                    -0.179978      -0.173156
      3 C                    -0.168790       1.036226
      4 C                    -0.107012       0.007976
      5 C                    -0.036628       0.001174
      6 N                    -0.323985       0.001478
      7 H                     0.148302       0.001352
      8 H                     0.164749       0.084795
      9 H                     0.164446       0.004689
     10 H                     0.147185      -0.000300
     11 H                     0.137583       0.000259
     12 C                    -0.124024      -0.003294
     13 H                     0.144861      -0.000182
  --------------------------------------------------------
  Sum of atomic charges =    -0.000000
  Sum of spin   charges =     1.000000

 -----------------------------------------------------------------
                    Cartesian Multipole Moments
 -----------------------------------------------------------------
    Charge (ESU x 10^10)
                -0.0000
    Dipole Moment (Debye)
         X      -0.8156      Y      -1.9711      Z       0.2145
       Tot       2.1439
    Quadrupole Moments (Debye-Ang)
        XX     -39.5050     XY      -1.9789     YY     -39.4212
        XZ       1.7717     YZ      -2.0732     ZZ     -39.1384
    Octopole Moments (Debye-Ang^2)
       XXX      -1.6661    XXY      -5.1796    XYY      -9.0950
       YYY     -32.3551    XXZ       3.0762    XYZ       0.3358
       YYZ      -1.9284    XZZ      -3.8052    YZZ      -2.0057
       ZZZ       5.5858
    Hexadecapole Moments (Debye-Ang^3)
      XXXX    -401.6442   XXXY      92.8265   XXYY    -145.9336
      XYYY      65.4061   YYYY    -414.8133   XXXZ     -43.4018
      XXYZ      -5.9476   XYYZ     -12.3290   YYYZ       2.6425
      XXZZ     -86.4913   XYZZ      17.6986   YYZZ     -85.7153
      XZZZ     -39.1973   YZZZ     -13.1248   ZZZZ    -125.9909
 -----------------------------------------------------------------
Archival summary:
1\1\c8-85\SP\ProcedureUnspecified\6-31G*\166(2)\hpark21\WedMar222:47:372022WedMar222:47:372022\0\\#,ProcedureUnspecified,6-31G*,\\0,2\N\C,1,1.26831\H,2,1.09724,1,116.265\C,1,1.44766,2,123.701,3,-179.167,0\H,4,1.09417,1,108.31,2,128.194,0\C,4,1.49672,1,120.797,2,-89.973,0\H,6,1.08052,4,144.956,1,-63.7308,0\C,6,1.29983,4,64.7928,1,114.857,0\H,8,1.07921,6,148.701,4,-178.98,0\C,2,1.5093,1,130.279,3,177.186,0\H,10,1.10039,2,114.145,1,-98.938,0\C,10,1.31131,2,125.626,1,86.6636,0\H,12,1.08316,10,137.073,2,176.318,0\\\@

 Total job time:  3.94s(wall), 6.53s(cpu) 
 Wed Mar  2 22:47:37 2022

        *************************************************************
        *                                                           *
        *  Thank you very much for using Q-Chem.  Have a nice day.  *
        *                                                           *
        *************************************************************


