13
image # 1 Energy = -286.92434
C 1.52590   0.28245   0.67027   
C 1.09724   -1.00984  0.43232   
C -0.15748  -1.44331  -0.12737  
C -1.23936  0.78844   -0.50309  
C -0.27429  1.66749   -0.04821  
N 0.96128   1.49765   0.47794   
H 2.52551   0.36103   1.10342   
H 1.79903   -1.79518  0.70274   
H -0.28592  -2.51930  -0.22664  
H -2.15172  1.24536   -0.87888  
H -0.54542  2.72310   -0.12078  
C -1.18666  -0.65086  -0.54020  
H -2.06810  -1.14702  -0.94151  
13
image # 2 Energy = -286.89838
C 1.53758   0.27589   0.64970   
C 1.11680   -1.03757  0.47150   
C -0.11887  -1.52644  -0.07540  
C -1.31169  0.83343   -0.49749  
C -0.28920  1.64499   -0.05346  
N 0.96558   1.46706   0.43392   
H 2.54563   0.38564   1.05625   
H 1.82543   -1.80021  0.76956   
H -0.19437  -2.63950  -0.13031  
H -2.22871  1.32956   -0.82711  
H -0.53070  2.70383   -0.07530  
C -1.22163  -0.60689  -0.62833  
H -2.11028  -1.06073  -1.09626  
13
image # 3 Energy = -286.86785
C 1.55006   0.28035   0.62955   
C 1.10971   -1.07777  0.49628   
C -0.06473  -1.60290  -0.01838  
C -1.37527  0.84774   -0.49245  
C -0.30234  1.63249   -0.05079  
N 0.96442   1.42632   0.38476   
H 2.56033   0.40403   1.01017   
H 1.84607   -1.80772  0.83118   
H -0.11374  -2.73520  -0.04262  
H -2.29591  1.40110   -0.77670  
H -0.52724  2.68166   -0.02262  
C -1.25825  -0.54266  -0.72016  
H -2.13217  -0.97922  -1.23779  
13
image # 4 Energy = -286.82762
C 1.55111   0.26239   0.59432   
C 1.10456   -1.11739  0.52885   
C -0.02419  -1.67498  0.02387   
C -1.42233  0.86687   -0.48276  
C -0.34530  1.61174   -0.04087  
N 0.96225   1.37876   0.30797   
H 2.58175   0.42230   0.94927   
H 1.86432   -1.81450  0.91171   
H -0.02511  -2.81303  0.06139   
H -2.36064  1.47012   -0.71214  
H -0.53722  2.66387   0.06449   
C -1.29011  -0.49422  -0.82210  
H -2.12881  -0.88085  -1.40232  
13
image # 5 Energy = -286.79268
C 1.55617   0.24913   0.55584   
C 1.10659   -1.14889  0.56386   
C 0.01137   -1.74427  0.04277   
C -1.47782  0.88065   -0.48824  
C -0.37223  1.59960   -0.01540  
N 0.94774   1.33104   0.21982   
H 2.59093   0.43276   0.87869   
H 1.86938   -1.81457  0.99538   
H 0.04966   -2.86170  0.15764   
H -2.39840  1.51637   -0.65346  
H -0.55655  2.63932   0.17771   
C -1.30859  -0.44344  -0.90290  
H -2.11706  -0.79396  -1.55796  
13
image # 6 Energy = -286.75901
C 1.55684   0.22834   0.50888   
C 1.10678   -1.16676  0.59404   
C 0.06490   -1.79648  0.05297   
C -1.51542  0.90569   -0.49390  
C -0.40442  1.57135   0.01126   
N 0.92262   1.28956   0.12331   
H 2.59553   0.44055   0.79218   
H 1.86282   -1.80584  1.09438   
H 0.11889   -2.91774  0.25148   
H -2.43342  1.56047   -0.60897  
H -0.57986  2.59442   0.33122   
C -1.32870  -0.38448  -0.98299  
H -2.09294  -0.70711  -1.71242  
13
image # 7 Energy = -286.72998
C 1.54307   0.22307   0.44982   
C 1.12401   -1.17368  0.62373   
C 0.11874   -1.85924  0.04786   
C -1.54947  0.93759   -0.51135  
C -0.43698  1.55306   0.04192   
N 0.90397   1.24019   0.04321   
H 2.59880   0.44531   0.69635   
H 1.83969   -1.78053  1.20482   
H 0.18699   -2.96813  0.33254   
H -2.46472  1.61104   -0.58282  
H -0.60144  2.51075   0.50946   
C -1.35429  -0.32281  -1.06257  
H -2.06048  -0.62153  -1.84873  
13
image # 8 Energy = -286.71005
C 1.54588   0.20130   0.39977   
C 1.13601   -1.17988  0.64085   
C 0.19091   -1.92973  0.03996   
C -1.58017  0.97918   -0.53753  
C -0.45388  1.53385   0.06820   
N 0.85509   1.22761   -0.01247  
H 2.59823   0.44284   0.60309   
H 1.80121   -1.73749  1.31435   
H 0.24625   -3.00072  0.38357   
H -2.48184  1.65747   -0.57617  
H -0.61923  2.41004   0.67764   
C -1.37782  -0.25832  -1.13982  
H -2.03516  -0.55581  -1.94367  
13
image # 9 Energy = -286.69852
C 1.53965   0.19513   0.34188   
C 1.13953   -1.18608  0.64265   
C 0.27832   -1.99160  0.01620   
C -1.61020  1.03374   -0.57317  
C -0.48182  1.50018   0.09265   
N 0.82671   1.20401   -0.04934  
H 2.59940   0.43896   0.50870   
H 1.73226   -1.67262  1.44159   
H 0.31869   -3.04113  0.42042   
H -2.49565  1.71775   -0.58346  
H -0.63582  2.29160   0.83850   
C -1.38489  -0.18897  -1.18708  
H -2.01558  -0.50225  -2.02579  
13
image # 10 Energy = -286.69334
C 1.53410   0.18559   0.29346   
C 1.15152   -1.17886  0.64814   
C 0.38225   -2.05783  -0.00589  
C -1.62771  1.09053   -0.61460  
C -0.50271  1.47221   0.12539   
N 0.79416   1.18983   -0.04885  
H 2.59891   0.42815   0.42584   
H 1.63474   -1.58647  1.54813   
H 0.38735   -3.08441  0.42422   
H -2.50270  1.77881   -0.60988  
H -0.64485  2.16444   0.95714   
C -1.39444  -0.11370  -1.23891  
H -2.00994  -0.47563  -2.05792  
13
image # 11 Energy = -286.69987
C 1.53122   0.18037   0.24548   
C 1.15443   -1.17766  0.66335   
C 0.50388   -2.10210  -0.03405  
C -1.62170  1.14928   -0.66992  
C -0.53111  1.43944   0.17273   
N 0.75545   1.16673   -0.01347  
H 2.60034   0.40425   0.30284   
H 1.49559   -1.46085  1.66713   
H 0.44659   -3.10983  0.40122   
H -2.48803  1.82947   -0.65087  
H -0.66162  2.03414   1.08556   
C -1.37227  -0.04412  -1.30700  
H -2.02127  -0.48181  -2.06234  
13
image # 12 Energy = -286.69443
C 1.52621   0.17739   0.22342   
C 1.15024   -1.17262  0.67848   
C 0.64120   -2.14975  -0.04912  
C -1.61519  1.21050   -0.72354  
C -0.55498  1.40360   0.20527   
N 0.73522   1.15137   0.02438   
H 2.60214   0.38691   0.21065   
H 1.33508   -1.34675  1.74418   
H 0.52106   -3.15127  0.37212   
H -2.47491  1.89170   -0.70066  
H -0.69192  1.90842   1.16910   
C -1.34695  0.01994   -1.36214  
H -2.04578  -0.48767  -2.03341  
13
image # 13 Energy = -286.69090
C 1.52593   0.17994   0.21480   
C 1.13956   -1.16787  0.67958   
C 0.77301   -2.20021  -0.05032  
C -1.61535  1.26528   -0.75997  
C -0.57859  1.36473   0.20799   
N 0.73567   1.15645   0.03473   
H 2.59609   0.37665   0.17507   
H 1.15824   -1.26733  1.77118   
H 0.61680   -3.19998  0.34975   
H -2.46426  1.96851   -0.75654  
H -0.72813  1.78943   1.21278   
C -1.34304  0.07961   -1.36535  
H -2.04462  -0.49344  -1.98749  
13
image # 14 Energy = -286.68980
C 1.51137   0.18474   0.21338   
C 1.11703   -1.16174  0.67984   
C 0.90491   -2.23600  -0.03687  
C -1.61321  1.31913   -0.79563  
C -0.59200  1.32672   0.21603   
N 0.73909   1.16903   0.04403   
H 2.59715   0.36719   0.14497   
H 0.97721   -1.20239  1.77322   
H 0.70899   -3.23991  0.32660   
H -2.44094  2.03963   -0.81734  
H -0.77747  1.67325   1.24119   
C -1.33746  0.12563   -1.35736  
H -2.03429  -0.50778  -1.92334  
13
image # 15 Energy = -286.69290
C 1.51295   0.20082   0.22071   
C 1.08631   -1.15201  0.69430   
C 1.03045   -2.26729  -0.00554  
C -1.59748  1.37292   -0.82692  
C -0.61406  1.28512   0.20792   
N 0.75149   1.19476   0.06220   
H 2.58431   0.35681   0.11604   
H 0.80371   -1.14839  1.74513   
H 0.79513   -3.27991  0.29215   
H -2.40802  2.11344   -0.89132  
H -0.84302  1.54439   1.25682   
C -1.32916  0.16902   -1.33652  
H -2.02384  -0.53088  -1.83018  
13
image # 16 Energy = -286.70541
C 1.50009   0.21788   0.22640   
C 1.05744   -1.14716  0.67291   
C 1.11642   -2.27402  0.01806   
C -1.61795  1.43792   -0.85155  
C -0.63350  1.21212   0.17959   
N 0.76174   1.23280   0.03516   
H 2.57816   0.35596   0.15219   
H 0.64810   -1.13772  1.68595   
H 0.89514   -3.29682  0.29047   
H -2.37784  2.21081   -0.96951  
H -0.88690  1.40375   1.24255   
C -1.36329  0.20421   -1.22295  
H -1.93910  -0.56401  -1.75129  
13
image # 17 Energy = -286.73083
C 1.48344   0.23332   0.23966   
C 1.03607   -1.13015  0.66232   
C 1.19640   -2.27897  0.04526   
C -1.64084  1.51181   -0.87553  
C -0.65529  1.11709   0.13681   
N 0.76549   1.26832   0.01154   
H 2.57185   0.36735   0.19141   
H 0.52842   -1.15274  1.62798   
H 0.97828   -3.30566  0.28702   
H -2.34162  2.29752   -1.04332  
H -0.93759  1.26097   1.20454   
C -1.40298  0.24677   -1.09975  
H -1.84270  -0.58388  -1.66935  
13
image # 18 Energy = -286.74441
C 1.47335   0.22737   0.24595   
C 1.00893   -1.10215  0.67119   
C 1.28243   -2.25477  0.08610   
C -1.62574  1.54738   -0.88329  
C -0.68068  1.06408   0.14041   
N 0.75177   1.27242   0.04243   
H 2.56134   0.35898   0.13087   
H 0.38222   -1.12429  1.58653   
H 1.03571   -3.29277  0.26025   
H -2.26418  2.34257   -1.11619  
H -1.01372  1.13538   1.20759   
C -1.39017  0.27765   -1.06964  
H -1.77810  -0.60240  -1.56520  
13
image # 19 Energy = -286.75656
C 1.46356   0.22854   0.24842   
C 0.95739   -1.11469  0.63443   
C 1.36424   -2.25984  0.13329   
C -1.65208  1.57023   -0.85845  
C -0.68954  1.06649   0.13864   
N 0.74564   1.26134   0.03141   
H 2.55296   0.33181   0.19909   
H 0.21040   -1.10833  1.44054   
H 1.17649   -3.30685  0.32037   
H -2.25078  2.41649   -1.14856  
H -0.98720  1.06910   1.19676   
C -1.42477  0.30138   -1.02389  
H -1.71537  -0.60527  -1.54430  
13
image # 20 Energy = -286.75741
C 1.45700   0.21144   0.26100   
C 0.94770   -1.13985  0.60439   
C 1.47668   -2.28216  0.21650   
C -1.68871  1.59861   -0.83669  
C -0.69125  1.07000   0.11445   
N 0.74360   1.24163   0.00514   
H 2.54635   0.32834   0.28964   
H 0.08745   -1.15905  1.28631   
H 1.29178   -3.32893  0.43130   
H -2.28872  2.45929   -1.10099  
H -0.95548  1.05595   1.18320   
C -1.46377  0.34031   -1.02882  
H -1.70466  -0.54574  -1.62071  
13
image # 21 Energy = -286.75698
C 1.45409   0.19828   0.27850   
C 0.95764   -1.17405  0.58839   
C 1.58516   -2.30637  0.33129   
C -1.72756  1.63566   -0.82056  
C -0.69436  1.06427   0.08837   
N 0.74206   1.22051   -0.02267  
H 2.53694   0.33621   0.37063   
H 0.00175   -1.23426  1.11140   
H 1.38840   -3.34549  0.54942   
H -2.33500  2.49948   -1.03185  
H -0.93041  1.03692   1.16137   
C -1.50675  0.37720   -1.04734  
H -1.70811  -0.46156  -1.71507  
13
image # 22 Energy = -286.75528
C 1.45318   0.18264   0.29926   
C 0.98453   -1.20505  0.57875   
C 1.68205   -2.32270  0.47034   
C -1.76280  1.67199   -0.79799  
C -0.70247  1.05697   0.06000   
N 0.73887   1.19931   -0.04712  
H 2.52607   0.34851   0.43984   
H -0.04835  -1.32238  0.91495   
H 1.47256   -3.36764  0.67564   
H -2.38660  2.54610   -0.94945  
H -0.91204  1.00051   1.13305   
C -1.54847  0.41728   -1.07918  
H -1.72728  -0.36230  -1.82241  
13
image # 23 Energy = -286.75154
C 1.45347   0.16980   0.31693   
C 1.00631   -1.22953  0.57472   
C 1.74479   -2.31946  0.60024   
C -1.78400  1.70794   -0.77381  
C -0.71392  1.03439   0.03142   
N 0.73251   1.18724   -0.05836  
H 2.51312   0.35684   0.48190   
H -0.06391  -1.39166  0.73204   
H 1.54253   -3.38101  0.77771   
H -2.41450  2.59522   -0.88305  
H -0.91903  0.92310   1.10179   
C -1.57659  0.46456   -1.10667  
H -1.74482  -0.27611  -1.89428  
13
image # 24 Energy = -286.75362
C 1.44444   0.15780   0.33046   
C 1.04417   -1.25968  0.58510   
C 1.81210   -2.32351  0.73633   
C -1.79426  1.74157   -0.75590  
C -0.72392  1.02002   0.00940   
N 0.72320   1.15930   -0.05889  
H 2.50179   0.36960   0.50348   
H -0.02298  -1.48239  0.57985   
H 1.60421   -3.38370  0.89786   
H -2.45648  2.60983   -0.75959  
H -0.94051  0.85256   1.06789   
C -1.59216  0.52891   -1.19103  
H -1.81089  -0.14788  -2.02261  
13
image # 25 Energy = -286.75112
C 1.43401   0.14529   0.34018   
C 1.07368   -1.28221  0.59024   
C 1.86517   -2.31016  0.84590   
C -1.79258  1.78151   -0.73215  
C -0.74280  0.98139   -0.01877  
N 0.70360   1.13368   -0.04990  
H 2.48847   0.37753   0.50712   
H 0.02078   -1.54980  0.47383   
H 1.67294   -3.37527  0.99849   
H -2.47281  2.63349   -0.64527  
H -0.98754  0.72761   1.01748   
C -1.59442  0.60815   -1.26405  
H -1.86070  -0.02331  -2.11723  
13
image # 26 Energy = -286.75256
C 1.42034   0.13042   0.34516   
C 1.10836   -1.30963  0.59902   
C 1.92450   -2.28680  0.93387   
C -1.78266  1.82550   -0.70522  
C -0.76653  0.93022   -0.05062  
N 0.67169   1.10051   -0.04350  
H 2.47371   0.38650   0.49576   
H 0.07166   -1.62543  0.43453   
H 1.73807   -3.35490  1.10385   
H -2.47424  2.63426   -0.49535  
H -1.05777  0.58543   0.93815   
C -1.58004  0.70718   -1.35329  
H -1.91667  0.13782   -2.22534  
13
image # 27 Energy = -286.75277
C 1.41031   0.11119   0.34235   
C 1.13423   -1.32472  0.61441   
C 1.97938   -2.26834  0.99567   
C -1.75879  1.84899   -0.66928  
C -0.79704  0.88927   -0.10134  
N 0.63751   1.06363   -0.04456  
H 2.46143   0.39443   0.47142   
H 0.12203   -1.70518  0.45390   
H 1.79510   -3.31586  1.20197   
H -2.45848  2.61038   -0.33135  
H -1.14569  0.43810   0.84563   
C -1.56193  0.81427   -1.45026  
H -1.96004  0.32001   -2.32564  
13
image # 28 Energy = -286.75685
C 1.39421   0.10211   0.33605   
C 1.14977   -1.33885  0.63271   
C 2.01140   -2.23178  1.03896   
C -1.76045  1.87378   -0.62142  
C -0.81742  0.82501   -0.14775  
N 0.61058   1.02735   -0.05638  
H 2.44846   0.39086   0.44271   
H 0.13468   -1.74050  0.48558   
H 1.86180   -3.29117  1.28303   
H -2.42780  2.61281   -0.20634  
H -1.20167  0.27405   0.72225   
C -1.56124  0.91951   -1.48960  
H -1.95734  0.47498   -2.39501  
13
image # 29 Energy = -286.76026
C 1.39188   0.08650   0.32403   
C 1.14083   -1.33906  0.65310   
C 2.04785   -2.21428  1.08052   
C -1.76655  1.88803   -0.57319  
C -0.83558  0.76927   -0.19980  
N 0.57985   0.99840   -0.08197  
H 2.43544   0.38396   0.40820   
H 0.14147   -1.76732  0.53805   
H 1.91978   -3.25586  1.36039   
H -2.39242  2.59805   -0.08506  
H -1.24615  0.12673   0.58819   
C -1.56028  1.01460   -1.51033  
H -1.94700  0.63262   -2.46342  
13
image # 30 Energy = -286.76289
C 1.37565   0.06763   0.30166   
C 1.13996   -1.34390  0.68181   
C 2.06666   -2.19071  1.11294   
C -1.76324  1.87756   -0.53102  
C -0.85164  0.72677   -0.24657  
N 0.56021   0.97100   -0.11623  
H 2.43329   0.37732   0.37217   
H 0.13938   -1.78490  0.59754   
H 1.96879   -3.21816  1.43413   
H -2.36509  2.58299   0.03319   
H -1.27805  -0.00292  0.45244   
C -1.56980  1.08754   -1.54029  
H -1.92294  0.79119   -2.50969  
13
image # 31 Energy = -286.76556
C 1.36782   0.04561   0.27083   
C 1.12586   -1.33490  0.70854   
C 2.07075   -2.16612  1.14823   
C -1.76693  1.84539   -0.47359  
C -0.85687  0.68703   -0.27792  
N 0.54688   0.93599   -0.16769  
H 2.41841   0.36325   0.33164   
H 0.12995   -1.78455  0.66173   
H 2.02184   -3.17867  1.51243   
H -2.32678  2.56395   0.13511   
H -1.29447  -0.13276  0.29364   
C -1.59036  1.16834   -1.54411  
H -1.88995  0.94697   -2.56114  
13
image # 32 Energy = -286.76829
C 1.35867   0.03313   0.23658   
C 1.11410   -1.34025  0.73510   
C 2.05828   -2.13091  1.18546   
C -1.78570  1.81318   -0.40934  
C -0.86538  0.65131   -0.32890  
N 0.54072   0.89571   -0.22550  
H 2.40347   0.34119   0.28616   
H 0.10513   -1.76217  0.71769   
H 2.07432   -3.13874  1.59334   
H -2.28057  2.54451   0.21778   
H -1.28458  -0.25506  0.13592   
C -1.60989  1.22834   -1.52564  
H -1.84987  1.10065   -2.59547  
13
image # 33 Energy = -286.77107
C 1.34551   0.01045   0.20668   
C 1.08907   -1.33991  0.75078   
C 2.04705   -2.10847  1.23413   
C -1.81224  1.78524   -0.35166  
C -0.87565  0.60247   -0.38785  
N 0.52611   0.86172   -0.28789  
H 2.39572   0.31181   0.23734   
H 0.06131   -1.71578  0.74909   
H 2.13178   -3.09452  1.67310   
H -2.24150  2.54367   0.28582   
H -1.23799  -0.35883  -0.00764  
C -1.63246  1.25696   -1.51737  
H -1.79670  1.24519   -2.58453  
