13   
From qcts2.out: Frame 5 / 5, Energy=    -286.7808012396
C        1.4654978291    0.2701017705    0.3397065807
C        1.0914971679   -1.1840572982    0.4884132181
C        0.7837244936   -2.0057521936   -0.4870967366
C       -1.4835318726    1.2908638298   -1.0218046363
C       -0.7224398320    1.2575649783    0.2656561190
N        0.7272229639    1.2999530831    0.2599420606
H        2.5473606977    0.4462584056    0.3481804624
H        1.1910930428   -1.5697235819    1.5138956807
H        0.5465676644   -3.0553049146   -0.6036564065
H       -1.7130329042    1.8768970455   -1.8992560399
H       -1.0829948790    1.8553160100    1.1072345242
C       -1.5934196931    0.1861545465   -0.3404513770
H       -1.9971844973   -0.8107880839   -0.2620465332
