13   
From optimize.out: Frame 33 / 34, Energy=    -286.8584556587
C        1.5748599053    0.4457949738   -0.0860317622
C        0.8229557593   -0.8160969868    0.1166120050
C       -0.5200598419   -0.9688885888   -0.5830004170
C       -1.1192044585    0.3159568790   -0.0355108530
C       -0.3703706087    1.5798969100   -0.2390095761
N        0.9608892206    1.6152682476   -0.2557641101
H        2.6628065437    0.4376265632   -0.0979064375
H        1.4076710846   -1.7255910359    0.2501101110
H       -0.9239840208   -1.7415043410   -1.2229397507
H       -2.2059505343    0.3777711622   -0.0368483990
H       -0.9048727448    2.5181695490   -0.3803360835
C       -0.5012349421   -0.7476811506    0.8586617756
H       -0.8835053624   -1.2907221814    1.7119634976
13   
From optimize.out: Frame 32 / 34, Energy=    -286.8584483777
C        1.5752958251    0.4479644818   -0.0859873341
C        0.8170233531   -0.8065747502    0.1355287470
C       -0.5150606375   -0.9794521129   -0.5748010529
C       -1.1234102757    0.3149160867   -0.0090273778
C       -0.3668714987    1.5705259587   -0.2552329785
N        0.9646625670    1.6090463243   -0.2891153600
H        2.6625377453    0.4333591989   -0.1062886710
H        1.3991648231   -1.7118694231    0.2911974373
H       -0.9161791426   -1.6813800341   -1.2977861004
H       -2.2118360986    0.3654214075   -0.0070929363
H       -0.8967382706    2.5088143848   -0.3954623212
C       -0.5192217716   -0.7664980057    0.8618954122
H       -0.8693666181   -1.3042735167    1.7321725355
13   
From optimize.out: Frame 30 / 34, Energy=    -286.8584214792
C        1.5748044755    0.4457181817   -0.1028450747
C        0.8236018462   -0.8088651336    0.1530823874
C       -0.4994684647   -1.0059718267   -0.5418398788
C       -1.1095938144    0.3086145677    0.0149435616
C       -0.3725001074    1.5575761040   -0.2898547523
N        0.9589401903    1.5937857310   -0.3560128889
H        2.6627898347    0.4432978237   -0.0814104071
H        1.4151717481   -1.7072358036    0.3289293762
H       -0.9469624129   -1.5633413057   -1.3506302902
H       -2.1980127947    0.3601124659    0.0132047917
H       -0.9054558604    2.4989424136   -0.4043596971
C       -0.5197491709   -0.7725576492    0.8876727215
H       -0.8835654696   -1.3500755689    1.7291201506
13   
From optimize.out: Frame 29 / 34, Energy=    -286.8583943354
C        1.5743900668    0.4457874525   -0.1165456170
C        0.8335916434   -0.8123032579    0.1360199436
C       -0.4970252226   -1.0307366765   -0.5131597420
C       -1.0990489325    0.3026047670    0.0264997735
C       -0.3743141698    1.5480155523   -0.3097097417
N        0.9569910471    1.5877582645   -0.3907382323
H        2.6604777057    0.4567282971   -0.0532755706
H        1.4306119562   -1.7024233955    0.3316247548
H       -0.9678208396   -1.4994489774   -1.3627372439
H       -2.1879066239    0.3542905108    0.0126733855
H       -0.9022734698    2.4939617581   -0.4060577866
C       -0.5228104530   -0.7664850069    0.9175270637
H       -0.9048627080   -1.3777492882    1.7278790130
13   
From optimize.out: Frame 27 / 34, Energy=    -286.8582735639
C        1.5626845170    0.4373214738   -0.1267525401
C        0.8362637230   -0.8259794548    0.1127246594
C       -0.5098511348   -1.0624433189   -0.4595268171
C       -1.0906327263    0.2969919648    0.0337690536
C       -0.3800456498    1.5377411894   -0.3330934526
N        0.9502515742    1.5806961622   -0.4236626722
H        2.6441740544    0.4619170549   -0.0165137087
H        1.4388209940   -1.7096488838    0.3144027513
H       -0.9542052909   -1.4167330397   -1.3735896996
H       -2.1789640964    0.3472735884   -0.0037937060
H       -0.9000670759    2.4903516537   -0.4040801467
C       -0.5145429334   -0.7428888077    0.9512668834
H       -0.9038859550   -1.3945995822    1.7288493952
13   
From optimize.out: Frame 26 / 34, Energy=    -286.8581878949
C        1.5525841012    0.4178688975   -0.1369978027
C        0.8451085519   -0.8456384978    0.0524540519
C       -0.5312827024   -1.0912073004   -0.3895786345
C       -1.1016082788    0.2953472698    0.0349798664
C       -0.3887457239    1.5250491895   -0.3354867508
N        0.9367787392    1.5722168270   -0.4227371258
H        2.6279665132    0.4561833102    0.0119975837
H        1.4470649454   -1.7289946652    0.2546875641
H       -0.8912761270   -1.3733361904   -1.3657470312
H       -2.1860458053    0.3432952634   -0.0562482425
H       -0.8950284268    2.4875638523   -0.3857794234
C       -0.5113343242   -0.6857682150    0.9959011594
H       -0.9041814626   -1.3725797409    1.7425547853
13   
From optimize.out: Frame 25 / 34, Energy=    -286.8580173302
C        1.5548933413    0.4008350127   -0.1412211152
C        0.8723209214   -0.8586242620   -0.0075712950
C       -0.5255609735   -1.1075066248   -0.3469300894
C       -1.1249124800    0.2933610474    0.0309401080
C       -0.3913791688    1.5169258051   -0.3120531294
N        0.9261599231    1.5691339270   -0.3809473536
H        2.6284853717    0.4474943934    0.0116069628
H        1.4808511221   -1.7415205304    0.1777808919
H       -0.8667446487   -1.3880490416   -1.3304317118
H       -2.2019991825    0.3232469136   -0.1205754289
H       -0.8868200205    2.4865875875   -0.3628280307
C       -0.5294256685   -0.6214051340    1.0262389285
H       -0.9358685370   -1.3204790938    1.7559912627
13   
From optimize.out: Frame 23 / 34, Energy=    -286.8553170874
C        1.5593984311    0.3837982294   -0.1390545213
C        0.9005044248   -0.8724653305   -0.0564041021
C       -0.5162068730   -1.1229316505   -0.3198440269
C       -1.1537061781    0.2916817318    0.0284399676
C       -0.3956542690    1.5093854796   -0.2868489095
N        0.9161541851    1.5609019824   -0.3319488331
H        2.6338728845    0.4369353581    0.0049508239
H        1.5215519063   -1.7540700779    0.0973126945
H       -0.8459112390   -1.4082539306   -1.3075554691
H       -2.2217771720    0.3015695532   -0.1761248321
H       -0.8803507071    2.4853016109   -0.3459832711
C       -0.5497156052   -0.5536680515    1.0572375542
H       -0.9681597884   -1.2581849044    1.7758229249
13   
From optimize.out: Frame 22 / 34, Energy=    -286.8528959086
C        1.5587943694    0.3664752464   -0.1298511597
C        0.9185013165   -0.8894351765   -0.0984344542
C       -0.5098305984   -1.1437324439   -0.2986565154
C       -1.1843668790    0.2914143467    0.0226051447
C       -0.4028581042    1.5032081486   -0.2620350948
N        0.9055474382    1.5502355894   -0.2791077885
H        2.6347267637    0.4238086199    0.0029993957
H        1.5537585639   -1.7681474846    0.0188421416
H       -0.8280286029   -1.4360684592   -1.2904072438
H       -2.2405460589    0.2788601572   -0.2341965903
H       -0.8731977601    2.4870070302   -0.3258960857
C       -0.5563071804   -0.4749090033    1.0820458678
H       -0.9761932678   -1.1887165709    1.7920923825
13   
From optimize.out: Frame 20 / 34, Energy=    -286.8462926905
C        1.5504513031    0.3483837948   -0.1149098004
C        0.9236844012   -0.9129444452   -0.1287013640
C       -0.5015297461   -1.1754091079   -0.2977099637
C       -1.2161320928    0.2928273214    0.0141399561
C       -0.4118840450    1.5019462581   -0.2378732586
N        0.8949498279    1.5397118522   -0.2283143413
H        2.6269713104    0.4083379789    0.0118581174
H        1.5736539888   -1.7852624760   -0.0386228544
H       -0.8242511218   -1.4739014544   -1.2870475421
H       -2.2594004772    0.2533063575   -0.2845161019
H       -0.8670414136    2.4940751000   -0.2984339828
C       -0.5404825348   -0.3830236227    1.0899710157
H       -0.9489894001   -1.1080475569    1.8001601201
13   
From optimize.out: Frame 19 / 34, Energy=    -286.8428711912
C        1.5407962270    0.3298189263   -0.1002713385
C        0.9271175161   -0.9415420947   -0.1519317026
C       -0.4898047687   -1.2160634532   -0.3162444857
C       -1.2481142007    0.2974421396    0.0070602135
C       -0.4210064569    1.5068937223   -0.2149305680
N        0.8850147513    1.5308638174   -0.1853243825
H        2.6171994249    0.3943699231    0.0279596934
H        1.5902407404   -1.8062219138   -0.0716341290
H       -0.8302927209   -1.5218904940   -1.3003574541
H       -2.2818877362    0.2333087746   -0.3162574866
H       -0.8659893137    2.5051216690   -0.2665334519
C       -0.5138625504   -0.2908206016    1.0851279420
H       -0.9094109121   -1.0212804148    1.8033371500
13   
From optimize.out: Frame 17 / 34, Energy=    -286.8334788919
C        1.5335548904    0.3104388660   -0.0874151014
C        0.9333037863   -0.9729639633   -0.1691015964
C       -0.4792838715   -1.2593815999   -0.3432825237
C       -1.2792547517    0.3055150880    0.0007040282
C       -0.4315509457    1.5173445823   -0.1940833333
N        0.8750247982    1.5245915273   -0.1500794791
H        2.6097456480    0.3824437581    0.0485646507
H        1.6059344391   -1.8316686215   -0.0828229319
H       -0.8437514243   -1.5786799511   -1.3233654925
H       -2.3080641983    0.2217768553   -0.3327176773
H       -0.8713450534    2.5194463446   -0.2317703590
C       -0.4808584445   -0.2042542370    1.0679928614
H       -0.8634548726   -0.9346086486    1.7973769544
13   
From optimize.out: Frame 16 / 34, Energy=    -286.8277960833
C        1.5304247121    0.2904574517   -0.0745439188
C        0.9426279050   -1.0040443685   -0.1811496257
C       -0.4730777638   -1.2990324387   -0.3699738907
C       -1.3082597120    0.3149408658   -0.0061577157
C       -0.4448251176    1.5302065870   -0.1765558057
N        0.8648404350    1.5194173964   -0.1197299025
H        2.6064906111    0.3711996492    0.0741549583
H        1.6208566103   -1.8595664485   -0.0798189412
H       -0.8671434295   -1.6381410219   -1.3490042296
H       -2.3354368178    0.2147513560   -0.3404438874
H       -0.8826956986    2.5345146731   -0.1973932352
C       -0.4433317681   -0.1238356965    1.0400967970
H       -0.8104699662   -0.8508680050    1.7805193972
13   
From optimize.out: Frame 15 / 34, Energy=    -286.8212172670
C        1.5345870524    0.2705460957   -0.0599483557
C        0.9550810579   -1.0313726289   -0.1878684579
C       -0.4714739958   -1.3293078676   -0.3924082124
C       -1.3348033073    0.3236371490   -0.0138293026
C       -0.4618335551    1.5413896497   -0.1637224636
N        0.8551809408    1.5094788587   -0.0915763279
H        2.6104063885    0.3603013924    0.1040561887
H        1.6348406533   -1.8869365026   -0.0672112228
H       -0.9037023914   -1.6937847292   -1.3765997088
H       -2.3627330955    0.2082854119   -0.3420673326
H       -0.9013058714    2.5459619663   -0.1656217071
C       -0.4034230394   -0.0491438575    1.0030487661
H       -0.7508208369   -0.7690549379    1.7537481365
13   
From optimize.out: Frame 13 / 34, Energy=    -286.8048234795
C        1.5538952254    0.2547232306   -0.0468295704
C        0.9724896755   -1.0551465092   -0.1890285809
C       -0.4749969076   -1.3485449749   -0.4097242903
C       -1.3625825167    0.3308734229   -0.0212024991
C       -0.4823392853    1.5493480056   -0.1528237994
N        0.8466591611    1.4918455869   -0.0657902218
H        2.6313634716    0.3535031540    0.1323549471
H        1.6515020963   -1.9141231802   -0.0453380969
H       -0.9545202913   -1.7435711725   -1.4058239312
H       -2.3930762883    0.2029586039   -0.3427151304
H       -0.9281764210    2.5524944672   -0.1359180781
C       -0.3667150098    0.0170969805    0.9637894843
H       -0.6935029099   -0.6914576146    1.7190497672
13   
From optimize.out: Frame 12 / 34, Energy=    -286.7954760785
C        1.5645852075    0.2470947306   -0.0290206417
C        0.9784185695   -1.0807422095   -0.1880107723
C       -0.4751902858   -1.3649250258   -0.4298287815
C       -1.3779618247    0.3444433057   -0.0274162155
C       -0.4989342540    1.5630104744   -0.1616239709
N        0.8415105283    1.4803040447   -0.0511863219
H        2.6401409612    0.3505069657    0.1741194646
H        1.6633849892   -1.9343207813   -0.0185709919
H       -1.0173619448   -1.7828061409   -1.4266307239
H       -2.4212702621    0.1895727504   -0.3212339642
H       -0.9421747231    2.5666698750   -0.1250731463
C       -0.3221547480    0.0692838572    0.9354304306
H       -0.6329922132   -0.6480918463    1.6690456348
13   
From optimize.out: Frame 10 / 34, Energy=    -286.7759771218
C        1.5659440399    0.2475722115   -0.0182906099
C        0.9654338456   -1.1138030826   -0.2169789309
C       -0.4516485926   -1.3947039843   -0.4766186478
C       -1.3749155485    0.3755239211   -0.0388065177
C       -0.5147614318    1.5989267804   -0.1990480356
N        0.8557602878    1.4802089045   -0.0484064640
H        2.6157479701    0.3474340662    0.2427048315
H        1.6721346012   -1.9326398868   -0.0435738233
H       -1.0413760037   -1.8020008973   -1.4116123723
H       -2.4433603631    0.1361688798   -0.2439556798
H       -0.9201330065    2.6059802635   -0.1537765831
C       -0.3063099697    0.1133073040    0.9623576327
H       -0.6225158287   -0.6619744801    1.6460052002
13   
From optimize.out: Frame 9 / 34, Energy=    -286.7646887803
C        1.5572346405    0.2441731218   -0.0095658713
C        0.9492004609   -1.1381929204   -0.2534730410
C       -0.4334708848   -1.4150511654   -0.5340381189
C       -1.3670291902    0.4031656060   -0.0580806941
C       -0.5282499825    1.6344542196   -0.2367993865
N        0.8625034565    1.4838215878   -0.0477966063
H        2.5817349359    0.3389417398    0.3102382941
H        1.6702481764   -1.9323335359   -0.0933406177
H       -1.0196513579   -1.8066330246   -1.3651720259
H       -2.4390401015    0.0996231736   -0.1679139233
H       -0.8999572012    2.6436861019   -0.1899934824
C       -0.3146128636    0.1369851972    0.9847909517
H       -0.6189100885   -0.6926401014    1.6611445216
13   
From optimize.out: Frame 8 / 34, Energy=    -286.7510723139
C        1.5436638916    0.2426262035   -0.0000125221
C        0.9287764646   -1.1410582320   -0.2783099662
C       -0.4316060803   -1.4015514209   -0.5784995905
C       -1.3458636956    0.4025745475   -0.0656536556
C       -0.5312977521    1.6446917114   -0.2629144555
N        0.8640372696    1.4898822304   -0.0488516326
H        2.5555920553    0.3281407935    0.3606003489
H        1.6514525819   -1.9327204529   -0.1313228487
H       -1.0053227776   -1.7868063762   -1.3520679907
H       -2.4063671467    0.0619765807   -0.1187977022
H       -0.8946057321    2.6543896044   -0.2292297318
C       -0.3203014512    0.1449511874    1.0098810124
H       -0.6081576274   -0.7070963768    1.6951787347
13   
From optimize.out: Frame 6 / 34, Energy=    -286.7147976360
C        1.5342861271    0.2462938282    0.0101554433
C        0.9022715774   -1.1188104535   -0.2830444183
C       -0.4549248311   -1.3422044537   -0.6036864923
C       -1.3065252531    0.3612445725   -0.0548331376
C       -0.5203484114    1.6155310457   -0.2746943130
N        0.8675033583    1.4948687302   -0.0513985968
H        2.5422596913    0.3176456957    0.3836979591
H        1.6042768364   -1.9272889942   -0.1323151288
H       -1.0227092499   -1.7114297846   -1.3915837025
H       -2.3569566769   -0.0003231256   -0.1114847409
H       -0.9048548694    2.6163110298   -0.2685968779
C       -0.3006148904    0.1445339406    1.0392206090
H       -0.5836634081   -0.6963720312    1.7385633967
13   
From optimize.out: Frame 5 / 34, Energy=    -286.6920170815
C        1.5249083626    0.2499614530    0.0203234087
C        0.8757666902   -1.0965626750   -0.2877788703
C       -0.4782435819   -1.2828574864   -0.6288733941
C       -1.2671868106    0.3199145976   -0.0440126196
C       -0.5093990707    1.5863703799   -0.2864741704
N        0.8709694470    1.4998552300   -0.0539455610
H        2.5289273273    0.3071505979    0.4067955693
H        1.5571010909   -1.9218575355   -0.1333074088
H       -1.0400957223   -1.6360531929   -1.4310994143
H       -2.3075462072   -0.0626228319   -0.1041717796
H       -0.9151040067    2.5782324553   -0.3079640241
C       -0.2809283296    0.1441166939    1.0685602056
H       -0.5591691888   -0.6856476857    1.7819480587
13   
From optimize.out: Frame 3 / 34, Energy=    -286.6361401641
C        1.5155305981    0.2536290778    0.0304913741
C        0.8492618030   -1.0743148965   -0.2925133224
C       -0.5015623328   -1.2235105191   -0.6540602960
C       -1.2278483682    0.2785846226   -0.0331921015
C       -0.4984497300    1.5572097142   -0.2982540279
N        0.8744355357    1.5048417298   -0.0564925252
H        2.5155949632    0.2966555001    0.4298931794
H        1.5099253454   -1.9164260768   -0.1342996889
H       -1.0574821946   -1.5606766013   -1.4706151260
H       -2.2581357375   -0.1249225382   -0.0968588183
H       -0.9253531440    2.5401538807   -0.3473311702
C       -0.2612417688    0.1436994471    1.0978998022
H       -0.5346749696   -0.6749233402    1.8253327207
13   
From optimize.out: Frame 2 / 34, Energy=    -286.6015441328
C        1.5061528335    0.2572967025    0.0406593395
C        0.8227569158   -1.0520671181   -0.2972477745
C       -0.5248810836   -1.1641635518   -0.6792471978
C       -1.1885099257    0.2372546477   -0.0223715835
C       -0.4875003893    1.5280490484   -0.3100338853
N        0.8779016244    1.5098282296   -0.0590394894
H        2.5022625992    0.2861604022    0.4529907896
H        1.4627495999   -1.9109946181   -0.1352919689
H       -1.0748686670   -1.4853000097   -1.5101308378
H       -2.2087252678   -0.1872222444   -0.0895458570
H       -0.9356022812    2.5020753061   -0.3866983163
C       -0.2415552080    0.1432822003    1.1272393988
H       -0.5101807503   -0.6641989947    1.8687173827
13   
From optimize.out: Frame 1 / 34, Energy=    -286.5637887220
C        1.4937869886    0.2586743499    0.0506628778
C        0.7984549461   -1.0336740151   -0.3041480950
C       -0.5424902844   -1.1113976155   -0.7114946563
C       -1.1540068764    0.2011969879   -0.0065391194
C       -0.4778858726    1.4999727690   -0.3215476878
N        0.8792178959    1.5125756535   -0.0638546968
H        2.4845456191    0.2747266164    0.4781493608
H        1.4190529927   -1.9076878813   -0.1368282099
H       -1.0808353296   -1.4185366986   -1.5588297861
H       -2.1663793457   -0.2388640658   -0.0730606508
H       -0.9441832693    2.4656194922   -0.4257099931
C       -0.2227296741    0.1457400627    1.1580687204
H       -0.4865477904   -0.6483456553    1.9151319363
13   
C5H5N+CH->C6H6N atoms 1-13 frame 105 charge +0.000 sz -1.000 sz^2 0.523
C        1.4691823923    0.2506725762    0.0599929463
C        0.7831758122   -1.0310691136   -0.3199195037
C       -0.5367139830   -1.0855866436   -0.7726611483
C       -1.1393089078    0.1867339795    0.0298215614
C       -0.4737386046    1.4763379814   -0.3319717671
N        0.8717288232    1.5061521418   -0.0779603045
H        2.4488698767    0.2594480981    0.5117493342
H        1.3896064398   -1.9130837019   -0.1405924373
H       -1.0400280801   -1.3870521563   -1.6451419618
H       -2.1529688031   -0.2468527105   -0.0190072373
H       -0.9459317560    2.4358102748   -0.4632657181
C       -0.2074307836    0.1599739623    1.1949997429
H       -0.4664424260   -0.6114846881    1.9739564934
13   
C5H5N+CH->C6H6N atoms 1-13 frame 106 charge -0.000 sz -1.000 sz^2 0.519
C        1.4445777961    0.2426708026    0.0693230148
C        0.7678966782   -1.0284642121   -0.3356909125
C       -0.5309376815   -1.0597756717   -0.8338276403
C       -1.1246109392    0.1722709711    0.0661822422
C       -0.4695913366    1.4527031938   -0.3423958464
N        0.8642397504    1.4997286301   -0.0920659122
H        2.4131941342    0.2441695798    0.5453493077
H        1.3601598870   -1.9184795226   -0.1443566647
H       -0.9992208306   -1.3555676141   -1.7314541375
H       -2.1395582605   -0.2548413552    0.0350461762
H       -0.9476802426    2.4060010573   -0.5008214431
C       -0.1921318931    0.1742078619    1.2319307654
H       -0.4463370616   -0.5746237209    2.0327810505
13   
C5H5N+CH->C6H6N atoms 1-13 frame 108 charge +0.000 sz -1.000 sz^2 0.505
C        1.4199731998    0.2346690289    0.0786530834
C        0.7526175443   -1.0258593105   -0.3514623212
C       -0.5251613800   -1.0339646998   -0.8949941323
C       -1.1099129707    0.1578079627    0.1025429229
C       -0.4654440686    1.4290684062   -0.3528199257
N        0.8567506776    1.4933051184   -0.1061715200
H        2.3775183918    0.2288910615    0.5789492811
H        1.3307133341   -1.9238753433   -0.1481208921
H       -0.9584135812   -1.3240830718   -1.8177663132
H       -2.1261477179   -0.2628299999    0.0890995897
H       -0.9494287293    2.3761918399   -0.5383771681
C       -0.1768330026    0.1884417614    1.2688617879
H       -0.4262316972   -0.5377627538    2.0916056076
13   
C5H5N+CH->C6H6N atoms 1-13 frame 109 charge +0.000 sz -1.000 sz^2 0.500
C        1.3904503749    0.2341075646    0.0868928259
C        0.7378317496   -1.0171380410   -0.3484860105
C       -0.5286312839   -0.9959136564   -0.8939432641
C       -1.0851498909    0.1436700962    0.1064281661
C       -0.4542716177    1.4136605533   -0.3669601583
N        0.8454060664    1.4932865134   -0.1215509991
H        2.3450077038    0.2247809001    0.5962538098
H        1.3081475134   -1.9227820937   -0.1465920483
H       -0.9530315484   -1.2829147443   -1.8312704856
H       -2.1041026904   -0.2609788044    0.0960944086
H       -0.9442169586    2.3581593712   -0.5641682658
C       -0.1557884212    0.1670559277    1.2809141028
H       -0.4016509971   -0.5549935867    2.1063879185
13   
C5H5N+CH->C6H6N atoms 1-13 frame 111 charge +0.000 sz -1.000 sz^2 0.507
C        1.3559487144    0.2410780962    0.0940288065
C        0.7235453738   -1.0022250319   -0.3265309531
C       -0.5414613337   -0.9454717079   -0.8299083343
C       -1.0501976679    0.1298613782    0.0774377785
C       -0.4359874130    1.4065810153   -0.3848623380
N        0.8301584054    1.4997517424   -0.1382200475
H        2.3157010729    0.2319767226    0.5970620859
H        1.2925472158   -1.9151198094   -0.1397049071
H       -0.9835112755   -1.2319432987   -1.7710694454
H       -2.0733167757   -0.2491665128    0.0554507321
H       -0.9319591594    2.3520487755   -0.5780497613
C       -0.1289273451    0.1096114205    1.2677811309
H       -0.3725398118   -0.6269827902    2.0765852527
13   
C5H5N+CH->C6H6N atoms 1-13 frame 112 charge +0.000 sz -1.000 sz^2 0.520
C        1.3491565041    0.2408465160    0.0880998347
C        0.7490270019   -1.0066037533   -0.3195599807
C       -0.5186511233   -0.9542900883   -0.7808015234
C       -1.0625852924    0.1480529677    0.0624874894
C       -0.4351048420    1.4166926884   -0.3842563168
N        0.8161599351    1.4966245536   -0.1466521067
H        2.3181532569    0.2445437568    0.5736101690
H        1.3359945858   -1.9124061510   -0.1505932311
H       -0.9834166763   -1.2471488805   -1.7155262203
H       -2.0924428471   -0.1969275038    0.0336528641
H       -0.9161058405    2.3731149357   -0.5681012959
C       -0.1513560385    0.0715037614    1.2577562290
H       -0.4088286237   -0.6740028025    2.0498840888
13   
C5H5N+CH->C6H6N atoms 1-13 frame 113 charge +0.000 sz -1.000 sz^2 0.537
C        1.3522491562    0.2380457082    0.0775101693
C        0.7886951709   -1.0178644626   -0.3179343189
C       -0.4831268725   -0.9842485558   -0.7370200581
C       -1.0918605805    0.1776601077    0.0525457601
C       -0.4404299999    1.4329370256   -0.3770478182
N        0.8026070918    1.4900754373   -0.1521457639
H        2.3319348434    0.2590268768    0.5415038521
H        1.4005061797   -1.9114578286   -0.1678226418
H       -0.9724152204   -1.2859619606   -1.6616445893
H       -2.1293741476   -0.1302669697    0.0185779091
H       -0.8989698828    2.4038759288   -0.5496519084
C       -0.1913679963    0.0402941850    1.2488400766
H       -0.4684477420   -0.7121154921    2.0242893314
13   
From optimize.out: Frame 2 / 24, Energy=    -286.6491115880
C        1.3553418083    0.2352449004    0.0669205040
C        0.8283633398   -1.0291251719   -0.3163086571
C       -0.4476026218   -1.0142070234   -0.6932385927
C       -1.1211358686    0.2072672477    0.0426040308
C       -0.4457551578    1.4491813628   -0.3698393196
N        0.7890542486    1.4835263209   -0.1576394212
H        2.3457164299    0.2735099969    0.5093975352
H        1.4650177736   -1.9105095061   -0.1850520525
H       -0.9614137645   -1.3247750408   -1.6077629583
H       -2.1663054481   -0.0636064356    0.0035029540
H       -0.8818339251    2.4346369219   -0.5312025208
C       -0.2313799540    0.0090846087    1.2399239243
H       -0.5280668604   -0.7502281816    1.9986945740
13   
From optimize.out: Frame 3 / 24, Energy=    -286.6721216232
C        1.3503118329    0.2340406744    0.0678639044
C        0.8526111043   -1.0366597132   -0.3155934594
C       -0.4282470738   -1.0413220470   -0.6644466154
C       -1.1363020032    0.2319748013    0.0362491646
C       -0.4487018473    1.4650706115   -0.3677324894
N        0.7810402851    1.4822359715   -0.1649214912
H        2.3481042445    0.2816256697    0.4962751958
H        1.5098783515   -1.9077413165   -0.2014023340
H       -0.9558897687   -1.3645805086   -1.5719664651
H       -2.1879278449   -0.0083087820   -0.0019733276
H       -0.8710852449    2.4600753994   -0.5225747870
C       -0.2532435494   -0.0153270020    1.2322430759
H       -0.5605484861   -0.7810837583    1.9779796284
13   
From optimize.out: Frame 5 / 24, Energy=    -286.7106062759
C        1.3127926335    0.2392225225    0.1149377419
C        0.8151796931   -1.0292901728   -0.3185199736
C       -0.4735637763   -1.0570637452   -0.6956102163
C       -1.0950337575    0.2370847847    0.0442411825
C       -0.4421350403    1.4795395621   -0.3860315246
N        0.7951809634    1.5019798569   -0.1793569290
H        2.3049187753    0.2642725616    0.5590857603
H        1.4761379769   -1.8976939465   -0.2142362380
H       -0.9722747459   -1.4083553701   -1.6085076591
H       -2.1483170506    0.0015391488    0.0309435647
H       -0.8858846637    2.4642246573   -0.5532321131
C       -0.2025165696   -0.0125478267    1.2295032472
H       -0.4844844382   -0.7829120323    1.9767831573
13   
From optimize.out: Frame 6 / 24, Energy=    -286.7440823765
C        1.2902396484    0.2332527839    0.1550509780
C        0.7926810549   -1.0306593177   -0.3198527858
C       -0.4937061761   -1.0313992062   -0.7351042293
C       -1.0762354429    0.2266603375    0.0607683622
C       -0.4484857262    1.4688734003   -0.4114563679
N        0.8009754891    1.5013108856   -0.1959692882
H        2.2721447914    0.2445172379    0.6209081705
H        1.4373338167   -1.9093806646   -0.2137269501
H       -0.9757851517   -1.3740369030   -1.6568582015
H       -2.1319632319   -0.0044389566    0.0778042430
H       -0.9082804260    2.4420973540   -0.5984793195
C       -0.1551201812   -0.0026060944    1.2274205679
H       -0.4037984643   -0.7641908569    1.9894948206
13   
From optimize.out: Frame 7 / 24, Energy=    -286.7734394401
C        1.2699368083    0.2256064231    0.1941176994
C        0.7724275340   -1.0333423091   -0.3209459875
C       -0.5100636619   -0.9995093091   -0.7758507057
C       -1.0608154446    0.2139003149    0.0785787891
C       -0.4567785355    1.4544282167   -0.4379525644
N        0.8055151847    1.4975728757   -0.2129089438
H        2.2409361568    0.2244007451    0.6825820133
H        1.3977683248   -1.9243350662   -0.2112115357
H       -0.9773598874   -1.3279772355   -1.7069842595
H       -2.1191060602   -0.0127964798    0.1267613462
H       -0.9318182858    2.4160194141   -0.6459200899
C       -0.1082245417    0.0084125164    1.2254366900
H       -0.3224175916   -0.7423801064    2.0042975485
13   
From optimize.out: Frame 9 / 24, Energy=    -286.8090541289
C        1.2236399515    0.2212934442    0.2492629575
C        0.7528300972   -1.0389588555   -0.3215484809
C       -0.5309888757   -0.9970410739   -0.7943214647
C       -1.0420159010    0.2185378303    0.0869270595
C       -0.4557942398    1.4586543728   -0.4608575884
N        0.8090819958    1.4962682539   -0.2394989101
H        2.1889775027    0.2171648636    0.7489985944
H        1.3773172186   -1.9303520072   -0.2220594113
H       -0.9871278519   -1.3323944068   -1.7267980354
H       -2.1042472569    0.0128962080    0.1699052372
H       -0.9366940279    2.4129047263   -0.6862453844
C       -0.0563372736    0.0048948547    1.2069466937
H       -0.2386413389   -0.7438682105    1.9892887330
13   
From optimize.out: Frame 10 / 24, Energy=    -286.8230493891
C        1.2019536469    0.2138218819    0.3082857758
C        0.7720497128   -1.0411938293   -0.3461967802
C       -0.5305996681   -0.9996194606   -0.7952702168
C       -1.0493815542    0.2170394309    0.0955063289
C       -0.4550587683    1.4535792640   -0.4721527274
N        0.8154530348    1.4840983926   -0.2535502988
H        2.1752163474    0.2196228789    0.7926544393
H        1.4161658509   -1.9201079835   -0.3016770984
H       -0.9948709378   -1.3352649193   -1.7207079065
H       -2.1201173398    0.0511832966    0.1918170368
H       -0.9322067658    2.3998489845   -0.7305945314
C       -0.0606164651   -0.0020468594    1.2229329163
H       -0.2379870937   -0.7409610775    2.0089530624
13   
From optimize.out: Frame 12 / 24, Energy=    -286.8405214169
C        1.1854577621    0.1965187080    0.3591984575
C        0.8046542887   -1.0414739843   -0.3900502553
C       -0.5176520754   -1.0060460242   -0.7904518015
C       -1.0593459086    0.2122494863    0.1020220430
C       -0.4522965215    1.4489926470   -0.4731255369
N        0.8178287070    1.4721192500   -0.2427902021
H        2.1677168614    0.2148282292    0.8257054145
H        1.4738344789   -1.8997941929   -0.4165716066
H       -1.0004164697   -1.3416666338   -1.7036650736
H       -2.1378326533    0.0762316994    0.1886401351
H       -0.9268060271    2.3835965379   -0.7709931400