13   
From optimize.out: Frame 1 / 2, Energy=    -286.8405101568
C        1.3124298484   -0.0975946439    0.0436157441
C        0.4498855437   -1.2273034426    0.4519224280
C       -0.8926964123   -1.1033291819    0.4848436928
C       -1.5382567658    0.1827420806    0.2616387570
C       -0.8211695858    1.2682934622   -0.0838731046
N        0.5722795659    1.2083535336   -0.3343067327
H        2.2232983203    0.0643887170    0.6254488622
H        0.9378922942   -2.1508412213    0.7558459933
H       -1.5110716912   -1.9466871404    0.7809235959
H       -2.5984363969    0.2871612308    0.4746464774
H       -1.2414452168    2.2700125292   -0.1119807278
C        1.1871675708    0.4342154903   -1.3192912543
H        1.9201229259    0.8105885861   -2.0294337316
13   
From optimize.out: Frame 30 / 31, Energy=    -286.8405101568
C        1.3194998250   -0.1164167398    0.0198107581
C        0.4446790681   -1.2409876726    0.4518051553
C       -0.8935479127   -1.1025147446    0.5093963393
C       -1.5401451752    0.1729104757    0.2312423685
C       -0.8193770471    1.2618297121   -0.0916522588
N        0.5954325969    1.2226959555   -0.2817449328
H        2.2435103740    0.0163822611    0.5866556879
H        0.9304029127   -2.1585147091    0.7744329268
H       -1.5132614221   -1.9288404499    0.8486420831
H       -2.6054726742    0.2775814896    0.4145939683
H       -1.2409665252    2.2608888629   -0.1253351345
C        1.1821212433    0.4738960793   -1.3083617514
H        1.8971247367    0.8610894797   -2.0294852098
13   
From optimize.out: Frame 29 / 31, Energy=    -286.8405050267
C        1.3142451263   -0.1142861917    0.0155640786
C        0.4371711431   -1.2592288553    0.4485921164
C       -0.8938420236   -1.1020096205    0.5515816501
C       -1.5371000930    0.1759026102    0.2478734917
C       -0.8090529434    1.2594671497   -0.0737592389
N        0.6223242591    1.2310238079   -0.2169513220
H        2.2602893834   -0.0287261354    0.5552663949
H        0.9208394764   -2.1833750116    0.7542427781
H       -1.5131529689   -1.9238202572    0.8998812586
H       -2.6120413125    0.2698717288    0.3621714170
H       -1.2388695881    2.2440479726   -0.2173571174
C        1.1795536726    0.5195919136   -1.2937498030
H        1.8696358686    0.9115408890   -2.0333557040
13   
From optimize.out: Frame 28 / 31, Energy=    -286.8404918441
C        1.2970422292   -0.1035732196    0.0054200115
C        0.4246650257   -1.2707690572    0.4244974939
C       -0.8988734062   -1.1032299075    0.5864150494
C       -1.5433397236    0.1751020352    0.2733384641
C       -0.8106618733    1.2494661288   -0.0698264128
N        0.6240343537    1.2401477157   -0.1916687050
H        2.2515154324   -0.0679905674    0.5401359377
H        0.9093894830   -2.1968363891    0.7142194437
H       -1.5097747892   -1.9165562118    0.9654977779
H       -2.6209825915    0.2653685246    0.3644784802
H       -1.2457285690    2.2198148434   -0.2874422298
C        1.2007666642    0.5642127315   -1.3054010488
H        1.9219477646    0.9448433734   -2.0196642620
13   
From optimize.out: Frame 26 / 31, Energy=    -286.8404509770
C        1.2886487608   -0.1077387438    0.0108670304
C        0.4321148466   -1.2639443411    0.4293395403
C       -0.8910977674   -1.0972170842    0.5867250100
C       -1.5425820660    0.1792478270    0.2618186148
C       -0.8079230175    1.2576975040   -0.0619453719
N        0.6288581749    1.2479643485   -0.1539520164
H        2.2627908072   -0.0892762976    0.5121255458
H        0.9190994510   -2.1902158576    0.7213170056
H       -1.4979313917   -1.9152653540    0.9624419961
H       -2.6216614727    0.2592378522    0.3310757069
H       -1.2395444778    2.2256725598   -0.2971951527
C        1.1803557079    0.5539115022   -1.2902801704
H        1.8888724446    0.9399260846   -2.0123377387
13   
From optimize.out: Frame 24 / 31, Energy=    -286.8402287879
C        1.3005038646   -0.1138992549    0.0299266773
C        0.4402512819   -1.2609885955    0.4594762763
C       -0.8835769034   -1.0935797105    0.5774058030
C       -1.5367679466    0.1897798448    0.2474791232
C       -0.7961916588    1.2715099283   -0.0488020304
N        0.6409569621    1.2510343135   -0.1194216515
H        2.3086680429   -0.0849047045    0.4663376671
H        0.9245802791   -2.1924996400    0.7568830403
H       -1.4950894548   -1.9233198548    0.9192897563
H       -2.6188203212    0.2572807257    0.2725929972
H       -1.2211745691    2.2381452714   -0.2998244566
C        1.1476588646    0.5092145591   -1.2566319741
H        1.7890015587    0.9522271174   -2.0047112282
13   
From optimize.out: Frame 23 / 31, Energy=    -286.8400005792
C        1.3110402378   -0.1074418607    0.0338895595
C        0.4177288396   -1.2836013290    0.4725792488
C       -0.8979770876   -1.1086595974    0.5965066729
C       -1.5302073212    0.1875447780    0.2724324879
C       -0.7817003594    1.2476190558   -0.0720248419
N        0.6419328235    1.2385897265   -0.1541371719
H        2.3286778006   -0.0816301207    0.4398205081
H        0.8983304228   -2.2212404544    0.7578506398
H       -1.5252123182   -1.9230148120    0.9415178826
H       -2.6105177502    0.2768410226    0.2970186204
H       -1.2152041152    2.2022731850   -0.3511084215
C        1.1727404697    0.5192498179   -1.2631391099
H        1.7903683578    1.0534705883   -1.9712060749
13   
From optimize.out: Frame 21 / 31, Energy=    -286.8383599967
C        1.2752260790   -0.1143093890    0.0290278523
C        0.4122244087   -1.2851318921    0.4863045666
C       -0.9007356057   -1.1157015686    0.6205132419
C       -1.5144028068    0.1720147392    0.2623973025
C       -0.7567801739    1.2219110115   -0.0963359907
N        0.6492540191    1.2330236641   -0.1386597605
H        2.3046645186   -0.1483576895    0.3938554412
H        0.9051253040   -2.2143420453    0.7749540518
H       -1.5396743488   -1.9075133053    0.9914641614
H       -2.5927913578    0.2860585560    0.2836061092
H       -1.2010708649    2.1692286433   -0.3842344225
C        1.1565593540    0.5629296153   -1.2874647448
H        1.8024014745    1.1401896603   -1.9354278086
13   
From optimize.out: Frame 20 / 31, Energy=    -286.8373712531
C        1.2445394207   -0.1190216059    0.0136201515
C        0.4136968138   -1.2741644885    0.5092154618
C       -0.9065739907   -1.1190370532    0.6321221396
C       -1.5021825629    0.1522405035    0.2434525943
C       -0.7254624692    1.2023375821   -0.1097302063
N        0.6577194653    1.2278427830   -0.1011094374
H        2.2822723155   -0.1886536528    0.3437508384
H        0.9172271245   -2.1910156964    0.8055130335
H       -1.5540522698   -1.8945854932    1.0225895282
H       -2.5788193248    0.2860287944    0.2505077178
H       -1.1784606106    2.1525202587   -0.3790107433
C        1.1253046949    0.5555431072   -1.3460597307
H        1.8047913932    1.2099649611   -1.8848613473
13   
From optimize.out: Frame 19 / 31, Energy=    -286.8353689595
C        1.2355181609   -0.1340849853    0.0014017875
C        0.4188971941   -1.2506398314    0.5421575065
C       -0.9131232057   -1.1200506618    0.6276474638
C       -1.4851789274    0.1344797861    0.2163509187
C       -0.6851771370    1.1840047989   -0.1171535199
N        0.6772778011    1.2080312650   -0.0614766194
H        2.2781454436   -0.2010790544    0.3069284173
H        0.9422628353   -2.1516789067    0.8404365398
H       -1.5775415006   -1.8841818238    1.0196839044
H       -2.5604393227    0.2853032202    0.1986283150
H       -1.1427172070    2.1425175475   -0.3574604983
C        1.0601966239    0.5366808825   -1.3819187169
H        1.7518792414    1.2506977632   -1.8352254986
13   
From optimize.out: Frame 18 / 31, Energy=    -286.8335889647
C        1.2255014801   -0.1544360603   -0.0191214030
C        0.4272510980   -1.2208520005    0.5624520172
C       -0.9170200346   -1.1130258807    0.6140201055
C       -1.4781515465    0.1206644919    0.1798707628
C       -0.6595607755    1.1782901936   -0.1125178852
N        0.6868444484    1.1849906195   -0.0282052752
H        2.2730637441   -0.1859171259    0.2698676042
H        0.9721039744   -2.1057098489    0.8679663663
H       -1.5859608702   -1.8731518734    1.0145449654
H       -2.5529133047    0.2784271346    0.1442375866
H       -1.1165762422    2.1518125395   -0.2970843157
C        1.0109209636    0.4883195679   -1.4207283708
H        1.7144970652    1.2505882428   -1.7753021581
13   
From optimize.out: Frame 17 / 31, Energy=    -286.8311844337
C        1.2168943884   -0.1664262435   -0.0457392736
C        0.4344945143   -1.2011561055    0.5658541936
C       -0.9211708307   -1.1021371323    0.5946946273
C       -1.4869381194    0.1152666985    0.1510442768
C       -0.6559580136    1.1893581169   -0.0949427815
N        0.6828629783    1.1726621536   -0.0109412472
H        2.2692468019   -0.1307527057    0.2366826561
H        0.9843967588   -2.0788614121    0.8874641330
H       -1.5751600959   -1.8711444595    1.0067919835
H       -2.5620831461    0.2678702175    0.1100558417
H       -1.1071808542    2.1774282295   -0.2144369025
C        1.0098499599    0.4073686509   -1.4674590140
H        1.7107456583    1.2205239916   -1.7190684930
13   
From optimize.out: Frame 15 / 31, Energy=    -286.8233446887
C        1.2184910684   -0.1468700002   -0.0510315080
C        0.4397303928   -1.1867880999    0.5684353355
C       -0.9213873385   -1.0953837594    0.5737430243
C       -1.4983039637    0.1185937206    0.1396571470
C       -0.6661044422    1.2126387116   -0.0609301660
N        0.6697963814    1.1900433532    0.0162146007
H        2.2716593901   -0.0796825016    0.2359479295
H        0.9838493414   -2.0656654732    0.9018219341
H       -1.5606060178   -1.8842077148    0.9706780164
H       -2.5744032983    0.2555715637    0.0859780961
H       -1.1167398433    2.2053202669   -0.1355568557
C        1.0360632467    0.3201398697   -1.5031369049
H        1.7179550829    1.1562900633   -1.7418206491
13   
From optimize.out: Frame 13 / 31, Energy=    -286.8019991563
C        1.2187651599   -0.1183402376   -0.0572749298
C        0.4420495471   -1.1770294369    0.5600748185
C       -0.9224881861   -1.0898709835    0.5586073983
C       -1.5137196270    0.1231372007    0.1394378537
C       -0.6840575647    1.2368046129   -0.0261290017
N        0.6500231593    1.2149309300    0.0358834188
H        2.2674970312   -0.0320692175    0.2489832321
H        0.9801711077   -2.0578634135    0.9017328186
H       -1.5456171928   -1.8975882380    0.9425166265
H       -2.5910634752    0.2426755174    0.0773245443
H       -1.1366108648    2.2308328006   -0.0629058688
C        1.0815382968    0.2404582247   -1.5379369102
H        1.7535126086    1.0839222405   -1.7803140002
13   
From optimize.out: Frame 12 / 31, Energy=    -286.7933623733
C        1.2099444622   -0.0942536356   -0.0774214417
C        0.4372364969   -1.1810267050    0.5249512903
C       -0.9278827411   -1.0863049816    0.5630918446
C       -1.5352548790    0.1255296059    0.1583714403
C       -0.7110158854    1.2506660380   -0.0087480049
N        0.6233731767    1.2344741450    0.0214031729
H        2.2450729696    0.0005000558    0.2731702904
H        0.9739884593   -2.0619566602    0.8675721851
H       -1.5334947816   -1.9000675394    0.9599967207
H       -2.6139501699    0.2331704681    0.1078979911
H       -1.1670276584    2.2431256025   -0.0248015120
C        1.1521653136    0.2046208517   -1.5667660129
H        1.8468452370    1.0315227549   -1.7987179638
13   
From optimize.out: Frame 10 / 31, Energy=    -286.7876856930
C        1.2008781213   -0.0688609965   -0.0975590166
C        0.4323073201   -1.1856664023    0.4885306683
C       -0.9331400078   -1.0829461531    0.5681610125
C       -1.5569144077    0.1280521835    0.1788397291
C       -0.7386353607    1.2644513465    0.0086780708
N        0.5961153478    1.2550081597    0.0061453399
H        2.2221268831    0.0324959130    0.2980731202
H        0.9675895310   -2.0667095825    0.8316144923
H       -1.5212932490   -1.9025340337    0.9778957603
H       -2.6369062690    0.2236789390    0.1401633057
H       -1.1985294693    2.2548762484    0.0117212317
C        1.2223512615    0.1716191695   -1.5940110095
H        1.9440502986    0.9765352085   -1.8182527047
13   
From optimize.out: Frame 9 / 31, Energy=    -286.7818203522
C        1.2008660356   -0.0253325742   -0.0970672872
C        0.4350888548   -1.1823985188    0.4727424090
C       -0.9303329563   -1.0809780314    0.5576004430
C       -1.5685426626    0.1343690498    0.1943204284
C       -0.7591703581    1.2861580655    0.0432202947
N        0.5741440327    1.2913195544    0.0228740131
H        2.2179780421    0.0669610621    0.3147556001
H        0.9624260341   -2.0659361766    0.8176164467
H       -1.5072774760   -1.9169538877    0.9448161850
H       -2.6486514913    0.2124876072    0.1437892387
H       -1.2263080567    2.2717894421    0.0581504342
C        1.2419242974    0.1348686081   -1.5999263118
H        2.0078557042    0.8736457994   -1.8728918939
13   
From optimize.out: Frame 8 / 31, Energy=    -286.7768364136
C        1.2013598734    0.0192054449   -0.0954229018
C        0.4383009980   -1.1786890686    0.4581083874
C       -0.9270755401   -1.0790877883    0.5461674496
C       -1.5796093947    0.1408973813    0.2095210959
C       -0.7793077185    1.3083055263    0.0787159203
N        0.5524700148    1.3285093913    0.0413885390
H        2.2148798896    0.1015612007    0.3309773078
H        0.9573320166   -2.0648540444    0.8048466478
H       -1.4931615437   -1.9320404070    0.9088909567
H       -2.6597692685    0.2012022657    0.1458145817
H       -1.2538761952    2.2889896367    0.1051291541
C        1.2586675519    0.0979117559   -1.6046492674
H        2.0697893164    0.7680887053   -1.9294878711
13   
From optimize.out: Frame 7 / 31, Energy=    -286.7725904992
C        1.1994679063    0.0612877825   -0.0888575015
C        0.4438230778   -1.1727977435    0.4441901256
C       -0.9196942294   -1.0770591354    0.5361602870
C       -1.5825836353    0.1470283507    0.2227325291
C       -0.7939959547    1.3277920726    0.1148956174
N        0.5352104531    1.3633581266    0.0676627747
H        2.2148774073    0.1306946911    0.3373860314
H        0.9636214754   -2.0593281462    0.7905715962
H       -1.4830459798   -1.9442864962    0.8657092715
H       -2.6618631024    0.1918756682    0.1375303172
H       -1.2791936854    2.3025490934    0.1424953222
C        1.2431910076    0.0912135220   -1.6006738084
H        2.1201852593    0.6376722144   -1.9698025623
13   
From optimize.out: Frame 6 / 31, Energy=    -286.7627965255
C        1.1962603674    0.0566395747   -0.1037818049
C        0.4404856847   -1.1388479460    0.4167647497
C       -0.9203129165   -1.0697161555    0.5499471770
C       -1.5981332066    0.1460485457    0.2254963738
C       -0.8084077657    1.3263766259    0.1514097655
N        0.5241666342    1.3457137472    0.1260014532
H        2.2102121527    0.1317793686    0.3261180560
H        0.9881242374   -2.0008868904    0.7731748970
H       -1.4860828065   -1.9407929857    0.8638602252
H       -2.6743803213    0.1778159975    0.1030652069
H       -1.2904300197    2.3025837882    0.1764883358
C        1.2427216533    0.1162793894   -1.6069912979
H        2.1757763066    0.5470069405   -2.0015531375
13   
From optimize.out: Frame 4 / 31, Energy=    -286.7470026665
C        1.1980525471    0.0345035384   -0.1418188205
C        0.4296663254   -1.1146678249    0.4184170153
C       -0.9296432062   -1.0692149106    0.5815183811
C       -1.6045162335    0.1385695102    0.2182419575
C       -0.8102888325    1.3111445508    0.1837791932
N        0.5273379539    1.3033396892    0.1833809009
H        2.2017530730    0.0978422242    0.3091342550
H        1.0154455506   -1.9392910389    0.7936875211
H       -1.5181047551   -1.9309274118    0.8790773721
H       -2.6749802540    0.1677796275    0.0494742028
H       -1.2912870271    2.2892998108    0.1959496354
C        1.2565971668    0.1622718566   -1.6299710327
H        2.1999676912    0.5493503785   -2.0408705812
13   
From optimize.out: Frame 2 / 31, Energy=    -286.6622810488
C        1.2033600113    0.0548946138   -0.1568370499
C        0.4253167277   -1.1308123915    0.4368484290
C       -0.9286613217   -1.0777296754    0.6038014942
C       -1.5804872550    0.1359976152    0.2132767263
C       -0.7997491004    1.3118708501    0.2193440024
N        0.5355931180    1.3050942034    0.2257260394
H        2.1955846170    0.0784887858    0.3170937088
H        1.0403717091   -1.9309939129    0.8225422568
H       -1.5612428094   -1.9246363287    0.8589941375
H       -2.6435549885    0.1659441299   -0.0055293979
H       -1.3024154738    2.2808387353    0.1984081376
C        1.2415220404    0.1914359983   -1.6367872211
H        2.1743627253    0.5396073769   -2.0968812631
13   
From optimize.out: Frame 1 / 31, Energy=    -286.5797851733
C        1.2040345333    0.0921525867   -0.1135945697
C        0.4319965806   -1.1612976089    0.4063458306
C       -0.9090341192   -1.0795831720    0.6057698440
C       -1.5473883648    0.1431119399    0.2125257040
C       -0.7892759537    1.3303314078    0.2370573246
N        0.5381274230    1.3433898221    0.2570335244
H        2.1942765431    0.1107957710    0.3595684961
H        1.0639323007   -1.9597045328    0.7819233738
H       -1.5751264261   -1.9102900667    0.8364410696
H       -2.6058147142    0.1690010082   -0.0346646750
H       -1.3163989860    2.2859112285    0.1761749801
C        1.1997668588    0.1658125677   -1.5986191731
H        2.1109043246    0.4703690486   -2.1259617293
13   
C5H5N+CH->C6H6N atoms 1-13 frame 167 charge +0.000 sz -1.000 sz^2 3.935
C        1.1952894215    0.1197549921   -0.0738585128
C        0.4410114107   -1.1739963815    0.3711824929
C       -0.8867095523   -1.0740348430    0.6094959310
C       -1.5173174375    0.1499396405    0.2082075881
C       -0.7824389152    1.3476165488    0.2491076138
N        0.5383790657    1.3739123887    0.2938429002
H        2.1738847272    0.1013460923    0.4102928896
H        1.1057303022   -1.9609410448    0.7310162763
H       -1.5777467319   -1.8918758183    0.8265436418
H       -2.5713765458    0.1690476232   -0.0637839866
H       -1.3306110508    2.2911864477    0.1532538681
C        1.1594600337    0.1469526452   -1.5652332409
H        2.0524452725    0.4010917090   -2.1500674614
13   
C5H5N+CH->C6H6N atoms 1-13 frame 169 charge -0.000 sz -1.000 sz^2 3.963
C        1.1756464448    0.1285224866   -0.0557358114
C        0.4498505364   -1.1585560834    0.3441137377
C       -0.8668033466   -1.0605858453    0.6203581569
C       -1.4954467154    0.1535562714    0.1983510320
C       -0.7808823786    1.3578487837    0.2572320511
N        0.5369760133    1.3830690383    0.3384030603
H        2.1280623842    0.0238790854    0.4602992490
H        1.1696044668   -1.9162060912    0.6867539094
H       -1.5723684470   -1.8711807920    0.8348109552
H       -2.5451013919    0.1638558725   -0.0974284764
H       -1.3435210563    2.2930525431    0.1369710679
C        1.1302436021    0.1518787558   -1.5514818950
H        2.0137398881    0.3508659751   -2.1726470368
13   
C5H5N+CH->C6H6N atoms 1-13 frame 170 charge +0.000 sz -1.000 sz^2 3.968
C        1.1878427692    0.1431228025   -0.0391552792
C        0.4098427297   -1.1629048355    0.3167748314
C       -0.8740278490   -1.0624099884    0.6557750437
C       -1.4786291963    0.1434302568    0.2033583293
C       -0.7709395174    1.3477179680    0.2561281879
N        0.5317800928    1.3870870061    0.3707434048
H        2.1063600504   -0.0206809628    0.5158197286
H        1.2104229060   -1.8779733416    0.6136653318
H       -1.6023711408   -1.8541473891    0.8840765981
H       -2.5254735250    0.1555269124   -0.1110868734
H       -1.3449583455    2.2720903417    0.0965346241
C        1.1421706647    0.1751299447   -1.5539018125
H        2.0079803612    0.3540112853   -2.2087321145
13   
C5H5N+CH->C6H6N atoms 1-13 frame 171 charge +0.000 sz -1.000 sz^2 3.964
C        1.2120136908    0.1677149712   -0.0375271891
C        0.3591677716   -1.2038237739    0.3207894495
C       -0.8920973763   -1.0784150673    0.6949521200
C       -1.4586962897    0.1276471065    0.2128399456
C       -0.7533224108    1.3318498873    0.2498051157
N        0.5292099913    1.3965715135    0.3860313494
H        2.1059489642   -0.0253382786    0.5428548695
H        1.2081068469   -1.8991759865    0.5897769716
H       -1.6513679298   -1.8417307657    0.9308845280
H       -2.5026225241    0.1470720432   -0.1175135588
H       -1.3374206537    2.2445665545    0.0532407650
C        1.1666058769    0.2229261360   -1.5736700429
H        2.0144740427    0.4101356598   -2.2524643235
13   
C5H5N+CH->C6H6N atoms 1-13 frame 172 charge -0.000 sz -1.000 sz^2 3.949
C        1.2189071233    0.1906870456   -0.0581576281
C        0.3470879116   -1.2613481488    0.3664360382
C       -0.8987681288   -1.0955327729    0.7092798664
C       -1.4383140594    0.1192336710    0.2132827966
C       -0.7381704018    1.3277001249    0.2449435748
N        0.5335466367    1.4111053515    0.3841880301
H        2.1121030327   -0.0101292725    0.5193506878
H        1.1698678347   -1.9809522060    0.6612533534
H       -1.6822876471   -1.8362785703    0.9314062934
H       -2.4788985063    0.1427335980   -0.1280006116
H       -1.3288155339    2.2337302152    0.0389637823
C        1.1705376933    0.2777510086   -1.6008218591
H        2.0132040449    0.4812999559   -2.2821243242
13   
C5H5N+CH->C6H6N atoms 1-13 frame 174 charge -0.000 sz -1.000 sz^2 3.894
C        1.2258002831    0.2136582113   -0.0787872509
C        0.3350085296   -1.3188702482    0.4120808212
C       -0.9054386174   -1.1126498014    0.7236070459
C       -1.4179326354    0.1108205684    0.2137256301
C       -0.7230189922    1.3235505266    0.2400822263
N        0.5378831105    1.4256386145    0.3823447836
H        2.1182568577    0.0050791319    0.4958474359
H        1.1316303353   -2.0627251905    0.7327269077
H       -1.7132061413   -1.8308265906    0.9319280381
H       -2.4551754269    0.1383953244   -0.1384872496
H       -1.3202107545    2.2228943046    0.0246873644
C        1.1744693542    0.3325737123   -1.6279726011
H        2.0119340973    0.5524614367   -2.3117831516
13   
C5H5N+CH->C6H6N atoms 1-13 frame 176 charge -0.000 sz -1.000 sz^2 3.791
C        1.2326931775    0.2366284926   -0.0994160795
C        0.3229296125   -1.3763901331    0.4577238470
C       -0.9121088492   -1.1297661710    0.7379336739
C       -1.3975519961    0.1024077896    0.2141684466
C       -0.7078681659    1.3194010881    0.2352210649
N        0.5422194173    1.4401713181    0.3805016081
H        2.1244104459    0.0202869509    0.4723450888
H        1.0933943080   -2.1444950269    0.8041977105
H       -1.7441234451   -1.8253748208    0.9324497628
H       -2.4314532609    0.1340572178   -0.1489734838
H       -1.3116063063    2.2120588112    0.0104114961
C        1.1784008637    0.3873943056   -1.6551222979
H        2.0106641987    0.6236201780   -2.3414408372
13   
C5H5N+CH->C6H6N atoms 1-13 frame 177 charge +0.000 sz -1.000 sz^2 3.728
C        1.2384691302    0.2585662846   -0.1207848399
C        0.3110884647   -1.4326835672    0.5042014757
C       -0.9183957366   -1.1465662239    0.7524312298
C       -1.3769370941    0.0938695689    0.2145028054
C       -0.6925673497    1.3150778747    0.2304751730
N        0.5467840552    1.4537811496    0.3789944036
H        2.1290865827    0.0330113542    0.4478464726
H        1.0552349711   -2.2243210794    0.8768557254
H       -1.7741216547   -1.8199307418    0.9325070832
H       -2.4072620880    0.1292753875   -0.1600299547
H       -1.3024910203    2.2012142249   -0.0038439876
C        1.1818235555    0.4430953429   -1.6824563126
H        2.0092881839    0.6956104251   -2.3706992738
13   
C5H5N+CH->C6H6N atoms 1-13 frame 178 charge -0.000 sz -1.000 sz^2 3.653
C        1.2370691531    0.2736788073   -0.1466160753
C        0.3008975869   -1.4805199767    0.5554538344
C       -0.9221700114   -1.1611587309    0.7678490914
C       -1.3550695005    0.0846316510    0.2141429832
C       -0.6764887820    1.3096985986    0.2265178250
N        0.5527492055    1.4613596959    0.3796430246
H        2.1243049224    0.0297821106    0.4172900246
H        1.0180049580   -2.2908523158    0.9562300703
H       -1.7979231400   -1.8145985585    0.9296078856
H       -2.3803654652    0.1217246174   -0.1745880510
H       -1.2902297278    2.1904371500   -0.0178049033
C        1.1819681338    0.5037562401   -1.7106474411
H        2.0072526673    0.7720607110   -2.3970782686
13   
C5H5N+CH->C6H6N atoms 1-13 frame 180 charge +0.000 sz -1.000 sz^2 3.469
C        1.2269799146    0.2800345726   -0.1771039025
C        0.2930196124   -1.5166349282    0.6109819597
C       -0.9227741700   -1.1726285573    0.7839253189
C       -1.3323321333    0.0748188463    0.2129492995
C       -0.6599450708    1.3031953618    0.2236383486
N        0.5602398854    1.4613730105    0.3828952890
H        2.1081587885    0.0072382513    0.3802772762
H        0.9830198281   -2.3392163528    1.0414010003
H       -1.8134726102   -1.8095620933    0.9231981705
H       -2.3509819555    0.1110307649   -0.1929710071
H       -1.2745075326    2.1800647340   -0.0309896143
C        1.1781198119    0.5686365959   -1.7390377941
H        2.0044756314    0.8516497942   -2.4191643446
13   
C5H5N+CH->C6H6N atoms 1-13 frame 181 charge +0.000 sz -1.000 sz^2 3.364
C        1.2168907886    0.2863902672   -0.2075913901
C        0.2851417256   -1.5527494772    0.6665094664
C       -0.9233783218   -1.1840982560    0.8000013672
C       -1.3095950193    0.0650061510    0.2117556292
C       -0.6434015439    1.2966921975    0.2207589042
N        0.5677304819    1.4613863250    0.3861475172
H        2.0920128346   -0.0153053569    0.3432649402
H        0.9480350880   -2.3875798510    1.1265709814
H       -1.8290219070   -1.8045256842    0.9167885267
H       -2.3215987732    0.1003370315   -0.2113537585
H       -1.2587855126    2.1696924336   -0.0441741785
C        1.1742715328    0.6335162289   -1.7674278308
H        2.0016986264    0.9312379907   -2.4412501746
13   
C5H5N+CH->C6H6N atoms 1-13 frame 182 charge -0.000 sz -1.000 sz^2 3.254
C        1.2068017736    0.2927458918   -0.2380785420
C        0.2772639256   -1.5888636287    0.7220363617
C       -0.9239824669   -1.1955678284    0.8160772386
C       -1.2868581557    0.0551935637    0.2105619719
C       -0.6268581992    1.2901891047    0.2178794916
N        0.5752209958    1.4613996393    0.3893997096
H        2.0758670584   -0.0378487169    0.3062530116
H        0.9130507331   -2.4359428167    1.2117400248
H       -1.8445710327   -1.7994893306    0.9103789535
H       -2.2922159144    0.0896434158   -0.2297363075
H       -1.2430636656    2.1593202473   -0.0573585974
C        1.1704232961    0.6983951475   -1.7958175549
H        1.9989216520    1.0108253111   -2.4633357614
13   
C5H5N+CH->C6H6N atoms 1-13 frame 183 charge +0.000 sz -1.000 sz^2 3.124
C        1.1992924693    0.2967389137   -0.2682593276
C        0.2694726459   -1.6180044797    0.7593105149
C       -0.9278701627   -1.2037305259    0.8293892425
C       -1.2728738058    0.0495274622    0.2085149036
C       -0.6189124408    1.2790978151    0.2123500524
N        0.5760589763    1.4482540623    0.3886856329
H        2.0557076329   -0.0670028732    0.2751116331
H        0.8880858489   -2.4563309724    1.2921513435
H       -1.8538801720   -1.7967766767    0.9080541022
H       -2.2718857360    0.0833401730   -0.2432369968
H       -1.2302798005    2.1531470061   -0.0531261647
C        1.1809095737    0.7487855757   -1.8250473158
H        2.0061749706    1.0829545198   -2.4838976201
13   
C5H5N+CH->C6H6N atoms 1-13 frame 185 charge -0.000 sz -1.000 sz^2 2.819
C        1.2020817703    0.2931060412   -0.2964667327
C        0.2649045643   -1.6236675273    0.7360250096
C       -0.9444851171   -1.2000910489    0.8318619417
C       -1.2895370652    0.0569472250    0.2021169818
C       -0.6429696455    1.2534195175    0.1967182909
N        0.5576374225    1.3916413710    0.3746557057
H        2.0277395746   -0.1165571062    0.2617842098
H        0.8904069475   -2.3770951610    1.3485362140
H       -1.8419870275   -1.8044668588    0.9243031922
H       -2.2828591237    0.0912172065   -0.2400710709
H       -1.2296287855    2.1605764360    0.0105792264
C        1.2408960417    0.7484682722   -1.8537704073
H        2.0478004438    1.1265016328   -2.4962725612
13   
C5H5N+CH->C6H6N atoms 1-13 frame 187 charge +0.000 sz -1.000 sz^2 2.468
C        1.2107467261    0.2907157488   -0.3217623041
C        0.2698012109   -1.6286261630    0.7155549378
C       -0.9660549470   -1.1939426325    0.8289085709
C       -1.3106077793    0.0611534230    0.1908125732
C       -0.6767255673    1.2314614272    0.1772790255
N        0.5499140997    1.3380174324    0.3607447371
H        2.0192072863   -0.1592348577    0.2412616445
H        0.8730832738   -2.2825341514    1.3782460524
H       -1.8312274886   -1.8210282744    0.9577017129
H       -2.2987734930    0.0973557618   -0.2360368014
H       -1.2368974768    2.1662323359    0.0767644457
C        1.3050066868    0.7416773128   -1.8708032586
H        2.0925274683    1.1587526370   -2.4986713359
13   
C5H5N+CH->C6H6N atoms 1-13 frame 188 charge +0.000 sz -1.000 sz^2 2.327
C        1.2247365831    0.2899756955   -0.3463645273
C        0.2792410289   -1.6314638633    0.6979554273
C       -0.9886528231   -1.1856537568    0.8211555139
C       -1.3355822193    0.0617781954    0.1761911666
C       -0.7139567845    1.2157461900    0.1561357259
N        0.5506846434    1.2885514848    0.3473707867
H        2.0250654703   -0.1943142297    0.2120687333
H        0.8496448254   -2.1932137308    1.3933537125
H       -1.8274998370   -1.8431123352    1.0052460388
H       -2.3250755072    0.1030936377   -0.2316240312