13   
From optimize.out: Frame 30 / 31, Energy=    -286.8405101568
C        1.3124298484   -0.0975946439    0.0436157441
C        0.4498855437   -1.2273034426    0.4519224280
C       -0.8926964123   -1.1033291819    0.4848436928
C       -1.5382567658    0.1827420806    0.2616387570
C       -0.8211695858    1.2682934622   -0.0838731046
N        0.5722795659    1.2083535336   -0.3343067327
H        2.2232983203    0.0643887170    0.6254488622
H        0.9378922942   -2.1508412213    0.7558459933
H       -1.5110716912   -1.9466871404    0.7809235959
H       -2.5984363969    0.2871612308    0.4746464774
H       -1.2414452168    2.2700125292   -0.1119807278
C        1.1871675708    0.4342154903   -1.3192912543
H        1.9201229259    0.8105885861   -2.0294337316
13   
From optimize.out: Frame 29 / 31, Energy=    -286.8405050267
C        1.3205795762   -0.1138025767    0.0226865863
C        0.4455517477   -1.2342179346    0.4523428612
C       -0.8957583826   -1.1041945458    0.4933559805
C       -1.5424440025    0.1718378163    0.2300192929
C       -0.8226682217    1.2610794306   -0.0966822690
N        0.5821107292    1.2192475203   -0.3156263109
H        2.2363843162    0.0369932992    0.5988230161
H        0.9326210753   -2.1484248906    0.7823941629
H       -1.5150152754   -1.9329753606    0.8281885465
H       -2.6036381727    0.2806354001    0.4374929922
H       -1.2393254161    2.2648926665   -0.0875102886
C        1.1852041693    0.4571112495   -1.3187246258
H        1.9163978570    0.8418179259   -2.0267599444
13   
From optimize.out: Frame 28 / 31, Energy=    -286.8404918441
C        1.3181333883   -0.1197249911    0.0161713666
C        0.4435746827   -1.2495548484    0.4511246827
C       -0.8907505395   -1.1003889381    0.5296955850
C       -1.5372359848    0.1742679376    0.2327901837
C       -0.8152120304    1.2627792015   -0.0852867270
N        0.6122915630    1.2270599871   -0.2388676864
H        2.2525284765   -0.0097012282    0.5712578039
H        0.9275958041   -2.1712834823    0.7643578974
H       -1.5110419019   -1.9236076762    0.8745262524
H       -2.6077942555    0.2737167333    0.3856150086
H       -1.2430433664    2.2558220066   -0.1732028817
C        1.1782197673    0.4951374610   -1.2952474230
H        1.8727343966    0.8854778373   -2.0329340623
13   
From optimize.out: Frame 26 / 31, Energy=    -286.8404509770
C        1.3106994286   -0.1093265623    0.0150102940
C        0.4313317694   -1.2680505611    0.4462826747
C       -0.8966611412   -1.1034875172    0.5715395051
C       -1.5369761736    0.1773932645    0.2616279274
C       -0.8034364854    1.2564468970   -0.0632473477
N        0.6314730528    1.2346384074   -0.1969658373
H        2.2673665374   -0.0460749067    0.5406838639
H        0.9146783961   -2.1944012508    0.7450188228
H       -1.5150780463   -1.9240141095    0.9230024333
H       -2.6159141945    0.2663654776    0.3407932570
H       -1.2350635288    2.2333112568   -0.2576212685
C        1.1807700579    0.5418918755   -1.2923841265
H        1.8668103276    0.9353077288   -2.0337401983
13   
From optimize.out: Frame 25 / 31, Energy=    -286.8403813133
C        1.2891025299   -0.1002284775   -0.0001553599
C        0.4207892722   -1.2723494721    0.4118325414
C       -0.9001595204   -1.1030801445    0.5950630411
C       -1.5470392136    0.1737700146    0.2801464587
C       -0.8148623983    1.2454078151   -0.0736511938
N        0.6197098190    1.2433505870   -0.1885891836
H        2.2423002924   -0.0807313753    0.5398173973
H        0.9063147399   -2.1982520722    0.6963140299
H       -1.5066917072   -1.9122205158    0.9902027152
H       -2.6239291362    0.2647889397    0.3782480344
H       -1.2519287576    2.2119686181   -0.3047788343
C        1.2123918177    0.5771891023   -1.3129685189
H        1.9540022622    0.9503869807   -2.0114811274
13   
From optimize.out: Frame 24 / 31, Energy=    -286.8402287879
C        1.2884228458   -0.1114778289    0.0163546727
C        0.4377534331   -1.2597597359    0.4380556306
C       -0.8865862542   -1.0942980823    0.5825738113
C       -1.5403630163    0.1819750281    0.2526938561
C       -0.8044681553    1.2638160876   -0.0561174740
N        0.6334128046    1.2502613705   -0.1367074459
H        2.2729922802   -0.0935304999    0.4983387924
H        0.9254644880   -2.1862149221    0.7337650668
H       -1.4935699531   -1.9167812668    0.9486209560
H       -2.6205324865    0.2564741701    0.3075903416
H       -1.2333788008    2.2324952479   -0.2934195169
C        1.1644061082    0.5423224420   -1.2789844769
H        1.8564467061    0.9347179896   -2.0127642138
13   
From optimize.out: Frame 23 / 31, Energy=    -286.8400005792
C        1.2995960684   -0.1143358079    0.0297208920
C        0.4412795568   -1.2599222734    0.4589913953
C       -0.8828944765   -1.0929345879    0.5767606772
C       -1.5368730089    0.1897244451    0.2461547299
C       -0.7965981688    1.2723534666   -0.0479865758
N        0.6410355837    1.2515451965   -0.1176065752
H        2.3074361256   -0.0858940629    0.4671473035
H        0.9259535276   -2.1910419308    0.7570092453
H       -1.4938067353   -1.9231519943    0.9187749742
H       -2.6189880813    0.2564645776    0.2712704937
H       -1.2212843681    2.2394619500   -0.2978383361
C        1.1461899458    0.5094339210   -1.2564098150
H        1.7889540311    0.9482971005   -2.0059884091
13   
From optimize.out: Frame 21 / 31, Energy=    -286.8383599967
C        1.3187934487   -0.1051039183    0.0340726825
C        0.4195343850   -1.2824720375    0.4692452881
C       -0.8973259200   -1.1065771484    0.5904033064
C       -1.5346512314    0.1908959960    0.2741619871
C       -0.7880016055    1.2545149625   -0.0652311862
N        0.6393729535    1.2407414330   -0.1559904232
H        2.3334877729   -0.0649718665    0.4500257321
H        0.8969131187   -2.2218684518    0.7543403573
H       -1.5209327080   -1.9267017801    0.9296611923
H       -2.6154404184    0.2737238543    0.2992377883
H       -1.2189624226    2.2116178362   -0.3398392951
C        1.1772535190    0.5047950239   -1.2611078663
H        1.7899591081    1.0314060967   -1.9789795634
13   
From optimize.out: Frame 20 / 31, Energy=    -286.8373712531
C        1.2865892018   -0.1148149500    0.0333120509
C        0.4120347531   -1.2871627369    0.4830934466
C       -0.9000306524   -1.1152269454    0.6157546512
C       -1.5161927136    0.1769761567    0.2669782253
C       -0.7618283350    1.2258716707   -0.0934497614
N        0.6500057979    1.2318039630   -0.1482926369
H        2.3135087552   -0.1341646872    0.4076366422
H        0.9028001262   -2.2192599602    0.7689208975
H       -1.5387087784   -1.9113873467    0.9789099216
H       -2.5949932999    0.2866715296    0.2900201067
H       -1.2033516696    2.1728032780   -0.3866474800
C        1.1585078202    0.5648354075   -1.2695449736
H        1.7916589945    1.1230546208   -1.9466910899
13   
From optimize.out: Frame 19 / 31, Energy=    -286.8353689595
C        1.2487790591   -0.1131327246    0.0190566248
C        0.4126658212   -1.2804052167    0.4937782653
C       -0.9023763441   -1.1168062269    0.6315885903
C       -1.5102369009    0.1604673230    0.2517354660
C       -0.7450308672    1.2126928034   -0.1030535244
N        0.6475042968    1.2358624488   -0.1162397904
H        2.2840800627   -0.1813910923    0.3617804824
H        0.9105370226   -2.2028958791    0.7889958741
H       -1.5419216587   -1.8984966953    1.0206834381
H       -2.5876664633    0.2846318948    0.2686778961
H       -1.1957624220    2.1609088852   -0.3786181688
C        1.1520244103    0.5584939928   -1.3291719894
H        1.8274039836    1.1800704868   -1.9092131640
13   
From optimize.out: Frame 18 / 31, Energy=    -286.8335889647
C        1.2394081277   -0.1261490005    0.0070403127
C        0.4149446383   -1.2666112488    0.5278993143
C       -0.9116544604   -1.1217370531    0.6327679018
C       -1.4924342860    0.1422834699    0.2334277201
C       -0.7017785663    1.1898045144   -0.1178110868
N        0.6700830251    1.2181364705   -0.0827969618
H        2.2800843741   -0.1974436303    0.3219293106
H        0.9253242474   -2.1766369469    0.8255039802
H       -1.5687341163   -1.8898517113    1.0248964953
H       -2.5681115105    0.2877194813    0.2285160994
H       -1.1575199888    2.1423673879   -0.3794858817
C        1.0929654536    0.5519716095   -1.3664991976
H        1.7774230621    1.2461466573   -1.8553880064
13   
From optimize.out: Frame 17 / 31, Energy=    -286.8311844337
C        1.2315522237   -0.1421759587   -0.0043468574
C        0.4229269428   -1.2343564946    0.5566941591
C       -0.9146206353   -1.1183313355    0.6224270243
C       -1.4777818726    0.1265236974    0.1989406099
C       -0.6682514843    1.1780918158   -0.1164831107
N        0.6846130900    1.1977287064   -0.0397398938
H        2.2761686461   -0.2047854779    0.2916345588
H        0.9595322314   -2.1262334395    0.8556607302
H       -1.5865208919   -1.8784012042    1.0143695123
H       -2.5526172982    0.2828397698    0.1681568265
H       -1.1276253290    2.1426706396   -0.3350049623
C        1.0267878237    0.5210915298   -1.3976393771
H        1.7258365536    1.2553377516   -1.8146692198
13   
From optimize.out: Frame 15 / 31, Energy=    -286.8233446887
C        1.2212124939   -0.1631264643   -0.0295941361
C        0.4303162158   -1.2112795260    0.5665333956
C       -0.9187208158   -1.1092651823    0.6080609769
C       -1.4784135847    0.1165112748    0.1663533645
C       -0.6534004863    1.1784308110   -0.1097071897
N        0.6884261160    1.1759614021   -0.0200291198
H        2.2708628770   -0.1725425545    0.2544383984
H        0.9810152812   -2.0911619845    0.8766890469
H       -1.5855639066   -1.8694309577    1.0146693330
H       -2.5531231249    0.2752992990    0.1272827631
H       -1.1087442493    2.1582926492   -0.2702047880
C        0.9996739584    0.4650896143   -1.4370946858
H        1.7064592251    1.2472216189   -1.7473973589
13   
From optimize.out: Frame 14 / 31, Energy=    -286.8135227659
C        1.2154316300   -0.1675440437   -0.0512084394
C        0.4359099131   -1.1977267966    0.5656241139
C       -0.9220007733   -1.0997225052    0.5901667760
C       -1.4898258058    0.1148450982    0.1458583229
C       -0.6568243761    1.1930597421   -0.0899413379
N        0.6809784652    1.1715445331   -0.0078627302
H        2.2686993564   -0.1165963933    0.2306678979
H        0.9855422344   -2.0746945929    0.8911141937
H       -1.5716358047   -1.8717249082    1.0041235312
H       -2.5651183535    0.2653536159    0.1042202216
H       -1.1066512541    2.1839104079   -0.1955455298
C        1.0132970806    0.3878156730   -1.4777449310
H        1.7121976877    1.2114801697   -1.7094720889
13   
From optimize.out: Frame 13 / 31, Energy=    -286.8019991563
C        1.2193139026   -0.1413097275   -0.0509839224
C        0.4407579087   -1.1838461434    0.5691914120
C       -0.9212223555   -1.0942168561    0.5693258653
C       -1.5005841596    0.1196019105    0.1379893441
C       -0.6686003109    1.2179044648   -0.0531276272
N        0.6667889661    1.1950186007    0.0226901856
H        2.2724554896   -0.0697545306    0.2373679911
H        0.9833940388   -2.0632370964    0.9047017751
H       -1.5576395626   -1.8875649588    0.9616828636
H       -2.5769004791    0.2529406862    0.0810718864
H       -1.1194531639    2.2110784367   -0.1194229346
C        1.0421861945    0.3019384995   -1.5099660624
H        1.7195035312    1.1414467144   -1.7505207766
13   
From optimize.out: Frame 12 / 31, Energy=    -286.7933623733
C        1.2187088020   -0.1159811873   -0.0579210392
C        0.4421822031   -1.1763293363    0.5591385111
C       -0.9226181915   -1.0894246465    0.5575065727
C       -1.5150686874    0.1235002879    0.1395866209
C       -0.6856450810    1.2387457270   -0.0233561445
N        0.6483012498    1.2169759987    0.0372384119
H        2.2669877794   -0.0281987985    0.2501761597
H        0.9798401010   -2.0573115167    0.9014278959
H       -1.5443824516   -1.8986176653    0.9405481841
H       -2.5925180665    0.2416212472    0.0769396786
H       -1.1383730232    2.2328616457   -0.0571013603
C        1.0855799010    0.2341439766   -1.5408096182
H        1.7570054647    1.0780142675   -1.7833738728
13   
From optimize.out: Frame 10 / 31, Energy=    -286.7876856930
C        1.2092155948   -0.0924467106   -0.0790431507
C        0.4368251980   -1.1814173515    0.5221081838
C       -0.9283205560   -1.0860455414    0.5635563317
C       -1.5369336201    0.1256983698    0.1599336392
C       -0.7131257936    1.2516573650   -0.0075331505
N        0.6213000872    1.2359293406    0.0200862694
H        2.2432504717    0.0028867341    0.2750825477
H        0.9735018202   -2.0623429636    0.8647566479
H       -1.5325893320   -1.9001881151    0.9616141163
H       -2.6157325246    0.2324676773    0.1104725724
H       -1.1694106594    2.2439791824   -0.0221153648
C        1.1577027459    0.2021656246   -1.5689246205
H        1.8543165680    1.0276563885   -1.7999940220
13   
From optimize.out: Frame 9 / 31, Energy=    -286.7818203522
C        1.2003984383   -0.0675040308   -0.0986242969
C        0.4320473914   -1.1859108645    0.4865988405
C       -0.9334172871   -1.0827678348    0.5684259353
C       -1.5580639699    0.1281876064    0.1799274603
C       -0.7401030121    1.2651874274    0.0096107571
N        0.5946663848    1.2561058286    0.0053432711
H        2.2209115718    0.0341994290    0.2993958455
H        0.9672493771   -2.0669608089    0.8297077122
H       -1.5206433472   -1.9026690024    0.9788324982
H       -2.6381244659    0.2231732933    0.1418715138
H       -1.2002047727    2.2555031934    0.0136679653
C        1.2260707088    0.1698617289   -1.5954543142
H        1.9492129830    0.9735940345   -1.8193031883
13   
From optimize.out: Frame 8 / 31, Energy=    -286.7768364136
C        1.2008899983   -0.0231714378   -0.0969874960
C        0.4352447189   -1.1822185237    0.4720323165
C       -0.9301748954   -1.0808863103    0.5570456752
C       -1.5690796581    0.1346858267    0.1950580166
C       -0.7601474914    1.2872327357    0.0449426634
N        0.5730923356    1.2931241319    0.0237724010
H        2.2178277092    0.0686399787    0.3155427326
H        0.9621788550   -2.0658836678    0.8169968125
H       -1.5065925229   -1.9176859370    0.9430729706
H       -2.6491909637    0.2119400040    0.1438875152
H       -1.2276457566    2.2726240542    0.0604300017
C        1.2427367371    0.1330753357   -1.6001554857
H        2.0108609340    0.8685238097   -1.8756381235
13   
From optimize.out: Frame 7 / 31, Energy=    -286.7725904992
C        1.2013815583    0.0211611551   -0.0953506951
C        0.4384420465   -1.1785261829    0.4574657924
C       -0.9269325036   -1.0790047858    0.5456654151
C       -1.5800953463    0.1411840470    0.2101885728
C       -0.7801919707    1.3092780441    0.0802745697
N        0.5515182864    1.3301424353    0.0422015308
H        2.2147438466    0.1030805284    0.3316896197
H        0.9571083330   -2.0648065268    0.8042859128
H       -1.4925416986   -1.9327028715    0.9073134430
H       -2.6602574615    0.2007067148    0.1459035166
H       -1.2550867405    2.2897449149    0.1071920380
C        1.2594027654    0.0962889426   -1.6048566573
H        2.0725088849    0.7634535848   -1.9319730586
13   
From optimize.out: Frame 6 / 31, Energy=    -286.7627965255
C        1.1994242369    0.0622034686   -0.0887093273
C        0.4439458725   -1.1726670210    0.4438871760
C       -0.9195290526   -1.0770147358    0.5359433808
C       -1.5826404178    0.1471617172    0.2230187811
C       -0.7943109604    1.3282145611    0.1156856667
N        0.5348383098    1.3641161058    0.0682437980
H        2.2148804551    0.1313248438    0.3375160230
H        0.9637701048   -2.0592031300    0.7902586367
H       -1.4828292884   -1.9445508335    0.8647598679
H       -2.6618997429    0.1916741445    0.1373392415
H       -1.2797438038    2.3028412836    0.1433009400
C        1.2428210567    0.0910977013   -1.6005783561
H        2.1212732300    0.6348018945   -1.9706658283
13   
From optimize.out: Frame 4 / 31, Energy=    -286.7470026665
C        1.1965696875    0.0664242235   -0.0953150771
C        0.4432900156   -1.1490754061    0.4219967633
C       -0.9179765410   -1.0714512531    0.5420838885
C       -1.5933703975    0.1478900454    0.2273556108
C       -0.8063750560    1.3310121311    0.1447059655
N        0.5243918095    1.3595127038    0.1100445408
H        2.2123371263    0.1386190833    0.3310937230
H        0.9808319415   -2.0207801033    0.7739665895
H       -1.4812854924   -1.9443876771    0.8557142692
H       -2.6707178308    0.1810807168    0.1149144636
H       -1.2912714267    2.3056408046    0.1711342920
C        1.2374830856    0.1062595873   -1.6023128045
H        2.1660930784    0.5492551438   -1.9953822246
13   
From optimize.out: Frame 3 / 31, Energy=    -286.7230985656
C        1.1954540761    0.0311343560   -0.1258516562
C        0.4331757573   -1.1121884705    0.4031266872
C       -0.9264030448   -1.0651933521    0.5704440694
C       -1.6105482141    0.1412483884    0.2206499815
C       -0.8137063416    1.3142934559    0.1688842693
N        0.5235796794    1.3097446069    0.1675956434
H        2.2046730764    0.1139505816    0.3131482010
H        1.0071327480   -1.9490321172    0.7711112268
H       -1.4985877565   -1.9314228598    0.8850939347
H       -2.6839271763    0.1693059955    0.0721782648
H       -1.2882367607    2.2946151966    0.1904444892
C        1.2563768001    0.1423975718   -1.6191865231
H        2.2010171567    0.5411466468   -2.0176385878
13   
From optimize.out: Frame 2 / 31, Energy=    -286.6622810488
C        1.2026216748    0.0404278779   -0.1698953364
C        0.4234953725   -1.1190274991    0.4453033886
C       -0.9353406763   -1.0762863824    0.6009913498
C       -1.5939096538    0.1338589952    0.2140077101
C       -0.8042795156    1.3056075449    0.2099702914
N        0.5339464695    1.2920773404    0.2111375536
H        2.1966185658    0.0695174357    0.3020761689
H        1.0300627068   -1.9221624158    0.8333854710
H       -1.5524232671   -1.9300562207    0.8684979034
H       -2.6592480674    0.1650956761    0.0095515875
H       -1.2966505877    2.2799532850    0.2056298344
C        1.2569846577    0.1972186174   -1.6489344160
H        2.1981223207    0.5637757453   -2.0817215063
13   
From optimize.out: Frame 1 / 31, Energy=    -286.5797851733
C        1.2041340020    0.0700599463   -0.1431481807
C        0.4272260358   -1.1431663748    0.4279851806
C       -0.9216594220   -1.0792426649    0.6067473400
C       -1.5664166904    0.1382395089    0.2125104434
C       -0.7949999122    1.3184366095    0.2291703686
N        0.5373192830    1.3187396489    0.2410190013
H        2.1945007389    0.0878933612    0.3328364437
H        1.0511785317   -1.9402518819    0.8111754252
H       -1.5704882463   -1.9189547109    0.8490314360
H       -2.6271040931    0.1668335554   -0.0213386421
H       -1.3084587454    2.2817669438    0.1908377061
C        1.2253127355    0.1853741372   -1.6240534397
H        2.1494557824    0.5142719213   -2.1127730823
13   
C5H5N+CH->C6H6N atoms 1-13 frame 167 charge +0.000 sz -1.000 sz^2 3.935
C        1.2039735014    0.1057081511   -0.0954611160
C        0.4349236833   -1.1724225404    0.3930683953
C       -0.9012875076   -1.0797920997    0.6051700737
C       -1.5357129976    0.1461015577    0.2125350676
C       -0.7857638572    1.3376297978    0.2418965895
N        0.5386232802    1.3585146330    0.2668596880
H        2.1941389814    0.1248481922    0.3759707029
H        1.0717577363   -1.9716402569    0.7639749504
H       -1.5779723125   -1.9049736291    0.8287158943
H       -2.5927520137    0.1703309101   -0.0428412395
H       -1.3212709452    2.2884540715    0.1671782498
C        1.1840924637    0.1538100135   -1.5830132595
H        2.0872499874    0.4434311994   -2.1340539967
13   
C5H5N+CH->C6H6N atoms 1-13 frame 169 charge -0.000 sz -1.000 sz^2 3.963
C        1.1923308825    0.1245405453   -0.0664988222
C        0.4430854103   -1.1745325661    0.3637262863
C       -0.8817430563   -1.0720734300    0.6109696873
C       -1.5110503394    0.1512472191    0.2067332792
C       -0.7813061562    1.3510188887    0.2515643042
N        0.5382958654    1.3791581787    0.3030356857
H        2.1669843992    0.0933392709    0.4219859563
H        1.1173042581   -1.9572959798    0.7197877384
H       -1.5776698799   -1.8874135858    0.8258035872
H       -2.5640942367    0.1686104262   -0.0709188741
H       -1.3337930881    2.2921173283    0.1485100350
C        1.1510681254    0.1446164401   -1.5591758488
H        2.0405878156    0.3866672644   -2.1555230145
13   
C5H5N+CH->C6H6N atoms 1-13 frame 170 charge +0.000 sz -1.000 sz^2 3.968
C        1.1712625369    0.1295687589   -0.0529077839
C        0.4516281025   -1.1543581937    0.3389604561
C       -0.8628778734   -1.0575674329    0.6228250177
C       -1.4913467960    0.1541629849    0.1961485605
C       -0.7807710292    1.3596433680    0.2587212760
N        0.5366292165    1.3840966336    0.3476959903
H        2.1178354570    0.0056281223    0.4703662317
H        1.1833465720   -1.9054095459    0.6780741285
H       -1.5709754726   -1.8669155555    0.8371776800
H       -2.5401109400    0.1626065931   -0.1043939887
H       -1.3460771219    2.2932982748    0.1339391546
C        1.1247718688    0.1537869605   -1.5494602755
H        2.0066854795    0.3414590321   -2.1771464474
13   
C5H5N+CH->C6H6N atoms 1-13 frame 171 charge +0.000 sz -1.000 sz^2 3.964
C        1.1895893273    0.1445505825   -0.0377065933
C        0.4054410675   -1.1638051369    0.3144378025
C       -0.8752023850   -1.0629201022    0.6592459924
C       -1.4772895271    0.1422996735    0.2041178048
C       -0.7699038681    1.3464617490    0.2558550326
N        0.5312692871    1.3874020113    0.3731712145
H        2.1051512335   -0.0234523562    0.5206077902
H        1.2132751212   -1.8750832178    0.6068805230
H       -1.6056783537   -1.8528023932    0.8890169201
H       -2.5239316229    0.1547811403   -0.1117919004
H       -1.3448404938    2.2698563026    0.0925944389
C        1.1440034502    0.1773782101   -1.5543696831
H        2.0081167638    0.3553335370   -2.2120593419
13   
C5H5N+CH->C6H6N atoms 1-13 frame 172 charge -0.000 sz -1.000 sz^2 3.949
C        1.2108502216    0.1638377587   -0.0340451965
C        0.3612066028   -1.1941148456    0.3130852466
C       -0.8909714909   -1.0755259516    0.6925338919
C       -1.4621363898    0.1290671209    0.2127652015
C       -0.7558797574    1.3325502817    0.2506256436
N        0.5284780550    1.3941185013    0.3863424637
H        2.1049102843   -0.0279052452    0.5468218907
H        1.2145608035   -1.8853738471    0.5777132323
H       -1.6461493191   -1.8426509839    0.9307964648
H       -2.5066266491    0.1478042833   -0.1157435606
H       -1.3388730204    2.2463955051    0.0556504253
C        1.1659422674    0.2136728280   -1.5690873762
H        2.0146883921    0.3981245942   -2.2474583270
13   
C5H5N+CH->C6H6N atoms 1-13 frame 174 charge -0.000 sz -1.000 sz^2 3.894
C        1.2177114971    0.1867026715   -0.0545793971
C        0.3491830938   -1.2513708770    0.3585189000
C       -0.8976111252   -1.0925638054    0.7067948012
C       -1.4418492400    0.1206929330    0.2132059866
C       -0.7407984306    1.3284198773    0.2457867811
N        0.5327944705    1.4085845409    0.3845077432
H        2.1110356449   -0.0127671871    0.5234273529
H        1.1765001714   -1.9667685913    0.6488561862
H       -1.6769248000   -1.8372242222    0.9313157962
H       -2.4830133006    0.1434860763   -0.1261816927
H       -1.3303080424    2.2356097159    0.0414400428
C        1.1698557424    0.2682419498   -1.5961125328
H        2.0134243187    0.4689569182   -2.2769799678
13   
C5H5N+CH->C6H6N atoms 1-13 frame 175 charge -0.000 sz -1.000 sz^2 3.848
C        1.2245727726    0.2095675842   -0.0751135978
C        0.3371595848   -1.3086269083    0.4039525535
C       -0.9042507595   -1.1096016592    0.7210557105
C       -1.4215620901    0.1123187451    0.2136467718
C       -0.7257171037    1.3242894730    0.2409479187
N        0.5371108859    1.4230505805    0.3826730227
H        2.1171610055    0.0023708710    0.5000328151
H        1.1384395392   -2.0481633354    0.7199991402
H       -1.7077002809   -1.8317974606    0.9318351276
H       -2.4593999522    0.1391678694   -0.1366198247
H       -1.3217430643    2.2248239267    0.0272296604
C        1.1737692174    0.3228110716   -1.6231376893
H        2.0121602453    0.5397892421   -2.3065016085
13   
C5H5N+CH->C6H6N atoms 1-13 frame 176 charge -0.000 sz -1.000 sz^2 3.791
C        1.2314340482    0.2324324969   -0.0956477985
C        0.3251360759   -1.3658829397    0.4493862069
C       -0.9108903938   -1.1266395130    0.7353166197
C       -1.4012749402    0.1039445572    0.2140875570
C       -0.7106357768    1.3201590686    0.2361090563
N        0.5414273014    1.4375166200    0.3808383021
H        2.1232863661    0.0175089291    0.4766382772
H        1.1003789071   -2.1295580796    0.7911420941
H       -1.7384757619   -1.8263706990    0.9323544590
H       -2.4357866038    0.1348496624   -0.1470579568
H       -1.3131780863    2.2140381375    0.0130192779
C        1.1776826924    0.3773801934   -1.6501628458
H        2.0108961718    0.6106215661   -2.3360232492
13   
C5H5N+CH->C6H6N atoms 1-13 frame 177 charge +0.000 sz -1.000 sz^2 3.728
C        1.2382953237    0.2552974097   -0.1161819991
C        0.3131125669   -1.4231389711    0.4948198603
C       -0.9175300281   -1.1436773669    0.7495775290
C       -1.3809877904    0.0955703693    0.2145283422
C       -0.6955544499    1.3160286643    0.2312701938
N        0.5457437169    1.4519826596    0.3790035816
H        2.1294117267    0.0326469871    0.4532437394
H        1.0623182749   -2.2109528238    0.8622850480
H       -1.7692512428   -1.8209439373    0.9328737904
H       -2.4121732554    0.1305314555   -0.1574960889
H       -1.3046131082    2.2032523484   -0.0011911045
C        1.1815961674    0.4319493152   -1.6771880023
H        2.0096320984    0.6814538901   -2.3655448899
13   
C5H5N+CH->C6H6N atoms 1-13 frame 178 charge -0.000 sz -1.000 sz^2 3.653
C        1.2392012509    0.2723356818   -0.1401732670
C        0.3025623916   -1.4728880223    0.5437194112
C       -0.9220423383   -1.1587348817    0.7644517994
C       -1.3598744510    0.0867053317    0.2143952372
C       -0.6799848645    1.3110728883    0.2271263273
N        0.5511662454    1.4613568822    0.3789557432
H        2.1277169873    0.0345461682    0.4251117051
H        1.0253981541   -2.2806318360    0.9382314123
H       -1.7946371645   -1.8156628842    0.9309624120
H       -2.3865749048    0.1239844846   -0.1707032919
H       -1.2935522043    2.1926290900   -0.0150186580
C        1.1827813764    0.4900454665   -1.7046478793
H        2.0078395216    0.7552416309   -2.3924109516
13   
C5H5N+CH->C6H6N atoms 1-13 frame 180 charge +0.000 sz -1.000 sz^2 3.469
C        1.2291586630    0.2786620594   -0.1705201248
C        0.2947208432   -1.5088359856    0.5989907859
C       -0.9226437033   -1.1701516741    0.7804536937
C       -1.3372422166    0.0769378994    0.2132070728
C       -0.6635176480    1.3045997212    0.2242601650
N        0.5586222899    1.4613701353    0.3821929698
H        2.1116455098    0.0121065470    0.3882700960
H        0.9905747883   -2.3287722477    1.0230085294
H       -1.8101147370   -1.8106497066    0.9245823340
H       -2.3573272584    0.1133400783   -0.1890012491
H       -1.2779027053    2.1823046339   -0.0281424056
C        1.1789508483    0.5546258290   -1.7329069612
H        2.0050753261    0.8344627106   -2.4143949062
13   
C5H5N+CH->C6H6N atoms 1-13 frame 181 charge +0.000 sz -1.000 sz^2 3.364
C        1.2191160751    0.2849884370   -0.2008669826
C        0.2868792949   -1.5447839490    0.6542621606
C       -0.9232450683   -1.1815684664    0.7964555880
C       -1.3146099822    0.0671704671    0.2120189085
C       -0.6470504316    1.2981265540    0.2213940027
N        0.5660783345    1.4613833883    0.3854301965
H        2.0955740324   -0.0103330742    0.3514284869
H        0.9557514224   -2.3769126594    1.1077856466
H       -1.8255923096   -1.8056365290    0.9182022561
H       -2.3280796120    0.1026956719   -0.2072992063
H       -1.2622532063    2.1719801779   -0.0412661533
C        1.1751203202    0.6192061914   -1.7611660430
H        2.0023111306    0.9136837904   -2.4363788607
13   
C5H5N+CH->C6H6N atoms 1-13 frame 182 charge -0.000 sz -1.000 sz^2 3.254
C        1.2090734872    0.2913148146   -0.2312138404
C        0.2790377465   -1.5807319123    0.7095335353
C       -0.9238464334   -1.1929852588    0.8124574823
C       -1.2919777479    0.0574030349    0.2108307442
C       -0.6305832151    1.2916533868    0.2185278404
N        0.5735343790    1.4613966414    0.3886674231
H        2.0795025550   -0.0327726953    0.3145868778
H        0.9209280566   -2.4250530711    1.1925627638
H       -1.8410698822   -1.8006233514    0.9118221781
H       -2.2988319656    0.0920512656   -0.2255971634
H       -1.2466037073    2.1616557218   -0.0543899009
C        1.1712897922    0.6837865538   -1.7894251249
H        1.9995469351    0.9929048701   -2.4583628153
13   
C5H5N+CH->C6H6N atoms 1-13 frame 183 charge +0.000 sz -1.000 sz^2 3.124
C        1.1990308993    0.2976411923   -0.2615606981
C        0.2711961981   -1.6166798756    0.7648049100
C       -0.9244477984   -1.2044020511    0.8284593766
C       -1.2693455135    0.0476356026    0.2096425799
C       -0.6141159986    1.2851802196    0.2156616781
N        0.5809904235    1.4614098944    0.3919046498
H        2.0634310776   -0.0552123165    0.2777452687
H        0.8861046907   -2.4731934828    1.2773398810
H       -1.8565474548   -1.7956101738    0.9054421001
H       -2.2695843192    0.0814068592   -0.2438951206