
Running Job 1 of 1 optimize.in
qchem optimize.in_32618.0 ./optimize.d/ 1
/home/leeping/opt/qchem/5.0.2-openmp/exe/qcprog.exe_s optimize.in_32618.0 ./optimize.d/
Check license passed

                  Welcome to Q-Chem
     A Quantum Leap Into The Future Of Chemistry


 Q-Chem 5.0, Q-Chem, Inc., Pleasanton, CA (2017)

 Yihan Shao,  Zhengting Gan,  E. Epifanovsky,  A. T. B. Gilbert,  M. Wormit,  
 J. Kussmann,  A. W. Lange,  A. Behn,  Jia Deng,  Xintian Feng,  D. Ghosh,  
 M. Goldey,  P. R. Horn,  L. D. Jacobson,  I. Kaliman,  T. Kus,  A. Landau,  
 Jie Liu,  E. I. Proynov,  R. M. Richard,  R. P. Steele,  E. J. Sundstrom,  
 H. L. Woodcock III,  P. M. Zimmerman,  D. Zuev,  B. Albrecht,  E. Alguire,  
 S. A. Baeppler,  D. Barton,  Z. Benda,  Y. A. Bernard,  E. J. Berquist,  
 K. B. Bravaya,  H. Burton,  D. Casanova,  Chun-Min Chang,  Yunqing Chen,  
 A. Chien,  K. D. Closser,  M. P. Coons,  S. Dasgupta,  A. L. Dempwolff,  
 M. Diedenhofen,  Hainam Do,  R. G. Edgar,  Po-Tung Fang,  S. Fatehi,  
 Qingguo Feng,  J. Fosso-Tande,  Qinghui Ge,  A. Ghysels,  G. Gidofalvi,  
 J. Gomes,  J. Gonthier,  A. Gunina,  M. W. D. Hanson-Heine,  
 P. H. P. Harbach,  A. W. Hauser,  J. E. Herr,  E. G. Hohenstein,  
 Z. C. Holden,  Kerwin Hui,  T.-C. Jagau,  Hyunjun Ji,  B. Kaduk,  
 K. Khistyaev,  Jaehoon Kim,  P. Klunzinger,  K. Koh,  D. Kosenkov,  
 L. Koulias,  T. Kowalczyk,  C. M. Krauter,  A. Kunitsa,  Ka Un Lao,  
 A. Laurent,  K. V. Lawler,  Joonho Lee,  D. Lefrancois,  S. Lehtola,  
 D. S. Levine,  Yi-Pei Li,  You-Sheng Lin,  Fenglai Liu,  E. Livshits,  
 A. Luenser,  P. Manohar,  E. Mansoor,  S. F. Manzer,  Shan-Ping Mao,  
 Yuezhi Mao,  N. Mardirossian,  A. V. Marenich,  T. Markovich,  
 L. A. Martinez-Martinez,  S. A. Maurer,  N. J. Mayhall,  S. C. McKenzie,  
 J.-M. Mewes,  A. F. Morrison,  J. W. Mullinax,  K. Nanda,  
 T. S. Nguyen-Beck,  R. Olivares-Amaya,  J. A. Parkhill,  T. M. Perrine,  
 F. Plasser,  S. Prager,  A. Prociuk,  E. Ramos,  D. R. Rehn,  F. Rob,  
 M. Schneider,  N. Sergueev,  S. M. Sharada,  S. Sharma,  D. W. Small,  
 T. Stauch,  T. Stein,  Yu-Chuan Su,  A. J. W. Thom,  A. Tkatchenko,  
 T. Tsuchimochi,  L. Vogt,  O. Vydrov,  M. A. Watson,  J. Wenzel,  
 M. de Wergifosse,  T. A. Wesolowski,  A. White,  J. Witte,  A. Yamada,  
 Jun Yang,  K. Yao,  S. Yeganeh,  S. R. Yost,  Zhi-Qiang You,  A. Zech,  
 Igor Ying Zhang,  Xing Zhang,  Yan Zhao,  Ying Zhu,  B. R. Brooks,  
 G. K. L. Chan,  C. J. Cramer,  M. S. Gordon,  W. J. Hehre,  A. Klamt,  
 M. W. Schmidt,  C. D. Sherrill,  D. G. Truhlar,  A. Aspuru-Guzik,  R. Baer,  
 A. T. Bell,  N. A. Besley,  Jeng-Da Chai,  R. A. DiStasio Jr.,  A. Dreuw,  
 B. D. Dunietz,  T. R. Furlani,  Chao-Ping Hsu,  Yousung Jung,  Jing Kong,  
 D. S. Lambrecht,  WanZhen Liang,  C. Ochsenfeld,  V. A. Rassolov,  
 L. V. Slipchenko,  J. E. Subotnik,  T. Van Voorhis,  J. M. Herbert,  
 A. I. Krylov,  P. M. W. Gill,  M. Head-Gordon

 Contributors to earlier versions of Q-Chem not listed above: 
 R. D. Adamson,  B. Austin,  J. Baker,  G. J. O. Beran,  K. Brandhorst,  
 S. T. Brown,  E. F. C. Byrd,  A. K. Chakraborty,  C.-L. Cheng,  
 Siu Hung Chien,  D. M. Chipman,  D. L. Crittenden,  H. Dachsel,  
 R. J. Doerksen,  A. D. Dutoi,  L. Fusti-Molnar,  W. A. Goddard III,  
 A. Golubeva-Zadorozhnaya,  S. R. Gwaltney,  G. Hawkins,  A. Heyden,  
 S. Hirata,  G. Kedziora,  F. J. Keil,  C. Kelley,  Jihan Kim,  R. A. King,  
 R. Z. Khaliullin,  P. P. Korambath,  W. Kurlancheek,  A. M. Lee,  M. S. Lee,  
 S. V. Levchenko,  Ching Yeh Lin,  D. Liotard,  R. C. Lochan,  I. Lotan,  
 P. E. Maslen,  N. Nair,  D. P. O'Neill,  D. Neuhauser,  E. Neuscamman,  
 C. M. Oana,  R. Olson,  B. Peters,  R. Peverati,  P. A. Pieniazek,  
 Y. M. Rhee,  J. Ritchie,  M. A. Rohrdanz,  E. Rosta,  N. J. Russ,  
 H. F. Schaefer III,  N. E. Schultz,  N. Shenvi,  A. C. Simmonett,  A. Sodt,  
 D. Stuck,  K. S. Thanthiriwatte,  V. Vanovschi,  Tao Wang,  A. Warshel,  
 C. F. Williams,  Q. Wu,  X. Xu,  W. Zhang

 Please cite Q-Chem as follows:
 Y. Shao et al., Mol. Phys. 113, 184-215 (2015)
 DOI: 10.1080/00268976.2014.952696

 Q-Chem 5.0.2 for Intel X86 EM64T Linux

 Parts of Q-Chem use Armadillo 5.200.1 (Boston Tea Smuggler).
 http://arma.sourceforge.net/

 Q-Chem begins on Tue Mar  1 11:52:22 2022  

Host: 
0

     Scratch files written to ./optimize.d//
 Dec517 15110_ 26548  26544 5633   
Processing $rem in /home/leeping/opt/qchem/5.0.2-openmp/config/preferences.
 MEM_STATIC 2000
 MEM_TOTAL  8000
 SYMMETRY   OFF
 SYM_IGNORE TRUE 

Checking the input file for inconsistencies... 	...done.

--------------------------------------------------------------
User input:
--------------------------------------------------------------
$molecule
0 2
C        1.3655594911    0.1436882578   -0.8815442664
C        0.4987667398   -1.1593673726   -1.0339432985
C       -0.8824280576   -0.6119384154   -2.1758364224
C       -1.2627055788   -0.0929561593   -0.3963178616
C       -0.7021095061    0.8304487034   -1.6724331119
N        0.9129986339    1.2911863792   -1.4619129900
H        1.9857964286    0.0085941228   -0.0178807200
H        0.9468164632   -2.1438844656   -0.9521524526
H       -1.5755770124   -1.3834216882   -2.7755661945
H       -2.2162786412    0.0436230358    0.1409321625
H       -1.4190424640    1.5918069154   -1.8461296522
C        0.0284309041   -0.4698683191    0.3300207492
H        0.6597999953   -0.4770836427    1.3015067904
$end

$rem
method                b3lyp
basis                 6-31g(d)
unrestricted          true
symmetry              off
sym_ignore            true
incdft                false
incfock               0
scf_convergence       8
thresh                14
jobtype               opt
scf_guess             read
scf_algorithm         diis
max_scf_cycles        100
geom_opt_tol_gradient 600
geom_opt_tol_displacement 2400
geom_opt_tol_energy   200
geom_opt_max_cycles   100
$end

--------------------------------------------------------------
 ----------------------------------------------------------------
             Standard Nuclear Orientation (Angstroms)
    I     Atom           X                Y                Z
 ----------------------------------------------------------------
    1      C       1.3655594911     0.1436882578    -0.8815442664
    2      C       0.4987667398    -1.1593673726    -1.0339432985
    3      C      -0.8824280576    -0.6119384154    -2.1758364224
    4      C      -1.2627055788    -0.0929561593    -0.3963178616
    5      C      -0.7021095061     0.8304487034    -1.6724331119
    6      N       0.9129986339     1.2911863792    -1.4619129900
    7      H       1.9857964286     0.0085941228    -0.0178807200
    8      H       0.9468164632    -2.1438844656    -0.9521524526
    9      H      -1.5755770124    -1.3834216882    -2.7755661945
   10      H      -2.2162786412     0.0436230358     0.1409321625
   11      H      -1.4190424640     1.5918069154    -1.8461296522
   12      C       0.0284309041    -0.4698683191     0.3300207492
   13      H       0.6597999953    -0.4770836427     1.3015067904
 ----------------------------------------------------------------
 Nuclear Repulsion Energy =   267.9096186239 hartrees
 There are       25 alpha and       24 beta electrons
 Requested basis set is 6-31G(d)
 There are 40 shells and 117 basis functions

 Total QAlloc Memory Limit   8000 MB
 Mega-Array Size      1956 MB
 MEM_STATIC part      2000 MB
 A cutoff of  1.0D-14 yielded    811 shell pairs
 There are      7083 function pairs
 
 -------------------------------------------------------
 OpenMP Integral Computing Module                       
 Release: version 1.0, May 2013, Q-Chem Inc. Pittsburgh 
 -------------------------------------------------------
 Integral Job Info:
 Integral job number is                      11
 Integral operator is                         1
 short-range coefficients                     0
 long-range coefficients              100000000
 Omega coefficients                           0
 if combine SR and LR in K                    0
 Integral screening is                        0
 Integral computing path is                   2
 max size of driver memory is            800000
 size of driver memory is                593474
 size of scratch memory is              2361544
 max col of scratch BK array               1296
 max len of scratch array in speh3          155
 max len of scratch index in speh4           18
 max int batch size is                      520
 min int batch size is                       52
 fixed nKL is                                52
 max L of basis functions is                  2
 order of int derivative is                   0
 number of shells is                         40
 number of basis is                         117
 number of cartesian basis is               117
 number of contracted shell pairs           811
 number of primitive shell pairs           3558
 maxK2 (contraction) of shell pair           36
 max number of K2 of shell pair               1
 max number of CS2 of shell pair             84
 max number of PS2 of shell pair            426
 mem total for path MDJ                  535308
 -------------------------------------------------------
 Smallest overlap matrix eigenvalue = 3.11E-03

 Scale SEOQF with 1.000000e-01/1.000000e-01/1.000000e-01

 Standard Electronic Orientation quadrupole field applied
 Nucleus-field energy     =    -0.0000000048 hartrees
 Guess MOs from SCF MO coefficient file
 Reading MOs from coefficient file
 Reading MOs from coefficient file
 An unrestricted hybrid HF-DFT SCF calculation will be
 performed using Pulay DIIS extrapolation
 Exchange:     0.2000 Hartree-Fock + 0.0800 Slater + 0.7200 B88
 Correlation:  0.1900 VWN1RPA + 0.8100 LYP
 Using SG-1 standard quadrature grid
 SCF converges when DIIS error is below 1.0E-08
Using Q-Chem read-in guess as SCF_GUESS READ specified.

 using 4 threads for integral computing
 -------------------------------------------------------
 OpenMP Integral computing Module                
 Release: version 1.0, May 2013, Q-Chem Inc. Pittsburgh 
 -------------------------------------------------------
 -------------------------------------------------------
 OpenMP BLAS3 based DFT computing Module                
 Release: version 1.0, May 2013, Q-Chem Inc. Pittsburgh 
 -------------------------------------------------------
 ---------------------------------------
  Cycle       Energy         DIIS Error
 ---------------------------------------
    1    -286.6382696126      8.47E-10
    2    -286.6382696126      1.91E-09 Convergence criterion met
 ---------------------------------------
 <S^2> = 0.7846
 SCF time:  CPU 5.35 s  wall 2.85 s
 SCF   energy in the final basis set = -286.63826961
 Total energy in the final basis set = -286.63826961
 
 --------------------------------------------------------------
 
                    Orbital Energies (a.u.)
 --------------------------------------------------------------
 
 Alpha MOs
 -- Occupied --
-14.339 -10.258 -10.249 -10.236 -10.235 -10.234 -10.230  -0.910
 -0.798  -0.752  -0.647  -0.578  -0.561  -0.542  -0.511  -0.438
 -0.422  -0.390  -0.372  -0.355  -0.322  -0.306  -0.263  -0.214
 -0.184
 -- Virtual --
  0.003   0.026   0.043   0.059   0.076   0.116   0.130   0.150
  0.158   0.164   0.181   0.199   0.248   0.267   0.290   0.326
  0.480   0.494   0.516   0.525   0.543   0.569   0.584   0.603
  0.618   0.635   0.663   0.679   0.690   0.696   0.761   0.771
  0.784   0.792   0.815   0.847   0.874   0.888   0.920   0.930
  0.943   0.989   1.056   1.097   1.147   1.210   1.261   1.354
  1.372   1.388   1.462   1.482   1.544   1.585   1.622   1.670
  1.703   1.740   1.792   1.807   1.840   1.862   1.914   1.952
  2.006   2.046   2.081   2.136   2.147   2.198   2.273   2.330
  2.360   2.400   2.405   2.464   2.478   2.532   2.539   2.569
  2.598   2.638   2.729   2.757   2.845   3.781   4.107   4.198
  4.269   4.407   4.481   4.489
 
 Beta MOs
 -- Occupied --
-14.328 -10.257 -10.248 -10.237 -10.236 -10.232 -10.226  -0.899
 -0.785  -0.745  -0.641  -0.574  -0.558  -0.534  -0.506  -0.435
 -0.417  -0.383  -0.358  -0.349  -0.320  -0.292  -0.243  -0.197
 -- Virtual --
 -0.078   0.005   0.044   0.050   0.064   0.081   0.119   0.138
  0.154   0.161   0.168   0.183   0.202   0.251   0.270   0.295
  0.330   0.486   0.497   0.518   0.529   0.548   0.578   0.588
  0.605   0.621   0.639   0.672   0.685   0.696   0.702   0.767
  0.773   0.797   0.798   0.817   0.848   0.884   0.891   0.922
  0.936   0.948   0.998   1.060   1.103   1.152   1.213   1.264
  1.357   1.374   1.401   1.470   1.497   1.550   1.596   1.629
  1.676   1.706   1.749   1.803   1.811   1.848   1.867   1.936
  1.960   2.014   2.054   2.083   2.142   2.155   2.202   2.280
  2.342   2.365   2.403   2.417   2.468   2.486   2.534   2.543
  2.581   2.610   2.645   2.735   2.761   2.849   3.799   4.115
  4.205   4.268   4.409   4.483   4.495
 --------------------------------------------------------------
 
          Ground-State Mulliken Net Atomic Charges

     Atom                 Charge (a.u.)    Spin (a.u.)
  --------------------------------------------------------
      1 C                     0.057030      -0.140433
      2 C                    -0.196957      -0.013079
      3 C                    -0.120483       0.088399
      4 C                    -0.188016      -0.093448
      5 C                    -0.070144       0.034307
      6 N                    -0.346656       0.559879
      7 H                     0.159197       0.008487
      8 H                     0.155418       0.014567
      9 H                     0.179083      -0.006631
     10 H                     0.152834       0.001470
     11 H                     0.166067       0.000100
     12 C                    -0.129248       0.578642
     13 H                     0.181875      -0.032259
  --------------------------------------------------------
  Sum of atomic charges =     0.000000
  Sum of spin   charges =     1.000000

 -----------------------------------------------------------------
                    Cartesian Multipole Moments
 -----------------------------------------------------------------
    Charge (ESU x 10^10)
                 0.0000
    Dipole Moment (Debye)
         X      -1.4194      Y      -2.2875      Z       1.3303
       Tot       3.0028
    Quadrupole Moments (Debye-Ang)
        XX     -38.8181     XY      -3.7483     YY     -43.7646
        XZ       5.7712     YZ       3.6169     ZZ     -41.6301
    Octopole Moments (Debye-Ang^2)
       XXX      -1.4485    XXY      -0.8082    XYY      -4.3350
       YYY      -4.0998    XXZ      42.5634    XYZ       2.4828
       YYZ      42.1254    XZZ     -10.1835    YZZ      -6.4314
       ZZZ     128.1672
    Hexadecapole Moments (Debye-Ang^3)
      XXXX    -278.4930   XXXY     -14.2228   XXYY     -84.4789
      XYYY     -25.0430   YYYY    -224.1785   XXXZ     -11.6361
      XXYZ      10.6920   XYYZ       7.8628   YYYZ      27.0220
      XXZZ    -120.4505   XYZZ      -2.4673   YYZZ    -114.6490
      XZZZ       8.3499   YZZZ      31.1297   ZZZZ    -478.9952
 -----------------------------------------------------------------
 Calculating analytic gradient of the SCF energy
 Gradient of SCF Energy
            1           2           3           4           5           6
    1   0.0569186  -0.0028540  -0.0202221  -0.0413246  -0.0112788   0.0449906
    2   0.0115471  -0.0511978   0.0222385  -0.0364141   0.0498906   0.0413577
    3   0.0217817  -0.0169560  -0.1064676   0.0284418  -0.0281581  -0.0175986
            7           8           9          10          11          12
    1  -0.0397319   0.0002529  -0.0348407  -0.0045822   0.0039416   0.0057112
    2  -0.0163986   0.0031976  -0.0447581  -0.0069770  -0.0191776   0.0436923
    3   0.0116884   0.0116506  -0.0253770   0.0167949   0.0184286   0.0578348
           13
    1   0.0430193
    2   0.0029994
    3   0.0279363
 Max gradient component =       1.065E-01
 RMS gradient           =       3.408E-02
 Gradient time:  CPU 8.06 s  wall 7.93 s
 Geometry Optimization Parameters
   NAtoms,    NIC,     NZ,  NCons,   NDum,   NFix, NCnnct, MaxDiis
       13     151       0       0       0       0       0       0


** GEOMETRY OPTIMIZATION IN DELOCALIZED INTERNAL COORDINATES **
   Searching for a Minimum

   Optimization Cycle:   1

                       Coordinates (Angstroms)
     ATOM                X               Y               Z
      1  C         1.3655594911    0.1436882578   -0.8815442664
      2  C         0.4987667398   -1.1593673726   -1.0339432985
      3  C        -0.8824280576   -0.6119384154   -2.1758364224
      4  C        -1.2627055788   -0.0929561593   -0.3963178616
      5  C        -0.7021095061    0.8304487034   -1.6724331119
      6  N         0.9129986339    1.2911863792   -1.4619129900
      7  H         1.9857964286    0.0085941228   -0.0178807200
      8  H         0.9468164632   -2.1438844656   -0.9521524526
      9  H        -1.5755770124   -1.3834216882   -2.7755661945
     10  H        -2.2162786412    0.0436230358    0.1409321625
     11  H        -1.4190424640    1.5918069154   -1.8461296522
     12  C         0.0284309041   -0.4698683191    0.3300207492
     13  H         0.6597999953   -0.4770836427    1.3015067904
   Point Group: c1    Number of degrees of freedom:    33


   Energy is   -286.638269613


 Attempting to Generate Delocalized Internal Coordinates

 33 Hessian modes will be used to form the next step
  Hessian Eigenvalues:
     0.007740    0.010985    0.011430    0.014236    0.018493    0.019331
     0.023127    0.028025    0.049656    0.057837    0.060731    0.066385
     0.082061    0.086908    0.091157    0.098502    0.102888    0.110753
     0.125218    0.136829    0.156225    0.161559    0.191767    0.197623
     0.228198    0.248084    0.251960    0.279478    0.333533    0.354248
     0.369975    0.385088    0.455260

 Minimum Search - Taking Simple RFO Step
 Searching for Lamda that Minimizes Along All modes
 Value Taken    Lamda =  -0.11030868
 Calculated Step too Large.  Step scaled by  0.445135
 Step Taken.  Stepsize is  0.300000

                             Maximum     Tolerance    Cnvgd?
         Gradient           0.081701      0.000600      NO
         Displacement       0.150302      0.002400      NO
         Energy change     *********      0.000002      NO


 New Cartesian Coordinates Obtained by Inverse Iteration

 Displacement from previous Coordinates is:  0.309112
 ----------------------------------------------------------------
             Standard Nuclear Orientation (Angstroms)
    I     Atom           X                Y                Z
 ----------------------------------------------------------------
    1      C       1.3480935721     0.1389666740    -0.8958264070
    2      C       0.4979902883    -1.1526487551    -1.0317356173
    3      C      -0.8570331027    -0.6123426714    -2.1195419735
    4      C      -1.2544040344    -0.0841642440    -0.4020131332
    5      C      -0.6965992659     0.8193022153    -1.6501176846
    6      N       0.8777154998     1.2726443813    -1.4582750666
    7      H       2.0188707769     0.0270595900    -0.0600354486
    8      H       0.9468858732    -2.1393147060    -0.9699845420
    9      H      -1.5256865655    -1.3577159364    -2.7001740343
   10      H      -2.2134277116     0.0633535894     0.1097833589
   11      H      -1.4120852698     1.5885695531    -1.8496825059
   12      C       0.0104280894    -0.4897755514     0.3108020834
   13      H       0.5992792461    -0.5031067872     1.2755437026
 ----------------------------------------------------------------
 Nuclear Repulsion Energy =   271.8692260371 hartrees
 There are       25 alpha and       24 beta electrons
 Applying Cartesian multipole field
    Component          Value
    ---------          -----
     (2,0,0)        1.00000E-11
     (0,2,0)        2.00000E-11
     (0,0,2)       -3.00000E-11
 Nucleus-field energy     =    -0.0000000047 hartrees
 Requested basis set is 6-31G(d)
 There are 40 shells and 117 basis functions
 A cutoff of  1.0D-14 yielded    811 shell pairs
 There are      7083 function pairs
 Smallest overlap matrix eigenvalue = 2.58E-03
 Guess MOs from SCF MO coefficient file
 Reading MOs from coefficient file
 Reading MOs from coefficient file
 An unrestricted hybrid HF-DFT SCF calculation will be
 performed using Pulay DIIS extrapolation
 Exchange:     0.2000 Hartree-Fock + 0.0800 Slater + 0.7200 B88
 Correlation:  0.1900 VWN1RPA + 0.8100 LYP
 Using SG-1 standard quadrature grid
 SCF converges when DIIS error is below 1.0E-08
 Geometry optimization detected.  Setting ReadMinima to 0
 Setting SaveMinima to 0
Using Q-Chem read-in guess as SCF_GUESS READ specified.

 using 4 threads for integral computing
 -------------------------------------------------------
 OpenMP Integral computing Module                
 Release: version 1.0, May 2013, Q-Chem Inc. Pittsburgh 
 -------------------------------------------------------
 -------------------------------------------------------
 OpenMP BLAS3 based DFT computing Module                
 Release: version 1.0, May 2013, Q-Chem Inc. Pittsburgh 
 -------------------------------------------------------
 ---------------------------------------
  Cycle       Energy         DIIS Error
 ---------------------------------------
    1    -286.7740684588      2.23E-03
    2    -286.6820830550      9.90E-04
    3    -286.6807710377      1.33E-03
    4    -286.6837693489      3.71E-04
    5    -286.6840077040      6.74E-05
    6    -286.6840150897      4.17E-05
    7    -286.6840191398      1.28E-05
    8    -286.6840198035      5.82E-06
    9    -286.6840201748      3.69E-06
   10    -286.6840203926      1.45E-06
   11    -286.6840204134      7.93E-07
   12    -286.6840204171      2.84E-07
   13    -286.6840204176      1.13E-07
   14    -286.6840204177      5.70E-08
   15    -286.6840204177      1.02E-08
   16    -286.6840204177      3.83E-09 Convergence criterion met
 ---------------------------------------
 <S^2> = 0.7816
 SCF time:  CPU 42.32 s  wall 39.44 s
 SCF   energy in the final basis set = -286.68402042
 Total energy in the final basis set = -286.68402042
 
 --------------------------------------------------------------
 
                    Orbital Energies (a.u.)
 --------------------------------------------------------------
 
 Alpha MOs
 -- Occupied --
-14.333 -10.249 -10.244 -10.232 -10.229 -10.228 -10.228  -0.922
 -0.806  -0.758  -0.652  -0.578  -0.562  -0.546  -0.517  -0.442
 -0.428  -0.391  -0.377  -0.361  -0.327  -0.306  -0.263  -0.217
 -0.184
 -- Virtual --
  0.015   0.032   0.063   0.073   0.088   0.120   0.144   0.158
  0.161   0.172   0.185   0.207   0.256   0.277   0.301   0.337
  0.480   0.494   0.517   0.527   0.545   0.567   0.586   0.600
  0.624   0.642   0.661   0.683   0.698   0.700   0.769   0.781
  0.790   0.799   0.814   0.846   0.878   0.884   0.920   0.936
  0.949   0.989   1.072   1.091   1.156   1.212   1.274   1.373
  1.390   1.411   1.469   1.491   1.567   1.595   1.658   1.682
  1.714   1.758   1.789   1.823   1.856   1.883   1.937   1.975
  2.025   2.062   2.099   2.159   2.168   2.227   2.308   2.352
  2.385   2.420   2.433   2.493   2.504   2.544   2.564   2.595
  2.619   2.657   2.756   2.783   2.871   3.808   4.128   4.224
  4.283   4.419   4.503   4.523
 
 Beta MOs
 -- Occupied --
-14.323 -10.248 -10.244 -10.232 -10.230 -10.229 -10.220  -0.912
 -0.793  -0.750  -0.645  -0.574  -0.559  -0.538  -0.512  -0.439
 -0.424  -0.386  -0.364  -0.354  -0.325  -0.292  -0.244  -0.201
 -- Virtual --
 -0.077   0.017   0.053   0.067   0.077   0.092   0.123   0.151
  0.160   0.165   0.177   0.188   0.211   0.260   0.279   0.305
  0.342   0.485   0.497   0.519   0.532   0.550   0.574   0.591
  0.602   0.628   0.645   0.672   0.689   0.703   0.707   0.776
  0.787   0.800   0.805   0.815   0.846   0.886   0.887   0.924
  0.942   0.953   0.998   1.076   1.097   1.162   1.216   1.277
  1.378   1.393   1.423   1.476   1.506   1.572   1.608   1.661
  1.688   1.716   1.765   1.798   1.826   1.867   1.888   1.956
  1.983   2.034   2.070   2.103   2.164   2.178   2.232   2.317
  2.363   2.392   2.429   2.438   2.501   2.509   2.545   2.568
  2.610   2.629   2.665   2.761   2.787   2.876   3.824   4.135
  4.231   4.282   4.421   4.505   4.529
 --------------------------------------------------------------
 
          Ground-State Mulliken Net Atomic Charges

     Atom                 Charge (a.u.)    Spin (a.u.)
  --------------------------------------------------------
      1 C                     0.058862      -0.135726
      2 C                    -0.207076      -0.015746
      3 C                    -0.110164       0.085904
      4 C                    -0.181371      -0.085573
      5 C                    -0.075790       0.038211
      6 N                    -0.349271       0.526189
      7 H                     0.156332       0.008441
      8 H                     0.154236       0.016658
      9 H                     0.175067      -0.005968
     10 H                     0.151299       0.001664
     11 H                     0.162939       0.000471
     12 C                    -0.112055       0.597762
     13 H                     0.176992      -0.032289
  --------------------------------------------------------
  Sum of atomic charges =    -0.000000
  Sum of spin   charges =     1.000000

 -----------------------------------------------------------------
                    Cartesian Multipole Moments
 -----------------------------------------------------------------
    Charge (ESU x 10^10)
                -0.0000
    Dipole Moment (Debye)
         X      -1.3661      Y      -2.3091      Z       1.2982
       Tot       2.9806
    Quadrupole Moments (Debye-Ang)
        XX     -38.6591     XY      -3.7910     YY     -43.6105
        XZ       5.3804     YZ       3.5864     ZZ     -41.6587
    Octopole Moments (Debye-Ang^2)
       XXX      -0.5730    XXY      -0.3306    XYY      -3.9470
       YYY      -3.6481    XXZ      42.1269    XYZ       2.8254
       YYZ      41.9525    XZZ      -9.1157    YZZ      -5.9653
       ZZZ     127.6394
    Hexadecapole Moments (Debye-Ang^3)
      XXXX    -269.9776   XXXY     -12.9136   XXYY     -82.9584
      XYYY     -23.2986   YYYY    -221.0905   XXXZ     -10.3139
      XXYZ       9.8274   XYYZ       7.5877   YYYZ      26.7785
      XXZZ    -118.4444   XYZZ      -3.4216   YYZZ    -112.3955
      XZZZ       6.8773   YZZZ      29.5062   ZZZZ    -467.1404
 -----------------------------------------------------------------
 Calculating analytic gradient of the SCF energy
 Gradient of SCF Energy
            1           2           3           4           5           6
    1   0.0420490   0.0011872  -0.0210527  -0.0334230  -0.0108350   0.0439290
    2   0.0108932  -0.0433647   0.0243833  -0.0322469   0.0290794   0.0332449
    3   0.0133328  -0.0111594  -0.1062237   0.0297214  -0.0210812  -0.0157663
            7           8           9          10          11          12
    1  -0.0332833  -0.0001487  -0.0253759  -0.0027010  -0.0000080   0.0063937
    2  -0.0149421   0.0021363  -0.0351831  -0.0066958  -0.0124707   0.0435399
    3   0.0141956   0.0111646  -0.0162628   0.0135829   0.0172078   0.0529370
           13
    1   0.0332687
    2   0.0016261
    3   0.0183514
 Max gradient component =       1.062E-01
 RMS gradient           =       2.987E-02
 Gradient time:  CPU 7.92 s  wall 5.03 s
 Geometry Optimization Parameters
   NAtoms,    NIC,     NZ,  NCons,   NDum,   NFix, NCnnct, MaxDiis
       13     151       0       0       0       0       0       0

 Cartesian Hessian Update
 Hessian Updated using BFGS Update


** GEOMETRY OPTIMIZATION IN DELOCALIZED INTERNAL COORDINATES **
   Searching for a Minimum

   Optimization Cycle:   2

                       Coordinates (Angstroms)
     ATOM                X               Y               Z
      1  C         1.3480935721    0.1389666740   -0.8958264070
      2  C         0.4979902883   -1.1526487551   -1.0317356173
      3  C        -0.8570331027   -0.6123426714   -2.1195419735
      4  C        -1.2544040344   -0.0841642440   -0.4020131332
      5  C        -0.6965992659    0.8193022153   -1.6501176846
      6  N         0.8777154998    1.2726443813   -1.4582750666
      7  H         2.0188707769    0.0270595900   -0.0600354486
      8  H         0.9468858732   -2.1393147060   -0.9699845420
      9  H        -1.5256865655   -1.3577159364   -2.7001740343
     10  H        -2.2134277116    0.0633535894    0.1097833589
     11  H        -1.4120852698    1.5885695531   -1.8496825059
     12  C         0.0104280894   -0.4897755514    0.3108020834
     13  H         0.5992792461   -0.5031067872    1.2755437026
   Point Group: c1    Number of degrees of freedom:    33


   Energy is   -286.684020418

 Hessian Updated using BFGS Update

 33 Hessian modes will be used to form the next step
  Hessian Eigenvalues:
     0.007761    0.010916    0.011417    0.014140    0.017975    0.018771
     0.023019    0.028275    0.049327    0.056525    0.061179    0.064366
     0.069892    0.082403    0.086944    0.091225    0.098639    0.107770
     0.118640    0.135098    0.147403    0.157537    0.190998    0.197493
     0.230863    0.250133    0.262165    0.296777    0.334492    0.354262
     0.370359    0.390517    0.456551

 Minimum Search - Taking Simple RFO Step
 Searching for Lamda that Minimizes Along All modes
 Value Taken    Lamda =  -0.11094256
 Calculated Step too Large.  Step scaled by  0.374702
 Step Taken.  Stepsize is  0.300000

                             Maximum     Tolerance    Cnvgd?
         Gradient           0.065731      0.000600      NO
         Displacement       0.145418      0.002400      NO
         Energy change     -0.045751      0.000002      NO


 New Cartesian Coordinates Obtained by Inverse Iteration

 Displacement from previous Coordinates is:  0.303361
 ----------------------------------------------------------------
             Standard Nuclear Orientation (Angstroms)
    I     Atom           X                Y                Z
 ----------------------------------------------------------------
    1      C       1.3336338663     0.1358441229    -0.9089937635
    2      C       0.4942565047    -1.1455667043    -1.0314903585
    3      C      -0.8320163259    -0.6145510327    -2.0588017006
    4      C      -1.2473312839    -0.0791620733    -0.4120543849
    5      C      -0.6865639650     0.8127897475    -1.6282830999
    6      N       0.8397275175     1.2551482297    -1.4513849048
    7      H       2.0493867712     0.0499374275    -0.1023145042
    8      H       0.9435963351    -2.1339614360    -0.9910892489
    9      H      -1.4844956321    -1.3376134143    -2.6241712582
   10      H      -2.2140152625     0.0790246933     0.0724035769
   11      H      -1.3966092756     1.5872003904    -1.8529632602
   12      C      -0.0050785791    -0.5110917427     0.2918946798
   13      H       0.5455367252    -0.5271708566     1.2559909589
 ----------------------------------------------------------------
 Nuclear Repulsion Energy =   275.9118577146 hartrees
 There are       25 alpha and       24 beta electrons
 Applying Cartesian multipole field
    Component          Value
    ---------          -----
     (2,0,0)        1.00000E-11
     (0,2,0)        2.00000E-11
     (0,0,2)       -3.00000E-11
 Nucleus-field energy     =    -0.0000000045 hartrees
 Requested basis set is 6-31G(d)
 There are 40 shells and 117 basis functions
 A cutoff of  1.0D-14 yielded    811 shell pairs
 There are      7083 function pairs
 Smallest overlap matrix eigenvalue = 2.13E-03
 Guess MOs from SCF MO coefficient file
 Reading MOs from coefficient file
 Reading MOs from coefficient file
 An unrestricted hybrid HF-DFT SCF calculation will be
 performed using Pulay DIIS extrapolation
 Exchange:     0.2000 Hartree-Fock + 0.0800 Slater + 0.7200 B88
 Correlation:  0.1900 VWN1RPA + 0.8100 LYP
 Using SG-1 standard quadrature grid
 SCF converges when DIIS error is below 1.0E-08
 Geometry optimization detected.  Setting ReadMinima to 0
 Setting SaveMinima to 0
Using Q-Chem read-in guess as SCF_GUESS READ specified.

 using 4 threads for integral computing
 -------------------------------------------------------
 OpenMP Integral computing Module                
 Release: version 1.0, May 2013, Q-Chem Inc. Pittsburgh 
 -------------------------------------------------------
 -------------------------------------------------------
 OpenMP BLAS3 based DFT computing Module                
 Release: version 1.0, May 2013, Q-Chem Inc. Pittsburgh 
 -------------------------------------------------------
 ---------------------------------------
  Cycle       Energy         DIIS Error
 ---------------------------------------
    1    -286.8081049343      2.40E-03
    2    -286.7207535090      9.12E-04
    3    -286.7198640281      1.18E-03
    4    -286.7221807006      3.12E-04
    5    -286.7223431197      6.31E-05
    6    -286.7223505509      3.37E-05
    7    -286.7223532820      1.14E-05
    8    -286.7223539149      5.53E-06
    9    -286.7223542171      3.50E-06
   10    -286.7223544060      1.48E-06
   11    -286.7223544252      8.01E-07
   12    -286.7223544298      2.82E-07
   13    -286.7223544303      1.10E-07
   14    -286.7223544304      5.17E-08
   15    -286.7223544304      1.03E-08
   16    -286.7223544304      3.54E-09 Convergence criterion met
 ---------------------------------------
 <S^2> = 0.7789
 SCF time:  CPU 42.32 s  wall 43.33 s
 SCF   energy in the final basis set = -286.72235443
 Total energy in the final basis set = -286.72235443
 
 --------------------------------------------------------------
 
                    Orbital Energies (a.u.)
 --------------------------------------------------------------
 
 Alpha MOs
 -- Occupied --
-14.327 -10.239 -10.239 -10.227 -10.226 -10.224 -10.221  -0.936
 -0.814  -0.763  -0.656  -0.579  -0.565  -0.547  -0.523  -0.445
 -0.434  -0.394  -0.383  -0.366  -0.333  -0.304  -0.263  -0.220
 -0.183
 -- Virtual --
  0.027   0.039   0.080   0.085   0.102   0.124   0.154   0.161
  0.168   0.181   0.192   0.218   0.263   0.284   0.312   0.349
  0.479   0.497   0.516   0.532   0.549   0.565   0.584   0.600
  0.630   0.648   0.659   0.687   0.702   0.710   0.772   0.784
  0.798   0.805   0.817   0.845   0.879   0.880   0.921   0.937
  0.962   0.989   1.077   1.093   1.167   1.215   1.284   1.391
  1.415   1.439   1.472   1.508   1.590   1.605   1.671   1.702
  1.731   1.783   1.786   1.838   1.879   1.912   1.956   1.996
  2.045   2.079   2.113   2.167   2.198   2.257   2.338   2.378
  2.402   2.446   2.450   2.508   2.538   2.565   2.592   2.613
  2.658   2.678   2.782   2.809   2.898   3.838   4.148   4.247
  4.295   4.433   4.525   4.562
 
 Beta MOs
 -- Occupied --
-14.318 -10.238 -10.238 -10.228 -10.227 -10.223 -10.215  -0.927
 -0.802  -0.755  -0.648  -0.575  -0.562  -0.538  -0.518  -0.442
 -0.429  -0.389  -0.369  -0.359  -0.330  -0.293  -0.246  -0.204
 -- Virtual --
 -0.076   0.032   0.060   0.084   0.088   0.105   0.127   0.159
  0.164   0.171   0.187   0.196   0.223   0.266   0.286   0.317
  0.354   0.484   0.501   0.519   0.538   0.553   0.570   0.591
  0.602   0.636   0.652   0.671   0.693   0.708   0.715   0.780
  0.793   0.804   0.810   0.820   0.845   0.882   0.886   0.927
  0.942   0.965   0.998   1.083   1.098   1.173   1.219   1.287
  1.396   1.418   1.449   1.481   1.521   1.597   1.618   1.673
  1.707   1.735   1.789   1.795   1.842   1.891   1.917   1.973
  2.003   2.055   2.087   2.117   2.174   2.207   2.264   2.347
  2.387   2.413   2.453   2.456   2.515   2.542   2.567   2.596
  2.627   2.667   2.684   2.787   2.812   2.902   3.853   4.155
  4.255   4.294   4.436   4.528   4.567
 --------------------------------------------------------------
 
          Ground-State Mulliken Net Atomic Charges

     Atom                 Charge (a.u.)    Spin (a.u.)
  --------------------------------------------------------
      1 C                     0.058527      -0.129766
      2 C                    -0.215988      -0.018589
      3 C                    -0.100340       0.081307
      4 C                    -0.173767      -0.077040
      5 C                    -0.078268       0.040745
      6 N                    -0.349857       0.493535
      7 H                     0.153637       0.008216
      8 H                     0.153198       0.018779
      9 H                     0.169561      -0.005377
     10 H                     0.149647       0.001760
     11 H                     0.160161       0.000726
     12 C                    -0.098009       0.618124
     13 H                     0.171497      -0.032419
  --------------------------------------------------------
  Sum of atomic charges =    -0.000000
  Sum of spin   charges =     1.000000

 -----------------------------------------------------------------
                    Cartesian Multipole Moments
 -----------------------------------------------------------------
    Charge (ESU x 10^10)
                -0.0000
    Dipole Moment (Debye)
         X      -1.3024      Y      -2.3097      Z       1.2612
       Tot       2.9363
    Quadrupole Moments (Debye-Ang)
        XX     -38.5002     XY      -3.7682     YY     -43.4301
        XZ       4.9928     YZ       3.5206     ZZ     -41.6939
    Octopole Moments (Debye-Ang^2)
       XXX       0.2174    XXY       0.1348    XYY      -3.6002
       YYY      -3.1070    XXZ      41.6460    XYZ       3.0769
       YYZ      41.6815    XZZ      -8.0182    YZZ      -5.4095
       ZZZ     127.0933
    Hexadecapole Moments (Debye-Ang^3)
      XXXX    -261.7850   XXXY     -11.6509   XXYY     -81.5242
      XYYY     -21.7669   YYYY    -218.5318   XXXZ      -9.0925
      XXYZ       9.0710   XYYZ       7.2745   YYYZ      26.3891
      XXZZ    -116.2611   XYZZ      -4.2108   YYZZ    -110.0700
      XZZZ       5.2631   YZZZ      27.7042   ZZZZ    -455.3344
 -----------------------------------------------------------------
 Calculating analytic gradient of the SCF energy
 Gradient of SCF Energy
            1           2           3           4           5           6
    1   0.0282541   0.0021057  -0.0193591  -0.0248653  -0.0107445   0.0398722
    2   0.0098098  -0.0343996   0.0259134  -0.0283655   0.0112256   0.0242526
    3   0.0066205  -0.0063782  -0.1029369   0.0285910  -0.0131365  -0.0143112
            7           8           9          10          11          12
    1  -0.0276031  -0.0006892  -0.0164250  -0.0017004  -0.0012845   0.0073411
    2  -0.0131696   0.0013093  -0.0256086  -0.0061225  -0.0079698   0.0423368
    3   0.0157805   0.0106772  -0.0070337   0.0105827   0.0164317   0.0447445
           13
    1   0.0250982
    2   0.0007881
    3   0.0103682
 Max gradient component =       1.029E-01
 RMS gradient           =       2.592E-02
 Gradient time:  CPU 7.97 s  wall 2.73 s
 Geometry Optimization Parameters
   NAtoms,    NIC,     NZ,  NCons,   NDum,   NFix, NCnnct, MaxDiis
       13     151       0       0       0       0       0       0

 Cartesian Hessian Update
 Hessian Updated using BFGS Update


** GEOMETRY OPTIMIZATION IN DELOCALIZED INTERNAL COORDINATES **
   Searching for a Minimum

   Optimization Cycle:   3

                       Coordinates (Angstroms)
     ATOM                X               Y               Z
      1  C         1.3336338663    0.1358441229   -0.9089937635
      2  C         0.4942565047   -1.1455667043   -1.0314903585
      3  C        -0.8320163259   -0.6145510327   -2.0588017006
      4  C        -1.2473312839   -0.0791620733   -0.4120543849
      5  C        -0.6865639650    0.8127897475   -1.6282830999
      6  N         0.8397275175    1.2551482297   -1.4513849048
      7  H         2.0493867712    0.0499374275   -0.1023145042
      8  H         0.9435963351   -2.1339614360   -0.9910892489
      9  H        -1.4844956321   -1.3376134143   -2.6241712582
     10  H        -2.2140152625    0.0790246933    0.0724035769
     11  H        -1.3966092756    1.5872003904   -1.8529632602
     12  C        -0.0050785791   -0.5110917427    0.2918946798
     13  H         0.5455367252   -0.5271708566    1.2559909589
   Point Group: c1    Number of degrees of freedom:    33


   Energy is   -286.722354430

 Hessian Updated using BFGS Update

 33 Hessian modes will be used to form the next step
  Hessian Eigenvalues:
     0.007761    0.010951    0.011426    0.014146    0.018140    0.018734
     0.023045    0.028259    0.048865    0.055703    0.062105    0.064881
     0.068649    0.082573    0.086932    0.091274    0.098803    0.108010
     0.121240    0.135257    0.147110    0.157907    0.190839    0.197813
     0.232254    0.250346    0.269502    0.324334    0.338298    0.354260
     0.371099    0.392772    0.467096

 Minimum Search - Taking Simple RFO Step
 Searching for Lamda that Minimizes Along All modes
 Value Taken    Lamda =  -0.08786127
 Calculated Step too Large.  Step scaled by  0.381362
 Step Taken.  Stepsize is  0.300000

                             Maximum     Tolerance    Cnvgd?
         Gradient           0.055588      0.000600      NO
         Displacement       0.149550      0.002400      NO
         Energy change     -0.038334      0.000002      NO


 New Cartesian Coordinates Obtained by Inverse Iteration

 Displacement from previous Coordinates is:  0.291886
 ----------------------------------------------------------------
             Standard Nuclear Orientation (Angstroms)
    I     Atom           X                Y                Z
 ----------------------------------------------------------------
    1      C       1.3234414692     0.1358073172    -0.9190088013
    2      C       0.4913651944    -1.1396667110    -1.0306864648
    3      C      -0.8103063268    -0.6191523483    -1.9967171559
    4      C      -1.2426185912    -0.0739621452    -0.4222675642
    5      C      -0.6759076953     0.8121302353    -1.6095001140
    6      N       0.8032205162     1.2430528175    -1.4410291941
    7      H       2.0836189834     0.0759110952    -0.1470820244
    8      H       0.9421847711    -2.1289380441    -1.0146493330
    9      H      -1.4543417146    -1.3261019012    -2.5541087614
   10      H      -2.2174276690     0.0953756322     0.0340777723
   11      H      -1.3792914530     1.5892826645    -1.8639923841
   12      C      -0.0196416817    -0.5361701137     0.2775045085
   13      H       0.4957315931    -0.5567411467     1.2462022483
 ----------------------------------------------------------------
 Nuclear Repulsion Energy =   279.3533128726 hartrees
 There are       25 alpha and       24 beta electrons
 Applying Cartesian multipole field
    Component          Value
    ---------          -----
     (2,0,0)        1.00000E-11
     (0,2,0)        2.00000E-11
     (0,0,2)       -3.00000E-11
 Nucleus-field energy     =    -0.0000000043 hartrees
 Requested basis set is 6-31G(d)
 There are 40 shells and 117 basis functions
 A cutoff of  1.0D-14 yielded    812 shell pairs
 There are      7084 function pairs
 Smallest overlap matrix eigenvalue = 1.79E-03
 Guess MOs from SCF MO coefficient file
 Reading MOs from coefficient file
 Reading MOs from coefficient file
 An unrestricted hybrid HF-DFT SCF calculation will be
 performed using Pulay DIIS extrapolation
 Exchange:     0.2000 Hartree-Fock + 0.0800 Slater + 0.7200 B88
 Correlation:  0.1900 VWN1RPA + 0.8100 LYP
 Using SG-1 standard quadrature grid
 SCF converges when DIIS error is below 1.0E-08
 Geometry optimization detected.  Setting ReadMinima to 0
 Setting SaveMinima to 0
Using Q-Chem read-in guess as SCF_GUESS READ specified.

 using 4 threads for integral computing
 -------------------------------------------------------
 OpenMP Integral computing Module                
 Release: version 1.0, May 2013, Q-Chem Inc. Pittsburgh 
 -------------------------------------------------------
 -------------------------------------------------------
 OpenMP BLAS3 based DFT computing Module                
 Release: version 1.0, May 2013, Q-Chem Inc. Pittsburgh 
 -------------------------------------------------------
 ---------------------------------------
  Cycle       Energy         DIIS Error
 ---------------------------------------
    1    -286.8239771273      2.45E-03
    2    -286.7517534965      7.89E-04
    3    -286.7512329659      9.91E-04
    4    -286.7528430330      2.30E-04
    5    -286.7529269241      6.23E-05
    6    -286.7529347777      2.53E-05
    7    -286.7529364824      9.45E-06
    8    -286.7529370340      4.71E-06
    9    -286.7529372482      3.15E-06
   10    -286.7529373896      1.38E-06
   11    -286.7529374065      7.34E-07
   12    -286.7529374107      2.66E-07
   13    -286.7529374113      9.18E-08
   14    -286.7529374114      4.33E-08
   15    -286.7529374114      9.39E-09 Convergence criterion met
 ---------------------------------------
 <S^2> = 0.7768
 SCF time:  CPU 39.53 s  wall 23.44 s
 SCF   energy in the final basis set = -286.75293741
 Total energy in the final basis set = -286.75293741
 
 --------------------------------------------------------------
 
                    Orbital Energies (a.u.)
 --------------------------------------------------------------
 
 Alpha MOs
 -- Occupied --
-14.323 -10.234 -10.230 -10.224 -10.222 -10.220 -10.215  -0.949
 -0.823  -0.767  -0.658  -0.581  -0.569  -0.545  -0.527  -0.447
 -0.438  -0.396  -0.388  -0.370  -0.338  -0.302  -0.264  -0.223
 -0.184
 -- Virtual --
  0.034   0.052   0.087   0.100   0.113   0.128   0.158   0.166
  0.173   0.189   0.201   0.230   0.267   0.289   0.325   0.361
  0.478   0.501   0.516   0.538   0.553   0.562   0.583   0.600
  0.636   0.654   0.659   0.690   0.706   0.719   0.771   0.788
  0.802   0.805   0.823   0.843   0.875   0.878   0.922   0.937
  0.971   0.990   1.070   1.107   1.180   1.219   1.287   1.406
  1.435   1.463   1.476   1.532   1.604   1.617   1.673   1.708
  1.750   1.789   1.820   1.851   1.900   1.944   1.970   2.014
  2.067   2.093   2.120   2.172   2.225   2.279   2.361   2.392
  2.423   2.462   2.472   2.516   2.561   2.589   2.613   2.627
  2.692   2.709   2.804   2.833   2.920   3.867   4.167   4.265
  4.304   4.445   4.544   4.600
 
 Beta MOs
 -- Occupied --
-14.314 -10.233 -10.229 -10.226 -10.222 -10.216 -10.211  -0.940
 -0.811  -0.759  -0.650  -0.578  -0.565  -0.537  -0.523  -0.443
 -0.433  -0.392  -0.375  -0.362  -0.333  -0.292  -0.248  -0.208
 -- Virtual --
 -0.076   0.046   0.065   0.091   0.103   0.116   0.132   0.160
  0.170   0.175   0.196   0.207   0.234   0.271   0.291   0.331
  0.365   0.482   0.506   0.519   0.545   0.556   0.566   0.590
  0.604   0.643   0.658   0.668   0.696   0.713   0.723   0.782
  0.797   0.807   0.809   0.827   0.844   0.877   0.883   0.931
  0.941   0.974   0.998   1.076   1.111   1.186   1.223   1.291
  1.412   1.439   1.471   1.487   1.542   1.616   1.626   1.676
  1.712   1.755   1.796   1.824   1.855   1.909   1.948   1.986
  2.020   2.078   2.103   2.124   2.180   2.233   2.289   2.370
  2.401   2.435   2.468   2.479   2.523   2.564   2.593   2.621
  2.637   2.701   2.714   2.808   2.837   2.924   3.882   4.174
  4.273   4.302   4.448   4.548   4.605
 --------------------------------------------------------------
 
          Ground-State Mulliken Net Atomic Charges

     Atom                 Charge (a.u.)    Spin (a.u.)
  --------------------------------------------------------
      1 C                     0.055851      -0.124451
      2 C                    -0.222565      -0.021615
      3 C                    -0.093744       0.077957
      4 C                    -0.166045      -0.069978
      5 C                    -0.076795       0.040741
      6 N                    -0.348511       0.463107
      7 H                     0.151572       0.007961
      8 H                     0.152305       0.020661
      9 H                     0.163752      -0.004964
     10 H                     0.148262       0.001859
     11 H                     0.157718       0.000902
     12 C                    -0.087791       0.640418
     13 H                     0.165990      -0.032596
  --------------------------------------------------------
  Sum of atomic charges =    -0.000000
  Sum of spin   charges =     1.000000

 -----------------------------------------------------------------
                    Cartesian Multipole Moments
 -----------------------------------------------------------------
    Charge (ESU x 10^10)
                -0.0000
    Dipole Moment (Debye)
         X      -1.2285      Y      -2.2993      Z       1.2152
       Tot       2.8763
    Quadrupole Moments (Debye-Ang)
        XX     -38.3259     XY      -3.7193     YY     -43.2497
        XZ       4.6322     YZ       3.4139     ZZ     -41.7182
    Octopole Moments (Debye-Ang^2)
       XXX       1.0098    XXY       0.5420    XYY      -3.2870
       YYY      -2.6249    XXZ      41.0868    XYZ       3.2590
       YYZ      41.2896    XZZ      -7.0223    YZZ      -4.8286
       ZZZ     126.4083
    Hexadecapole Moments (Debye-Ang^3)
      XXXX    -254.8780   XXXY     -10.5456   XXYY     -80.4643
      XYYY     -20.5040   YYYY    -217.4080   XXXZ      -8.0939
      XXYZ       8.5301   XYYZ       6.9845   YYYZ      26.1784
      XXZZ    -114.1795   XYZZ      -4.8587   YYZZ    -107.8543
      XZZZ       3.7753   YZZZ      26.0676   ZZZZ    -444.1453
 -----------------------------------------------------------------
 Calculating analytic gradient of the SCF energy
 Gradient of SCF Energy
            1           2           3           4           5           6
    1   0.0169289   0.0009904  -0.0140169  -0.0180395  -0.0088618   0.0317231
    2   0.0071774  -0.0262161   0.0266822  -0.0242726  -0.0016212   0.0173045
    3   0.0028213  -0.0031975  -0.0939185   0.0249367  -0.0055268  -0.0140518
            7           8           9          10          11          12
    1  -0.0220311  -0.0012965  -0.0101205  -0.0010846  -0.0017605   0.0089745
    2  -0.0112014   0.0004944  -0.0185605  -0.0051482  -0.0038225   0.0391148
    3   0.0163219   0.0100060   0.0000068   0.0077006   0.0152666   0.0349462
           13
    1   0.0185945
    2   0.0000693
    3   0.0046885
 Max gradient component =       9.392E-02
 RMS gradient           =       2.201E-02
 Gradient time:  CPU 7.71 s  wall 2.17 s
 Geometry Optimization Parameters
   NAtoms,    NIC,     NZ,  NCons,   NDum,   NFix, NCnnct, MaxDiis
       13     151       0       0       0       0       0       0

 Cartesian Hessian Update
 Hessian Updated using BFGS Update


** GEOMETRY OPTIMIZATION IN DELOCALIZED INTERNAL COORDINATES **
   Searching for a Minimum

   Optimization Cycle:   4

                       Coordinates (Angstroms)
     ATOM                X               Y               Z
      1  C         1.3234414692    0.1358073172   -0.9190088013
      2  C         0.4913651944   -1.1396667110   -1.0306864648
      3  C        -0.8103063268   -0.6191523483   -1.9967171559
      4  C        -1.2426185912   -0.0739621452   -0.4222675642
      5  C        -0.6759076953    0.8121302353   -1.6095001140
      6  N         0.8032205162    1.2430528175   -1.4410291941
      7  H         2.0836189834    0.0759110952   -0.1470820244
      8  H         0.9421847711   -2.1289380441   -1.0146493330
      9  H        -1.4543417146   -1.3261019012   -2.5541087614
     10  H        -2.2174276690    0.0953756322    0.0340777723
     11  H        -1.3792914530    1.5892826645   -1.8639923841
     12  C        -0.0196416817   -0.5361701137    0.2775045085
     13  H         0.4957315931   -0.5567411467    1.2462022483
   Point Group: c1    Number of degrees of freedom:    33


   Energy is   -286.752937411

 Hessian Updated using BFGS Update

 33 Hessian modes will be used to form the next step
  Hessian Eigenvalues:
     0.007761    0.011011    0.011444    0.014176    0.018554    0.018838
     0.023036    0.028228    0.048611    0.055357    0.062229    0.065888
     0.069753    0.083035    0.086954    0.091507    0.099154    0.107845
     0.125381    0.136658    0.149064    0.158586    0.190933    0.198188
     0.233083    0.250283    0.271266    0.330831    0.349992    0.354279
     0.372463    0.397084    0.474834

 Minimum Search - Taking Simple RFO Step
 Searching for Lamda that Minimizes Along All modes
 Value Taken    Lamda =  -0.06605129
 Calculated Step too Large.  Step scaled by  0.397740
 Step Taken.  Stepsize is  0.300000

                             Maximum     Tolerance    Cnvgd?
         Gradient           0.044869      0.000600      NO
         Displacement       0.149369      0.002400      NO
         Energy change     -0.030583      0.000002      NO


 New Cartesian Coordinates Obtained by Inverse Iteration

 Displacement from previous Coordinates is:  0.281134
 ----------------------------------------------------------------
             Standard Nuclear Orientation (Angstroms)
    I     Atom           X                Y                Z
 ----------------------------------------------------------------
    1      C       1.3183915921     0.1383013534    -0.9262325287
    2      C       0.4903075990    -1.1346094621    -1.0286240723
    3      C      -0.7941421131    -0.6259470466    -1.9354385793
    4      C      -1.2402133120    -0.0683998621    -0.4306191035
    5      C      -0.6662763062     0.8152740642    -1.5944103166
    6      N       0.7730288111     1.2354286399    -1.4275553359
    7      H       2.1216418198     0.1042144267    -0.1946493018
    8      H       0.9448770006    -2.1230821493    -1.0400437980
    9      H      -1.4347183838    -1.3188638214    -2.4922046471
   10      H      -2.2226430423     0.1123283527    -0.0014851539
   11      H      -1.3623298761     1.5913187163    -1.8835470785
   12      C      -0.0348423781    -0.5644707948     0.2683265251
   13      H       0.4469459850    -0.5906650655     1.2452261225
 ----------------------------------------------------------------
 Nuclear Repulsion Energy =   282.0224232368 hartrees
 There are       25 alpha and       24 beta electrons
 Applying Cartesian multipole field
    Component          Value
    ---------          -----
     (2,0,0)        1.00000E-11
     (0,2,0)        2.00000E-11
     (0,0,2)       -3.00000E-11
 Nucleus-field energy     =    -0.0000000041 hartrees
 Requested basis set is 6-31G(d)
 There are 40 shells and 117 basis functions
 A cutoff of  1.0D-14 yielded    813 shell pairs
 There are      7085 function pairs
 Smallest overlap matrix eigenvalue = 1.56E-03
 Guess MOs from SCF MO coefficient file
 Reading MOs from coefficient file
 Reading MOs from coefficient file
 An unrestricted hybrid HF-DFT SCF calculation will be
 performed using Pulay DIIS extrapolation
 Exchange:     0.2000 Hartree-Fock + 0.0800 Slater + 0.7200 B88
 Correlation:  0.1900 VWN1RPA + 0.8100 LYP
 Using SG-1 standard quadrature grid
 SCF converges when DIIS error is below 1.0E-08
 Geometry optimization detected.  Setting ReadMinima to 0
 Setting SaveMinima to 0
Using Q-Chem read-in guess as SCF_GUESS READ specified.

 using 4 threads for integral computing
 -------------------------------------------------------
 OpenMP Integral computing Module                
 Release: version 1.0, May 2013, Q-Chem Inc. Pittsburgh 
 -------------------------------------------------------
 -------------------------------------------------------
 OpenMP BLAS3 based DFT computing Module                
 Release: version 1.0, May 2013, Q-Chem Inc. Pittsburgh 
 -------------------------------------------------------
 ---------------------------------------
  Cycle       Energy         DIIS Error
 ---------------------------------------
    1    -286.8329086971      2.38E-03
    2    -286.7756610162      6.66E-04
    3    -286.7753946806      8.09E-04
    4    -286.7764731856      1.51E-04
    5    -286.7765061932      5.94E-05
    6    -286.7765137040      2.14E-05
    7    -286.7765152359      8.56E-06
    8    -286.7765158646      4.35E-06
    9    -286.7765161174      3.09E-06
   10    -286.7765162413      1.28E-06
   11    -286.7765162575      6.52E-07
   12    -286.7765162610      2.65E-07
   13    -286.7765162618      7.59E-08
   14    -286.7765162619      3.47E-08
   15    -286.7765162619      8.76E-09 Convergence criterion met
 ---------------------------------------
 <S^2> = 0.7750
 SCF time:  CPU 39.50 s  wall 23.97 s
 SCF   energy in the final basis set = -286.77651626
 Total energy in the final basis set = -286.77651626
 
 --------------------------------------------------------------
 
                    Orbital Energies (a.u.)
 --------------------------------------------------------------
 
 Alpha MOs
 -- Occupied --
-14.320 -10.230 -10.223 -10.223 -10.218 -10.217 -10.210  -0.960
 -0.830  -0.769  -0.660  -0.585  -0.573  -0.543  -0.530  -0.449
 -0.442  -0.399  -0.392  -0.373  -0.341  -0.300  -0.265  -0.227
 -0.185
 -- Virtual --
  0.036   0.067   0.090   0.114   0.118   0.134   0.158   0.170
  0.176   0.195   0.209   0.241   0.270   0.292   0.338   0.371
  0.477   0.504   0.519   0.545   0.555   0.563   0.584   0.599
  0.639   0.655   0.665   0.693   0.711   0.726   0.769   0.793
  0.803   0.805   0.827   0.840   0.870   0.874   0.921   0.939
  0.974   0.993   1.061   1.123   1.193   1.226   1.288   1.415
  1.448   1.475   1.487   1.556   1.609   1.626   1.674   1.713
  1.750   1.807   1.853   1.860   1.913   1.964   1.986   2.031
  2.089   2.105   2.125   2.177   2.248   2.290   2.377   2.397
  2.445   2.477   2.492   2.519   2.576   2.611   2.624   2.643
  2.713   2.748   2.821   2.855   2.935   3.893   4.185   4.281
  4.307   4.452   4.561   4.632
 
 Beta MOs
 -- Occupied --
-14.311 -10.229 -10.225 -10.222 -10.218 -10.211 -10.208  -0.951
 -0.819  -0.761  -0.650  -0.582  -0.568  -0.534  -0.526  -0.445
 -0.437  -0.395  -0.380  -0.363  -0.335  -0.292  -0.250  -0.213
 -- Virtual --
 -0.076   0.056   0.074   0.094   0.116   0.123   0.138   0.160
  0.173   0.178   0.203   0.215   0.245   0.274   0.294   0.344
  0.375   0.482   0.511   0.521   0.554   0.556   0.567   0.590
  0.604   0.650   0.662   0.668   0.699   0.718   0.731   0.780
  0.800   0.807   0.810   0.831   0.841   0.872   0.878   0.931
  0.942   0.977   1.001   1.067   1.127   1.199   1.231   1.291
  1.422   1.452   1.487   1.496   1.565   1.626   1.631   1.677
  1.717   1.757   1.812   1.857   1.866   1.920   1.969   2.000
  2.038   2.098   2.116   2.130   2.186   2.255   2.302   2.387
  2.406   2.456   2.483   2.499   2.527   2.578   2.616   2.637
  2.646   2.719   2.754   2.826   2.859   2.938   3.907   4.193
  4.289   4.306   4.455   4.565   4.637
 --------------------------------------------------------------
 
          Ground-State Mulliken Net Atomic Charges

     Atom                 Charge (a.u.)    Spin (a.u.)
  --------------------------------------------------------
      1 C                     0.052948      -0.118807
      2 C                    -0.227535      -0.025217
      3 C                    -0.090067       0.076228
      4 C                    -0.159727      -0.065094
      5 C                    -0.072050       0.039687
      6 N                    -0.346424       0.430117
      7 H                     0.150088       0.007709
      8 H                     0.151457       0.022236
      9 H                     0.158511      -0.004670
     10 H                     0.147322       0.002022
     11 H                     0.155525       0.001008
     12 C                    -0.080955       0.667671
     13 H                     0.160907      -0.032890
  --------------------------------------------------------
  Sum of atomic charges =     0.000000
  Sum of spin   charges =     1.000000

 -----------------------------------------------------------------
                    Cartesian Multipole Moments
 -----------------------------------------------------------------
    Charge (ESU x 10^10)
                -0.0000
    Dipole Moment (Debye)
         X      -1.1559      Y      -2.2846      Z       1.1549
       Tot       2.8088
    Quadrupole Moments (Debye-Ang)
        XX     -38.1282     XY      -3.6635     YY     -43.1010
        XZ       4.3154     YZ       3.2878     ZZ     -41.7064
    Octopole Moments (Debye-Ang^2)
       XXX       1.7825    XXY       0.8837    XYY      -3.0045
       YYY      -2.1831    XXZ      40.4304    XYZ       3.4053
       YYZ      40.8168    XZZ      -6.2158    YZZ      -4.2518
       ZZZ     125.4848
    Hexadecapole Moments (Debye-Ang^3)
      XXXX    -249.6281   XXXY      -9.7252   XXYY     -79.8420
      XYYY     -19.6201   YYYY    -217.5065   XXXZ      -7.2274
      XXYZ       8.2183   XYYZ       6.7368   YYYZ      26.1483
      XXZZ    -112.2876   XYZZ      -5.4511   YYZZ    -105.7972
      XZZZ       2.7286   YZZZ      24.6849   ZZZZ    -433.4717
 -----------------------------------------------------------------
 Calculating analytic gradient of the SCF energy
 Gradient of SCF Energy
            1           2           3           4           5           6
    1   0.0084464  -0.0018310  -0.0068250  -0.0132563  -0.0057572   0.0213271
    2   0.0034517  -0.0192259   0.0255817  -0.0202693  -0.0085522   0.0121637
    3   0.0022870  -0.0017583  -0.0792595   0.0187723   0.0009690  -0.0143232
            7           8           9          10          11          12
    1  -0.0167856  -0.0017352  -0.0062879  -0.0006592  -0.0016490   0.0115109
    2  -0.0088370  -0.0002013  -0.0136392  -0.0038893  -0.0004680   0.0344082
    3   0.0157340   0.0089717   0.0048083   0.0050679   0.0135888   0.0241006
           13
    1   0.0135021
    2  -0.0005231
    3   0.0010414
 Max gradient component =       7.926E-02
 RMS gradient           =       1.794E-02
 Gradient time:  CPU 8.05 s  wall 2.61 s
 Geometry Optimization Parameters
   NAtoms,    NIC,     NZ,  NCons,   NDum,   NFix, NCnnct, MaxDiis
       13     151       0       0       0       0       0       0

 Cartesian Hessian Update
 Hessian Updated using BFGS Update


** GEOMETRY OPTIMIZATION IN DELOCALIZED INTERNAL COORDINATES **
   Searching for a Minimum

   Optimization Cycle:   5

                       Coordinates (Angstroms)
     ATOM                X               Y               Z
      1  C         1.3183915921    0.1383013534   -0.9262325287
      2  C         0.4903075990   -1.1346094621   -1.0286240723
      3  C        -0.7941421131   -0.6259470466   -1.9354385793
      4  C        -1.2402133120   -0.0683998621   -0.4306191035
      5  C        -0.6662763062    0.8152740642   -1.5944103166
      6  N         0.7730288111    1.2354286399   -1.4275553359
      7  H         2.1216418198    0.1042144267   -0.1946493018
      8  H         0.9448770006   -2.1230821493   -1.0400437980
      9  H        -1.4347183838   -1.3188638214   -2.4922046471
     10  H        -2.2226430423    0.1123283527   -0.0014851539
     11  H        -1.3623298761    1.5913187163   -1.8835470785
     12  C        -0.0348423781   -0.5644707948    0.2683265251
     13  H         0.4469459850   -0.5906650655    1.2452261225
   Point Group: c1    Number of degrees of freedom:    33


   Energy is   -286.776516262

 Hessian Updated using BFGS Update

 33 Hessian modes will be used to form the next step
  Hessian Eigenvalues:
     0.007761    0.011061    0.011471    0.014233    0.018587    0.019370
     0.023008    0.028193    0.048562    0.054974    0.062097    0.065491
     0.070618    0.083476    0.087171    0.092160    0.099748    0.107542
     0.128975    0.139074    0.153862    0.162905    0.191053    0.199284
     0.233748    0.250231    0.271972    0.331729    0.354214    0.357581
     0.374185    0.403015    0.477696

 Minimum Search - Taking Simple RFO Step
 Searching for Lamda that Minimizes Along All modes
 Value Taken    Lamda =  -0.04695880
 Calculated Step too Large.  Step scaled by  0.419024
 Step Taken.  Stepsize is  0.300000

                             Maximum     Tolerance    Cnvgd?
         Gradient           0.034245      0.000600      NO
         Displacement       0.143970      0.002400      NO
         Energy change     -0.023579      0.000002      NO


 New Cartesian Coordinates Obtained by Inverse Iteration

 Displacement from previous Coordinates is:  0.270434
 ----------------------------------------------------------------
             Standard Nuclear Orientation (Angstroms)
    I     Atom           X                Y                Z
 ----------------------------------------------------------------
    1      C       1.3185573976     0.1427437867    -0.9320589369
    2      C       0.4918991492    -1.1297917027    -1.0243770994
    3      C      -0.7847070663    -0.6340699327    -1.8779311479
    4      C      -1.2400062383    -0.0623477255    -0.4344544277
    5      C      -0.6588159954     0.8199239416    -1.5835563617
    6      N       0.7522318312     1.2313495862    -1.4121363790
    7      H       2.1630056534     0.1325479564    -0.2462586507
    8      H       0.9536650923    -2.1149445095    -1.0656078096
    9      H      -1.4236369583    -1.3117056245    -2.4423148045
   10      H      -2.2288774429     0.1296239811    -0.0297820204
   11      H      -1.3474595112     1.5901260046    -1.9115377551
   12      C      -0.0524735709    -0.5951602048     0.2657381692
   13      H       0.3966450554    -0.6274682054     1.2530199559
 ----------------------------------------------------------------
 Nuclear Repulsion Energy =   283.7782228235 hartrees
 There are       25 alpha and       24 beta electrons
 Applying Cartesian multipole field
    Component          Value
    ---------          -----
     (2,0,0)        1.00000E-11
     (0,2,0)        2.00000E-11
     (0,0,2)       -3.00000E-11
 Nucleus-field energy     =    -0.0000000039 hartrees
 Requested basis set is 6-31G(d)
 There are 40 shells and 117 basis functions
 A cutoff of  1.0D-14 yielded    813 shell pairs
 There are      7085 function pairs
 Smallest overlap matrix eigenvalue = 1.40E-03
 Guess MOs from SCF MO coefficient file
 Reading MOs from coefficient file
 Reading MOs from coefficient file
 An unrestricted hybrid HF-DFT SCF calculation will be
 performed using Pulay DIIS extrapolation
 Exchange:     0.2000 Hartree-Fock + 0.0800 Slater + 0.7200 B88
 Correlation:  0.1900 VWN1RPA + 0.8100 LYP
 Using SG-1 standard quadrature grid
 SCF converges when DIIS error is below 1.0E-08
 Geometry optimization detected.  Setting ReadMinima to 0
 Setting SaveMinima to 0
Using Q-Chem read-in guess as SCF_GUESS READ specified.

 using 4 threads for integral computing
 -------------------------------------------------------
 OpenMP Integral computing Module                
 Release: version 1.0, May 2013, Q-Chem Inc. Pittsburgh 
 -------------------------------------------------------
 -------------------------------------------------------
 OpenMP BLAS3 based DFT computing Module                
 Release: version 1.0, May 2013, Q-Chem Inc. Pittsburgh 
 -------------------------------------------------------
 ---------------------------------------
  Cycle       Energy         DIIS Error
 ---------------------------------------
    1    -286.8347857680      2.14E-03
    2    -286.7933481857      5.31E-04
    3    -286.7932410853      6.32E-04
    4    -286.7939070014      9.23E-05
    5    -286.7939208006      4.42E-05
    6    -286.7939261386      2.11E-05
    7    -286.7939281685      8.44E-06
    8    -286.7939291185      5.04E-06
    9    -286.7939295721      2.93E-06
   10    -286.7939296825      1.26E-06
   11    -286.7939297010      5.58E-07
   12    -286.7939297047      2.64E-07
   13    -286.7939297057      5.99E-08
   14    -286.7939297058      2.59E-08
   15    -286.7939297058      8.82E-09 Convergence criterion met
 ---------------------------------------
 <S^2> = 0.7730
 SCF time:  CPU 39.81 s  wall 31.09 s
 SCF   energy in the final basis set = -286.79392971
 Total energy in the final basis set = -286.79392971
 
 --------------------------------------------------------------
 
                    Orbital Energies (a.u.)
 --------------------------------------------------------------
 
 Alpha MOs
 -- Occupied --
-14.317 -10.227 -10.223 -10.217 -10.216 -10.215 -10.206  -0.967
 -0.837  -0.769  -0.660  -0.589  -0.575  -0.541  -0.531  -0.451
 -0.443  -0.401  -0.396  -0.373  -0.343  -0.298  -0.265  -0.231
 -0.185
 -- Virtual --
  0.035   0.081   0.093   0.120   0.124   0.140   0.159   0.171
  0.177   0.200   0.214   0.250   0.271   0.293   0.349   0.380
  0.477   0.503   0.522   0.550   0.556   0.566   0.589   0.599
  0.636   0.657   0.670   0.697   0.715   0.733   0.766   0.796
  0.802   0.807   0.829   0.836   0.864   0.869   0.918   0.943
  0.973   0.997   1.051   1.139   1.206   1.236   1.287   1.414
  1.460   1.477   1.503   1.569   1.608   1.633   1.672   1.719
  1.749   1.826   1.857   1.886   1.919   1.973   1.996   2.044
  2.107   2.116   2.136   2.182   2.269   2.291   2.381   2.404
  2.460   2.492   2.508   2.518   2.584   2.628   2.633   2.654
  2.728   2.780   2.835   2.874   2.945   3.913   4.202   4.297
  4.308   4.453   4.573   4.651
 
 Beta MOs
 -- Occupied --
-14.310 -10.226 -10.224 -10.215 -10.215 -10.207 -10.206  -0.959
 -0.826  -0.762  -0.650  -0.586  -0.570  -0.533  -0.526  -0.446
 -0.438  -0.398  -0.385  -0.363  -0.336  -0.291  -0.252  -0.218
 -- Virtual --
 -0.076   0.058   0.086   0.096   0.125   0.127   0.143   0.160
  0.174   0.180   0.208   0.219   0.254   0.275   0.295   0.356
  0.383   0.481   0.512   0.523   0.553   0.563   0.570   0.594
  0.605   0.650   0.662   0.672   0.703   0.722   0.737   0.778
  0.802   0.807   0.813   0.834   0.837   0.867   0.871   0.927
  0.946   0.977   1.004   1.058   1.143   1.211   1.242   1.290
  1.422   1.463   1.489   1.509   1.577   1.626   1.638   1.675
  1.723   1.756   1.830   1.863   1.892   1.923   1.980   2.006
  2.052   2.115   2.124   2.145   2.192   2.275   2.306   2.394
  2.410   2.470   2.498   2.515   2.527   2.587   2.636   2.643
  2.657   2.734   2.785   2.840   2.878   2.948   3.925   4.211
  4.304   4.307   4.457   4.577   4.656
 --------------------------------------------------------------
 
          Ground-State Mulliken Net Atomic Charges

     Atom                 Charge (a.u.)    Spin (a.u.)
  --------------------------------------------------------
      1 C                     0.052261      -0.110366
      2 C                    -0.232347      -0.030152
      3 C                    -0.087895       0.075745
      4 C                    -0.156451      -0.063460
      5 C                    -0.065232       0.040165
      6 N                    -0.344840       0.388321
      7 H                     0.148934       0.007360
      8 H                     0.150616       0.023527
      9 H                     0.154310      -0.004430
     10 H                     0.146890       0.002317
     11 H                     0.153701       0.001105
     12 C                    -0.076439       0.703241
     13 H                     0.156490      -0.033372
  --------------------------------------------------------
  Sum of atomic charges =    -0.000000
  Sum of spin   charges =     1.000000

 -----------------------------------------------------------------
                    Cartesian Multipole Moments
 -----------------------------------------------------------------
    Charge (ESU x 10^10)
                 0.0000
    Dipole Moment (Debye)
         X      -1.0927      Y      -2.2710      Z       1.0705
       Tot       2.7381
    Quadrupole Moments (Debye-Ang)
        XX     -37.9110     XY      -3.6239     YY     -43.0151
        XZ       4.0524     YZ       3.1658     ZZ     -41.6209
    Octopole Moments (Debye-Ang^2)
       XXX       2.5398    XXY       1.1562    XYY      -2.7420
       YYY      -1.7715    XXZ      39.6647    XYZ       3.5443
       YYZ      40.2991    XZZ      -5.6580    YZZ      -3.7263
       ZZZ     124.2171
    Hexadecapole Moments (Debye-Ang^3)
      XXXX    -246.2209   XXXY      -9.2878   XXYY     -79.6637
      XYYY     -19.1829   YYYY    -218.5507   XXXZ      -6.4235
      XXYZ       8.1420   XYYZ       6.5766   YYYZ      26.3457
      XXZZ    -110.6488   XYZZ      -6.0439   YYZZ    -103.9492
      XZZZ       2.4322   YZZZ      23.7087   ZZZZ    -423.3850
 -----------------------------------------------------------------
 Calculating analytic gradient of the SCF energy
 Gradient of SCF Energy
            1           2           3           4           5           6
    1   0.0025849  -0.0050975  -0.0005665  -0.0101377  -0.0032936   0.0120968
    2  -0.0005201  -0.0140848   0.0222361  -0.0166448  -0.0103548   0.0087142
    3   0.0047189  -0.0018551  -0.0610409   0.0111862   0.0053310  -0.0142979
            7           8           9          10          11          12
    1  -0.0122760  -0.0017643  -0.0041433  -0.0003506  -0.0013054   0.0146777
    2  -0.0062330  -0.0006596  -0.0099718  -0.0025541   0.0018482   0.0292190
    3   0.0141254   0.0074707   0.0076824   0.0028598   0.0113091   0.0134943
           13
    1   0.0095754
    2  -0.0009945
    3  -0.0009840
 Max gradient component =       6.104E-02
 RMS gradient           =       1.403E-02
 Gradient time:  CPU 8.03 s  wall 5.71 s
 Geometry Optimization Parameters
   NAtoms,    NIC,     NZ,  NCons,   NDum,   NFix, NCnnct, MaxDiis
       13     151       0       0       0       0       0       0

 Cartesian Hessian Update
 Hessian Updated using BFGS Update


** GEOMETRY OPTIMIZATION IN DELOCALIZED INTERNAL COORDINATES **
   Searching for a Minimum

   Optimization Cycle:   6

                       Coordinates (Angstroms)
     ATOM                X               Y               Z
      1  C         1.3185573976    0.1427437867   -0.9320589369
      2  C         0.4918991492   -1.1297917027   -1.0243770994
      3  C        -0.7847070663   -0.6340699327   -1.8779311479
      4  C        -1.2400062383   -0.0623477255   -0.4344544277
      5  C        -0.6588159954    0.8199239416   -1.5835563617
      6  N         0.7522318312    1.2313495862   -1.4121363790
      7  H         2.1630056534    0.1325479564   -0.2462586507
      8  H         0.9536650923   -2.1149445095   -1.0656078096
      9  H        -1.4236369583   -1.3117056245   -2.4423148045
     10  H        -2.2288774429    0.1296239811   -0.0297820204
     11  H        -1.3474595112    1.5901260046   -1.9115377551
     12  C        -0.0524735709   -0.5951602048    0.2657381692
     13  H         0.3966450554   -0.6274682054    1.2530199559
   Point Group: c1    Number of degrees of freedom:    33


   Energy is   -286.793929706

 Hessian Updated using BFGS Update

 33 Hessian modes will be used to form the next step
  Hessian Eigenvalues:
     0.007756    0.011087    0.011479    0.014313    0.018488    0.019851
     0.022943    0.028189    0.048149    0.053502    0.061104    0.064341
     0.069984    0.083365    0.087633    0.093690    0.100690    0.107320
     0.130941    0.140436    0.155235    0.176415    0.190943    0.203501
     0.234309    0.250279    0.272365    0.332054    0.354229    0.361648
     0.375763    0.410986    0.477742

 Minimum Search - Taking Simple RFO Step
 Searching for Lamda that Minimizes Along All modes
 Value Taken    Lamda =  -0.03291491
 Calculated Step too Large.  Step scaled by  0.435779
 Step Taken.  Stepsize is  0.300000

                             Maximum     Tolerance    Cnvgd?
         Gradient           0.024588      0.000600      NO
         Displacement       0.131625      0.002400      NO
         Energy change     -0.017413      0.000002      NO


 New Cartesian Coordinates Obtained by Inverse Iteration

 Displacement from previous Coordinates is:  0.263078
 ----------------------------------------------------------------
             Standard Nuclear Orientation (Angstroms)
    I     Atom           X                Y                Z
 ----------------------------------------------------------------
    1      C       1.3228029151     0.1484299362    -0.9395165174
    2      C       0.4957142667    -1.1243901119    -1.0168804981
    3      C      -0.7803877370    -0.6421573905    -1.8273340883
    4      C      -1.2417456747    -0.0562596747    -0.4317929897
    5      C      -0.6529356826     0.8239134184    -1.5757950059
    6      N       0.7398663229     1.2293395931    -1.3968130822
    7      H       2.2064369990     0.1587446955    -0.3044894873
    8      H       0.9677491246    -2.1036439107    -1.0880592541
    9      H      -1.4166282467    -1.3019872592    -2.4087307043
   10      H      -2.2357517253     0.1462944357    -0.0479834691
   11      H      -1.3342948749     1.5840567044    -1.9439860026
   12      C      -0.0740475725    -0.6267831152     0.2707915897
   13      H       0.3432492812    -0.6647299696     1.2693322411
 ----------------------------------------------------------------
 Nuclear Repulsion Energy =   284.6945324727 hartrees
 There are       25 alpha and       24 beta electrons
 Applying Cartesian multipole field
    Component          Value
    ---------          -----
     (2,0,0)        1.00000E-11
     (0,2,0)        2.00000E-11
     (0,0,2)       -3.00000E-11
 Nucleus-field energy     =    -0.0000000037 hartrees
 Requested basis set is 6-31G(d)
 There are 40 shells and 117 basis functions
 A cutoff of  1.0D-14 yielded    813 shell pairs
 There are      7085 function pairs
 Smallest overlap matrix eigenvalue = 1.33E-03
 Guess MOs from SCF MO coefficient file
 Reading MOs from coefficient file
 Reading MOs from coefficient file
 An unrestricted hybrid HF-DFT SCF calculation will be
 performed using Pulay DIIS extrapolation
 Exchange:     0.2000 Hartree-Fock + 0.0800 Slater + 0.7200 B88
 Correlation:  0.1900 VWN1RPA + 0.8100 LYP
 Using SG-1 standard quadrature grid
 SCF converges when DIIS error is below 1.0E-08
 Geometry optimization detected.  Setting ReadMinima to 0
 Setting SaveMinima to 0
Using Q-Chem read-in guess as SCF_GUESS READ specified.

 using 4 threads for integral computing
 -------------------------------------------------------
 OpenMP Integral computing Module                
 Release: version 1.0, May 2013, Q-Chem Inc. Pittsburgh 
 -------------------------------------------------------
 -------------------------------------------------------
 OpenMP BLAS3 based DFT computing Module                
 Release: version 1.0, May 2013, Q-Chem Inc. Pittsburgh 
 -------------------------------------------------------
 ---------------------------------------
  Cycle       Energy         DIIS Error
 ---------------------------------------
    1    -286.8332830057      1.84E-03
    2    -286.8061915004      4.05E-04
    3    -286.8061851453      4.74E-04
    4    -286.8065728533      5.80E-05
    5    -286.8065847374      2.51E-05
    6    -286.8065902116      1.30E-05
    7    -286.8065931636      4.46E-06
    8    -286.8065941944      5.06E-06
    9    -286.8065945877      1.53E-06
   10    -286.8065946568      1.41E-06
   11    -286.8065946817      4.06E-07
   12    -286.8065946872      2.52E-07
   13    -286.8065946884      4.25E-08
   14    -286.8065946886      1.86E-08
   15    -286.8065946886      8.45E-09 Convergence criterion met
 ---------------------------------------
 <S^2> = 0.7700
 SCF time:  CPU 39.85 s  wall 43.16 s
 SCF   energy in the final basis set = -286.80659469
 Total energy in the final basis set = -286.80659469
 
 --------------------------------------------------------------
 
                    Orbital Energies (a.u.)
 --------------------------------------------------------------
 
 Alpha MOs
 -- Occupied --
-14.315 -10.225 -10.222 -10.214 -10.213 -10.212 -10.204  -0.971
 -0.842  -0.768  -0.660  -0.593  -0.575  -0.540  -0.530  -0.453
 -0.443  -0.403  -0.399  -0.372  -0.344  -0.296  -0.266  -0.235
 -0.185
 -- Virtual --
  0.033   0.093   0.095   0.121   0.131   0.144   0.159   0.171
[...]
     0.070877    0.076878    0.081429    0.092223    0.098675    0.103026
     0.137269    0.146584    0.166624    0.186451    0.216412    0.232055
     0.239251    0.249235    0.276125    0.331614    0.353745    0.360006
     0.374150    0.402061    0.467148

 Minimum Search - Taking Simple RFO Step
 Searching for Lamda that Minimizes Along All modes
 Value Taken    Lamda =  -0.00000220
 Step Taken.  Stepsize is  0.008056

                             Maximum     Tolerance    Cnvgd?
         Gradient           0.000257      0.000600     YES
         Displacement       0.004338      0.002400      NO
         Energy change     -0.000004      0.000002      NO


 New Cartesian Coordinates Obtained by Inverse Iteration

 Displacement from previous Coordinates is:  0.004808
 ----------------------------------------------------------------
             Standard Nuclear Orientation (Angstroms)
    I     Atom           X                Y                Z
 ----------------------------------------------------------------
    1      C       1.4058560867     0.1830991904    -1.0554999799
    2      C       0.5383442452    -1.0594193958    -0.8946460054
    3      C      -0.7544950634    -0.6445171523    -1.6847833198
    4      C      -1.2936678790    -0.0621460347    -0.3638534755
    5      C      -0.6287227680     0.8259428024    -1.5102193270
    6      N       0.7420978423     1.2416628168    -1.3485570812
    7      H       2.4672916635     0.2213885099    -0.8154294537
    8      H       1.0126561441    -2.0331256804    -1.0353552169
    9      H      -1.2749646943    -1.1957979053    -2.4619537436
   10      H      -2.3098011338     0.1737346646    -0.0633881273
   11      H      -1.3081815967     1.5187231811    -1.9961231497
   12      C      -0.2768000400    -0.8018245393     0.3712388548
   13      H       0.0204145892    -0.7968931059     1.4173127572
 ----------------------------------------------------------------
 Nuclear Repulsion Energy =   282.2070211109 hartrees
 There are       25 alpha and       24 beta electrons
 Applying Cartesian multipole field
    Component          Value
    ---------          -----
     (2,0,0)        1.00000E-11
     (0,2,0)        2.00000E-11
     (0,0,2)       -3.00000E-11
 Nucleus-field energy     =    -0.0000000031 hartrees
 Requested basis set is 6-31G(d)
 There are 40 shells and 117 basis functions
 A cutoff of  1.0D-14 yielded    812 shell pairs
 There are      7084 function pairs
 Smallest overlap matrix eigenvalue = 1.65E-03
 Guess MOs from SCF MO coefficient file
 Reading MOs from coefficient file
 Reading MOs from coefficient file
 An unrestricted hybrid HF-DFT SCF calculation will be
 performed using Pulay DIIS extrapolation
 Exchange:     0.2000 Hartree-Fock + 0.0800 Slater + 0.7200 B88
 Correlation:  0.1900 VWN1RPA + 0.8100 LYP
 Using SG-1 standard quadrature grid
 SCF converges when DIIS error is below 1.0E-08
 Geometry optimization detected.  Setting ReadMinima to 0
 Setting SaveMinima to 0
Using Q-Chem read-in guess as SCF_GUESS READ specified.

 using 4 threads for integral computing
 -------------------------------------------------------
 OpenMP Integral computing Module                
 Release: version 1.0, May 2013, Q-Chem Inc. Pittsburgh 
 -------------------------------------------------------
 -------------------------------------------------------
 OpenMP BLAS3 based DFT computing Module                
 Release: version 1.0, May 2013, Q-Chem Inc. Pittsburgh 
 -------------------------------------------------------
 ---------------------------------------
  Cycle       Energy         DIIS Error
 ---------------------------------------
    1    -286.8379359334      3.64E-05
    2    -286.8383475945      6.39E-06
    3    -286.8383475826      7.88E-06
    4    -286.8383476796      2.13E-06
    5    -286.8383476864      7.42E-07
    6    -286.8383476876      1.70E-07
    7    -286.8383476878      9.16E-08
    8    -286.8383476878      2.71E-08
    9    -286.8383476879      1.14E-08
   10    -286.8383476879      5.03E-09 Convergence criterion met
 ---------------------------------------
 <S^2> = 0.7566
 SCF time:  CPU 26.33 s  wall 15.96 s
 SCF   energy in the final basis set = -286.83834769
 Total energy in the final basis set = -286.83834769
 
 --------------------------------------------------------------
 
                    Orbital Energies (a.u.)
 --------------------------------------------------------------
 
 Alpha MOs
 -- Occupied --
-14.320 -10.224 -10.220 -10.210 -10.209 -10.208 -10.206  -0.968
 -0.856  -0.749  -0.664  -0.606  -0.571  -0.535  -0.517  -0.466
 -0.439  -0.405  -0.400  -0.356  -0.337  -0.298  -0.273  -0.256
 -0.182
 -- Virtual --
  0.004   0.100   0.114   0.128   0.150   0.150   0.153   0.163
  0.177   0.200   0.221   0.262   0.280   0.296   0.348   0.391
  0.494   0.513   0.524   0.543   0.558   0.573   0.601   0.605
  0.605   0.659   0.675   0.677   0.720   0.741   0.770   0.777
  0.805   0.806   0.822   0.842   0.854   0.877   0.889   0.936
  0.954   0.973   1.043   1.096   1.206   1.237   1.328   1.390
  1.446   1.475   1.504   1.517   1.587   1.632   1.672   1.713
  1.743   1.828   1.873   1.881   1.932   1.954   1.988   2.027
  2.060   2.168   2.207   2.218   2.232   2.254   2.363   2.380
  2.456   2.490   2.502   2.542   2.590   2.626   2.664   2.676
  2.718   2.808   2.841   2.914   2.963   3.959   4.194   4.239
  4.362   4.433   4.508   4.641
 
 Beta MOs
 -- Occupied --
-14.319 -10.222 -10.219 -10.211 -10.209 -10.207 -10.193  -0.964
 -0.850  -0.741  -0.652  -0.601  -0.567  -0.528  -0.511  -0.461
 -0.434  -0.402  -0.394  -0.348  -0.332  -0.291  -0.262  -0.251
 -- Virtual --
 -0.062   0.020   0.102   0.118   0.134   0.151   0.156   0.157
  0.165   0.181   0.204   0.227   0.267   0.284   0.298   0.360
  0.394   0.497   0.518   0.532   0.553   0.561   0.578   0.607
  0.610   0.622   0.669   0.679   0.683   0.729   0.745   0.775
  0.787   0.808   0.809   0.824   0.844   0.858   0.882   0.892
  0.940   0.958   0.977   1.047   1.108   1.208   1.243   1.334
  1.392   1.449   1.481   1.514   1.525   1.594   1.640   1.677
  1.716   1.751   1.835   1.878   1.894   1.940   1.970   1.994
  2.035   2.068   2.172   2.222   2.226   2.242   2.270   2.368
  2.390   2.463   2.497   2.511   2.546   2.594   2.633   2.666
  2.684   2.725   2.813   2.846   2.917   2.965   3.961   4.208
  4.245   4.368   4.439   4.511   4.644
 --------------------------------------------------------------
 
          Ground-State Mulliken Net Atomic Charges

     Atom                 Charge (a.u.)    Spin (a.u.)
  --------------------------------------------------------
      1 C                     0.088742       0.046569
      2 C                    -0.258730      -0.065670
      3 C                    -0.107721       0.078165
      4 C                    -0.163719      -0.095769
      5 C                    -0.019129       0.096496
      6 N                    -0.342259       0.039558
      7 H                     0.143009       0.001388
      8 H                     0.142896       0.022662
      9 H                     0.148128      -0.000817
     10 H                     0.147244       0.005303
     11 H                     0.151393       0.002873
     12 C                    -0.066110       0.888564
     13 H                     0.136255      -0.019321
  --------------------------------------------------------
  Sum of atomic charges =     0.000000
  Sum of spin   charges =     1.000000

 -----------------------------------------------------------------
                    Cartesian Multipole Moments
 -----------------------------------------------------------------
    Charge (ESU x 10^10)
                 0.0000
    Dipole Moment (Debye)
         X      -0.8036      Y      -1.8807      Z       0.1486
       Tot       2.0506
    Quadrupole Moments (Debye-Ang)
        XX     -36.9668     XY      -3.6301     YY     -43.7695
        XZ       2.6926     YZ       2.8033     ZZ     -39.9369
    Octopole Moments (Debye-Ang^2)
       XXX       7.7847    XXY       2.7439    XYY      -1.2064
       YYY       1.2737    XXZ      34.1533    XYZ       3.8066
       YYZ      38.1425    XZZ      -4.4318    YZZ      -2.2911
       ZZZ     112.0914
    Hexadecapole Moments (Debye-Ang^3)
      XXXX    -251.5690   XXXY     -13.6576   XXYY     -84.9422
      XYYY     -23.3956   YYYY    -228.8493   XXXZ       0.1341
      XXYZ       9.4115   XYYZ       9.5674   YYYZ      33.0745
      XXZZ    -106.3973   XYZZ      -8.4808   YYZZ     -99.9186
      XZZZ      16.6515   YZZZ      29.4924   ZZZZ    -379.3972
 -----------------------------------------------------------------
 Calculating analytic gradient of the SCF energy
 Gradient of SCF Energy
            1           2           3           4           5           6
    1  -0.0000397  -0.0000571   0.0000317   0.0001187  -0.0001579   0.0000076
    2  -0.0001133   0.0000942  -0.0000079   0.0000922  -0.0001228  -0.0000085
    3  -0.0000016   0.0000576  -0.0001523  -0.0000355   0.0001519  -0.0000197
            7           8           9          10          11          12
    1   0.0000164   0.0000225  -0.0000148   0.0000125  -0.0000004   0.0000050
    2  -0.0000058  -0.0000031   0.0000559  -0.0000123   0.0000520   0.0000175
    3  -0.0000042  -0.0000519   0.0000644   0.0000428   0.0000249  -0.0000273
           13
    1   0.0000554
    2  -0.0000381
    3  -0.0000491
 Max gradient component =       1.579E-04
 RMS gradient           =       6.525E-05
 Gradient time:  CPU 7.81 s  wall 4.15 s
 Geometry Optimization Parameters
   NAtoms,    NIC,     NZ,  NCons,   NDum,   NFix, NCnnct, MaxDiis
       13     151       0       0       0       0       0       0

 Cartesian Hessian Update
 Hessian Updated using BFGS Update


** GEOMETRY OPTIMIZATION IN DELOCALIZED INTERNAL COORDINATES **
   Searching for a Minimum

   Optimization Cycle:  19

                       Coordinates (Angstroms)
     ATOM                X               Y               Z
      1  C         1.4058560867    0.1830991904   -1.0554999799
      2  C         0.5383442452   -1.0594193958   -0.8946460054
      3  C        -0.7544950634   -0.6445171523   -1.6847833198
      4  C        -1.2936678790   -0.0621460347   -0.3638534755
      5  C        -0.6287227680    0.8259428024   -1.5102193270
      6  N         0.7420978423    1.2416628168   -1.3485570812
      7  H         2.4672916635    0.2213885099   -0.8154294537
      8  H         1.0126561441   -2.0331256804   -1.0353552169
      9  H        -1.2749646943   -1.1957979053   -2.4619537436
     10  H        -2.3098011338    0.1737346646   -0.0633881273
     11  H        -1.3081815967    1.5187231811   -1.9961231497
     12  C        -0.2768000400   -0.8018245393    0.3712388548
     13  H         0.0204145892   -0.7968931059    1.4173127572
   Point Group: c1    Number of degrees of freedom:    33


   Energy is   -286.838347688

 Hessian Updated using BFGS Update

 33 Hessian modes will be used to form the next step
  Hessian Eigenvalues:
     0.003775    0.010736    0.011559    0.013045    0.018221    0.021360
     0.023423    0.028173    0.033220    0.050406    0.060766    0.063931
     0.068238    0.071273    0.081091    0.091192    0.097809    0.102892
     0.129264    0.145391    0.177577    0.185922    0.217368    0.233821
     0.243876    0.260123    0.278860    0.330662    0.353029    0.354742
     0.373012    0.396048    0.466757

 Minimum Search - Taking Simple RFO Step
 Searching for Lamda that Minimizes Along All modes
 Value Taken    Lamda =   0.00000000
 Step Taken.  Stepsize is  0.004563

                             Maximum     Tolerance    Cnvgd?
         Gradient           0.000081      0.000600     YES
         Displacement       0.003325      0.002400      NO
         Energy change     -0.000001      0.000002     YES


                       Distance Matrix (Angstroms)
             C (  1)   C (  2)   C (  3)   C (  4)   C (  5)   N (  6)
   C (  2)  1.523911
   C (  3)  2.397512  1.570953
   C (  4)  2.797490  2.152339  1.541012
   C (  5)  2.181634  2.301210  1.486117  1.595308
   N (  6)  1.283361  2.354258  2.431155  2.610345  1.441564
   H (  7)  1.088919  2.316804  3.447532  3.798569  3.230097  2.074001
   H (  8)  2.250925  1.092188  2.339405  3.107218  3.330750  3.300839
   H (  9)  3.326600  2.400654  1.085722  2.384857  2.326126  3.354014
   H ( 10)  3.845840  3.213034  2.391116  1.085562  2.311865  3.479399
   H ( 11)  3.167754  3.357042  2.254575  2.272369  1.085224  2.167891
   C ( 12)  2.415986  1.527508  2.116640  1.456539  2.512640  2.858617
   H ( 13)  2.999106  2.383763  3.201047  2.332213  3.409607  3.510922
             H (  7)   H (  8)   H (  9)   H ( 10)   H ( 11)   C ( 12)
   H (  8)  2.692056
   H (  9)  4.327117  2.823032
   H ( 10)  4.836161  4.105323  2.949512
   H ( 11)  4.163089  4.350287  2.754401  2.558847
   C ( 12)  3.159934  2.270970  3.029609  2.296456  3.471756
   H ( 13)  3.465435  2.920341  4.109239  2.926516  4.333450  1.087489

 
 Final energy is   -286.838347687864     


 ******************************
 **  OPTIMIZATION CONVERGED  **
 ******************************

                       Coordinates (Angstroms)
     ATOM                X               Y               Z
      1  C         1.4058560867    0.1830991904   -1.0554999799
      2  C         0.5383442452   -1.0594193958   -0.8946460054
      3  C        -0.7544950634   -0.6445171523   -1.6847833198
      4  C        -1.2936678790   -0.0621460347   -0.3638534755
      5  C        -0.6287227680    0.8259428024   -1.5102193270
      6  N         0.7420978423    1.2416628168   -1.3485570812
      7  H         2.4672916635    0.2213885099   -0.8154294537
      8  H         1.0126561441   -2.0331256804   -1.0353552169
      9  H        -1.2749646943   -1.1957979053   -2.4619537436
     10  H        -2.3098011338    0.1737346646   -0.0633881273
     11  H        -1.3081815967    1.5187231811   -1.9961231497
     12  C        -0.2768000400   -0.8018245393    0.3712388548
     13  H         0.0204145892   -0.7968931059    1.4173127572

Z-matrix Print:
$molecule
0 2
N 
C  1 1.283361
H  2 1.088919 1 121.701213
C  1 1.441564 2 106.234096 3 -175.995369 0
H  4 1.085224 1 117.483360 2 -165.223994 0
C  4 1.486117 1 112.271382 2 -16.592231 0
H  6 1.085722 4 128.833321 1 -128.110479 0
C  2 1.523911 1 113.716198 3 172.151963 0
H  8 1.092188 2 117.780188 1 156.543701 0
C  8 1.527508 2 104.700244 1 -68.266275 0
H  10 1.087489 8 130.698870 2 -72.278366 0
C  10 1.456539 8 92.289715 2 85.249465 0
H  12 1.085562 10 128.619637 8 161.559595 0
$end

 
 --------------------------------------------------------------
 
                    Orbital Energies (a.u.)
 --------------------------------------------------------------
 
 Alpha MOs
 -- Occupied --
-14.320 -10.224 -10.220 -10.210 -10.209 -10.208 -10.206  -0.968
 -0.856  -0.749  -0.664  -0.606  -0.571  -0.535  -0.517  -0.466
 -0.439  -0.405  -0.400  -0.356  -0.337  -0.298  -0.273  -0.256
 -0.182
 -- Virtual --
  0.004   0.100   0.114   0.128   0.150   0.150   0.153   0.163
  0.177   0.200   0.221   0.262   0.280   0.296   0.348   0.391
  0.494   0.513   0.524   0.543   0.558   0.573   0.601   0.605
  0.605   0.659   0.675   0.677   0.720   0.741   0.770   0.777
  0.805   0.806   0.822   0.842   0.854   0.877   0.889   0.936
  0.954   0.973   1.043   1.096   1.206   1.237   1.328   1.390
  1.446   1.475   1.504   1.517   1.587   1.632   1.672   1.713
  1.743   1.828   1.873   1.881   1.932   1.954   1.988   2.027
  2.060   2.168   2.207   2.218   2.232   2.254   2.363   2.380
  2.456   2.490   2.502   2.542   2.590   2.626   2.664   2.676
  2.718   2.808   2.841   2.914   2.963   3.959   4.194   4.239
  4.362   4.433   4.508   4.641
 
 Beta MOs
 -- Occupied --
-14.319 -10.222 -10.219 -10.211 -10.209 -10.207 -10.193  -0.964
 -0.850  -0.741  -0.652  -0.601  -0.567  -0.528  -0.511  -0.461
 -0.434  -0.402  -0.394  -0.348  -0.332  -0.291  -0.262  -0.251
 -- Virtual --
 -0.062   0.020   0.102   0.118   0.134   0.151   0.156   0.157
  0.165   0.181   0.204   0.227   0.267   0.284   0.298   0.360
  0.394   0.497   0.518   0.532   0.553   0.561   0.578   0.607
  0.610   0.622   0.669   0.679   0.683   0.729   0.745   0.775
  0.787   0.808   0.809   0.824   0.844   0.858   0.882   0.892
  0.940   0.958   0.977   1.047   1.108   1.208   1.243   1.334
  1.392   1.449   1.481   1.514   1.525   1.594   1.640   1.677
  1.716   1.751   1.835   1.878   1.894   1.940   1.970   1.994
  2.035   2.068   2.172   2.222   2.226   2.242   2.270   2.368
  2.390   2.463   2.497   2.511   2.546   2.594   2.633   2.666
  2.684   2.725   2.813   2.846   2.917   2.965   3.961   4.208
  4.245   4.368   4.439   4.511   4.644
 --------------------------------------------------------------
 
          Ground-State Mulliken Net Atomic Charges

     Atom                 Charge (a.u.)    Spin (a.u.)
  --------------------------------------------------------
      1 C                     0.088742       0.046569
      2 C                    -0.258730      -0.065670
      3 C                    -0.107721       0.078165
      4 C                    -0.163719      -0.095769
      5 C                    -0.019129       0.096496
      6 N                    -0.342259       0.039558
      7 H                     0.143009       0.001388
      8 H                     0.142896       0.022662
      9 H                     0.148128      -0.000817
     10 H                     0.147244       0.005303
     11 H                     0.151393       0.002873
     12 C                    -0.066110       0.888564
     13 H                     0.136255      -0.019321
  --------------------------------------------------------
  Sum of atomic charges =     0.000000
  Sum of spin   charges =     1.000000

 -----------------------------------------------------------------
                    Cartesian Multipole Moments
 -----------------------------------------------------------------
    Charge (ESU x 10^10)
                 0.0000
    Dipole Moment (Debye)
         X      -0.8036      Y      -1.8807      Z       0.1486
       Tot       2.0506
    Quadrupole Moments (Debye-Ang)
        XX     -36.9668     XY      -3.6301     YY     -43.7695
        XZ       2.6926     YZ       2.8033     ZZ     -39.9369
    Octopole Moments (Debye-Ang^2)
       XXX       7.7847    XXY       2.7439    XYY      -1.2064
       YYY       1.2737    XXZ      34.1533    XYZ       3.8066
       YYZ      38.1425    XZZ      -4.4318    YZZ      -2.2911
       ZZZ     112.0914
    Hexadecapole Moments (Debye-Ang^3)
      XXXX    -251.5690   XXXY     -13.6576   XXYY     -84.9422
      XYYY     -23.3956   YYYY    -228.8493   XXXZ       0.1341
      XXYZ       9.4115   XYYZ       9.5674   YYYZ      33.0745
      XXZZ    -106.3973   XYZZ      -8.4808   YYZZ     -99.9186
      XZZZ      16.6515   YZZZ      29.4924   ZZZZ    -379.3972
 -----------------------------------------------------------------
Archival summary:
1\1\c8-66\OPT\ProcedureUnspecified\6-31G*\166(2)\hpark21\TueMar112:03:042022TueMar112:03:042022\0\\#,OPT,ProcedureUnspecified,6-31G*,\\0,2\N\C,1,1.28336\H,2,1.08892,1,121.701\C,1,1.44156,2,106.234,3,-175.995,0\H,4,1.08522,1,117.483,2,-165.224,0\C,4,1.48612,1,112.271,2,-16.5922,0\H,6,1.08572,4,128.833,1,-128.11,0\C,2,1.52391,1,113.716,3,172.152,0\H,8,1.09219,2,117.78,1,156.544,0\C,8,1.52751,2,104.7,1,-68.2663,0\H,10,1.08749,8,130.699,2,-72.2784,0\C,10,1.45654,8,92.2897,2,85.2495,0\H,12,1.08556,10,128.62,8,161.56,0\\\@

 Total job time:  642.79s(wall), 829.53s(cpu) 
 Tue Mar  1 12:03:04 2022

        *************************************************************
        *                                                           *
        *  Thank you very much for using Q-Chem.  Have a nice day.  *
        *                                                           *
        *************************************************************


