13   
From optimize.out: Frame 1 / 19, Energy=    -286.6382696126
C        0.0570300000   -0.1404330000   -0.0000000000
C       -0.1969570000   -0.0130790000   -0.0000000000
C       -0.1204830000    0.0883990000   -0.0000000000
C       -0.1880160000   -0.0934480000   -0.0000000000
C       -0.0701440000    0.0343070000   -0.0000000000
N       -0.3466560000    0.5598790000   -0.0000000000
H        0.1591970000    0.0084870000   -0.0000000000
H        0.1554180000    0.0145670000   -0.0000000000
H        0.1790830000   -0.0066310000   -0.0000000000
H        0.1528340000    0.0014700000    0.0000000000
H        0.1660670000    0.0001000000   -0.0000000000
C       -0.1292480000    0.5786420000    0.0000000000
H        0.1818750000   -0.0322590000    0.0000000000
13   
From optimize.out: Frame 2 / 19, Energy=    -286.6840204177
C        0.0588620000   -0.1357260000   -0.0000000000
C       -0.2070760000   -0.0157460000   -0.0000000000
C       -0.1101640000    0.0859040000   -0.0000000000
C       -0.1813710000   -0.0855730000   -0.0000000000
C       -0.0757900000    0.0382110000   -0.0000000000
N       -0.3492710000    0.5261890000   -0.0000000000
H        0.1563320000    0.0084410000   -0.0000000000
H        0.1542360000    0.0166580000   -0.0000000000
H        0.1750670000   -0.0059680000   -0.0000000000
H        0.1512990000    0.0016640000    0.0000000000
H        0.1629390000    0.0004710000   -0.0000000000
C       -0.1120550000    0.5977620000    0.0000000000
H        0.1769920000   -0.0322890000    0.0000000000
13   
From optimize.out: Frame 3 / 19, Energy=    -286.7223544304
C        0.0585270000   -0.1297660000   -0.0000000000
C       -0.2159880000   -0.0185890000   -0.0000000000
C       -0.1003400000    0.0813070000   -0.0000000000
C       -0.1737670000   -0.0770400000   -0.0000000000
C       -0.0782680000    0.0407450000   -0.0000000000
N       -0.3498570000    0.4935350000   -0.0000000000
H        0.1536370000    0.0082160000   -0.0000000000
H        0.1531980000    0.0187790000   -0.0000000000
H        0.1695610000   -0.0053770000   -0.0000000000
H        0.1496470000    0.0017600000    0.0000000000
H        0.1601610000    0.0007260000   -0.0000000000
C       -0.0980090000    0.6181240000    0.0000000000
H        0.1714970000   -0.0324190000    0.0000000000
13   
From optimize.out: Frame 4 / 19, Energy=    -286.7529374114
C        0.0558510000   -0.1244510000   -0.0000000000
C       -0.2225650000   -0.0216150000   -0.0000000000
C       -0.0937440000    0.0779570000   -0.0000000000
C       -0.1660450000   -0.0699780000   -0.0000000000
C       -0.0767950000    0.0407410000   -0.0000000000
N       -0.3485110000    0.4631070000   -0.0000000000
H        0.1515720000    0.0079610000   -0.0000000000
H        0.1523050000    0.0206610000   -0.0000000000
H        0.1637520000   -0.0049640000   -0.0000000000
H        0.1482620000    0.0018590000    0.0000000000
H        0.1577180000    0.0009020000   -0.0000000000
C       -0.0877910000    0.6404180000    0.0000000000
H        0.1659900000   -0.0325960000    0.0000000000
13   
From optimize.out: Frame 5 / 19, Energy=    -286.7765162619
C        0.0529480000   -0.1188070000   -0.0000000000
C       -0.2275350000   -0.0252170000   -0.0000000000
C       -0.0900670000    0.0762280000   -0.0000000000
C       -0.1597270000   -0.0650940000   -0.0000000000
C       -0.0720500000    0.0396870000   -0.0000000000
N       -0.3464240000    0.4301170000   -0.0000000000
H        0.1500880000    0.0077090000   -0.0000000000
H        0.1514570000    0.0222360000   -0.0000000000
H        0.1585110000   -0.0046700000   -0.0000000000
H        0.1473220000    0.0020220000   -0.0000000000
H        0.1555250000    0.0010080000   -0.0000000000
C       -0.0809550000    0.6676710000    0.0000000000
H        0.1609070000   -0.0328900000    0.0000000000
13   
From optimize.out: Frame 6 / 19, Energy=    -286.7939297058
C        0.0522610000   -0.1103660000   -0.0000000000
C       -0.2323470000   -0.0301520000   -0.0000000000
C       -0.0878950000    0.0757450000   -0.0000000000
C       -0.1564510000   -0.0634600000   -0.0000000000
C       -0.0652320000    0.0401650000   -0.0000000000
N       -0.3448400000    0.3883210000   -0.0000000000
H        0.1489340000    0.0073600000   -0.0000000000
H        0.1506160000    0.0235270000   -0.0000000000
H        0.1543100000   -0.0044300000   -0.0000000000
H        0.1468900000    0.0023170000   -0.0000000000
H        0.1537010000    0.0011050000   -0.0000000000
C       -0.0764390000    0.7032410000    0.0000000000
H        0.1564900000   -0.0333720000    0.0000000000
13   
From optimize.out: Frame 7 / 19, Energy=    -286.8065946886
C        0.0550730000   -0.0951970000   -0.0000000000
C       -0.2382140000   -0.0369390000   -0.0000000000
C       -0.0864300000    0.0760440000   -0.0000000000
C       -0.1568760000   -0.0658820000   -0.0000000000
C       -0.0572490000    0.0444320000   -0.0000000000
N       -0.3440230000    0.3330730000   -0.0000000000
H        0.1476510000    0.0067300000   -0.0000000000
H        0.1498090000    0.0245290000   -0.0000000000
H        0.1513370000   -0.0041700000   -0.0000000000
H        0.1468550000    0.0027710000   -0.0000000000
H        0.1522860000    0.0012600000   -0.0000000000
C       -0.0729600000    0.7472760000    0.0000000000
H        0.1527420000   -0.0339270000    0.0000000000
13   
From optimize.out: Frame 8 / 19, Energy=    -286.8161224151
C        0.0609130000   -0.0708930000   -0.0000000000
C       -0.2453260000   -0.0450980000   -0.0000000000
C       -0.0858130000    0.0766730000   -0.0000000000
C       -0.1599160000   -0.0716850000   -0.0000000000
C       -0.0488610000    0.0526590000   -0.0000000000
N       -0.3432970000    0.2663650000   -0.0000000000
H        0.1460320000    0.0057590000   -0.0000000000
H        0.1489610000    0.0251700000   -0.0000000000
H        0.1494980000   -0.0038140000   -0.0000000000
H        0.1470230000    0.0033430000   -0.0000000000
H        0.1512800000    0.0014920000   -0.0000000000
C       -0.0698940000    0.7941500000    0.0000000000
H        0.1493990000   -0.0341220000    0.0000000000
13   
From optimize.out: Frame 9 / 19, Energy=    -286.8236309955
C        0.0679740000   -0.0405830000   -0.0000000000
C       -0.2525090000   -0.0530620000   -0.0000000000
C       -0.0864730000    0.0774420000   -0.0000000000
C       -0.1636580000   -0.0787880000   -0.0000000000
C       -0.0408790000    0.0628160000   -0.0000000000
N       -0.3421930000    0.1985750000   -0.0000000000
H        0.1444010000    0.0046270000   -0.0000000000
H        0.1479050000    0.0253390000   -0.0000000000
H        0.1485730000   -0.0033480000   -0.0000000000
H        0.1472470000    0.0039340000   -0.0000000000
H        0.1507490000    0.0017980000   -0.0000000000
C       -0.0673650000    0.8346960000    0.0000000000
H        0.1462270000   -0.0334460000    0.0000000000
13   
From optimize.out: Frame 10 / 19, Energy=    -286.8295631443
C        0.0742640000   -0.0109850000   -0.0000000000
C       -0.2580260000   -0.0593290000   -0.0000000000
C       -0.0888680000    0.0786750000   -0.0000000000
C       -0.1667660000   -0.0851480000   -0.0000000000
C       -0.0336090000    0.0724760000   -0.0000000000
N       -0.3409530000    0.1408080000   -0.0000000000
H        0.1431570000    0.0035760000   -0.0000000000
H        0.1466050000    0.0250030000   -0.0000000000
H        0.1482710000   -0.0028250000   -0.0000000000
H        0.1474200000    0.0044290000   -0.0000000000
H        0.1506340000    0.0021410000   -0.0000000000
C       -0.0654950000    0.8628620000    0.0000000000
H        0.1433670000   -0.0316830000    0.0000000000
13   
From optimize.out: Frame 11 / 19, Energy=    -286.8339571948
C        0.0790830000    0.0133850000   -0.0000000000
C       -0.2609180000   -0.0634460000   -0.0000000000
C       -0.0930800000    0.0805420000   -0.0000000000
C       -0.1684250000   -0.0899180000   -0.0000000000
C       -0.0272120000    0.0803700000   -0.0000000000
N       -0.3402230000    0.0972220000   -0.0000000000
H        0.1424860000    0.0027450000   -0.0000000000
H        0.1451830000    0.0242930000   -0.0000000000
H        0.1482990000   -0.0022790000   -0.0000000000
H        0.1474680000    0.0047740000   -0.0000000000
H        0.1507880000    0.0024730000   -0.0000000000
C       -0.0644600000    0.8788930000    0.0000000000
H        0.1410100000   -0.0290530000    0.0000000000
13   
From optimize.out: Frame 12 / 19, Energy=    -286.8367586107
C        0.0827450000    0.0314070000   -0.0000000000
C       -0.2611800000   -0.0657530000   -0.0000000000
C       -0.0987340000    0.0827230000   -0.0000000000
C       -0.1681550000   -0.0932040000   -0.0000000000
C       -0.0219730000    0.0863500000   -0.0000000000
N       -0.3402910000    0.0665160000   -0.0000000000
H        0.1423350000    0.0021300000   -0.0000000000
H        0.1438470000    0.0233770000   -0.0000000000
H        0.1484180000   -0.0016970000   -0.0000000000
H        0.1473630000    0.0049820000   -0.0000000000
H        0.1510400000    0.0027560000   -0.0000000000
C       -0.0645990000    0.8864300000    0.0000000000
H        0.1391850000   -0.0260170000    0.0000000000
13   
From optimize.out: Frame 13 / 19, Energy=    -286.8380435458
C        0.0859380000    0.0433350000   -0.0000000000
C       -0.2596610000   -0.0667440000   -0.0000000000
C       -0.1049840000    0.0843770000   -0.0000000000
C       -0.1660090000   -0.0953250000   -0.0000000000
C       -0.0182580000    0.0907000000   -0.0000000000
N       -0.3411980000    0.0460570000   -0.0000000000
H        0.1426020000    0.0016760000   -0.0000000000
H        0.1428240000    0.0224180000   -0.0000000000
H        0.1484460000   -0.0010660000   -0.0000000000
H        0.1471640000    0.0051140000   -0.0000000000
H        0.1512640000    0.0029800000   -0.0000000000
C       -0.0658830000    0.8894400000    0.0000000000
H        0.1377540000   -0.0229620000    0.0000000000
13   
From optimize.out: Frame 14 / 19, Energy=    -286.8382512864
C        0.0877920000    0.0460910000   -0.0000000000
C       -0.2588080000   -0.0666660000   -0.0000000000
C       -0.1074990000    0.0838350000   -0.0000000000
C       -0.1642970000   -0.0957910000   -0.0000000000
C       -0.0177630000    0.0923270000   -0.0000000000
N       -0.3420110000    0.0402820000   -0.0000000000
H        0.1427630000    0.0015020000   -0.0000000000
H        0.1426330000    0.0221000000   -0.0000000000
H        0.1483500000   -0.0007860000   -0.0000000000
H        0.1471430000    0.0052060000   -0.0000000000
H        0.1512420000    0.0030660000   -0.0000000000
C       -0.0666250000    0.8903200000    0.0000000000
H        0.1370800000   -0.0214870000    0.0000000000
13   
From optimize.out: Frame 15 / 19, Energy=    -286.8383064794
C        0.0887910000    0.0461160000   -0.0000000000
C       -0.2587380000   -0.0663270000   -0.0000000000
C       -0.1079600000    0.0824830000   -0.0000000000
C       -0.1635130000   -0.0956430000   -0.0000000000
C       -0.0183210000    0.0931320000   -0.0000000000
N       -0.3423880000    0.0394550000   -0.0000000000
H        0.1428430000    0.0014530000   -0.0000000000
H        0.1426740000    0.0221690000   -0.0000000000
H        0.1483110000   -0.0007510000   -0.0000000000
H        0.1471510000    0.0052630000   -0.0000000000
H        0.1512060000    0.0030840000   -0.0000000000
C       -0.0667090000    0.8902440000    0.0000000000
H        0.1366550000   -0.0206770000    0.0000000000
13   
From optimize.out: Frame 16 / 19, Energy=    -286.8383351319
C        0.0891610000    0.0459010000   -0.0000000000
C       -0.2587290000   -0.0659140000   -0.0000000000
C       -0.1080730000    0.0804980000   -0.0000000000
C       -0.1633070000   -0.0955290000   -0.0000000000
C       -0.0189030000    0.0942760000   -0.0000000000
N       -0.3424300000    0.0396520000   -0.0000000000
H        0.1428570000    0.0014280000   -0.0000000000
H        0.1427820000    0.0224170000   -0.0000000000
H        0.1482440000   -0.0007980000   -0.0000000000
H        0.1471480000    0.0053220000   -0.0000000000
H        0.1512330000    0.0030250000   -0.0000000000
C       -0.0663550000    0.8896150000    0.0000000000
H        0.1363720000   -0.0198930000    0.0000000000
13   
From optimize.out: Frame 17 / 19, Energy=    -286.8383427829
C        0.0893070000    0.0458430000   -0.0000000000
C       -0.2588410000   -0.0657000000   -0.0000000000
C       -0.1077800000    0.0793610000   -0.0000000000
C       -0.1633350000   -0.0954260000   -0.0000000000
C       -0.0192580000    0.0951380000   -0.0000000000
N       -0.3425280000    0.0397760000   -0.0000000000
H        0.1430220000    0.0014200000   -0.0000000000
H        0.1427910000    0.0225630000   -0.0000000000
H        0.1482410000   -0.0008220000   -0.0000000000
H        0.1471990000    0.0053120000   -0.0000000000
H        0.1513120000    0.0029890000   -0.0000000000
C       -0.0663040000    0.8890420000    0.0000000000
H        0.1361730000   -0.0194960000    0.0000000000
13   
From optimize.out: Frame 18 / 19, Energy=    -286.8383463419
C        0.0888250000    0.0463450000   -0.0000000000
C       -0.2587350000   -0.0656180000   -0.0000000000
C       -0.1077670000    0.0782080000   -0.0000000000
C       -0.1636580000   -0.0956720000   -0.0000000000
C       -0.0192140000    0.0962340000   -0.0000000000
N       -0.3421970000    0.0397590000   -0.0000000000
H        0.1429340000    0.0013960000   -0.0000000000
H        0.1429150000    0.0226830000   -0.0000000000
H        0.1481470000   -0.0008370000   -0.0000000000
H        0.1472030000    0.0053190000   -0.0000000000
H        0.1513540000    0.0028810000   -0.0000000000
C       -0.0660570000    0.8885800000    0.0000000000
H        0.1362500000   -0.0192780000    0.0000000000
