13   
From optimize.out: Frame 1 / 19, Energy=    -286.6382696126
C        1.3655594911    0.1436882578   -0.8815442664
C        0.4987667398   -1.1593673726   -1.0339432985
C       -0.8824280576   -0.6119384154   -2.1758364224
C       -1.2627055788   -0.0929561593   -0.3963178616
C       -0.7021095061    0.8304487034   -1.6724331119
N        0.9129986339    1.2911863792   -1.4619129900
H        1.9857964286    0.0085941228   -0.0178807200
H        0.9468164632   -2.1438844656   -0.9521524526
H       -1.5755770124   -1.3834216882   -2.7755661945
H       -2.2162786412    0.0436230358    0.1409321625
H       -1.4190424640    1.5918069154   -1.8461296522
C        0.0284309041   -0.4698683191    0.3300207492
H        0.6597999953   -0.4770836427    1.3015067904
13   
From optimize.out: Frame 2 / 19, Energy=    -286.6840204177
C        1.3480935721    0.1389666740   -0.8958264070
C        0.4979902883   -1.1526487551   -1.0317356173
C       -0.8570331027   -0.6123426714   -2.1195419735
C       -1.2544040344   -0.0841642440   -0.4020131332
C       -0.6965992659    0.8193022153   -1.6501176846
N        0.8777154998    1.2726443813   -1.4582750666
H        2.0188707769    0.0270595900   -0.0600354486
H        0.9468858732   -2.1393147060   -0.9699845420
H       -1.5256865655   -1.3577159364   -2.7001740343
H       -2.2134277116    0.0633535894    0.1097833589
H       -1.4120852698    1.5885695531   -1.8496825059
C        0.0104280894   -0.4897755514    0.3108020834
H        0.5992792461   -0.5031067872    1.2755437026
13   
From optimize.out: Frame 3 / 19, Energy=    -286.7223544304
C        1.3336338663    0.1358441229   -0.9089937635
C        0.4942565047   -1.1455667043   -1.0314903585
C       -0.8320163259   -0.6145510327   -2.0588017006
C       -1.2473312839   -0.0791620733   -0.4120543849
C       -0.6865639650    0.8127897475   -1.6282830999
N        0.8397275175    1.2551482297   -1.4513849048
H        2.0493867712    0.0499374275   -0.1023145042
H        0.9435963351   -2.1339614360   -0.9910892489
H       -1.4844956321   -1.3376134143   -2.6241712582
H       -2.2140152625    0.0790246933    0.0724035769
H       -1.3966092756    1.5872003904   -1.8529632602
C       -0.0050785791   -0.5110917427    0.2918946798
H        0.5455367252   -0.5271708566    1.2559909589
13   
From optimize.out: Frame 4 / 19, Energy=    -286.7529374114
C        1.3234414692    0.1358073172   -0.9190088013
C        0.4913651944   -1.1396667110   -1.0306864648
C       -0.8103063268   -0.6191523483   -1.9967171559
C       -1.2426185912   -0.0739621452   -0.4222675642
C       -0.6759076953    0.8121302353   -1.6095001140
N        0.8032205162    1.2430528175   -1.4410291941
H        2.0836189834    0.0759110952   -0.1470820244
H        0.9421847711   -2.1289380441   -1.0146493330
H       -1.4543417146   -1.3261019012   -2.5541087614
H       -2.2174276690    0.0953756322    0.0340777723
H       -1.3792914530    1.5892826645   -1.8639923841
C       -0.0196416817   -0.5361701137    0.2775045085
H        0.4957315931   -0.5567411467    1.2462022483
13   
From optimize.out: Frame 5 / 19, Energy=    -286.7765162619
C        1.3183915921    0.1383013534   -0.9262325287
C        0.4903075990   -1.1346094621   -1.0286240723
C       -0.7941421131   -0.6259470466   -1.9354385793
C       -1.2402133120   -0.0683998621   -0.4306191035
C       -0.6662763062    0.8152740642   -1.5944103166
N        0.7730288111    1.2354286399   -1.4275553359
H        2.1216418198    0.1042144267   -0.1946493018
H        0.9448770006   -2.1230821493   -1.0400437980
H       -1.4347183838   -1.3188638214   -2.4922046471
H       -2.2226430423    0.1123283527   -0.0014851539
H       -1.3623298761    1.5913187163   -1.8835470785
C       -0.0348423781   -0.5644707948    0.2683265251
H        0.4469459850   -0.5906650655    1.2452261225
13   
From optimize.out: Frame 6 / 19, Energy=    -286.7939297058
C        1.3185573976    0.1427437867   -0.9320589369
C        0.4918991492   -1.1297917027   -1.0243770994
C       -0.7847070663   -0.6340699327   -1.8779311479
C       -1.2400062383   -0.0623477255   -0.4344544277
C       -0.6588159954    0.8199239416   -1.5835563617
N        0.7522318312    1.2313495862   -1.4121363790
H        2.1630056534    0.1325479564   -0.2462586507
H        0.9536650923   -2.1149445095   -1.0656078096
H       -1.4236369583   -1.3117056245   -2.4423148045
H       -2.2288774429    0.1296239811   -0.0297820204
H       -1.3474595112    1.5901260046   -1.9115377551
C       -0.0524735709   -0.5951602048    0.2657381692
H        0.3966450554   -0.6274682054    1.2530199559
13   
From optimize.out: Frame 7 / 19, Energy=    -286.8065946886
C        1.3228029151    0.1484299362   -0.9395165174
C        0.4957142667   -1.1243901119   -1.0168804981
C       -0.7803877370   -0.6421573905   -1.8273340883
C       -1.2417456747   -0.0562596747   -0.4317929897
C       -0.6529356826    0.8239134184   -1.5757950059
N        0.7398663229    1.2293395931   -1.3968130822
H        2.2064369990    0.1587446955   -0.3044894873
H        0.9677491246   -2.1036439107   -1.0880592541
H       -1.4166282467   -1.3019872592   -2.4087307043
H       -2.2357517253    0.1462944357   -0.0479834691
H       -1.3342948749    1.5840567044   -1.9439860026
C       -0.0740475725   -0.6267831152    0.2707915897
H        0.3432492812   -0.6647299696    1.2693322411
13   
From optimize.out: Frame 8 / 19, Energy=    -286.8161224151
C        1.3307618706    0.1547944452   -0.9517639707
C        0.5008435690   -1.1173886604   -1.0055849686
C       -0.7779811534   -0.6488797552   -1.7850155594
C       -1.2452143994   -0.0511164097   -0.4234222123
C       -0.6475453366    0.8262139124   -1.5691321709
N        0.7330350984    1.2279259752   -1.3834761397
H        2.2510215166    0.1821794751   -0.3712176222
H        0.9836180098   -2.0896096432   -1.1034996074
H       -1.4086654467   -1.2888580098   -2.3908537347
H       -2.2434256440    0.1610799935   -0.0575420646
H       -1.3223912499    1.5738023046   -1.9745775778
C       -0.1002026989   -0.6583113600    0.2824906114
H        0.2861732605   -0.7010049162    1.2923377489
13   
From optimize.out: Frame 9 / 19, Energy=    -286.8236309955
C        1.3428064373    0.1615848189   -0.9694507805
C        0.5071854676   -1.1082135706   -0.9906947138
C       -0.7755132699   -0.6534132239   -1.7505422093
C       -1.2499822713   -0.0473726189   -0.4118284003
C       -0.6425027813    0.8270853615   -1.5625795016
N        0.7301064689    1.2270089376   -1.3732710576
H        2.2961184831    0.2032266784   -0.4452066731
H        0.9984735610   -2.0742619968   -1.1096737600
H       -1.3978012637   -1.2732903875   -2.3839620670
H       -2.2517472951    0.1735932050   -0.0616796384
H       -1.3126462891    1.5612395177   -1.9993833435
C       -0.1303248678   -0.6894291468    0.2981526090
H        0.2258550162   -0.7369302232    1.3188622682
13   
From optimize.out: Frame 10 / 19, Energy=    -286.8295631443
C        1.3577893435    0.1683597653   -0.9909418111
C        0.5145450120   -1.0973498313   -0.9723299781
C       -0.7721720395   -0.6554173814   -1.7231575159
C       -1.2556419129   -0.0448083630   -0.3987013951
C       -0.6380886691    0.8272975790   -1.5557018325
N        0.7296565031    1.2275917278   -1.3661793898
H        2.3406273981    0.2212406062   -0.5247842804
H        1.0108407704   -2.0593571098   -1.1062696394
H       -1.3828534730   -1.2564391225   -2.3853678383
H       -2.2605006186    0.1837335827   -0.0622662122
H       -1.3058201997    1.5478841378   -2.0177125990
C       -0.1627910937   -0.7194516781    0.3157251433
H        0.1644363752   -0.7724565613    1.3464300807
13   
From optimize.out: Frame 11 / 19, Energy=    -286.8339571948
C        1.3739427612    0.1747222141   -1.0141086032
C        0.5224450492   -1.0854465602   -0.9508748971
C       -0.7676750030   -0.6548489334   -1.7020009384
C       -1.2622754347   -0.0432929964   -0.3851018766
C       -0.6344151954    0.8274050906   -1.5477024599
N        0.7308041963    1.2304260522   -1.3612596460
H        2.3832863963    0.2346805447   -0.6090246993
H        1.0191710672   -2.0464558403   -1.0938335225
H       -1.3619510560   -1.2389989033   -2.3944873121
H       -2.2700695706    0.1907376211   -0.0604852943
H       -1.3022296929    1.5345596344   -2.0293126114
C       -0.1958348578   -0.7471179799    0.3337394932
H        0.1048287361   -0.8055425919    1.3731950998
13   
From optimize.out: Frame 12 / 19, Energy=    -286.8367586107
C        1.3894439372    0.1804861857   -1.0368460186
C        0.5304322569   -1.0732430297   -0.9274440049
C       -0.7619707760   -0.6519138107   -1.6864076938
C       -1.2703960822   -0.0434275222   -0.3721432285
C       -0.6312875450    0.8276413324   -1.5373904668
N        0.7333400878    1.2352646576   -1.3575454545
H        2.4225423513    0.2420030953   -0.6972393866
H        1.0218933501   -2.0370358314   -1.0733512679
H       -1.3331684295   -1.2213259789   -2.4112358325
H       -2.2813389455    0.1930655716   -0.0578881632
H       -1.3016841808    1.5223970307   -2.0326764814
C       -0.2279474708   -0.7709370639    0.3510792114
H        0.0501688425   -0.8321472850    1.3978315192
13   
From optimize.out: Frame 13 / 19, Energy=    -286.8380435458
C        1.4027440693    0.1851943949   -1.0562265671
C        0.5382887112   -1.0619174126   -0.9038912223
C       -0.7557758882   -0.6472971741   -1.6764801880
C       -1.2806459318   -0.0463852266   -0.3614846832
C       -0.6288151788    0.8278930936   -1.5238415455
N        0.7372981031    1.2409847720   -1.3546430872
H        2.4561978477    0.2409795701   -0.7858918005
H        1.0193183059   -2.0317564408   -1.0472734972
H       -1.2965203106   -1.2040428477   -2.4350763604
H       -2.2950280689    0.1894767140   -0.0564161535
H       -1.3040909133    1.5133476428   -2.0251934556
C       -0.2578550012   -0.7899512499    0.3665084675
H        0.0049116514   -0.8456984842    1.4186528251
13   
From optimize.out: Frame 14 / 19, Energy=    -286.8382512864
C        1.4065385542    0.1863088397   -1.0607318660
C        0.5414111239   -1.0583674325   -0.8942601105
C       -0.7534503955   -0.6450381617   -1.6763339851
C       -1.2872622303   -0.0506255710   -0.3593520677
C       -0.6282103738    0.8274534281   -1.5149930890
N        0.7400583867    1.2433416651   -1.3536248357
H        2.4679054016    0.2331130807   -0.8220603887
H        1.0175673316   -2.0309416256   -1.0357040462
H       -1.2777466194   -1.1973914314   -2.4499951649
H       -2.3032322000    0.1838659121   -0.0578079702
H       -1.3067185053    1.5124600762   -2.0128798855
C       -0.2706715948   -0.7964403234    0.3718035423
H       -0.0061614828   -0.8369111049    1.4246825991
13   
From optimize.out: Frame 15 / 19, Energy=    -286.8383064794
C        1.4069011453    0.1862457658   -1.0593488148
C        0.5417036443   -1.0578140237   -0.8923318970
C       -0.7531166830   -0.6445972813   -1.6793681331
C       -1.2902712683   -0.0544070397   -0.3608742114
C       -0.6283368462    0.8267456158   -1.5110711764
N        0.7415528425    1.2436531169   -1.3526850105
H        2.4702120765    0.2270715478   -0.8281841479
H        1.0162919334   -2.0312449048   -1.0326569680
H       -1.2734866942   -1.1963465723   -2.4561032811
H       -2.3065291161    0.1797618247   -0.0598263275
H       -1.3081155530    1.5142233393   -2.0041662490
C       -0.2748399579   -0.7986766460    0.3719003235
H       -0.0019381275   -0.8237873909    1.4234586252
13   
From optimize.out: Frame 16 / 19, Energy=    -286.8383351319
C        1.4057494288    0.1849203011   -1.0567951792
C        0.5401698829   -1.0585075768   -0.8922727145
C       -0.7530441526   -0.6444030094   -1.6834674425
C       -1.2924177682   -0.0586402095   -0.3630016987
C       -0.6288041624    0.8261817519   -1.5087440819
N        0.7419625396    1.2429639307   -1.3507391556
H        2.4692222347    0.2214406407   -0.8253542279
H        1.0148511277   -2.0319205917   -1.0326418762
H       -1.2722031420   -1.1959860269   -2.4609575726
H       -2.3086889874    0.1756668153   -0.0619037360
H       -1.3087358950    1.5169628917   -1.9972393983
C       -0.2768343278   -0.8004652760    0.3715160334
H        0.0088006176   -0.8073862897    1.4203437820
13   
From optimize.out: Frame 17 / 19, Energy=    -286.8383427829
C        1.4062868656    0.1843924043   -1.0553726539
C        0.5395755142   -1.0584711856   -0.8937031875
C       -0.7541411986   -0.6446682965   -1.6847666911
C       -1.2931132290   -0.0604777797   -0.3639537049
C       -0.6290132685    0.8257431242   -1.5092257882
N        0.7426856290    1.2423626895   -1.3498535533
H        2.4687647481    0.2209555576   -0.8192992140
H        1.0136852509   -2.0322996265   -1.0337085604
H       -1.2748280960   -1.1966298857   -2.4610215575
H       -2.3092294540    0.1745240978   -0.0627069135
H       -1.3087567691    1.5179889222   -1.9958238611
C       -0.2771772118   -0.8013700850    0.3705010956
H        0.0152886150   -0.8012225851    1.4176773219
13   
From optimize.out: Frame 18 / 19, Energy=    -286.8383463419
C        1.4052137029    0.1831289546   -1.0552010466
C        0.5380602246   -1.0595101170   -0.8944587590
C       -0.7540700051   -0.6445019397   -1.6854734948
C       -1.2934878819   -0.0622154261   -0.3641853705
C       -0.6287806392    0.8258824826   -1.5096560469
N        0.7419430892    1.2417656932   -1.3484371405
H        2.4668220319    0.2206930896   -0.8156699930
H        1.0123905263   -2.0332621681   -1.0349293636
H       -1.2746191949   -1.1958449003   -2.4624360078
H       -2.3096742556    0.1731792203   -0.0635022887
H       -1.3080686263    1.5190274411   -1.9953909908
C       -0.2768025069   -0.8019214296    0.3711134304
H        0.0211009309   -0.7955935490    1.4169698039
