13   
From optimize.out: Frame 1 / 3, Energy=    -286.8723841731
C        0.0681800000   -0.1408210000   -0.0000000000
C        0.0276740000   -0.0025950000    0.0000000000
C       -0.1937120000   -0.0054240000    0.0000000000
C       -0.1864550000   -0.0086430000    0.0000000000
C        0.0373380000    0.0090060000    0.0000000000
N       -0.4010170000    0.0195040000   -0.0000000000
H        0.1630210000    0.0689030000   -0.0000000000
H        0.1449010000    0.0000970000   -0.0000000000
H        0.1285050000    0.0010280000    0.0000000000
H        0.1288970000    0.0008230000    0.0000000000
H        0.1549000000    0.0005450000    0.0000000000
C       -0.2446110000    1.0626520000   -0.0000000000
H        0.1723790000   -0.0050760000   -0.0000000000
13   
From optimize.out: Frame 2 / 3, Energy=    -286.8723877668
C        0.0682120000   -0.1405430000   -0.0000000000
C        0.0275580000   -0.0026230000    0.0000000000
C       -0.1934110000   -0.0053890000    0.0000000000
C       -0.1866110000   -0.0086540000    0.0000000000
C        0.0372710000    0.0089740000    0.0000000000
N       -0.4012550000    0.0195160000   -0.0000000000
H        0.1631690000    0.0688480000   -0.0000000000
H        0.1448320000    0.0000980000   -0.0000000000
H        0.1286420000    0.0010200000    0.0000000000
H        0.1288520000    0.0008260000    0.0000000000
H        0.1549120000    0.0005330000    0.0000000000
C       -0.2444780000    1.0624490000   -0.0000000000
H        0.1723080000   -0.0050560000   -0.0000000000
