13   
From optimize.out: Frame 26 / 27, Energy=    -286.8383800304
C        1.5231702074    0.3848421666   -0.2302202023
C        0.6818835944   -0.8596597199    0.0261073198
C       -0.6337825769   -0.5169814233   -0.7614113212
C       -1.1586708176    0.1354232450    0.5318720210
C       -0.5312376610    0.9630244680   -0.6810279451
N        0.8338895800    1.4116429241   -0.5732787156
H        2.5884165223    0.4562144810   -0.0161994091
H        1.1712917610   -1.8319383794   -0.0634436707
H       -1.1574084067   -1.1243740932   -1.4936532733
H       -2.1730857514    0.3727486115    0.8369039720
H       -1.2330231675    1.6128152464   -1.1936439812
C       -0.1138591228   -0.5385726553    1.2900726753
H        0.2024158383   -0.4651848709    2.3279225299
13   
From optimize.out: Frame 25 / 27, Energy=    -286.8383768561
C        1.5237638357    0.3845529418   -0.2307659924
C        0.6822204613   -0.8590088584    0.0258317757
C       -0.6345331184   -0.5169991482   -0.7610606314
C       -1.1593638933    0.1342107002    0.5320457526
C       -0.5306693350    0.9626123263   -0.6816145596
N        0.8343211526    1.4118458742   -0.5728294496
H        2.5887558802    0.4564710837   -0.0160071263
H        1.1707298784   -1.8319325852   -0.0621686029
H       -1.1567326613   -1.1238362621   -1.4948175300
H       -2.1728888636    0.3731891462    0.8385496909
H       -1.2333438571    1.6123507502   -1.1931469828
C       -0.1149301930   -0.5395079393    1.2893310861
H        0.2026707137   -0.4639480292    2.3266525697
13   
From optimize.out: Frame 24 / 27, Energy=    -286.8383641264
C        1.5235023912    0.3856673413   -0.2275035242
C        0.6829157842   -0.8582737323    0.0259361004
C       -0.6339871813   -0.5170099024   -0.7614965644
C       -1.1583850014    0.1353767435    0.5330439382
C       -0.5299167421    0.9616540889   -0.6836939268
N        0.8341837816    1.4107271629   -0.5779955053
H        2.5886919536    0.4584242141   -0.0142957508
H        1.1723344100   -1.8308126215   -0.0618078990
H       -1.1600399625   -1.1216531725   -1.4941935576
H       -2.1710210494    0.3751633891    0.8415508608
H       -1.2337130097    1.6102552815   -1.1953706465
C       -0.1151416788   -0.5404070648    1.2887968955
H        0.2005763046   -0.4691117277    2.3270295798
13   
From optimize.out: Frame 23 / 27, Energy=    -286.8383397253
C        1.5243036689    0.3872028401   -0.2334294946
C        0.6847021957   -0.8563088696    0.0277743925
C       -0.6308500947   -0.5181114231   -0.7603994959
C       -1.1561934107    0.1398967286    0.5329479594
C       -0.5292941850    0.9616293908   -0.6835612600
N        0.8334628911    1.4138052601   -0.5756338528
H        2.5904696371    0.4591246640   -0.0252711620
H        1.1752181813   -1.8284861012   -0.0567453696
H       -1.1626574994   -1.1216169880   -1.4896187181
H       -2.1697623510    0.3761407479    0.8411214264
H       -1.2328633926    1.6078702454   -1.1988005226
C       -0.1128360915   -0.5342743633    1.2887812830
H        0.1863004507   -0.4868721316    2.3328348143
13   
From optimize.out: Frame 22 / 27, Energy=    -286.8382649297
C        1.5252458193    0.3914477110   -0.2367037685
C        0.6857521748   -0.8542093456    0.0277847727
C       -0.6334081510   -0.5190442264   -0.7564086814
C       -1.1528064047    0.1489604107    0.5342119339
C       -0.5311000415    0.9629885584   -0.6851793105
N        0.8346107754    1.4147622801   -0.5853834376
H        2.5910093347    0.4647648142   -0.0257353837
H        1.1739602593   -1.8273610805   -0.0570733437
H       -1.1581970155   -1.1298598242   -1.4846608620
H       -2.1659113039    0.3835718037    0.8457111113
H       -1.2338064494    1.6065732653   -1.2048087125
C       -0.1067434861   -0.5266726070    1.2892843079
H        0.1713944885   -0.5159217599    2.3389613740
13   
From optimize.out: Frame 21 / 27, Energy=    -286.8382057671
C        1.5252584010    0.3899858596   -0.2407950870
C        0.6854598467   -0.8557058905    0.0291532081
C       -0.6328596537   -0.5184418543   -0.7568143405
C       -1.1525107427    0.1514647338    0.5343825614
C       -0.5337911792    0.9642564811   -0.6832925561
N        0.8327878203    1.4133457682   -0.5872004724
H        2.5907494063    0.4637546244   -0.0282029608
H        1.1739761291   -1.8287980171   -0.0546321354
H       -1.1506274770   -1.1310867657   -1.4887097500
H       -2.1658318382    0.3850213338    0.8462125492
H       -1.2365046488    1.6081190915   -1.2022892547
C       -0.1036246013   -0.5208924925    1.2905863392
H        0.1675185373   -0.5210228723    2.3416018989
13   
From optimize.out: Frame 19 / 27, Energy=    -286.8379404468
C        1.5249213437    0.3959952579   -0.2398280683
C        0.6872067935   -0.8499313490    0.0298088662
C       -0.6326423711   -0.5141548660   -0.7563815025
C       -1.1467298660    0.1684575495    0.5322488793
C       -0.5335042327    0.9697903467   -0.6839199263
N        0.8372769371    1.4172178391   -0.5863009520
H        2.5925068614    0.4650783458   -0.0346783207
H        1.1754092582   -1.8230733091   -0.0555499653
H       -1.1638687436   -1.1481347028   -1.4588250802
H       -2.1677811635    0.3719376722    0.8398816409
H       -1.2276563945    1.6129894109   -1.2153905067
C       -0.1001355446   -0.5141037078    1.2872621009
H        0.1549971221   -0.5520684874    2.3416728348
13   
From optimize.out: Frame 18 / 27, Energy=    -286.8371736711
C        1.5240881587    0.4036284712   -0.2358770544
C        0.6956904422   -0.8494875209    0.0349396995
C       -0.6137236030   -0.5160083166   -0.7613154016
C       -1.1312844802    0.1865251935    0.5317238330
C       -0.5335278539    0.9662342517   -0.6917349219
N        0.8377982811    1.4211410585   -0.5912911340
H        2.5918896411    0.4764995967   -0.0318164713
H        1.1967744940   -1.8158111827   -0.0540351790
H       -1.2175370358   -1.1330675986   -1.4162043607
H       -2.1597926178    0.3726889827    0.8249397012
H       -1.2250061429    1.6021972859   -1.2360043688
C       -0.1022277767   -0.5245529258    1.2846389373
H        0.1368584931   -0.5899872955    2.3420367207
13   
From optimize.out: Frame 17 / 27, Energy=    -286.8354470634
C        1.5244593127    0.4106766136   -0.2311596035
C        0.7017836207   -0.8466526428    0.0350691930
C       -0.5930391063   -0.5175673865   -0.7796039708
C       -1.1205548439    0.2026826390    0.5328537494
C       -0.5334346517    0.9636352566   -0.6955512787
N        0.8394329451    1.4259967547   -0.5907814265
H        2.5925960328    0.4852944223   -0.0289129932
H        1.2047601708   -1.8120297131   -0.0523982448
H       -1.2540901101   -1.1344321745   -1.3744047040
H       -2.1536615032    0.3746070598    0.8184022152
H       -1.2237749372    1.5959881091   -1.2461683900
C       -0.1071978018   -0.5326627440    1.2767787589
H        0.1227208722   -0.6155361942    2.3358766951
13   
From optimize.out: Frame 16 / 27, Energy=    -286.8329641036
C        1.5252705731    0.4155030136   -0.2277625848
C        0.7074897045   -0.8468970732    0.0319999337
C       -0.5710066398   -0.5214970161   -0.8011520184
C       -1.1118765509    0.2135251093    0.5358373919
C       -0.5346177873    0.9579951502   -0.6989544562
N        0.8379607236    1.4293173603   -0.5901679978
H        2.5914450369    0.4959563802   -0.0181056374
H        1.2139210573   -1.8103017095   -0.0551459857
H       -1.2855267270   -1.1322970732   -1.3356226057
H       -2.1460729735    0.3879355952    0.8163922307
H       -1.2247866181    1.5870658141   -1.2539786767
C       -0.1137763651   -0.5439229667    1.2681042643
H        0.1115765664   -0.6323825843    2.3285561420
13   
From optimize.out: Frame 15 / 27, Energy=    -286.8301714310
C        1.5256611618    0.4177876373   -0.2252726364
C        0.7109134664   -0.8490044939    0.0246748126
C       -0.5515325720   -0.5246349574   -0.8265560635
C       -1.1058014548    0.2226997095    0.5393822405
C       -0.5371696612    0.9530651705   -0.7003510383
N        0.8337167231    1.4308797435   -0.5879031205
H        2.5879356978    0.5060792349   -0.0006493747
H        1.2234646790   -1.8088122994   -0.0647977228
H       -1.3047531466   -1.1417499452   -1.2958690982
H       -2.1378991767    0.4112048382    0.8198010086
H       -1.2258057032    1.5814231869   -1.2582176515
C       -0.1214757970   -0.5555701275    1.2572541634
H        0.1027457835   -0.6433676973    2.3185044808
13   
From optimize.out: Frame 14 / 27, Energy=    -286.8273170374
C        1.5256757191    0.4187923349   -0.2231449260
C        0.7118766630   -0.8507036304    0.0141763122
C       -0.5363542622   -0.5256552843   -0.8551088856
C       -1.1021186902    0.2316242573    0.5419724045
C       -0.5399442501    0.9508740761   -0.6997048640
N        0.8289903230    1.4318949147   -0.5836033571
H        2.5833034069    0.5139888641    0.0188458302
H        1.2310209718   -1.8065143522   -0.0793209135
H       -1.3116164310   -1.1661985702   -1.2516337939
H       -2.1301801994    0.4378318187    0.8263031986
H       -1.2255964299    1.5815050707   -1.2586408922
C       -0.1300384284   -0.5658234200    1.2441723882
H        0.0949816074   -0.6516160792    2.3056874986
13   
From optimize.out: Frame 13 / 27, Energy=    -286.8244024368
C        1.5252440630    0.4190244544   -0.2209869156
C        0.7109394054   -0.8518881374    0.0017088628
C       -0.5264309755   -0.5249489043   -0.8842036411
C       -1.1003760988    0.2388714723    0.5425539335
C       -0.5423472903    0.9510950274   -0.6980908061
N        0.8246072203    1.4327029335   -0.5782535071
H        2.5777816721    0.5196932968    0.0394846082
H        1.2372806353   -1.8031843689   -0.0975649227
H       -1.3097059331   -1.1993397970   -1.2020510287
H       -2.1230017947    0.4646562670    0.8330458286
H       -1.2239253078    1.5861763343   -1.2568477582
C       -0.1388630356   -0.5753126957    1.2299153230
H        0.0887974397   -0.6575458823    2.2912900235
13   
From optimize.out: Frame 12 / 27, Energy=    -286.8212921743
C        1.5239922781    0.4182800567   -0.2185642691
C        0.7080342709   -0.8531394018   -0.0122182822
C       -0.5234208932   -0.5227565047   -0.9118288245
C       -1.1004092342    0.2429844018    0.5402972035
C       -0.5441569135    0.9534029879   -0.6961010036
N        0.8207823243    1.4333565345   -0.5719778143
H        2.5707689330    0.5229592397    0.0622951226
H        1.2430968695   -1.7987816487   -0.1194715162
H       -1.3009733154   -1.2370752488   -1.1483193074
H       -2.1161732993    0.4901878302    0.8384730905
H       -1.2206104907    1.5946443171   -1.2539354312
C       -0.1469530569   -0.5845072674    1.2152724501
H        0.0860225274   -0.6595552966    2.2760785821
13   
From optimize.out: Frame 11 / 27, Energy=    -286.8176372828
C        1.5213263696    0.4161143430   -0.2157453957
C        0.7025281966   -0.8549606973   -0.0271376532
C       -0.5292227850   -0.5188575725   -0.9374465039
C       -1.1020035149    0.2440574909    0.5352063406
C       -0.5452774919    0.9577665002   -0.6940777470
N        0.8179142389    1.4337153874   -0.5650145089
H        2.5614868562    0.5228060343    0.0880290912
H        1.2484652912   -1.7933689770   -0.1443048164
H       -1.2848458973   -1.2783730173   -1.0945915381
H       -2.1096111276    0.5124913520    0.8432495548
H       -1.2158994571    1.6069414474   -1.2497435658
C       -0.1531102517   -0.5924479485    1.2009561642
H        0.0882495729   -0.6558843426    2.2606205780
13   
From optimize.out: Frame 10 / 27, Energy=    -286.8129853663
C        1.5167946979    0.4124039009   -0.2128375414
C        0.6941269696   -0.8576125900   -0.0419300333
C       -0.5437927618   -0.5131274619   -0.9615262833
C       -1.1045085742    0.2435836510    0.5286589160
C       -0.5458798433    0.9637190489   -0.6929514311
N        0.8166137534    1.4338825948   -0.5579039026
H        2.5498621211    0.5181037368    0.1152322215
H        1.2528368694   -1.7873786442   -0.1693894996
H       -1.2599361045   -1.3214391943   -1.0469813873
H       -2.1032849991    0.5294552252    0.8498626359
H       -1.2111822266    1.6224292846   -1.2439070872
C       -0.1567688892   -0.5976326259    1.1878420864
H        0.0951189875   -0.6463869259    2.2458313060
13   
From optimize.out: Frame 9 / 27, Energy=    -286.8070959025
C        1.5099586910    0.4073689239   -0.2096237196
C        0.6831417724   -0.8618777974   -0.0555168607
C       -0.5649565924   -0.5060343275   -0.9845840877
C       -1.1068523437    0.2423828494    0.5226583849
C       -0.5463991810    0.9699757221   -0.6942335341
N        0.8170697442    1.4339306145   -0.5515428694
H        2.5355561342    0.5093503547    0.1436199076
H        1.2572409596   -1.7811051344   -0.1925000565
H       -1.2285548311   -1.3620033021   -1.0106364883
H       -2.0960693889    0.5416568231    0.8609506892
H       -1.2079320837    1.6387080992   -1.2380322535
C       -0.1580217359   -0.6004192163    1.1767888628
H        0.1058188555   -0.6319336089    2.2326520254
13   
From optimize.out: Frame 8 / 27, Energy=    -286.7999453414
C        1.5002587068    0.4007752126   -0.2058649265
C        0.6700285378   -0.8689645902   -0.0672919893
C       -0.5898745777   -0.4978124985   -1.0077181842
C       -1.1082544297    0.2402294454    0.5186727297
C       -0.5474215784    0.9756522741   -0.6988580944
N        0.8189755358    1.4336878875   -0.5461990105
H        2.5176586113    0.4972512111    0.1739588222
H        1.2637059512   -1.7746175820   -0.2123838080
H       -1.1946533983   -1.3963019172   -0.9885690133
H       -2.0867139991    0.5503629638    0.8779000248
H       -1.2069717004    1.6539307962   -1.2339427214
C       -0.1568685096   -0.6017246628    1.1685219332
H        0.1201308505   -0.6124685400    2.2217742377
13   
From optimize.out: Frame 7 / 27, Energy=    -286.7914497900
C        1.4872238042    0.3923540358   -0.2013948694
C        0.6554281329   -0.8797077137   -0.0771035613
C       -0.6160348351   -0.4884495436   -1.0323335473
C       -1.1081499700    0.2366147460    0.5175596818
C       -0.5495341729    0.9807397398   -0.7077419882
N        0.8224090409    1.4332866725   -0.5419114259
H        2.4952481098    0.4821790334    0.2072350739
H        1.2735819814   -1.7680164803   -0.2282429989
H       -1.1618270506   -1.4221177601   -0.9810938625
H       -2.0743369749    0.5558735527    0.9012183378
H       -1.2088674676    1.6675738699   -1.2333105950
C       -0.1530203372   -0.6023309087    1.1635143717
H        0.1378797391   -0.5879992437    2.2136053832
13   
From optimize.out: Frame 6 / 27, Energy=    -286.7811694891
C        1.4700141682    0.3817876741   -0.1961518380
C        0.6399762880   -0.8945917593   -0.0849759756
C       -0.6412260746   -0.4775613849   -1.0600955848
C       -1.1060419859    0.2307541339    0.5198840805
C       -0.5533269472    0.9860207549   -0.7221083607
N        0.8281139772    1.4334059492   -0.5383143147
H        2.4670706641    0.4638765117    0.2443771969
H        1.2873441409   -1.7614956614   -0.2393868675
H       -1.1329104459   -1.4382014048   -0.9871253691
H       -2.0583464989    0.5572517812    0.9312029678
H       -1.2140930169    1.6800239563   -1.2381158844
C       -0.1457147178   -0.6027851815    1.1622636635
H        0.1591404489   -0.5584853693    2.2085462863
13   
From optimize.out: Frame 5 / 27, Energy=    -286.7678764937
C        1.4478693999    0.3694589176   -0.1903173769
C        0.6244182253   -0.9131918773   -0.0905789738
C       -0.6639270496   -0.4642664716   -1.0927140068
C       -1.1016558169    0.2214240245    0.5265618516
C       -0.5598659775    0.9936065903   -0.7440805455
N        0.8396731040    1.4364732419   -0.5349585737
H        2.4325583017    0.4412363985    0.2851108171
H        1.3034787384   -1.7560396652   -0.2442566348
H       -1.1095119046   -1.4440118079   -1.0054959751
H       -2.0387933910    0.5512408713    0.9690054338
H       -1.2241412055    1.6922636035   -1.2517979381
C       -0.1338129587   -0.6034314562    1.1657606742
H        0.1837105346   -0.5247623693    2.2077612478
13   
From optimize.out: Frame 4 / 27, Energy=    -286.7493196980
C        1.4222944855    0.3581563866   -0.1850044628
C        0.6097879003   -0.9329640580   -0.0932694399
C       -0.6840151780   -0.4491699569   -1.1301109844
C       -1.0953501048    0.2076698952    0.5381538327
C       -0.5700060103    1.0066057570   -0.7755059178
N        0.8641138550    1.4466819701   -0.5321938501
H        2.3946379237    0.4147732881    0.3261334374
H        1.3178429647   -1.7534759675   -0.2408761110
H       -1.0930755198   -1.4409032206   -1.0331588947
H       -2.0169769780    0.5336906737    1.0148030936
H       -1.2411674728    1.7058186897   -1.2786212189
C       -0.1172856909   -0.6052706535    1.1754439150
H        0.2091998253   -0.4916128039    2.2142066008
13   
From optimize.out: Frame 3 / 27, Energy=    -286.7237097020
C        1.3941555584    0.3511234929   -0.1821698333
C        0.5957630332   -0.9519310098   -0.0929831313
C       -0.7012478354   -0.4357810458   -1.1696987941
C       -1.0869548019    0.1908096394    0.5522497431
C       -0.5812582501    1.0260637157   -0.8135114359
N        0.9004887895    1.4643261057   -0.5301248091
H        2.3555823916    0.3894076282    0.3624780826
H        1.3268145256   -1.7551147823   -0.2301892476
H       -1.0832379561   -1.4336788143   -1.0649050601
H       -1.9935405288    0.5066524789    1.0634164955
H       -1.2621357020    1.7227949805   -1.3170213177
C       -0.0975112123   -0.6099096303    1.1920199628
H        0.2330819883   -0.4647627588    2.2304393451
13   
From optimize.out: Frame 2 / 27, Energy=    -286.6905921892
C        1.3619829220    0.3485660122   -0.1822397520
C        0.5803420476   -0.9714847652   -0.0902172472
C       -0.7149823857   -0.4270480133   -1.2109956608
C       -1.0755357787    0.1732637746    0.5645627538
C       -0.5908342766    1.0512210111   -0.8540967766
N        0.9385014714    1.4855010643   -0.5280693212
H        2.3151291102    0.3690503190    0.3931023306
H        1.3292054284   -1.7622821956   -0.2143027678
H       -1.0765432602   -1.4263832503   -1.0992576215
H       -1.9669838924    0.4759008150    1.1091061564
H       -1.2839314326    1.7469274483   -1.3626389170
C       -0.0741732024   -0.6179824722    1.2156918575
H        0.2578232490   -0.4452497479    2.2593549658
13   
From optimize.out: Frame 1 / 27, Energy=    -286.6499640914
C        1.3068016448    0.3500090809   -0.1852613264
C        0.5540184352   -0.9943629376   -0.0871986834
C       -0.7165814238   -0.4242796795   -1.2500900227
C       -1.0483662809    0.1584420426    0.5687954384
C       -0.5884046895    1.0740840531   -0.8914274180
N        0.9613633610    1.5096442785   -0.5244701580
H        2.2439673084    0.3626261456    0.4244012514
H        1.3145478275   -1.7787077279   -0.1938292234
H       -1.0610675673   -1.4202690992   -1.1290247268
H       -1.9205688883    0.4524275655    1.1443932183
H       -1.2928145031    1.7736752146   -1.4059739320
C       -0.0462242551   -0.6300803623    1.2389949908
H        0.2933290311   -0.4332085743    2.2906905920
13   
C6H6N->C6H6N atoms 1-13 frame 213 charge +0.000 sz -1.000 sz^2 0.724
C        1.3068016448    0.3500090809   -0.1852613264
C        0.5540184352   -0.9943629376   -0.0871986834
C       -0.7165814238   -0.4242796795   -1.2500900227
C       -1.0483662809    0.1584420426    0.5687954384
C       -0.5884046895    1.0740840531   -0.8914274180
N        0.9613633610    1.5096442785   -0.5244701580
H        2.2439673084    0.3626261456    0.4244012514
H        1.3145478275   -1.7787077279   -0.1938292234
H       -1.0610675673   -1.4202690992   -1.1290247268
H       -1.9205688883    0.4524275655    1.1443932183
H       -1.2928145031    1.7736752146   -1.4059739320
C       -0.0462242551   -0.6300803623    1.2389949908
H        0.2933290311   -0.4332085743    2.2906905920
13   
C6H6N->C6H6N atoms 1-13 frame 214 charge +0.000 sz -1.000 sz^2 0.715
C        1.3022443710    0.3478584151   -0.1877260507
C        0.5565999705   -0.9923396231   -0.0797183230
C       -0.7061785974   -0.4267090413   -1.2353338220
C       -1.0416838568    0.1621064387    0.5770587700
C       -0.5890229745    1.0744192375   -0.8909906662
N        0.9514498946    1.5116753558   -0.5148273365
H        2.2622154425    0.3795116251    0.3805038437
H        1.3166730386   -1.7623861297   -0.2113153248
H       -1.0530993636   -1.4214740557   -1.1012989736
H       -1.9228999321    0.4710161267    1.1359207747
H       -1.2732700057    1.7673323413   -1.4213388569
C       -0.0629828461   -0.6577197243    1.2370428963
H        0.2599548590   -0.4532909661    2.3120230690
13   
C6H6N->C6H6N atoms 1-13 frame 215 charge -0.000 sz -1.000 sz^2 0.697
C        1.2993338945    0.3463289135   -0.1889975021
C        0.5607429180   -0.9890895604   -0.0712889006
C       -0.6944278872   -0.4296465300   -1.2188449653
C       -1.0350080932    0.1662956089    0.5858409415
C       -0.5895250594    1.0742001272   -0.8900584912
N        0.9406819098    1.5142163974   -0.5053793213
H        2.2806103118    0.3969336787    0.3360463439
H        1.3186402728   -1.7465086863   -0.2280405015
H       -1.0494445997   -1.4241236243   -1.0763262969
H       -1.9260928667    0.4904290155    1.1259142235
H       -1.2525070084    1.7596638516   -1.4348435801
C       -0.0793892590   -0.6842328697    1.2356950388
H        0.2263854668   -0.4744663220    2.3302830114
13   
C6H6N->C6H6N atoms 1-13 frame 216 charge +0.000 sz -1.000 sz^2 0.685
C        1.2980988420    0.3455467720   -0.1890856987
C        0.5664173525   -0.9845511961   -0.0618498950
C       -0.6813536724   -0.4331508848   -1.2005923614
C       -1.0284237568    0.1710762380    0.5951582073
C       -0.5898541462    1.0733556972   -0.8886397317
N        0.9290469317    1.5172264792   -0.4962131431
H        2.2991020167    0.4146336394    0.2913844908
H        1.3207918650   -1.7315654021   -0.2437345338
H       -1.0500787881   -1.4278831169   -1.0540489792
H       -1.9297974488    0.5105193473    1.1144591182
H       -1.2312092606    1.7510500757   -1.4467980220
C       -0.0953891867   -0.7094494213    1.2351740681
H        0.1926492516   -0.4968082276    2.3447864806
13   
C6H6N->C6H6N atoms 1-13 frame 217 charge +0.000 sz -1.000 sz^2 0.670
C        1.2985480756    0.3456221662   -0.1880173599
C        0.5735716231   -0.9786943560   -0.0513603910
C       -0.6669960341   -0.4373077525   -1.1805543577
C       -1.0220200076    0.1764893913    0.6050066076
C       -0.5899555191    1.0717885149   -0.8867497721
N        0.9165357011    1.5206273905   -0.4874277369
H        2.3176381182    0.4323425482    0.2468383734
H        1.3234143187   -1.7180127835   -0.2581416760
H       -1.0548704826   -1.4322607890   -1.0344425945
H       -1.9336779741    0.5310893306    1.1016480266
H       -1.2101026339    1.7419021611   -1.4576049436
C       -0.1109481219   -0.7332312197    1.2356673430
H        0.1588629366   -0.5203546022    2.3551384810
13   
From optimize.out: Frame 1 / 26, Energy=    -286.6682355796
C        1.3006742554    0.3466494427   -0.1858387957
C        0.5821377443   -0.9715201632   -0.0398069288
C       -0.6514103115   -0.4422126093   -1.1587224318
C       -1.0158837346    0.1825513974    0.6153597658
C       -0.5897761645    1.0693886816   -0.8844102857
N        0.9031472955    1.5243114774   -0.4791314312
H        2.3361571883    0.4497908588    0.2026845279
H        1.3267025916   -1.7062274505   -0.2710192113
H       -1.0635844216   -1.4366646151   -1.0175119249
H       -1.9374316167    0.5519034973    1.0875883859
H       -1.1899051002    1.7326240262   -1.4677222547
C       -0.1260453189   -0.7554726103    1.2373191416
H        0.1252175928   -0.5451219331    2.3612114431
13   
From optimize.out: Frame 2 / 26, Energy=    -286.7083720091
C        1.3640636708    0.3523033682   -0.1830576230
C        0.6070664308   -0.9474847567   -0.0476140356
C       -0.6529452772   -0.4463231393   -1.1311026637
C       -1.0468322365    0.1935713018    0.6121925382
C       -0.5936584595    1.0438918238   -0.8500742086
N        0.8876637194    1.4971140018   -0.4859272249
H        2.4005429204    0.4431009613    0.1995472670
H        1.3437451555   -1.7012077678   -0.2787460033
H       -1.0886666948   -1.4305255115   -0.9981199063
H       -1.9758271600    0.5623178274    1.0619195081
H       -1.2023995323    1.7115793012   -1.4303538081
C       -0.1468076627   -0.7298794922    1.2161387464
H        0.1040551262   -0.5484579180    2.3151974139
13   
From optimize.out: Frame 3 / 26, Energy=    -286.7396552024
C        1.4012433256    0.3620952693   -0.1815911323
C        0.6215125961   -0.9277778508   -0.0553622007
C       -0.6383520676   -0.4574453886   -1.1030906502
C       -1.0619154616    0.2103705551    0.6013512557
C       -0.5842734388    1.0137120141   -0.8109181175
N        0.8586455073    1.4738875973   -0.4915480344
H        2.4334930888    0.4542373733    0.1926676162
H        1.3424051605   -1.7055990641   -0.2827526939
H       -1.1048249934   -1.4274999225   -0.9783205191
H       -1.9959103373    0.5848004330    1.0267534862
H       -1.1992619888    1.6873526652   -1.3851460907
C       -0.1652473429   -0.7079274123    1.1951465995
H        0.0924859521   -0.5602062692    2.2728104812
13   
From optimize.out: Frame 4 / 26, Energy=    -286.7632234201
C        1.4323585205    0.3725633655   -0.1828785606
C        0.6350502047   -0.9103279148   -0.0609521277
C       -0.6170355233   -0.4724112549   -1.0806046812
C       -1.0741095756    0.2287023644    0.5878919195
C       -0.5759429691    0.9893725470   -0.7739279647
N        0.8317332235    1.4542504012   -0.4980994359
H        2.4629330990    0.4685030830    0.1811532292
H        1.3337751043   -1.7146452192   -0.2809900052
H       -1.1211595360   -1.4248656611   -0.9684618055
H       -2.0149000138    0.6057126182    0.9908682757
H       -1.1984415192    1.6666405379   -1.3411480307
C       -0.1786751732   -0.6876224243    1.1795465365
H        0.0844141583   -0.5758724428    2.2476026507
13   
From optimize.out: Frame 5 / 26, Energy=    -286.7803670615
C        1.4581598545    0.3844198296   -0.1868599092
C        0.6489271195   -0.8943589529   -0.0626273724
C       -0.5910901200   -0.4887260515   -1.0621760459
C       -1.0834099824    0.2457109907    0.5770107125
C       -0.5696915904    0.9708739610   -0.7427466503
N        0.8148557330    1.4416179414   -0.5068699468
H        2.4890036913    0.4845851619    0.1648481100
H        1.3199684107   -1.7278172937   -0.2705091391
H       -1.1405575473   -1.4181525694   -0.9690079887
H       -2.0321660611    0.6199674396    0.9606365787
H       -1.2010036776    1.6477949089   -1.3048560474
C       -0.1884924173   -0.6696445425    1.1697062744
H        0.0754965872   -0.5962708231    2.2334514242
13   
From optimize.out: Frame 6 / 26, Energy=    -286.7928728770
C        1.4790313073    0.3961074348   -0.1924559170
C        0.6631431501   -0.8802626747   -0.0599989305
C       -0.5621707294   -0.5033422937   -1.0473739675
C       -1.0902354586    0.2600118197    0.5721210890
C       -0.5664315763    0.9571924267   -0.7200515810
N        0.8069120146    1.4351667699   -0.5181992322
H        2.5119525346    0.4996481659    0.1451528730
H        1.3039590918   -1.7426681351   -0.2510384770
H       -1.1620163227   -1.4038110226   -0.9820353635
H       -2.0473447399    0.6263580232    0.9407499507
H       -1.2069870842    1.6297257854   -1.2802196580
C       -0.1950807190   -0.6540353508    1.1656925361
H        0.0652685315   -0.6200909487    2.2276566779
13   
From optimize.out: Frame 7 / 26, Energy=    -286.8024337556
C        1.4949326874    0.4066402511   -0.1988491803
C        0.6767725201   -0.8685348735   -0.0542823732
C       -0.5315033621   -0.5161277341   -1.0357321288
C       -1.0945968206    0.2725251799    0.5739660323
C       -0.5650447698    0.9455891889   -0.7050384045
N        0.8028263711    1.4319268254   -0.5310469077
H        2.5309867379    0.5133027693    0.1233403182
H        1.2884811544   -1.7569460546   -0.2246360729
H       -1.1829350629   -1.3821634823   -1.0076183853
H       -2.0589918734    0.6287078532    0.9324722349
H       -1.2145379999    1.6112025012   -1.2656088676
C       -0.1997289651   -0.6402516184    1.1660030378
H        0.0533393828   -0.6458708060    2.2270306971
13   
From optimize.out: Frame 8 / 26, Energy=    -286.8101099511
C        1.5069371269    0.4157766205   -0.2057735099
C        0.6890126829   -0.8589861984   -0.0471197774
C       -0.4997442182   -0.5281782456   -1.0281500099
C       -1.0968495812    0.2856564870    0.5820676267
C       -0.5652272734    0.9334688502   -0.6950531817
N        0.7994109653    1.4294680316   -0.5444785381
H        2.5465875088    0.5257748588    0.1000163694
H        1.2743778646   -1.7696283083   -0.1932504546
H       -1.1989656552   -1.3565945218   -1.0451618442
H       -2.0660395255    0.6324664337    0.9362499713
H       -1.2239054578    1.5908576247   -1.2564263965
C       -0.2041204547   -0.6266881298    1.1685068107
H        0.0385260176   -0.6733935025    2.2285729342
13   
From optimize.out: Frame 9 / 26, Energy=    -286.8166642223
C        1.5164862156    0.4242194499   -0.2131652733
C        0.6994441950   -0.8504237900   -0.0404367672
C       -0.4668773190   -0.5408134837   -1.0270538248
C       -1.0977633271    0.3022583458    0.5960318627
C       -0.5671782848    0.9189175383   -0.6870225384
N        0.7953703747    1.4265957263   -0.5582976501
H        2.5597345246    0.5377560561    0.0757797881
H        1.2602558023   -1.7804649552   -0.1588777399
H       -1.2044444812   -1.3331664560   -1.0912545326
H       -2.0677733381    0.6433155951    0.9532692558
H       -1.2357482879    1.5678640334   -1.2480429848
C       -0.2103736168   -0.6116809689    1.1705953362