13   
From optimize.out: Frame 1 / 2, Energy=    -286.9243409348
C        1.3391982006    0.8949661606   -0.5132029640
C        0.2986262970   -1.4060198555   -0.2409339399
C       -0.9094341894   -1.0965453261    0.3087215996
C       -1.4023215397    0.2190729393    0.6293318866
C       -0.7723250425    1.4351560426    0.4481363436
N        0.4355386852    1.7898203683   -0.0521552341
H        2.2496294514    1.3812045761   -0.8709498022
H        0.5110239971   -2.4584455753   -0.4185099411
H       -1.5814082475   -1.9223273493    0.5336194848
H       -2.3961128600    0.2657600052    1.0682431779
H       -1.3513514400    2.3037290084    0.7693430691
C        1.3396267696   -0.4842078085   -0.6180921256
H        2.2393099178   -0.9221631860   -1.0435515545
13   
From optimize.out: Frame 1 / 2, Energy=    -286.7239556821
C        1.5336459567    0.3216897092   -0.9094403748
C       -0.0491294848   -2.0293657852    0.2818656740
C       -1.1767736480   -1.3349723737    0.3493905167
C       -1.3609226921    0.1072737658    0.4979806226
C       -0.4070581013    1.0618019368    0.4871228615
N        0.9845908033    0.8367175807    0.4055343678
H        1.6026508419   -0.6265047528   -1.4128822237
H        0.1965296989   -3.0826993469    0.2159390351
H       -2.1133099855   -1.9084212119    0.3079462464
H       -2.3843576097    0.4380348107    0.6558489079
H       -0.6874459602    2.1011609889    0.6609662928
C        1.7300491455    1.5653256729   -0.6826268898
H        2.1315310352    2.5499590055   -0.8576450367
