13   
Frame   0 IRC: Energy =  -286.8625600051 ; +0.0000 kcal/mol
C       -0.0730370000   -0.0861650000   -0.0000000000
C        0.0077270000    0.0405690000   -0.0000000000
C       -0.2286470000   -0.0205010000    0.0000000000
C        0.0935010000    0.0867370000    0.0000000000
C       -0.2080750000   -0.1031110000    0.0000000000
N       -0.1619740000    0.1274150000   -0.0000000000
H        0.1421970000    0.0042940000   -0.0000000000
H        0.1305450000   -0.0015650000   -0.0000000000
H        0.1265850000    0.0005530000    0.0000000000
H        0.1275130000    0.0027610000    0.0000000000
H        0.1348760000   -0.0012510000    0.0000000000
C       -0.2324370000    0.9431790000    0.0000000000
H        0.1412270000    0.0070850000    0.0000000000
13   
Frame   1 IRC: Energy =  -286.8625592402 ; +0.0005 kcal/mol
C       -0.0727890000   -0.0857800000   -0.0000000000
C        0.0078950000    0.0404860000   -0.0000000000
C       -0.2291830000   -0.0204080000    0.0000000000
C        0.0933100000    0.0869800000    0.0000000000
C       -0.2074900000   -0.1030890000    0.0000000000
N       -0.1619150000    0.1277020000   -0.0000000000
H        0.1421340000    0.0041770000   -0.0000000000
H        0.1304960000   -0.0015780000   -0.0000000000
H        0.1265810000    0.0005500000    0.0000000000
H        0.1275320000    0.0027720000    0.0000000000
H        0.1348680000   -0.0012440000    0.0000000000
C       -0.2326210000    0.9422160000    0.0000000000
H        0.1411820000    0.0072150000    0.0000000000
13   
Frame   2 IRC: Energy =  -286.8625564606 ; +0.0022 kcal/mol
C       -0.0723150000   -0.0853670000   -0.0000000000
C        0.0080520000    0.0402380000   -0.0000000000
C       -0.2301350000   -0.0199870000    0.0000000000
C        0.0931210000    0.0870770000    0.0000000000
C       -0.2065700000   -0.1027190000    0.0000000000
N       -0.1619310000    0.1278670000   -0.0000000000
H        0.1419790000    0.0039820000   -0.0000000000
H        0.1304040000   -0.0015860000   -0.0000000000
H        0.1265920000    0.0005410000    0.0000000000
H        0.1275670000    0.0028060000    0.0000000000
H        0.1348310000   -0.0012430000    0.0000000000
C       -0.2327570000    0.9409870000    0.0000000000
H        0.1411630000    0.0074040000    0.0000000000
13   
Frame   3 IRC: Energy =  -286.8625533446 ; +0.0042 kcal/mol
C       -0.0720730000   -0.0851890000   -0.0000000000
C        0.0082210000    0.0399750000   -0.0000000000
C       -0.2308580000   -0.0195970000    0.0000000000
C        0.0931630000    0.0869520000    0.0000000000
C       -0.2060530000   -0.1023120000    0.0000000000
N       -0.1620440000    0.1277150000   -0.0000000000
H        0.1418540000    0.0038850000   -0.0000000000
H        0.1303530000   -0.0015840000   -0.0000000000
H        0.1266070000    0.0005340000    0.0000000000
H        0.1275810000    0.0028280000    0.0000000000
H        0.1347890000   -0.0012460000    0.0000000000
C       -0.2327310000    0.9405460000    0.0000000000
H        0.1411890000    0.0074930000    0.0000000000
13   
Frame   4 IRC: Energy =  -286.8625443615 ; +0.0098 kcal/mol
C       -0.0724360000   -0.0846640000   -0.0000000000
C        0.0091250000    0.0391690000   -0.0000000000
C       -0.2324870000   -0.0189400000    0.0000000000
C        0.0936870000    0.0864260000    0.0000000000
C       -0.2053090000   -0.1014030000    0.0000000000
N       -0.1624670000    0.1267920000   -0.0000000000
H        0.1416140000    0.0038560000   -0.0000000000
H        0.1302840000   -0.0015720000   -0.0000000000
H        0.1266470000    0.0005390000    0.0000000000
H        0.1275770000    0.0028350000    0.0000000000
H        0.1346930000   -0.0012480000    0.0000000000
C       -0.2322440000    0.9406740000    0.0000000000
H        0.1413150000    0.0075350000    0.0000000000
13   
Frame   5 IRC: Energy =  -286.8625348323 ; +0.0158 kcal/mol
C       -0.0732040000   -0.0840530000   -0.0000000000
C        0.0105080000    0.0384760000   -0.0000000000
C       -0.2340050000   -0.0186520000    0.0000000000
C        0.0940680000    0.0860430000    0.0000000000
C       -0.2047790000   -0.1007940000    0.0000000000
N       -0.1627470000    0.1260300000   -0.0000000000
H        0.1414900000    0.0038980000   -0.0000000000
H        0.1302320000   -0.0015610000   -0.0000000000
H        0.1266750000    0.0005520000    0.0000000000
H        0.1275470000    0.0028210000    0.0000000000
H        0.1346530000   -0.0012460000    0.0000000000
C       -0.2318230000    0.9409420000    0.0000000000
H        0.1413840000    0.0075440000    0.0000000000
13   
Frame   6 IRC: Energy =  -286.8624747824 ; +0.0535 kcal/mol
C       -0.0790790000   -0.0805160000   -0.0000000000
C        0.0170920000    0.0356840000   -0.0000000000
C       -0.2391950000   -0.0185700000    0.0000000000
C        0.0945950000    0.0850080000    0.0000000000
C       -0.2028380000   -0.0990410000    0.0000000000
N       -0.1627380000    0.1241010000   -0.0000000000
H        0.1415080000    0.0040900000   -0.0000000000
H        0.1298340000   -0.0015120000   -0.0000000000
H        0.1267610000    0.0006210000    0.0000000000
H        0.1274450000    0.0027330000    0.0000000000
H        0.1345990000   -0.0012310000    0.0000000000
C       -0.2293900000    0.9409850000    0.0000000000
H        0.1414060000    0.0076500000    0.0000000000
13   
Frame   7 IRC: Energy =  -286.8623130000 ; +0.1550 kcal/mol
C       -0.0840060000   -0.0760400000   -0.0000000000
C        0.0272760000    0.0327000000   -0.0000000000
C       -0.2468390000   -0.0185790000    0.0000000000
C        0.0940630000    0.0839760000    0.0000000000
C       -0.2008950000   -0.0972670000    0.0000000000
N       -0.1627630000    0.1218560000   -0.0000000000
H        0.1416660000    0.0042000000   -0.0000000000
H        0.1292770000   -0.0014350000   -0.0000000000
H        0.1270180000    0.0006880000    0.0000000000
H        0.1272290000    0.0026870000    0.0000000000
H        0.1346790000   -0.0012360000    0.0000000000
C       -0.2279800000    0.9408460000    0.0000000000
H        0.1412730000    0.0076030000    0.0000000000
13   
Frame   8 IRC: Energy =  -286.8623000000 ; +0.1632 kcal/mol
C       -0.0846580000   -0.0760000000   -0.0000000000
C        0.0277620000    0.0327060000   -0.0000000000
C       -0.2474780000   -0.0186410000    0.0000000000
C        0.0943700000    0.0839120000    0.0000000000
C       -0.2008970000   -0.0972260000    0.0000000000
N       -0.1626490000    0.1216400000   -0.0000000000
H        0.1416520000    0.0042130000   -0.0000000000
H        0.1292820000   -0.0014320000   -0.0000000000
H        0.1270560000    0.0006930000    0.0000000000
H        0.1272690000    0.0026780000    0.0000000000
H        0.1346930000   -0.0012370000    0.0000000000
C       -0.2277060000    0.9411470000    0.0000000000
H        0.1413030000    0.0075450000    0.0000000000
13   
Frame   9 IRC: Energy =  -286.8622480000 ; +0.1958 kcal/mol
C       -0.0854780000   -0.0753590000   -0.0000000000
C        0.0293050000    0.0317090000   -0.0000000000
C       -0.2480630000   -0.0182450000    0.0000000000
C        0.0936990000    0.0829980000    0.0000000000
C       -0.2005040000   -0.0963290000    0.0000000000
N       -0.1626980000    0.1208960000   -0.0000000000
H        0.1416370000    0.0042960000   -0.0000000000
H        0.1291430000   -0.0013910000   -0.0000000000
H        0.1270790000    0.0006950000    0.0000000000
H        0.1271840000    0.0026940000    0.0000000000
H        0.1346990000   -0.0012540000    0.0000000000
C       -0.2273220000    0.9417500000    0.0000000000
H        0.1413180000    0.0075400000    0.0000000000
13   
Frame  10 IRC: Energy =  -286.8622310000 ; +0.2065 kcal/mol
C       -0.0862080000   -0.0752930000   -0.0000000000
C        0.0298060000    0.0316270000   -0.0000000000
C       -0.2486700000   -0.0182390000    0.0000000000
C        0.0939650000    0.0827710000    0.0000000000
C       -0.2004770000   -0.0961310000    0.0000000000
N       -0.1627310000    0.1205990000   -0.0000000000
H        0.1416310000    0.0042950000   -0.0000000000
H        0.1291310000   -0.0013850000   -0.0000000000
H        0.1271260000    0.0006980000    0.0000000000
H        0.1272250000    0.0026860000    0.0000000000
H        0.1347140000   -0.0012540000    0.0000000000
C       -0.2268850000    0.9421330000    0.0000000000
H        0.1413740000    0.0074940000    0.0000000000
13   
Frame  11 IRC: Energy =  -286.8621740000 ; +0.2422 kcal/mol
C       -0.0870380000   -0.0747820000   -0.0000000000
C        0.0313260000    0.0308460000   -0.0000000000
C       -0.2491970000   -0.0179900000    0.0000000000
C        0.0933900000    0.0820940000    0.0000000000
C       -0.2002660000   -0.0954930000    0.0000000000
N       -0.1626150000    0.1199230000   -0.0000000000
H        0.1416340000    0.0044270000   -0.0000000000
H        0.1290260000   -0.0013480000   -0.0000000000
H        0.1271360000    0.0007030000    0.0000000000
H        0.1271440000    0.0027000000    0.0000000000
H        0.1347110000   -0.0012710000    0.0000000000
C       -0.2266070000    0.9428060000    0.0000000000
H        0.1413560000    0.0073840000    0.0000000000
13   
Frame  12 IRC: Energy =  -286.8621530000 ; +0.2554 kcal/mol
C       -0.0879720000   -0.0746990000   -0.0000000000
C        0.0320860000    0.0309880000   -0.0000000000
C       -0.2497010000   -0.0181700000    0.0000000000
C        0.0935880000    0.0821560000    0.0000000000
C       -0.2002880000   -0.0955750000    0.0000000000
N       -0.1627960000    0.1196430000   -0.0000000000
H        0.1416860000    0.0044550000   -0.0000000000
H        0.1290150000   -0.0013510000   -0.0000000000
H        0.1271680000    0.0007110000    0.0000000000
H        0.1271440000    0.0026810000    0.0000000000
H        0.1347000000   -0.0012620000    0.0000000000
C       -0.2260360000    0.9432520000    0.0000000000
H        0.1414060000    0.0071720000    0.0000000000
13   
Frame  13 IRC: Energy =  -286.8620700000 ; +0.3075 kcal/mol
C       -0.0887480000   -0.0740750000   -0.0000000000
C        0.0335860000    0.0294310000   -0.0000000000
C       -0.2505030000   -0.0173480000    0.0000000000
C        0.0927350000    0.0804220000    0.0000000000
C       -0.1997740000   -0.0939570000    0.0000000000
N       -0.1625430000    0.1185780000   -0.0000000000
H        0.1415720000    0.0045370000   -0.0000000000
H        0.1288470000   -0.0012800000   -0.0000000000
H        0.1272330000    0.0007040000    0.0000000000
H        0.1271090000    0.0027250000    0.0000000000
H        0.1347570000   -0.0013010000    0.0000000000
C       -0.2257170000    0.9441910000    0.0000000000
H        0.1414450000    0.0073740000    0.0000000000
13   
Frame  14 IRC: Energy =  -286.8620440000 ; +0.3238 kcal/mol
C       -0.0895630000   -0.0739950000   -0.0000000000
C        0.0340080000    0.0290150000   -0.0000000000
C       -0.2509050000   -0.0170800000    0.0000000000
C        0.0927680000    0.0795590000    0.0000000000
C       -0.1997440000   -0.0931280000    0.0000000000
N       -0.1628910000    0.1180000000   -0.0000000000
H        0.1415920000    0.0045130000   -0.0000000000
H        0.1287940000   -0.0012590000   -0.0000000000
H        0.1272860000    0.0006980000    0.0000000000
H        0.1271410000    0.0027250000    0.0000000000
H        0.1347990000   -0.0013080000    0.0000000000
C       -0.2248740000    0.9448210000    0.0000000000
H        0.1415880000    0.0074400000    0.0000000000
13   
Frame  15 IRC: Energy =  -286.8618990000 ; +0.4148 kcal/mol
C       -0.0916080000   -0.0733880000   -0.0000000000
C        0.0370820000    0.0281620000   -0.0000000000
C       -0.2520440000   -0.0169730000    0.0000000000
C        0.0920130000    0.0788480000    0.0000000000
C       -0.1996600000   -0.0926080000    0.0000000000
N       -0.1624210000    0.1168040000   -0.0000000000
H        0.1416310000    0.0048400000   -0.0000000000
H        0.1286700000   -0.0012040000   -0.0000000000
H        0.1273350000    0.0007180000    0.0000000000
H        0.1270290000    0.0027400000    0.0000000000
H        0.1347490000   -0.0013290000    0.0000000000
C       -0.2242850000    0.9465190000    0.0000000000
H        0.1415090000    0.0068710000   -0.0000000000
13   
Frame  16 IRC: Energy =  -286.8618670000 ; +0.4349 kcal/mol
C       -0.0925690000   -0.0732290000   -0.0000000000
C        0.0379880000    0.0284890000   -0.0000000000
C       -0.2522360000   -0.0173070000    0.0000000000
C        0.0918670000    0.0792760000    0.0000000000
C       -0.1994850000   -0.0930670000    0.0000000000
N       -0.1627360000    0.1166940000   -0.0000000000
H        0.1417150000    0.0048520000   -0.0000000000
H        0.1286560000   -0.0012210000   -0.0000000000
H        0.1273740000    0.0007290000    0.0000000000
H        0.1269840000    0.0027110000    0.0000000000
H        0.1346610000   -0.0013090000    0.0000000000
C       -0.2237370000    0.9469090000    0.0000000000
H        0.1415180000    0.0064740000   -0.0000000000
13   
Frame  17 IRC: Energy =  -286.8613510000 ; +0.7587 kcal/mol
C       -0.0976510000   -0.0724570000   -0.0000000000
C        0.0441180000    0.0237530000   -0.0000000000
C       -0.2546720000   -0.0145550000    0.0000000000
C        0.0887460000    0.0721170000    0.0000000000
C       -0.1991240000   -0.0867370000    0.0000000000
N       -0.1621910000    0.1114530000   -0.0000000000
H        0.1416510000    0.0055280000   -0.0000000000
H        0.1281340000   -0.0009360000   -0.0000000000
H        0.1276790000    0.0007060000    0.0000000000
H        0.1269160000    0.0028730000    0.0000000000
H        0.1348600000   -0.0014500000    0.0000000000
C       -0.2203510000    0.9535090000    0.0000000000
H        0.1418860000    0.0061960000   -0.0000000000
13   
Frame  18 IRC: Energy =  -286.8613050000 ; +0.7875 kcal/mol
C       -0.0988720000   -0.0724220000   -0.0000000000
C        0.0448850000    0.0236640000   -0.0000000000
C       -0.2547940000   -0.0145290000    0.0000000000
C        0.0885080000    0.0715220000    0.0000000000
C       -0.1991390000   -0.0861860000    0.0000000000
N       -0.1628200000    0.1108330000   -0.0000000000
H        0.1417890000    0.0055200000   -0.0000000000
H        0.1280820000   -0.0009280000   -0.0000000000
H        0.1277150000    0.0007040000    0.0000000000
H        0.1268880000    0.0028570000    0.0000000000
H        0.1348590000   -0.0014440000    0.0000000000
C       -0.2191490000    0.9543760000    0.0000000000
H        0.1420480000    0.0060340000   -0.0000000000
13   
Frame  19 IRC: Energy =  -286.8606450000 ; +1.2017 kcal/mol
C       -0.1029600000   -0.0725270000   -0.0000000000
C        0.0500530000    0.0201420000   -0.0000000000
C       -0.2559570000   -0.0122390000    0.0000000000
C        0.0848410000    0.0656320000    0.0000000000
C       -0.1992400000   -0.0812200000    0.0000000000
N       -0.1617030000    0.1061940000   -0.0000000000
H        0.1417870000    0.0063960000   -0.0000000000
H        0.1277100000   -0.0006810000   -0.0000000000
H        0.1280130000    0.0006960000    0.0000000000
H        0.1268400000    0.0030260000    0.0000000000
H        0.1348640000   -0.0015610000    0.0000000000
C       -0.2164580000    0.9610540000    0.0000000000
H        0.1422090000    0.0050870000   -0.0000000000
13   
Frame  20 IRC: Energy =  -286.8605700000 ; +1.2487 kcal/mol
C       -0.1042900000   -0.0724810000   -0.0000000000
C        0.0508960000    0.0201690000   -0.0000000000
C       -0.2557410000   -0.0122920000    0.0000000000
C        0.0842360000    0.0650750000    0.0000000000
C       -0.1991470000   -0.0807350000    0.0000000000
N       -0.1623520000    0.1055740000   -0.0000000000
H        0.1419450000    0.0063940000   -0.0000000000
H        0.1276600000   -0.0006800000   -0.0000000000
H        0.1280570000    0.0006940000    0.0000000000
H        0.1267700000    0.0030020000    0.0000000000
H        0.1348220000   -0.0015510000    0.0000000000
C       -0.2152020000    0.9620650000    0.0000000000
H        0.1423460000    0.0047660000   -0.0000000000
13   
Frame  21 IRC: Energy =  -286.8597340000 ; +1.7733 kcal/mol
C       -0.1073750000   -0.0735320000   -0.0000000000
C        0.0547390000    0.0168380000   -0.0000000000
C       -0.2563380000   -0.0095850000    0.0000000000
C        0.0798340000    0.0584550000    0.0000000000
C       -0.1994680000   -0.0749850000    0.0000000000
N       -0.1611650000    0.1004900000   -0.0000000000
H        0.1420050000    0.0073920000   -0.0000000000
H        0.1273010000   -0.0004210000   -0.0000000000
H        0.1283780000    0.0006820000    0.0000000000
H        0.1268390000    0.0032110000    0.0000000000
H        0.1348760000   -0.0016750000    0.0000000000
C       -0.2122610000    0.9692810000    0.0000000000
H        0.1426350000    0.0038490000   -0.0000000000
13   
Frame  22 IRC: Energy =  -286.8596330000 ; +1.8367 kcal/mol
C       -0.1087230000   -0.0735790000   -0.0000000000
C        0.0555320000    0.0167870000   -0.0000000000
C       -0.2557770000   -0.0095360000    0.0000000000
C        0.0787420000    0.0574450000    0.0000000000
C       -0.1993330000   -0.0740230000    0.0000000000
N       -0.1617840000    0.0997110000   -0.0000000000
H        0.1421840000    0.0073980000   -0.0000000000
H        0.1272460000   -0.0004160000   -0.0000000000
H        0.1284070000    0.0006740000    0.0000000000
H        0.1267340000    0.0031790000    0.0000000000
H        0.1348640000   -0.0016700000    0.0000000000
C       -0.2108970000    0.9704510000    0.0000000000
H        0.1428040000    0.0035780000   -0.0000000000
13   
Frame  23 IRC: Energy =  -286.8586340000 ; +2.4636 kcal/mol
C       -0.1104340000   -0.0755070000   -0.0000000000
C        0.0578960000    0.0145370000   -0.0000000000
C       -0.2559040000   -0.0070520000    0.0000000000
C        0.0740070000    0.0518890000    0.0000000000
C       -0.1995670000   -0.0691470000    0.0000000000
N       -0.1603680000    0.0950480000   -0.0000000000
H        0.1423060000    0.0085050000   -0.0000000000
H        0.1269530000   -0.0002000000   -0.0000000000
H        0.1287330000    0.0006790000    0.0000000000
H        0.1268950000    0.0033960000    0.0000000000
H        0.1348380000   -0.0017740000    0.0000000000
C       -0.2084380000    0.9773450000    0.0000000000
H        0.1430830000    0.0022830000    0.0000000000
13   
Frame  24 IRC: Energy =  -286.8585000000 ; +2.5477 kcal/mol
C       -0.1116370000   -0.0756380000   -0.0000000000
C        0.0586330000    0.0144520000   -0.0000000000
C       -0.2549800000   -0.0069250000    0.0000000000
C        0.0723850000    0.0506630000    0.0000000000
C       -0.1993130000   -0.0679560000    0.0000000000
N       -0.1608070000    0.0943170000   -0.0000000000
H        0.1424830000    0.0085260000   -0.0000000000
H        0.1269030000   -0.0001930000   -0.0000000000
H        0.1287570000    0.0006680000    0.0000000000
H        0.1267640000    0.0033600000    0.0000000000
H        0.1348180000   -0.0017760000    0.0000000000
C       -0.2072330000    0.9785240000    0.0000000000
H        0.1432270000    0.0019780000    0.0000000000
13   
Frame  25 IRC: Energy =  -286.8573310000 ; +3.2813 kcal/mol
C       -0.1118570000   -0.0785710000   -0.0000000000
C        0.0593240000    0.0133910000   -0.0000000000
C       -0.2549500000   -0.0046820000    0.0000000000
C        0.0674640000    0.0462120000    0.0000000000
C       -0.1991810000   -0.0638130000    0.0000000000
N       -0.1592850000    0.0900060000   -0.0000000000
H        0.1427150000    0.0097130000   -0.0000000000
H        0.1266460000   -0.0000290000   -0.0000000000
H        0.1290630000    0.0006920000    0.0000000000
H        0.1269630000    0.0035710000    0.0000000000
H        0.1348090000   -0.0018600000    0.0000000000
C       -0.2053370000    0.9850140000    0.0000000000
H        0.1436260000    0.0003570000    0.0000000000
13   
Frame  26 IRC: Energy =  -286.8571540000 ; +3.3923 kcal/mol
C       -0.1129410000   -0.0788580000   -0.0000000000
C        0.0600010000    0.0132810000   -0.0000000000
C       -0.2537890000   -0.0044540000    0.0000000000
C        0.0653780000    0.0447630000    0.0000000000
C       -0.1988390000   -0.0623600000    0.0000000000
N       -0.1595850000    0.0892460000   -0.0000000000
H        0.1429150000    0.0097570000   -0.0000000000
H        0.1265930000   -0.0000180000   -0.0000000000
H        0.1290760000    0.0006790000    0.0000000000
H        0.1268140000    0.0035290000    0.0000000000
H        0.1348080000   -0.0018640000    0.0000000000
C       -0.2042120000    0.9862720000    0.0000000000
H        0.1437800000    0.0000270000    0.0000000000
13   
Frame  27 IRC: Energy =  -286.8558030000 ; +4.2401 kcal/mol
C       -0.1120290000   -0.0827280000   -0.0000000000
C        0.0586000000    0.0135190000   -0.0000000000
C       -0.2531020000   -0.0025780000    0.0000000000
C        0.0606600000    0.0420320000    0.0000000000
C       -0.1982120000   -0.0595590000    0.0000000000
N       -0.1576950000    0.0856150000   -0.0000000000
H        0.1432960000    0.0110250000   -0.0000000000
H        0.1263900000    0.0000830000   -0.0000000000
H        0.1293710000    0.0007300000    0.0000000000
H        0.1269260000    0.0037240000    0.0000000000
H        0.1347210000   -0.0019210000    0.0000000000
C       -0.2032590000    0.9923970000    0.0000000000
H        0.1443330000   -0.0023390000    0.0000000000
13   
Frame  28 IRC: Energy =  -286.8555560000 ; +4.3951 kcal/mol
C       -0.1130180000   -0.0832160000   -0.0000000000
C        0.0590580000    0.0134600000   -0.0000000000
C       -0.2515380000   -0.0022720000    0.0000000000
C        0.0581290000    0.0403830000    0.0000000000
C       -0.1977600000   -0.0578700000    0.0000000000
N       -0.1578190000    0.0848770000   -0.0000000000
H        0.1435320000    0.0111050000   -0.0000000000
H        0.1263370000    0.0000910000   -0.0000000000
H        0.1293810000    0.0007200000    0.0000000000
H        0.1267360000    0.0036820000    0.0000000000
H        0.1347090000   -0.0019340000    0.0000000000
C       -0.2022520000    0.9937930000    0.0000000000
H        0.1445040000   -0.0028200000    0.0000000000
13   
Frame  29 IRC: Energy =  -286.8539880000 ; +5.3790 kcal/mol
C       -0.1129310000   -0.0875980000   -0.0000000000
C        0.0554310000    0.0146970000   -0.0000000000
C       -0.2497480000   -0.0007230000    0.0000000000
C        0.0538070000    0.0392080000    0.0000000000
C       -0.1964070000   -0.0562360000    0.0000000000
N       -0.1551210000    0.0816060000   -0.0000000000
H        0.1441270000    0.0124350000   -0.0000000000
H        0.1262360000    0.0001340000   -0.0000000000
H        0.1297350000    0.0008080000    0.0000000000
H        0.1267120000    0.0038770000    0.0000000000
H        0.1345730000   -0.0019660000    0.0000000000
C       -0.2018150000    1.0001940000   -0.0000000000
H        0.1454010000   -0.0064370000    0.0000000000
13   
Frame  30 IRC: Energy =  -286.8536020000 ; +5.6212 kcal/mol
C       -0.1143060000   -0.0883550000   -0.0000000000
C        0.0555250000    0.0147010000   -0.0000000000
C       -0.2475050000   -0.0002840000    0.0000000000
C        0.0506460000    0.0373120000    0.0000000000
C       -0.1957840000   -0.0542170000    0.0000000000
N       -0.1549080000    0.0807130000   -0.0000000000
H        0.1444420000    0.0125860000   -0.0000000000
H        0.1261800000    0.0001430000   -0.0000000000
H        0.1297460000    0.0008060000    0.0000000000
H        0.1264560000    0.0038310000    0.0000000000
H        0.1345670000   -0.0019780000    0.0000000000
C       -0.2007390000    1.0020510000   -0.0000000000
H        0.1456790000   -0.0073090000    0.0000000000
13   
Frame  31 IRC: Energy =  -286.8517080000 ; +6.8097 kcal/mol
C       -0.1183490000   -0.0919300000   -0.0000000000
C        0.0509190000    0.0163970000   -0.0000000000
C       -0.2445710000    0.0010020000    0.0000000000
C        0.0468610000    0.0374690000    0.0000000000
C       -0.1934110000   -0.0536430000    0.0000000000
N       -0.1508540000    0.0780880000   -0.0000000000
H        0.1451760000    0.0137950000   -0.0000000000
H        0.1263440000    0.0001350000   -0.0000000000
H        0.1302390000    0.0009340000    0.0000000000
H        0.1262770000    0.0040610000    0.0000000000
H        0.1343470000   -0.0019940000    0.0000000000
C       -0.1999960000    1.0084040000   -0.0000000000
H        0.1470180000   -0.0127180000    0.0000000000
13   
Frame  32 IRC: Energy =  -286.8509850000 ; +7.2634 kcal/mol
C       -0.1216050000   -0.0925480000   -0.0000000000
C        0.0506730000    0.0163410000   -0.0000000000
C       -0.2411600000    0.0017420000    0.0000000000
C        0.0425700000    0.0350800000    0.0000000000
C       -0.1922430000   -0.0509600000    0.0000000000
N       -0.1494620000    0.0772360000   -0.0000000000
H        0.1455170000    0.0139680000   -0.0000000000
H        0.1263390000    0.0001390000   -0.0000000000
H        0.1302640000    0.0009550000    0.0000000000
H        0.1259080000    0.0040420000    0.0000000000
H        0.1343470000   -0.0020210000    0.0000000000
C       -0.1985690000    1.0106650000   -0.0000000000
H        0.1474210000   -0.0146380000    0.0000000000
13   
Frame  33 IRC: Energy =  -286.8485670000 ; +8.7808 kcal/mol
C       -0.1328140000   -0.0940370000   -0.0000000000
C        0.0467870000    0.0177350000   -0.0000000000
C       -0.2377710000    0.0028830000    0.0000000000
C        0.0402300000    0.0354270000    0.0000000000
C       -0.1899850000   -0.0502170000    0.0000000000
N       -0.1444420000    0.0749890000   -0.0000000000
H        0.1464740000    0.0147740000   -0.0000000000
H        0.1269300000    0.0001000000   -0.0000000000
H        0.1309490000    0.0011130000    0.0000000000
H        0.1256010000    0.0043210000    0.0000000000
H        0.1340670000   -0.0020380000    0.0000000000
C       -0.1956040000    1.0160910000   -0.0000000000
H        0.1495790000   -0.0211390000    0.0000000000
13   
Frame  34 IRC: Energy =  -286.8451070000 ; +10.9519 kcal/mol
C       -0.1530390000   -0.0920790000   -0.0000000000
C        0.0450520000    0.0168020000   -0.0000000000
C       -0.2303070000    0.0051770000    0.0000000000
C        0.0337860000    0.0315640000    0.0000000000
C       -0.1881520000   -0.0446420000    0.0000000000
N       -0.1368180000    0.0736480000   -0.0000000000
H        0.1475770000    0.0147300000   -0.0000000000
H        0.1279940000    0.0000990000   -0.0000000000
H        0.1316880000    0.0012630000    0.0000000000
H        0.1247160000    0.0045310000    0.0000000000
H        0.1338840000   -0.0021100000    0.0000000000
C       -0.1882450000    1.0194950000   -0.0000000000
H        0.1518620000   -0.0284800000    0.0000000000
13   
Frame  35 IRC: Energy =  -286.8407010000 ; +13.7167 kcal/mol
C       -0.1753920000   -0.0885450000   -0.0000000000
C        0.0424580000    0.0157460000   -0.0000000000
C       -0.2251120000    0.0069750000    0.0000000000
C        0.0313530000    0.0287650000    0.0000000000
C       -0.1891860000   -0.0393940000    0.0000000000
N       -0.1288450000    0.0726830000   -0.0000000000
H        0.1488150000    0.0142220000   -0.0000000000
H        0.1295770000    0.0000830000   -0.0000000000
H        0.1327190000    0.0014510000    0.0000000000
H        0.1240160000    0.0047760000    0.0000000000
H        0.1337300000   -0.0021460000    0.0000000000
C       -0.1787730000    1.0201170000   -0.0000000000
H        0.1546400000   -0.0347330000    0.0000000000
13   
Frame  36 IRC: Energy =  -286.8353490000 ; +17.0752 kcal/mol
C       -0.1928430000   -0.0839960000   -0.0000000000
C        0.0369890000    0.0137300000   -0.0000000000
C       -0.2206380000    0.0088110000    0.0000000000
C        0.0301440000    0.0255120000    0.0000000000
C       -0.1930190000   -0.0333160000    0.0000000000
N       -0.1215860000    0.0728440000   -0.0000000000
H        0.1498100000    0.0134120000   -0.0000000000
H        0.1314320000    0.0001590000   -0.0000000000
H        0.1338270000    0.0016330000    0.0000000000
H        0.1233720000    0.0049680000    0.0000000000
H        0.1336230000   -0.0021770000    0.0000000000
C       -0.1679900000    1.0171630000   -0.0000000000
H        0.1568800000   -0.0387420000    0.0000000000
13   
Frame  37 IRC: Energy =  -286.8288580000 ; +21.1483 kcal/mol
C       -0.2027660000   -0.0797220000   -0.0000000000
C        0.0268730000    0.0126810000   -0.0000000000
C       -0.2169740000    0.0101760000    0.0000000000
C        0.0306880000    0.0226710000    0.0000000000
C       -0.1988680000   -0.0273830000    0.0000000000
N       -0.1159430000    0.0739570000   -0.0000000000
H        0.1503570000    0.0127310000   -0.0000000000
H        0.1330860000    0.0003380000   -0.0000000000
H        0.1347700000    0.0018770000    0.0000000000
H        0.1228460000    0.0051400000    0.0000000000
H        0.1334900000   -0.0021840000    0.0000000000
C       -0.1560410000    1.0106820000   -0.0000000000
H        0.1584820000   -0.0409620000    0.0000000000
13   
Frame  38 IRC: Energy =  -286.8211210000 ; +26.0034 kcal/mol
C       -0.2059520000   -0.0766390000   -0.0000000000
C        0.0120020000    0.0144200000   -0.0000000000
C       -0.2134010000    0.0107570000    0.0000000000
C        0.0324370000    0.0201800000    0.0000000000
C       -0.2057120000   -0.0216460000    0.0000000000
N       -0.1119440000    0.0761620000   -0.0000000000
H        0.1504890000    0.0123160000   -0.0000000000
H        0.1342520000    0.0006580000   -0.0000000000
H        0.1353710000    0.0022640000    0.0000000000
H        0.1224220000    0.0053160000    0.0000000000
H        0.1333140000   -0.0021710000    0.0000000000
C       -0.1427160000    1.0002400000   -0.0000000000
H        0.1594380000   -0.0418580000    0.0000000000
13   