13   
Frame   0 IRC: Energy =  -286.8625600051 ; +0.0000 kcal/mol
C        0.9365494245   -0.2311277403   -0.9044965831
C        0.0542700820   -1.3163137069   -0.4253016821
C       -0.9515907892   -1.0698325442    0.4432840154
C       -1.3039882852    0.2907872402    0.8245254913
C       -0.5796326734    1.3444127978    0.3966910979
N        0.6146272261    1.1867516971   -0.3515393777
H        1.2088205827   -0.2431515139   -1.9618392629
H        0.2159822355   -2.3133905239   -0.8276795338
H       -1.5835193305   -1.8836996244    0.7866853253
H       -2.2242438137    0.4651422157    1.3740852909
H       -0.9016721370    2.3736583331    0.5228090867
C        1.7508553954    0.5019596276    0.0714933553
H        2.7635420824    0.8948037426    0.0512827767
13   
Frame   1 IRC: Energy =  -286.8625592402 ; +0.0005 kcal/mol
C        0.9361676431   -0.2306885171   -0.9049805295
C        0.0545682605   -1.3162872915   -0.4249064076
C       -0.9519762310   -1.0697806119    0.4428191011
C       -1.3048030806    0.2908996746    0.8237075951
C       -0.5796127511    1.3443848669    0.3971174540
N        0.6147881110    1.1856209597   -0.3508225420
H        1.2073038022   -0.2425800293   -1.9625836947
H        0.2173725506   -2.3137899045   -0.8258473561
H       -1.5835829866   -1.8837834434    0.7864526540
H       -2.2252277953    0.4652316656    1.3730102855
H       -0.9004357148    2.3738770702    0.5240459408
C        1.7514963974    0.5016896043    0.0712648475
H        2.7639417946    0.8952059566    0.0507226517
13   
Frame   2 IRC: Energy =  -286.8625564606 ; +0.0022 kcal/mol
C        0.9346814033   -0.2291842444   -0.9061594928
C        0.0548110633   -1.3162978794   -0.4244037243
C       -0.9529231687   -1.0698270964    0.4416645722
C       -1.3064402523    0.2912109087    0.8217145990
C       -0.5794984508    1.3442293326    0.3976926592
N        0.6149636046    1.1836565314   -0.3507112664
H        1.2041236925   -0.2408519668   -1.9641596578
H        0.2211245699   -2.3146377262   -0.8218242197
H       -1.5833349395   -1.8840263428    0.7869573168
H       -2.2270642400    0.4655634202    1.3707129682
H       -0.8976606488    2.3741875706    0.5271047179
C        1.7525197480    0.5008927615    0.0707291372
H        2.7646976186    0.8950847308    0.0506823905
13   
Frame   3 IRC: Energy =  -286.8625533446 ; +0.0042 kcal/mol
C        0.9334304274   -0.2279498406   -0.9066362429
C        0.0548731917   -1.3164794127   -0.4240566553
C       -0.9537291843   -1.0699745175    0.4407039570
C       -1.3076202980    0.2914465792    0.8201882217
C       -0.5793384807    1.3440548331    0.3980647566
N        0.6148492187    1.1825470792   -0.3512932283
H        1.2019448061   -0.2394755479   -1.9649155719
H        0.2241799680   -2.3153161416   -0.8188932505
H       -1.5832453044   -1.8842354514    0.7874767227
H       -2.2284269060    0.4658944040    1.3688417119
H       -0.8954783509    2.3743266295    0.5298133532
C        1.7532267211    0.5004591060    0.0702596093
H        2.7653341912    0.8947022806    0.0504466165
13   
Frame   4 IRC: Energy =  -286.8625443615 ; +0.0098 kcal/mol
C        0.9319261771   -0.2263624622   -0.9053982046
C        0.0549000030   -1.3175075769   -0.4230303724
C       -0.9559515528   -1.0705288008    0.4383323624
C       -1.3099810847    0.2917288840    0.8174601682
C       -0.5789951001    1.3434507079    0.3986965671
N        0.6136330868    1.1812898922   -0.3538478443
H        1.1993500669   -0.2382475877   -1.9642784384
H        0.2296406137   -2.3169082851   -0.8137468580
H       -1.5848327849   -1.8846260129    0.7867969215
H       -2.2307843038    0.4666698881    1.3658187706
H       -0.8905874475    2.3743117011    0.5367991532
C        1.7548435711    0.5013162313    0.0690309244
H        2.7668387552    0.8954134211    0.0473668503
13   
Frame   5 IRC: Energy =  -286.8625348323 ; +0.0158 kcal/mol
C        0.9317872569   -0.2262832951   -0.9035851810
C        0.0552073564   -1.3186259207   -0.4218299821
C       -0.9578961949   -1.0709815893    0.4363143553
C       -1.3114430201    0.2918351224    0.8160481028
C       -0.5786829442    1.3429800235    0.3994001761
N        0.6122819540    1.1806331922   -0.3559290445
H        1.1987393388   -0.2392681062   -1.9628210920
H        0.2327743295   -2.3182941364   -0.8104498732
H       -1.5876129167   -1.8848367234    0.7839883656
H       -2.2317580311    0.4674119135    1.3648340383
H       -0.8868386255    2.3742565720    0.5424340685
C        1.7559388563    0.5031231767    0.0679651481
H        2.7675026407    0.8980497708    0.0436309181
13   
Frame   6 IRC: Energy =  -286.8624747824 ; +0.0535 kcal/mol
C        0.9369256979   -0.2316061353   -0.8957365918
C        0.0574711626   -1.3231020592   -0.4145999554
C       -0.9662212973   -1.0725016185    0.4287589551
C       -1.3156885266    0.2910235988    0.8117831797
C       -0.5773369618    1.3401144421    0.4004666904
N        0.6080754213    1.1780737702   -0.3635255875
H        1.2013806194   -0.2526515070   -1.9555354373
H        0.2369562624   -2.3239359603   -0.7995008474
H       -1.6069579878   -1.8838246522    0.7617557270
H       -2.2291940245    0.4686604752    1.3709740885
H       -0.8714706950    2.3724674894    0.5637517450
C        1.7597662186    0.5150069138    0.0638142171
H        2.7662941106    0.9222752431    0.0275938164
13   
Frame   7 IRC: Energy =  -286.8623130000 ; +0.1550 kcal/mol
C        0.9420229257   -0.2373340653   -0.8901110668
C        0.0602158648   -1.3272058831   -0.4065579075
C       -0.9771875471   -1.0731606352    0.4189470776
C       -1.3175967338    0.2898114130    0.8118403049
C       -0.5752593761    1.3373077738    0.4041108668
N        0.6032895879    1.1757953547   -0.3703987720
H        1.2112805023   -0.2703465084   -1.9481313593
H        0.2415913073   -2.3297365325   -0.7865664493
H       -1.6310982775   -1.8808521976    0.7344682951
H       -2.2244143244    0.4689077358    1.3813668734
H       -0.8580874716    2.3697822667    0.5838799447
C        1.7622970616    0.5279512210    0.0575620336
H        2.7629464810    0.9490800572    0.0095901587
13   
Frame   8 IRC: Energy =  -286.8623000000 ; +0.1632 kcal/mol
C        0.9421037474   -0.2377043484   -0.8897466404
C        0.0603611578   -1.3275886832   -0.4063427958
C       -0.9775390254   -1.0725849024    0.4184239824
C       -1.3176924303    0.2895016810    0.8117467473
C       -0.5751204635    1.3368702164    0.4040019518
N        0.6028835377    1.1757412568   -0.3710990057
H        1.2118016249   -0.2712688603   -1.9476838658
H        0.2417905581   -2.3299780442   -0.7860294384
H       -1.6324183198   -1.8809846718    0.7332571557
H       -2.2239721315    0.4689632504    1.3821103349
H       -0.8572652333    2.3698539107    0.5849849207
C        1.7624750651    0.5287685992    0.0573176787
H        2.7625919129    0.9504105959    0.0090589746
13   
Frame   9 IRC: Energy =  -286.8622480000 ; +0.1958 kcal/mol
C        0.9431235738   -0.2385663719   -0.8883518343
C        0.0605374897   -1.3284367021   -0.4049706319
C       -0.9797365323   -1.0734929600    0.4163855816
C       -1.3180166478    0.2896441316    0.8115079066
C       -0.5749141065    1.3365399417    0.4040264612
N        0.6014048092    1.1750526848   -0.3742719034
H        1.2139894482   -0.2750455013   -1.9459351698
H        0.2424742148   -2.3312545416   -0.7840408046
H       -1.6367332753   -1.8802318182    0.7279642112
H       -2.2220623097    0.4690622892    1.3851941620
H       -0.8538103104    2.3691372937    0.5891964432
C        1.7621999278    0.5316271218    0.0562845417
H        2.7615437187    0.9559644322    0.0070110365
13   
Frame  10 IRC: Energy =  -286.8622310000 ; +0.2065 kcal/mol
C        0.9431923787   -0.2389110854   -0.8881018458
C        0.0607135457   -1.3288880939   -0.4046916231
C       -0.9801717784   -1.0729858428    0.4158116854
C       -1.3180623692    0.2893664094    0.8113543509
C       -0.5746914293    1.3361732124    0.4039941091
N        0.6008255237    1.1749434426   -0.3752706699
H        1.2146087083   -0.2761270526   -1.9454515243
H        0.2426565350   -2.3315379460   -0.7834707272
H       -1.6382075090   -1.8803606703    0.7265847676
H       -2.2215854480    0.4691150400    1.3861214868
H       -0.8529095455    2.3691768617    0.5904157282
C        1.7625695508    0.5325939860    0.0562548739
H        2.7610618371    0.9574417389    0.0064493884
13   
Frame  11 IRC: Energy =  -286.8621740000 ; +0.2422 kcal/mol
C        0.9443116608   -0.2399835377   -0.8865552109
C        0.0607464609   -1.3296900669   -0.4035012457
C       -0.9822588349   -1.0737422270    0.4138148945
C       -1.3183847990    0.2893813900    0.8112263906
C       -0.5747046947    1.3357052697    0.4037239887
N        0.5994798243    1.1745815871   -0.3780937275
H        1.2168077949   -0.2797986517   -1.9436259748
H        0.2433263919   -2.3327494957   -0.7815613706
H       -1.6423233150   -1.8795488916    0.7214427137
H       -2.2195184354    0.4692246046    1.3892244663
H       -0.8493529039    2.3684060358    0.5944563811
C        1.7619263445    0.5353551259    0.0547548077
H        2.7599445055    0.9628588573    0.0046938870
13   
Frame  12 IRC: Energy =  -286.8621530000 ; +0.2554 kcal/mol
C        0.9444756672   -0.2407706774   -0.8862907043
C        0.0607608508   -1.3301252919   -0.4032300462
C       -0.9828616955   -1.0732566876    0.4131993900
C       -1.3183651489    0.2890005569    0.8111347159
C       -0.5747427036    1.3353090376    0.4034150498
N        0.5986997007    1.1747913575   -0.3787468581
H        1.2175115348   -0.2809375753   -1.9428771537
H        0.2435814358   -2.3329967789   -0.7809153063
H       -1.6437567902   -1.8794814151    0.7198499428
H       -2.2188187509    0.4692940739    1.3902191946
H       -0.8481448729    2.3682678405    0.5957671434
C        1.7623964555    0.5364684497    0.0542610796
H        2.7592643172    0.9644371100    0.0042135525
13   
Frame  13 IRC: Energy =  -286.8620700000 ; +0.3075 kcal/mol
C        0.9454931845   -0.2412435289   -0.8845519906
C        0.0611399676   -1.3312412148   -0.4016028322
C       -0.9853288379   -1.0741033250    0.4106087498
C       -1.3187228867    0.2892631559    0.8108268470
C       -0.5740980758    1.3348238581    0.4035963762
N        0.5969333528    1.1733881244   -0.3837279991
H        1.2204802738   -0.2857678454   -1.9409589198
H        0.2442081939   -2.3345808764   -0.7786585744
H       -1.6492473726   -1.8788459530    0.7134825362
H       -2.2162377309    0.4693325248    1.3944196979
H       -0.8440882918    2.3676397952    0.6008947344
C        1.7615447934    0.5399743799    0.0535804377
H        2.7579234299    0.9713609052    0.0020909368
13   
Frame  14 IRC: Energy =  -286.8620440000 ; +0.3238 kcal/mol
C        0.9454935206   -0.2414122128   -0.8845445253
C        0.0614560176   -1.3316518503   -0.4012130142
C       -0.9858579704   -1.0740726639    0.4099698833
C       -1.3188418328    0.2890598408    0.8105932702
C       -0.5736799923    1.3346112434    0.4039236403
N        0.5961122747    1.1731096880   -0.3856960363
H        1.2212180134   -0.2870678155   -1.9405018909
H        0.2442988140   -2.3349586224   -0.7780757447
H       -1.6508716720   -1.8788570425    0.7118875570
H       -2.2157332143    0.4693899901    1.3956377610
H       -0.8432100286    2.3678207187    0.6022608554
C        1.7622570505    0.5409413411    0.0542548921
H        2.7573590196    0.9730873853    0.0015033521
13   
Frame  15 IRC: Energy =  -286.8618990000 ; +0.4148 kcal/mol
C        0.9475958722   -0.2440702322   -0.8815716831
C        0.0611766538   -1.3334162105   -0.3993647270
C       -0.9897592906   -1.0743935286    0.4060329471
C       -1.3190923321    0.2887140681    0.8104591426
C       -0.5739771001    1.3333166332    0.4024733457
N        0.5932241137    1.1730802000   -0.3906188472
H        1.2258583543   -0.2943134458   -1.9367389658
H        0.2455748465   -2.3371727334   -0.7744994748
H       -1.6587236106   -1.8774586695    0.7021402069
H       -2.2109534834    0.4695687772    1.4021298366
H       -0.8357631166    2.3660496230    0.6099062845
C        1.7604729685    0.5467283213    0.0504494115
H        2.7543661243    0.9833671973   -0.0007974770
13   
Frame  16 IRC: Energy =  -286.8618670000 ; +0.4349 kcal/mol
C        0.9478651041   -0.2450097061   -0.8814863590
C        0.0612131151   -1.3336571865   -0.3992256921
C       -0.9905201225   -1.0740462381    0.4054117986
C       -1.3189225933    0.2887354797    0.8104349071
C       -0.5738851046    1.3331230649    0.4017407650
N        0.5921925646    1.1733086405   -0.3907773775
H        1.2266318525   -0.2955561105   -1.9357143596
H        0.2458603847   -2.3375875518   -0.7738806412
H       -1.6601941736   -1.8774256909    0.7005089120
H       -2.2101239656    0.4695611726    1.4032847376
H       -0.8343352077    2.3654684404    0.6112256943
C        1.7610812425    0.5483152057    0.0495509046
H        2.7531369040    0.9847704801   -0.0010732899
13   
Frame  17 IRC: Energy =  -286.8613510000 ; +0.7587 kcal/mol
C        0.9513812490   -0.2491628011   -0.8754473014
C        0.0613897069   -1.3388021279   -0.3940462044
C       -1.0004878501   -1.0756323151    0.3943594877
C       -1.3197061102    0.2880994958    0.8090162098
C       -0.5725201720    1.3300214442    0.3999089919
N        0.5829106943    1.1701219940   -0.4129534880
H        1.2398657928   -0.3153605068   -1.9271763079
H        0.2484397527   -2.3436940414   -0.7647186259
H       -1.6813729175   -1.8744174341    0.6753678935
H       -2.1964186437    0.4697466225    1.4226139710
H       -0.8140553335    2.3625500197    0.6321802792
C        1.7563130100    0.5632932610    0.0452464982
H        2.7442608214    1.0132363893   -0.0043514036
13   
Frame  18 IRC: Energy =  -286.8613050000 ; +0.7875 kcal/mol
C        0.9513267810   -0.2499839085   -0.8756807269
C        0.0615477777   -1.3391443419   -0.3937405014
C       -1.0012733764   -1.0756772064    0.3936972893
C       -1.3197633449    0.2878314536    0.8088681382
C       -0.5722908856    1.3298294919    0.3997868671
N        0.5816630538    1.1702470610   -0.4146398953
H        1.2407159838   -0.3166730141   -1.9264453327
H        0.2486031025   -2.3440521998   -0.7641002510
H       -1.6827981587   -1.8741899450    0.6736611670
H       -2.1955264772    0.4697860014    1.4239570348
H       -0.8127054767    2.3624878069    0.6336137728
C        1.7572648783    0.5645938230    0.0455510350
H        2.7432361425    1.0149449779   -0.0045285967
13   
Frame  19 IRC: Energy =  -286.8606450000 ; +1.2017 kcal/mol
C        0.9547155949   -0.2543046366   -0.8698208214
C        0.0608835086   -1.3439624444   -0.3895106952
C       -1.0107942451   -1.0766013222    0.3828733074
C       -1.3198666833    0.2874889238    0.8074616780
C       -0.5711542134    1.3264839526    0.3961966030
N        0.5723546457    1.1676401065   -0.4351249198
H        1.2528381880   -0.3352036533   -1.9178299018
H        0.2511884820   -2.3501351501   -0.7550471253
H       -1.7022325422   -1.8711946950    0.6502660746
H       -2.1807827799    0.4696494683    1.4425699498
H       -0.7899975579    2.3579265789    0.6533580828
C        1.7504492565    0.5796011151    0.0389510540
H        2.7323983461    1.0426117563   -0.0043432863
13   
Frame  20 IRC: Energy =  -286.8605700000 ; +1.2487 kcal/mol
C        0.9547648656   -0.2553656802   -0.8700412604
C        0.0611310750   -1.3443801621   -0.3893346433
C       -1.0119705267   -1.0765972827    0.3820732776
C       -1.3199686106    0.2872056665    0.8073911172
C       -0.5707410034    1.3265377982    0.3956511649
N        0.5707217625    1.1677507765   -0.4369127957
H        1.2538728944   -0.3368752360   -1.9167436698
H        0.2514240814   -2.3506614855   -0.7542135342
H       -1.7040101675   -1.8709207290    0.6481176055
H       -2.1794122873    0.4696263151    1.4442895968
H       -0.7878593759    2.3573810575    0.6551613768
C        1.7513566925    0.5815286174    0.0388062114
H        2.7306906000    1.0447703444   -0.0042444469
13   
Frame  21 IRC: Energy =  -286.8597340000 ; +1.7733 kcal/mol
C        0.9574712252   -0.2592958994   -0.8647321888
C        0.0603226864   -1.3494325264   -0.3847978630
C       -1.0210836421   -1.0776432696    0.3711148137
C       -1.3197247576    0.2869303461    0.8055630503
C       -0.5689971103    1.3225892834    0.3922667412
N        0.5609939383    1.1641797737   -0.4595243880
H        1.2644139036   -0.3549620043   -1.9090016495
H        0.2536034665   -2.3569414162   -0.7449992027
H       -1.7228524560   -1.8676963112    0.6251354753
H       -2.1638731581    0.4692627129    1.4625747950
H       -0.7624996795    2.3524844028    0.6746374093
C        1.7436489725    0.5962908283    0.0324559333
H        2.7185766111    1.0742340798   -0.0006929261
13   
Frame  22 IRC: Energy =  -286.8596330000 ; +1.8367 kcal/mol
C        0.9574428192   -0.2604032045   -0.8650212561
C        0.0605665119   -1.3499861284   -0.3845485443
C       -1.0222974372   -1.0776578104    0.3702437962
C       -1.3201947445    0.2861604221    0.8056425316
C       -0.5682895248    1.3230788610    0.3917128275
N        0.5592124258    1.1641881093   -0.4618162973
H        1.2653542764   -0.3566940120   -1.9079945926
H        0.2537970294   -2.3574609072   -0.7440861101
H       -1.7246502353   -1.8673025537    0.6228608184
H       -2.1622278435    0.4692298231    1.4642976205
H       -0.7599578112    2.3518169400    0.6765183353
C        1.7444919983    0.5982504721    0.0324667174
H        2.7167525356    1.0767799886   -0.0002758464
13   
Frame  23 IRC: Energy =  -286.8586340000 ; +2.4636 kcal/mol
C        0.9600583246   -0.2644111578   -0.8602844291
C        0.0599706455   -1.3551143566   -0.3799247822
C       -1.0306455624   -1.0785103974    0.3598633237
C       -1.3188926017    0.2864109574    0.8037781839
C       -0.5658924336    1.3183527305    0.3883027729
N        0.5496687283    1.1598588127   -0.4837505240
H        1.2728168284   -0.3741312181   -1.9014640020
H        0.2551466791   -2.3641095745   -0.7349319963
H       -1.7426730929   -1.8636732649    0.6004577880
H       -2.1467607018    0.4685962988    1.4810494197
H       -0.7323302405    2.3458867866    0.6949441372
C        1.7365891053    0.6128504333    0.0248353005
H        2.7029443217    1.1079939502    0.0071248076
13   
Frame  24 IRC: Energy =  -286.8585000000 ; +2.5477 kcal/mol
C        0.9601418232   -0.2655185582   -0.8605678244
C        0.0601229641   -1.3557301229   -0.3795553986
C       -1.0317054458   -1.0784283231    0.3588347801
C       -1.3195783427    0.2854021829    0.8040608302
C       -0.5648201812    1.3192105984    0.3875773569
N        0.5478107913    1.1596639259   -0.4861382853
H        1.2735149790   -0.3760107596   -1.9004726825
H        0.2552769169   -2.3647720106   -0.7339291617
H       -1.7446769977   -1.8632632080    0.5979994856
H       -2.1448476471    0.4685141383    1.4827395167
H       -0.7292199251    2.3448466407    0.6968980355
C        1.7372067449    0.6150168923    0.0245461258
H        2.7007743201    1.1110686038    0.0080072217
13   
Frame  25 IRC: Energy =  -286.8573310000 ; +3.2813 kcal/mol
C        0.9628412522   -0.2698500606   -0.8568021868
C        0.0603579685   -1.3613592484   -0.3744333573
C       -1.0389191888   -1.0791783048    0.3494667321
C       -1.3169661248    0.2857641533    0.8022970367
C       -0.5612045648    1.3138015436    0.3851663567
N        0.5389323763    1.1543763902   -0.5074145902
H        1.2771569724   -0.3928969550   -1.8962049001
H        0.2546951963   -2.3721219057   -0.7249623458
H       -1.7619704162   -1.8583317653    0.5761544812
H       -2.1302137454    0.4676651824    1.4968854812
H       -0.7010854546    2.3382005074    0.7145366635
C        1.7304306691    0.6290751677    0.0156635045
H        2.6859450598    1.1448552951    0.0196471244
13   
Frame  26 IRC: Energy =  -286.8571540000 ; +3.3923 kcal/mol
C        0.9630129717   -0.2710638408   -0.8571499460
C        0.0604198258   -1.3621436133   -0.3737882045
C       -1.0397152733   -1.0790357920    0.3482672444
C       -1.3177760012    0.2844472844    0.8027510124
C       -0.5597465164    1.3148493432    0.3844857884
N        0.5370436486    1.1539589627   -0.5101134337
H        1.2774738582   -0.3949798848   -1.8954285042
H        0.2545891981   -2.3729721514   -0.7238457785
H       -1.7642187456   -1.8577116459    0.5734209768
H       -2.1280812409    0.4675511511    1.4984246407
H       -0.6974928641    2.3369069730    0.7166676328
C        1.7309862398    0.6313958347    0.0151255187
H        2.6835048993    1.1487973791    0.0211830528
13   
Frame  27 IRC: Energy =  -286.8558030000 ; +4.2401 kcal/mol
C        0.9666259172   -0.2756317919   -0.8545576275
C        0.0615341890   -1.3682407032   -0.3684475577
C       -1.0456161678   -1.0796344800    0.3402684050
C       -1.3131036699    0.2845987838    0.8012052267
C       -0.5543212489    1.3085804093    0.3832028530
N        0.5297874852    1.1484631282   -0.5295381422
H        1.2775241426   -0.4107644147   -1.8938131703
H        0.2501330785   -2.3817427606   -0.7145971647
H       -1.7815145131   -1.8505610888    0.5531801508
H       -2.1149231997    0.4661847277    1.5085820928
H       -0.6719557602    2.3284427751    0.7340348030
C        1.7269107558    0.6455275813    0.0031323738
H        2.6689189913    1.1847778339    0.0373477574
13   
Frame  28 IRC: Energy =  -286.8555560000 ; +4.3951 kcal/mol
C        0.9670814534   -0.2769707448   -0.8550064626
C        0.0615325295   -1.3692646403   -0.3675306844
C       -1.0460666381   -1.0793956836    0.3388834936
C       -1.3138197880    0.2830329715    0.8018582726
C       -0.5522681801    1.3097456096    0.3825771703
N        0.5279179916    1.1478592192   -0.5324537447
H        1.2773722590   -0.4131042151   -1.8933439521
H        0.2493717695   -2.3830124580   -0.7131986599
H       -1.7843390435   -1.8495447545    0.5501787434
H       -2.1125558634    0.4659499344    1.5097593414
H       -0.6680900259    2.3265068472    0.7365452078
C        1.7277166121    0.6482860962    0.0018469655
H        2.6661469240    1.1899118181    0.0398843090
13   
Frame  29 IRC: Energy =  -286.8539880000 ; +5.3790 kcal/mol
C        0.9718528790   -0.2813524682   -0.8535626468
C        0.0627837469   -1.3761210490   -0.3623576932
C       -1.0516698004   -1.0804636709    0.3320936088
C       -1.3073443140    0.2822636937    0.8002215188
C       -0.5447486449    1.3021468338    0.3833698245
N        0.5229383315    1.1431439847   -0.5499625384
H        1.2760814459   -0.4256558616   -1.8940634758
H        0.2394470807   -2.3939153380   -0.7033205682
H       -1.8024013485   -1.8402219783    0.5339419541
H       -2.1017178808    0.4639580543    1.5154289272
H       -0.6492247681    2.3164098453    0.7535927165
C        1.7285127378    0.6637013556   -0.0154977218
H        2.6554905350    1.2261065988    0.0601160941
13   
Frame  30 IRC: Energy =  -286.8536020000 ; +5.6212 kcal/mol
C        0.9727578796   -0.2828839791   -0.8540843935
C        0.0624640025   -1.3777540250   -0.3610133912
C       -1.0519256459   -1.0803863704    0.3302930717
C       -1.3079012263    0.2800799488    0.8010298267
C       -0.5417040955    1.3032450373    0.3831244276
N        0.5211574881    1.1424548652   -0.5535467538
H        1.2757317667   -0.4280492208   -1.8941029588
H        0.2372264874   -2.3960073115   -0.7012813853
H       -1.8063679566   -1.8383898197    0.5308368254
H       -2.0990838989    0.4635271406    1.5160566110
H       -0.6455845676    2.3135459709    0.7568722535
C        1.7303087634    0.6675461097   -0.0185118241
H        2.6529210030    1.2330716540    0.0643276910
13   
Frame  31 IRC: Energy =  -286.8517080000 ; +6.8097 kcal/mol
C        0.9783615684   -0.2867395527   -0.8527773300
C        0.0628941553   -1.3854168014   -0.3569418140
C       -1.0585102802   -1.0822796217    0.3246355805
C       -1.3005722666    0.2787108594    0.7985579759
C       -0.5331051948    1.2946203219    0.3858566704
N        0.5184420657    1.1391372184   -0.5672215069
H        1.2760377228   -0.4347900808   -1.8947144556
H        0.2226605352   -2.4091611256   -0.6911899144
H       -1.8251045875   -1.8287021098    0.5205162351
H       -2.0904842381    0.4610607183    1.5179914562
H       -0.6350617658    2.3029373808    0.7724098945
C        1.7368377738    0.6846945364   -0.0432522032
H        2.6476045118    1.2659282570    0.0861294115
13   
Frame  32 IRC: Energy =  -286.8509850000 ; +7.2634 kcal/mol
C        0.9803126743   -0.2879403018   -0.8529989552
C        0.0614357014   -1.3882644761   -0.3549896997
C       -1.0591719368   -1.0828176794    0.3221183566
C       -1.3009456440    0.2754042580    0.7992587495
C       -0.5283773432    1.2954557985    0.3861438606
N        0.5172426617    1.1380447879   -0.5713132545
H        1.2763069610   -0.4364545625   -1.8947947042
H        0.2178125683   -2.4132599495   -0.6880158019
H       -1.8312082235   -1.8256883710    0.5177445441
H       -2.0873040671    0.4602603432    1.5178618282
H       -0.6323637866    2.2987308280    0.7769470890
C        1.7410920923    0.6913736392   -0.0507960872
H        2.6451683423    1.2751556855    0.0928340747
13   
Frame  33 IRC: Energy =  -286.8485670000 ; +8.7808 kcal/mol
C        0.9856979296   -0.2916251661   -0.8510854766
C        0.0610491186   -1.3968218980   -0.3531531976
C       -1.0669293173   -1.0859838178    0.3175565302
C       -1.2933632998    0.2737501928    0.7954458553
C       -0.5208292022    1.2864704144    0.3900139275
N        0.5159776680    1.1368195437   -0.5805860047
H        1.2796551626   -0.4368758790   -1.8940058836
H        0.2003076538   -2.4281093113   -0.6780104338
H       -1.8504079617   -1.8171084640    0.5132032879
H       -2.0799799014    0.4577716701    1.5173407843
H       -0.6285415498    2.2889947076    0.7903051320
C        1.7520388732    0.7091361923   -0.0800021515
H        2.6453248264    1.3035818154    0.1129776304
13   
Frame  34 IRC: Energy =  -286.8451070000 ; +10.9519 kcal/mol
C        0.9932839465   -0.2922597088   -0.8495405697
C        0.0553255370   -1.4092689816   -0.3511297630
C       -1.0741230798   -1.0921034690    0.3120550937
C       -1.2892756243    0.2666900902    0.7925503444
C       -0.5106885608    1.2826147562    0.3929557638
N        0.5167563023    1.1377418190   -0.5867050632
H        1.2869206479   -0.4330415522   -1.8930063533
H        0.1782799769   -2.4490928040   -0.6669980386
H       -1.8742111194   -1.8090361159    0.5124245658
H       -2.0710336574    0.4550681069    1.5148098041
H       -0.6279809512    2.2777261132    0.8035373942
C        1.7695865526    0.7340585719   -0.1131449109
H        2.6471600296    1.3309031740    0.1321917328
13   
Frame  35 IRC: Energy =  -286.8407010000 ; +13.7167 kcal/mol
C        1.0014737731   -0.2909427497   -0.8481750535
C        0.0496543903   -1.4240128115   -0.3508181458
C       -1.0834480702   -1.1002502736    0.3080142391
C       -1.2834387830    0.2607188272    0.7880348678
C       -0.5029689152    1.2770265854    0.3960943680
N        0.5191694329    1.1415841420   -0.5909549282
H        1.2963973541   -0.4268570878   -1.8929630487
H        0.1543720078   -2.4735632399   -0.6561252104
H       -1.8998206925   -1.8020718617    0.5142096405
H       -2.0625786746    0.4525431664    1.5122459303
H       -0.6292764019    2.2679160330    0.8163006974
C        1.7873620350    0.7604135410   -0.1450421085
H        2.6531025442    1.3574957294    0.1491787522
13   
Frame  36 IRC: Energy =  -286.8353490000 ; +17.0752 kcal/mol
C        1.0124876534   -0.2835970883   -0.8493799873
C        0.0410194831   -1.4428341803   -0.3498864267
C       -1.0937125390   -1.1104044490    0.3058531641
C       -1.2788106264    0.2541431705    0.7840852136
C       -0.4970403345    1.2735719707    0.3984334883
N        0.5235063558    1.1508539837   -0.5925943781
H        1.3076524666   -0.4202547824   -1.8964391301
H        0.1307048814   -2.5031166874   -0.6475526962
H       -1.9262555648   -1.7977216574    0.5185319262
H       -2.0550388629    0.4503807767    1.5099749639
H       -0.6315979529    2.2598835219    0.8271113425
C        1.8041338410    0.7887630460   -0.1701362867
H        2.6629511992    1.3803323754    0.1619988063
13   
Frame  37 IRC: Energy =  -286.8288580000 ; +21.1483 kcal/mol
C        1.0272420737   -0.2696775673   -0.8530345556
C        0.0295477674   -1.4653739019   -0.3474820318
C       -1.1051212687   -1.1210093668    0.3054356355
C       -1.2746135460    0.2480296141    0.7807201422
C       -0.4926479263    1.2708522287    0.4004327123
N        0.5285255955    1.1636622078   -0.5929835968
H        1.3189939361   -0.4151674736   -1.9024560624
H        0.1085698560   -2.5351089288   -0.6412652080
H       -1.9515253226   -1.7949134197    0.5235598619
H       -2.0485579155    0.4483829877    1.5082439640
H       -0.6339463273    2.2533038694    0.8363707956
C        1.8193583743    0.8171849199   -0.1896068254
H        2.6741747034    1.3998348305    0.1720651685
13   
Frame  38 IRC: Energy =  -286.8211210000 ; +26.0034 kcal/mol
C        1.0462075522   -0.2488617578   -0.8592084704
C        0.0148211652   -1.4914805388   -0.3433425043
C       -1.1170071692   -1.1313071928    0.3062870583
C       -1.2708756165    0.2423641263    0.7780738528
C       -0.4893681466    1.2687814500    0.4022124819
N        0.5335598481    1.1785888595   -0.5925428386
H        1.3295131183   -0.4124390253   -1.9095735646
H        0.0885822893   -2.5674633699   -0.6370038874
H       -1.9745188304   -1.7930330421    0.5285201164
H       -2.0430862168    0.4464940197    1.5069701646
H       -0.6360715761    2.2479033086    0.8441774975
C        1.8329126262    0.8444436808   -0.2044824854
H        2.6853309564    1.4160094817    0.1799125791
13   