
Running Job 1 of 1 irc_reactant.in
qchem irc_reactant.in_27438.0 ./irc_reactant.d/ 1
/home/leeping/opt/qchem/5.0.2-openmp/exe/qcprog.exe_s irc_reactant.in_27438.0 ./irc_reactant.d/
Check license passed

                  Welcome to Q-Chem
     A Quantum Leap Into The Future Of Chemistry


 Q-Chem 5.0, Q-Chem, Inc., Pleasanton, CA (2017)

 Yihan Shao,  Zhengting Gan,  E. Epifanovsky,  A. T. B. Gilbert,  M. Wormit,  
 J. Kussmann,  A. W. Lange,  A. Behn,  Jia Deng,  Xintian Feng,  D. Ghosh,  
 M. Goldey,  P. R. Horn,  L. D. Jacobson,  I. Kaliman,  T. Kus,  A. Landau,  
 Jie Liu,  E. I. Proynov,  R. M. Richard,  R. P. Steele,  E. J. Sundstrom,  
 H. L. Woodcock III,  P. M. Zimmerman,  D. Zuev,  B. Albrecht,  E. Alguire,  
 S. A. Baeppler,  D. Barton,  Z. Benda,  Y. A. Bernard,  E. J. Berquist,  
 K. B. Bravaya,  H. Burton,  D. Casanova,  Chun-Min Chang,  Yunqing Chen,  
 A. Chien,  K. D. Closser,  M. P. Coons,  S. Dasgupta,  A. L. Dempwolff,  
 M. Diedenhofen,  Hainam Do,  R. G. Edgar,  Po-Tung Fang,  S. Fatehi,  
 Qingguo Feng,  J. Fosso-Tande,  Qinghui Ge,  A. Ghysels,  G. Gidofalvi,  
 J. Gomes,  J. Gonthier,  A. Gunina,  M. W. D. Hanson-Heine,  
 P. H. P. Harbach,  A. W. Hauser,  J. E. Herr,  E. G. Hohenstein,  
 Z. C. Holden,  Kerwin Hui,  T.-C. Jagau,  Hyunjun Ji,  B. Kaduk,  
 K. Khistyaev,  Jaehoon Kim,  P. Klunzinger,  K. Koh,  D. Kosenkov,  
 L. Koulias,  T. Kowalczyk,  C. M. Krauter,  A. Kunitsa,  Ka Un Lao,  
 A. Laurent,  K. V. Lawler,  Joonho Lee,  D. Lefrancois,  S. Lehtola,  
 D. S. Levine,  Yi-Pei Li,  You-Sheng Lin,  Fenglai Liu,  E. Livshits,  
 A. Luenser,  P. Manohar,  E. Mansoor,  S. F. Manzer,  Shan-Ping Mao,  
 Yuezhi Mao,  N. Mardirossian,  A. V. Marenich,  T. Markovich,  
 L. A. Martinez-Martinez,  S. A. Maurer,  N. J. Mayhall,  S. C. McKenzie,  
 J.-M. Mewes,  A. F. Morrison,  J. W. Mullinax,  K. Nanda,  
 T. S. Nguyen-Beck,  R. Olivares-Amaya,  J. A. Parkhill,  T. M. Perrine,  
 F. Plasser,  S. Prager,  A. Prociuk,  E. Ramos,  D. R. Rehn,  F. Rob,  
 M. Schneider,  N. Sergueev,  S. M. Sharada,  S. Sharma,  D. W. Small,  
 T. Stauch,  T. Stein,  Yu-Chuan Su,  A. J. W. Thom,  A. Tkatchenko,  
 T. Tsuchimochi,  L. Vogt,  O. Vydrov,  M. A. Watson,  J. Wenzel,  
 M. de Wergifosse,  T. A. Wesolowski,  A. White,  J. Witte,  A. Yamada,  
 Jun Yang,  K. Yao,  S. Yeganeh,  S. R. Yost,  Zhi-Qiang You,  A. Zech,  
 Igor Ying Zhang,  Xing Zhang,  Yan Zhao,  Ying Zhu,  B. R. Brooks,  
 G. K. L. Chan,  C. J. Cramer,  M. S. Gordon,  W. J. Hehre,  A. Klamt,  
 M. W. Schmidt,  C. D. Sherrill,  D. G. Truhlar,  A. Aspuru-Guzik,  R. Baer,  
 A. T. Bell,  N. A. Besley,  Jeng-Da Chai,  R. A. DiStasio Jr.,  A. Dreuw,  
 B. D. Dunietz,  T. R. Furlani,  Chao-Ping Hsu,  Yousung Jung,  Jing Kong,  
 D. S. Lambrecht,  WanZhen Liang,  C. Ochsenfeld,  V. A. Rassolov,  
 L. V. Slipchenko,  J. E. Subotnik,  T. Van Voorhis,  J. M. Herbert,  
 A. I. Krylov,  P. M. W. Gill,  M. Head-Gordon

 Contributors to earlier versions of Q-Chem not listed above: 
 R. D. Adamson,  B. Austin,  J. Baker,  G. J. O. Beran,  K. Brandhorst,  
 S. T. Brown,  E. F. C. Byrd,  A. K. Chakraborty,  C.-L. Cheng,  
 Siu Hung Chien,  D. M. Chipman,  D. L. Crittenden,  H. Dachsel,  
 R. J. Doerksen,  A. D. Dutoi,  L. Fusti-Molnar,  W. A. Goddard III,  
 A. Golubeva-Zadorozhnaya,  S. R. Gwaltney,  G. Hawkins,  A. Heyden,  
 S. Hirata,  G. Kedziora,  F. J. Keil,  C. Kelley,  Jihan Kim,  R. A. King,  
 R. Z. Khaliullin,  P. P. Korambath,  W. Kurlancheek,  A. M. Lee,  M. S. Lee,  
 S. V. Levchenko,  Ching Yeh Lin,  D. Liotard,  R. C. Lochan,  I. Lotan,  
 P. E. Maslen,  N. Nair,  D. P. O'Neill,  D. Neuhauser,  E. Neuscamman,  
 C. M. Oana,  R. Olson,  B. Peters,  R. Peverati,  P. A. Pieniazek,  
 Y. M. Rhee,  J. Ritchie,  M. A. Rohrdanz,  E. Rosta,  N. J. Russ,  
 H. F. Schaefer III,  N. E. Schultz,  N. Shenvi,  A. C. Simmonett,  A. Sodt,  
 D. Stuck,  K. S. Thanthiriwatte,  V. Vanovschi,  Tao Wang,  A. Warshel,  
 C. F. Williams,  Q. Wu,  X. Xu,  W. Zhang

 Please cite Q-Chem as follows:
 Y. Shao et al., Mol. Phys. 113, 184-215 (2015)
 DOI: 10.1080/00268976.2014.952696

 Q-Chem 5.0.2 for Intel X86 EM64T Linux

 Parts of Q-Chem use Armadillo 5.200.1 (Boston Tea Smuggler).
 http://arma.sourceforge.net/

 Q-Chem begins on Wed Mar  2 13:19:49 2022  

Host: 
0

     Scratch files written to ./irc_reactant.d//
 Dec517 15110_ 26548  26544 5633   
Processing $rem in /home/leeping/opt/qchem/5.0.2-openmp/config/preferences.
 MEM_STATIC 2000
 MEM_TOTAL  8000
 SYMMETRY   OFF
 SYM_IGNORE TRUE 

Checking the input file for inconsistencies... 	...done.

--------------------------------------------------------------
User input:
--------------------------------------------------------------
$molecule
0 2
C        0.9365494245   -0.2311277403   -0.9044965831
C        0.0542700820   -1.3163137069   -0.4253016821
C       -0.9515907892   -1.0698325442    0.4432840154
C       -1.3039882852    0.2907872402    0.8245254913
C       -0.5796326734    1.3444127978    0.3966910979
N        0.6146272261    1.1867516971   -0.3515393777
H        1.2088205827   -0.2431515139   -1.9618392629
H        0.2159822355   -2.3133905239   -0.8276795338
H       -1.5835193305   -1.8836996244    0.7866853253
H       -2.2242438137    0.4651422157    1.3740852909
H       -0.9016721370    2.3736583331    0.5228090867
C        1.7508553954    0.5019596276    0.0714933553
H        2.7635420824    0.8948037426    0.0512827767
$end

$rem
method                b3lyp
basis                 6-31+g(d,p)
unrestricted          true
symmetry              off
sym_ignore            true
incdft                false
incfock               0
scf_convergence       6
thresh                14
jobtype               sp
scf_guess             read
scf_algorithm         diis
max_scf_cycles        100
stability_analysis    true
max_cis_cycles        100
cis_n_roots           4
$end

--------------------------------------------------------------
 ----------------------------------------------------------------
             Standard Nuclear Orientation (Angstroms)
    I     Atom           X                Y                Z
 ----------------------------------------------------------------
    1      C       0.9365494245    -0.2311277403    -0.9044965831
    2      C       0.0542700820    -1.3163137069    -0.4253016821
    3      C      -0.9515907892    -1.0698325442     0.4432840154
    4      C      -1.3039882852     0.2907872402     0.8245254913
    5      C      -0.5796326734     1.3444127978     0.3966910979
    6      N       0.6146272261     1.1867516971    -0.3515393777
    7      H       1.2088205827    -0.2431515139    -1.9618392629
    8      H       0.2159822355    -2.3133905239    -0.8276795338
    9      H      -1.5835193305    -1.8836996244     0.7866853253
   10      H      -2.2242438137     0.4651422157     1.3740852909
   11      H      -0.9016721370     2.3736583331     0.5228090867
   12      C       1.7508553954     0.5019596276     0.0714933553
   13      H       2.7635420824     0.8948037426     0.0512827767
 ----------------------------------------------------------------
 Nuclear Repulsion Energy =   269.9172683223 hartrees
 There are       25 alpha and       24 beta electrons
 Requested basis set is 6-31+G(d,p)
 There are 53 shells and 163 basis functions

 Total QAlloc Memory Limit   8000 MB
 Mega-Array Size      1956 MB
 MEM_STATIC part      2000 MB

                       Distance Matrix (Angstroms)
             C (  1)   C (  2)   C (  3)   C (  4)   C (  5)   N (  6)
   C (  2)  1.478402
   C (  3)  2.466782  1.351647
   C (  4)  2.877833  2.447388  1.456302
   C (  5)  2.544450  2.856041  2.443175  1.348280
   N (  6)  1.555563  2.566082  2.859538  2.422182  1.418084
   H (  7)  1.091902  2.201275  3.336974  3.789872  3.358808  2.234000
   H (  8)  2.204753  1.087300  2.127207  3.438289  3.938478  3.554803
   H (  9)  3.455696  2.114993  1.086111  2.192707  3.403027  3.943992
   H ( 10)  3.958199  3.406318  2.200496  1.085949  2.105508  3.399660
   H ( 11)  3.493017  3.927930  3.444771  2.142719  1.085800  2.114804
   C ( 12)  1.467334  2.536006  3.148329  3.153367  2.499331  1.392448
   H ( 13)  2.349285  3.529352  4.220862  4.184202  3.390910  2.205750
             H (  7)   H (  8)   H (  9)   H ( 10)   H ( 11)   C ( 12)
   H (  8)  2.560847
   H (  9)  4.247699  2.455405
   H ( 10)  4.839009  4.303802  2.504521
   H ( 11)  4.180353  5.004138  4.319681  2.473116
   C ( 12)  2.232361  3.330247  4.161841  4.183242  3.277628
   H ( 13)  2.786532  4.189886  5.211319  5.178071  3.980345  1.086402

 
 A cutoff of  1.0D-14 yielded   1373 shell pairs
 There are     13425 function pairs
 Smallest overlap matrix eigenvalue = 1.86E-05

 Scale SEOQF with 1.000000e-01/1.000000e-01/1.000000e-01

 Standard Electronic Orientation quadrupole field applied
 Nucleus-field energy     =     0.0000000040 hartrees
 Guess MOs from SCF MO coefficient file
 Reading MOs from coefficient file
 Reading MOs from coefficient file
 An unrestricted hybrid HF-DFT SCF calculation will be
 performed using Pulay DIIS extrapolation
 Exchange:     0.2000 Hartree-Fock + 0.0800 Slater + 0.7200 B88
 Correlation:  0.1900 VWN1RPA + 0.8100 LYP
 Using SG-1 standard quadrature grid
 SCF converges when DIIS error is below 1.0E-06
Using Q-Chem read-in guess as SCF_GUESS READ specified.

 -------------------------------------------------------
 OpenMP BLAS3 based DFT computing Module                
 -------------------------------------------------------
 ---------------------------------------
  Cycle       Energy         DIIS Error
 ---------------------------------------
    1    -286.8625600050      3.03E-09
    2    -286.8625600051      3.37E-09 Convergence criterion met
 ---------------------------------------
 <S^2> = 0.7535
 SCF time:  CPU 6.57 s  wall 8.59 s
 SCF   energy in the final basis set = -286.86256001
 Total energy in the final basis set = -286.86256001
 
 Direct TDDFT/TDA calculation will be performed
 Exchange:     0.2000 Hartree-Fock + 0.0800 Slater + 0.7200 B88
 Correlation:  0.1900 VWN1RPA + 0.8100 LYP
 Using SG-1 standard quadrature grid
 CIS energy converged when residual is below 10e- 6
 ---------------------------------------------------
 Iter    Rts Conv    Rts Left    Ttl Dev     Max Dev
 ---------------------------------------------------
   1         0           4      0.004460    0.002209
   2         0           4      0.001009    0.000392
   3         0           4      0.000418    0.000187
   4         0           4      0.000210    0.000147
   5         0           4      0.000123    0.000104
   6         1           3      0.000041    0.000037
   7         3           1      0.000019    0.000017
   8         3           1      0.000007    0.000005
   9         3           1      0.000003    0.000001
  10         4           0      0.000002    0.000001    Roots Converged
 ---------------------------------------------------
 
 ---------------------------------------------------
         TDDFT/TDA Excitation Energies              
 ---------------------------------------------------

 Excited state   1: excitation energy (eV) =    2.6373
 Total energy for state  1:                  -286.76563918 au
    <S**2>     :  2.0875
    Trans. Mom.: -0.0776 X   0.0523 Y   0.0009 Z
    Strength   :     0.0005666007
    D( 24) --> V(  1) amplitude = -0.3190 alpha
    S(  1) --> V(  1) amplitude =  0.6689 alpha
    D( 24) --> S(  1) amplitude =  0.3736 beta
    D( 24) --> V(  1) amplitude = -0.5201 beta

 Excited state   2: excitation energy (eV) =    2.7869
 Total energy for state  2:                  -286.76014300 au
    <S**2>     :  0.9043
    Trans. Mom.: -0.3664 X  -0.0249 Y  -0.0978 Z
    Strength   :     0.0098610763
    S(  1) --> V(  1) amplitude = -0.3082 alpha
    D( 24) --> S(  1) amplitude =  0.9119 beta
    D( 24) --> V(  1) amplitude =  0.1963 beta

 Excited state   3: excitation energy (eV) =    3.3284
 Total energy for state  3:                  -286.74024514 au
    <S**2>     :  1.2944
    Trans. Mom.:  0.0150 X   0.2079 Y   0.0605 Z
    Strength   :     0.0038428809
    D( 24) --> V(  1) amplitude =  0.5411 alpha
    S(  1) --> V(  1) amplitude =  0.6492 alpha
    D( 24) --> V(  1) amplitude =  0.5070 beta

 Excited state   4: excitation energy (eV) =    4.2774
 Total energy for state  4:                  -286.70536856 au
    <S**2>     :  0.8219
    Trans. Mom.:  0.1895 X  -0.1859 Y  -0.2007 Z
    Strength   :     0.0116080637
    D( 24) --> V(  1) amplitude =  0.4154 alpha
    D( 23) --> S(  1) amplitude =  0.7932 beta
    D( 24) --> V(  1) amplitude = -0.3887 beta
 
 ---------------------------------------------------

 Stability analysis will be performed
 ---------------------------------------------------
 Iter    Rts Conv    Rts Left    Ttl Dev     Max Dev
 ---------------------------------------------------
   1         0           8      0.004480    0.000614
   2         0           8      0.001542    0.000319
   3         0           8      0.000672    0.000250
   4         1           7      0.000420    0.000292
   5         3           5      0.001067    0.000998
   6         4           4      0.000507    0.000472
   7         5           3      0.000223    0.000207
   8         5           3      0.000074    0.000068
   9         7           1      0.000024    0.000021
  10         7           1      0.000008    0.000006
  11         7           1      0.000004    0.000002
  12         8           0      0.000002    0.000001    Roots Converged
 UKS-> UKS   stable,    smallest eigenvalue:      0.0588386
 UKS->CUKS   stable,    smallest eigenvalue:      0.1007262
 ---------------------------------------------------
  SETman timing summary (seconds)
  CPU time               183.80s
  System time              0.00s
  Wall time              220.63s
 
 --------------------------------------------------------------
 
                    Orbital Energies (a.u.)
 --------------------------------------------------------------
 
 Alpha MOs
 -- Occupied --
-14.372 -10.241 -10.234 -10.231 -10.207 -10.204 -10.200  -0.994
 -0.818  -0.784  -0.672  -0.648  -0.578  -0.529  -0.503  -0.487
 -0.461  -0.433  -0.400  -0.377  -0.365  -0.319  -0.287  -0.234
 -0.199
 -- Virtual --
 -0.045   0.007   0.019   0.023   0.036   0.038   0.046   0.049
  0.071   0.072   0.077   0.086   0.095   0.113   0.117   0.122
  0.133   0.138   0.144   0.146   0.157   0.178   0.184   0.187
  0.196   0.199   0.207   0.211   0.217   0.236   0.241   0.255
  0.269   0.279   0.282   0.303   0.307   0.320   0.340   0.350
  0.356   0.385   0.488   0.512   0.602   0.617   0.656   0.675
  0.689   0.713   0.728   0.738   0.748   0.761   0.777   0.782
  0.794   0.866   0.898   0.911   0.932   0.946   0.947   0.976
  0.999   1.021   1.038   1.054   1.095   1.119   1.134   1.156
  1.196   1.217   1.239   1.295   1.357   1.366   1.416   1.429
  1.521   1.558   1.581   1.678   1.690   1.749   1.824   1.851
  1.858   1.876   1.931   1.940   1.967   1.990   2.018   2.078
  2.116   2.166   2.181   2.215   2.297   2.339   2.376   2.379
  2.400   2.415   2.435   2.470   2.487   2.513   2.524   2.549
  2.595   2.600   2.618   2.682   2.692   2.705   2.759   2.852
  2.892   2.933   3.013   3.127   3.258   3.279   3.307   3.332
  3.450   3.556   3.788   4.198   4.314   4.359   4.428   4.514
  4.553   4.745
 
 Beta MOs
 -- Occupied --
-14.369 -10.241 -10.231 -10.221 -10.206 -10.204 -10.200  -0.986
 -0.815  -0.781  -0.664  -0.646  -0.565  -0.524  -0.496  -0.484
 -0.452  -0.428  -0.395  -0.374  -0.362  -0.308  -0.281  -0.219
 -- Virtual --
 -0.070  -0.043   0.007   0.019   0.024   0.037   0.039   0.046
  0.051   0.072   0.075   0.083   0.087   0.095   0.114   0.117
  0.124   0.133   0.139   0.144   0.147   0.158   0.179   0.186
  0.189   0.200   0.201   0.210   0.211   0.219   0.238   0.244
  0.259   0.271   0.280   0.284   0.306   0.309   0.323   0.347
  0.357   0.360   0.397   0.491   0.513   0.607   0.618   0.661
  0.687   0.695   0.718   0.735   0.740   0.753   0.768   0.779
  0.785   0.808   0.869   0.898   0.914   0.932   0.948   0.954
  0.977   1.003   1.028   1.043   1.058   1.097   1.122   1.142
  1.159   1.203   1.221   1.241   1.303   1.362   1.369   1.417
  1.432   1.532   1.568   1.586   1.689   1.701   1.754   1.830
  1.860   1.872   1.883   1.936   1.945   1.971   1.994   2.020
  2.080   2.126   2.176   2.189   2.226   2.305   2.345   2.377
  2.384   2.405   2.417   2.437   2.472   2.489   2.516   2.526
  2.554   2.599   2.603   2.636   2.684   2.696   2.709   2.770
  2.860   2.894   2.942   3.016   3.130   3.259   3.279   3.308
  3.336   3.453   3.564   3.789   4.204   4.315   4.361   4.433
  4.538   4.556   4.746
 --------------------------------------------------------------
 
          Ground-State Mulliken Net Atomic Charges

     Atom                 Charge (a.u.)    Spin (a.u.)
  --------------------------------------------------------
      1 C                    -0.073037      -0.086161
      2 C                     0.007727       0.040556
      3 C                    -0.228648      -0.020491
      4 C                     0.093501       0.086700
      5 C                    -0.208076      -0.103071
      6 N                    -0.161974       0.127410
      7 H                     0.142197       0.004294
      8 H                     0.130545      -0.001565
      9 H                     0.126585       0.000553
     10 H                     0.127513       0.002764
     11 H                     0.134876      -0.001255
     12 C                    -0.232436       0.943181
     13 H                     0.141227       0.007085
  --------------------------------------------------------
  Sum of atomic charges =    -0.000000
  Sum of spin   charges =     1.000000

 -----------------------------------------------------------------
                    Cartesian Multipole Moments
 -----------------------------------------------------------------
    Charge (ESU x 10^10)
                -0.0000
    Dipole Moment (Debye)
         X      -0.3086      Y      -0.7130      Z      -0.2209
       Tot       0.8078
    Quadrupole Moments (Debye-Ang)
        XX     -38.7430     XY      -0.0548     YY     -40.0718
        XZ      -3.3713     YZ       2.2327     ZZ     -42.7454
    Octopole Moments (Debye-Ang^2)
       XXX      -3.0354    XXY      -0.5718    XYY      -7.2196
       YYY     -13.8170    XXZ       2.8423    XYZ       2.0295
       YYZ       2.0846    XZZ      -3.5120    YZZ      -5.5671
       ZZZ      -6.0124
    Hexadecapole Moments (Debye-Ang^3)
      XXXX    -327.5788   XXXY      -9.8746   XXYY    -109.1614
      XYYY     -28.3266   YYYY    -303.0884   XXXZ      45.3732
      XXYZ      -5.0157   XYYZ      15.6394   YYYZ      -4.8785
      XXZZ     -82.2254   XYZZ      -9.4659   YYZZ     -82.3176
      XZZZ      50.7601   YZZZ     -16.0259   ZZZZ    -153.3163
 -----------------------------------------------------------------
Archival summary:
1\1\c8-68\SP\ProcedureUnspecified\6-31+G**\166(2)\hpark21\WedMar213:23:412022WedMar213:23:412022\0\\#,ProcedureUnspecified,6-31+G**,\\0,2\N\C,1,1.39245\H,2,1.0864,1,125.25\C,1,1.41808,2,125.562,3,-129.1,0\H,4,1.0858,1,114.611,2,125.616,0\C,4,1.34828,1,122.208,2,-59.2132,0\H,6,1.08595,4,119.366,1,-178.552,0\C,6,1.4563,4,121.134,1,-5.10499,0\H,8,1.08611,6,118.46,4,-178.083,0\C,8,1.35165,6,121.244,4,-4.6685,0\H,10,1.0873,8,121.045,6,-170.355,0\C,2,1.46733,1,65.8445,3,-127.094,0\H,12,1.0919,2,120.745,1,99.0901,0\\\@

 Total job time:  231.86s(wall), 190.59s(cpu) 
 Wed Mar  2 13:23:41 2022

        *************************************************************
        *                                                           *
        *  Thank you very much for using Q-Chem.  Have a nice day.  *
        *                                                           *
        *************************************************************


