
Running Job 1 of 1 irc_product.in
qchem irc_product.in_29869.0 ./irc_product.d/ 1
/home/leeping/opt/qchem/5.0.2-openmp/exe/qcprog.exe_s irc_product.in_29869.0 ./irc_product.d/
Check license passed

                  Welcome to Q-Chem
     A Quantum Leap Into The Future Of Chemistry


 Q-Chem 5.0, Q-Chem, Inc., Pleasanton, CA (2017)

 Yihan Shao,  Zhengting Gan,  E. Epifanovsky,  A. T. B. Gilbert,  M. Wormit,  
 J. Kussmann,  A. W. Lange,  A. Behn,  Jia Deng,  Xintian Feng,  D. Ghosh,  
 M. Goldey,  P. R. Horn,  L. D. Jacobson,  I. Kaliman,  T. Kus,  A. Landau,  
 Jie Liu,  E. I. Proynov,  R. M. Richard,  R. P. Steele,  E. J. Sundstrom,  
 H. L. Woodcock III,  P. M. Zimmerman,  D. Zuev,  B. Albrecht,  E. Alguire,  
 S. A. Baeppler,  D. Barton,  Z. Benda,  Y. A. Bernard,  E. J. Berquist,  
 K. B. Bravaya,  H. Burton,  D. Casanova,  Chun-Min Chang,  Yunqing Chen,  
 A. Chien,  K. D. Closser,  M. P. Coons,  S. Dasgupta,  A. L. Dempwolff,  
 M. Diedenhofen,  Hainam Do,  R. G. Edgar,  Po-Tung Fang,  S. Fatehi,  
 Qingguo Feng,  J. Fosso-Tande,  Qinghui Ge,  A. Ghysels,  G. Gidofalvi,  
 J. Gomes,  J. Gonthier,  A. Gunina,  M. W. D. Hanson-Heine,  
 P. H. P. Harbach,  A. W. Hauser,  J. E. Herr,  E. G. Hohenstein,  
 Z. C. Holden,  Kerwin Hui,  T.-C. Jagau,  Hyunjun Ji,  B. Kaduk,  
 K. Khistyaev,  Jaehoon Kim,  P. Klunzinger,  K. Koh,  D. Kosenkov,  
 L. Koulias,  T. Kowalczyk,  C. M. Krauter,  A. Kunitsa,  Ka Un Lao,  
 A. Laurent,  K. V. Lawler,  Joonho Lee,  D. Lefrancois,  S. Lehtola,  
 D. S. Levine,  Yi-Pei Li,  You-Sheng Lin,  Fenglai Liu,  E. Livshits,  
 A. Luenser,  P. Manohar,  E. Mansoor,  S. F. Manzer,  Shan-Ping Mao,  
 Yuezhi Mao,  N. Mardirossian,  A. V. Marenich,  T. Markovich,  
 L. A. Martinez-Martinez,  S. A. Maurer,  N. J. Mayhall,  S. C. McKenzie,  
 J.-M. Mewes,  A. F. Morrison,  J. W. Mullinax,  K. Nanda,  
 T. S. Nguyen-Beck,  R. Olivares-Amaya,  J. A. Parkhill,  T. M. Perrine,  
 F. Plasser,  S. Prager,  A. Prociuk,  E. Ramos,  D. R. Rehn,  F. Rob,  
 M. Schneider,  N. Sergueev,  S. M. Sharada,  S. Sharma,  D. W. Small,  
 T. Stauch,  T. Stein,  Yu-Chuan Su,  A. J. W. Thom,  A. Tkatchenko,  
 T. Tsuchimochi,  L. Vogt,  O. Vydrov,  M. A. Watson,  J. Wenzel,  
 M. de Wergifosse,  T. A. Wesolowski,  A. White,  J. Witte,  A. Yamada,  
 Jun Yang,  K. Yao,  S. Yeganeh,  S. R. Yost,  Zhi-Qiang You,  A. Zech,  
 Igor Ying Zhang,  Xing Zhang,  Yan Zhao,  Ying Zhu,  B. R. Brooks,  
 G. K. L. Chan,  C. J. Cramer,  M. S. Gordon,  W. J. Hehre,  A. Klamt,  
 M. W. Schmidt,  C. D. Sherrill,  D. G. Truhlar,  A. Aspuru-Guzik,  R. Baer,  
 A. T. Bell,  N. A. Besley,  Jeng-Da Chai,  R. A. DiStasio Jr.,  A. Dreuw,  
 B. D. Dunietz,  T. R. Furlani,  Chao-Ping Hsu,  Yousung Jung,  Jing Kong,  
 D. S. Lambrecht,  WanZhen Liang,  C. Ochsenfeld,  V. A. Rassolov,  
 L. V. Slipchenko,  J. E. Subotnik,  T. Van Voorhis,  J. M. Herbert,  
 A. I. Krylov,  P. M. W. Gill,  M. Head-Gordon

 Contributors to earlier versions of Q-Chem not listed above: 
 R. D. Adamson,  B. Austin,  J. Baker,  G. J. O. Beran,  K. Brandhorst,  
 S. T. Brown,  E. F. C. Byrd,  A. K. Chakraborty,  C.-L. Cheng,  
 Siu Hung Chien,  D. M. Chipman,  D. L. Crittenden,  H. Dachsel,  
 R. J. Doerksen,  A. D. Dutoi,  L. Fusti-Molnar,  W. A. Goddard III,  
 A. Golubeva-Zadorozhnaya,  S. R. Gwaltney,  G. Hawkins,  A. Heyden,  
 S. Hirata,  G. Kedziora,  F. J. Keil,  C. Kelley,  Jihan Kim,  R. A. King,  
 R. Z. Khaliullin,  P. P. Korambath,  W. Kurlancheek,  A. M. Lee,  M. S. Lee,  
 S. V. Levchenko,  Ching Yeh Lin,  D. Liotard,  R. C. Lochan,  I. Lotan,  
 P. E. Maslen,  N. Nair,  D. P. O'Neill,  D. Neuhauser,  E. Neuscamman,  
 C. M. Oana,  R. Olson,  B. Peters,  R. Peverati,  P. A. Pieniazek,  
 Y. M. Rhee,  J. Ritchie,  M. A. Rohrdanz,  E. Rosta,  N. J. Russ,  
 H. F. Schaefer III,  N. E. Schultz,  N. Shenvi,  A. C. Simmonett,  A. Sodt,  
 D. Stuck,  K. S. Thanthiriwatte,  V. Vanovschi,  Tao Wang,  A. Warshel,  
 C. F. Williams,  Q. Wu,  X. Xu,  W. Zhang

 Please cite Q-Chem as follows:
 Y. Shao et al., Mol. Phys. 113, 184-215 (2015)
 DOI: 10.1080/00268976.2014.952696

 Q-Chem 5.0.2 for Intel X86 EM64T Linux

 Parts of Q-Chem use Armadillo 5.200.1 (Boston Tea Smuggler).
 http://arma.sourceforge.net/

 Q-Chem begins on Wed Mar  2 13:30:15 2022  

Host: 
0

     Scratch files written to ./irc_product.d//
 Dec517 15110_ 26548  26544 5633   
Processing $rem in /home/leeping/opt/qchem/5.0.2-openmp/config/preferences.
 MEM_STATIC 2000
 MEM_TOTAL  8000
 SYMMETRY   OFF
 SYM_IGNORE TRUE 

Checking the input file for inconsistencies... 	...done.

--------------------------------------------------------------
User input:
--------------------------------------------------------------
$molecule
0 2
C        1.7586962830    0.1245848535   -0.5129239105
C       -0.7170330843   -1.7673416386   -0.7884281540
C       -1.3380479511   -1.2246155184    0.2518547221
C       -1.2176795828    0.1283741198    0.7919235104
C       -0.3658656956    1.0986763871    0.3911426563
N        0.5341954163    0.9973424915   -0.6911639165
H        1.9955334523   -0.9228140475   -0.5669767957
H       -0.7553349461   -2.7217179804   -1.2981827401
H       -2.0636447873   -1.8609441089    0.7764109448
H       -1.9089929749    0.3822470876    1.5905757302
H       -0.4227819120    2.0856950885    0.8501801565
C        1.9595214288    1.3886705773   -0.4337777935
H        2.5414343537    2.2918426884   -0.3606344099
$end

$rem
method                b3lyp
basis                 6-31+g(d,p)
unrestricted          true
symmetry              off
sym_ignore            true
incdft                false
incfock               0
scf_convergence       8
thresh                14
jobtype               sp
scf_guess             read
scf_algorithm         diis
max_scf_cycles        100
scf_final_print       1
$end

--------------------------------------------------------------
 ----------------------------------------------------------------
             Standard Nuclear Orientation (Angstroms)
    I     Atom           X                Y                Z
 ----------------------------------------------------------------
    1      C       1.7586962830     0.1245848535    -0.5129239105
    2      C      -0.7170330843    -1.7673416386    -0.7884281540
    3      C      -1.3380479511    -1.2246155184     0.2518547221
    4      C      -1.2176795828     0.1283741198     0.7919235104
    5      C      -0.3658656956     1.0986763871     0.3911426563
    6      N       0.5341954163     0.9973424915    -0.6911639165
    7      H       1.9955334523    -0.9228140475    -0.5669767957
    8      H      -0.7553349461    -2.7217179804    -1.2981827401
    9      H      -2.0636447873    -1.8609441089     0.7764109448
   10      H      -1.9089929749     0.3822470876     1.5905757302
   11      H      -0.4227819120     2.0856950885     0.8501801565
   12      C       1.9595214288     1.3886705773    -0.4337777935
   13      H       2.5414343537     2.2918426884    -0.3606344099
 ----------------------------------------------------------------
 Nuclear Repulsion Energy =   250.8285744152 hartrees
 There are       25 alpha and       24 beta electrons
 Requested basis set is 6-31+G(d,p)
 There are 53 shells and 163 basis functions

 Total QAlloc Memory Limit   8000 MB
 Mega-Array Size      1956 MB
 MEM_STATIC part      2000 MB

                       Distance Matrix (Angstroms)
             C (  1)   C (  2)   C (  3)   C (  4)   C (  5)   N (  6)
   C (  2)  3.128022
   C (  3)  3.463387  1.327554
   C (  4)  3.249839  2.518312  1.461761
   C (  5)  2.505984  3.119097  2.522345  1.351924
   N (  6)  1.514225  3.036200  3.054779  2.454327  1.411299
   H (  7)  1.075201  2.849611  3.445916  3.643672  3.252787  2.416181
   H (  8)  3.877941  1.082659  2.232372  3.564454  4.195345  3.982809
   H (  9)  4.496110  2.066603  1.098437  2.161778  3.433692  4.131870
   H ( 10)  4.235923  3.420696  2.167985  1.086375  2.081623  3.399095
   H ( 11)  3.234633  4.197322  3.486239  2.113377  1.090028  2.115670
   C ( 12)  1.282384  4.153328  4.263018  3.631156  2.484354  1.500313
   H ( 13)  2.309302  5.222796  5.271717  4.487753  3.231286  2.411221
             H (  7)   H (  8)   H (  9)   H ( 10)   H ( 11)   C ( 12)
   H (  8)  3.367194
   H (  9)  4.377409  2.599336
   H ( 10)  4.647961  4.394366  2.391378
   H ( 11)  4.111899  5.276104  4.274791  2.378811
   C ( 12)  2.315599  5.001293  5.311348  4.480658  2.794595
   H ( 13)  3.267201  6.073177  6.304385  5.221119  3.208605  1.076890

 
 A cutoff of  1.0D-14 yielded   1345 shell pairs
 There are     13198 function pairs
 
 -------------------------------------------------------
 OpenMP Integral Computing Module                       
 Release: version 1.0, May 2013, Q-Chem Inc. Pittsburgh 
 -------------------------------------------------------
 Integral Job Info:
 Integral job number is                      11
 Integral operator is                         1
 short-range coefficients                     0
 long-range coefficients              100000000
 Omega coefficients                           0
 if combine SR and LR in K                    0
 Integral screening is                        0
 Integral computing path is                   2
 max size of driver memory is            800000
 size of driver memory is                593474
 size of scratch memory is              2361544
 max col of scratch BK array               1296
 max len of scratch array in speh3          155
 max len of scratch index in speh4           18
 max int batch size is                      520
 min int batch size is                       52
 fixed nKL is                                52
 max L of basis functions is                  2
 order of int derivative is                   0
 number of shells is                         53
 number of basis is                         163
 number of cartesian basis is               163
 number of contracted shell pairs          1345
 number of primitive shell pairs           4431
 maxK2 (contraction) of shell pair           36
 max number of K2 of shell pair               1
 max number of CS2 of shell pair            129
 max number of PS2 of shell pair            702
 mem total for path MDJ                  531564
 -------------------------------------------------------
 Smallest overlap matrix eigenvalue = 1.83E-05

 Scale SEOQF with 1.000000e-01/1.000000e-01/1.000000e-01

 Standard Electronic Orientation quadrupole field applied
 Nucleus-field energy     =     0.0000000062 hartrees
 Guess MOs from SCF MO coefficient file
 Reading MOs from coefficient file
 Reading MOs from coefficient file
 An unrestricted hybrid HF-DFT SCF calculation will be
 performed using Pulay DIIS extrapolation
 Exchange:     0.2000 Hartree-Fock + 0.0800 Slater + 0.7200 B88
 Correlation:  0.1900 VWN1RPA + 0.8100 LYP
 Using SG-1 standard quadrature grid
 SCF converges when DIIS error is below 1.0E-08
Using Q-Chem read-in guess as SCF_GUESS READ specified.

 using 4 threads for integral computing
 -------------------------------------------------------
 OpenMP Integral computing Module                
 Release: version 1.0, May 2013, Q-Chem Inc. Pittsburgh 
 -------------------------------------------------------
 -------------------------------------------------------
 OpenMP BLAS3 based DFT computing Module                
 Release: version 1.0, May 2013, Q-Chem Inc. Pittsburgh 
 -------------------------------------------------------
 ---------------------------------------
  Cycle       Energy         DIIS Error
 ---------------------------------------
    1    -286.7509080801      9.94E-10
    2    -286.7509080802      1.58E-09 Convergence criterion met
 ---------------------------------------
 One-Electron    Energy =  -882.0443408423
 Total Coulomb   Energy =   385.9488779163
 Alpha Exchange  Energy =    -4.0053430625
 Beta  Exchange  Energy =    -3.9134007463
 DFT   Exchange  Energy =   -31.4783626892
 DFT Correlation Energy =    -2.0869130775
 Nuclear Repu.   Energy =   250.8285744214
 Nuclear Attr.   Energy = -1165.9845716350
 Kinetic         Energy =   283.9402307927
 <S^2> = 0.7663
 SCF time:  CPU 10.01 s  wall 3.19 s
 Final Alpha MO Eigenvalues
            1           2           3           4           5           6
    1 -14.3662458 -10.2517080 -10.2503661 -10.2177707 -10.2099758 -10.2039177
            7           8           9          10          11          12
    1 -10.1920111  -0.9847360  -0.8124810  -0.7570698  -0.6816754  -0.6058977
           13          14          15          16          17          18
    1  -0.5968333  -0.5455399  -0.5045044  -0.4890054  -0.4442784  -0.4206121
           19          20          21          22          23          24
    1  -0.3938812  -0.3848201  -0.3318375  -0.3153788  -0.2502860  -0.2325178
           25          26          27          28          29          30
    1  -0.2058964  -0.0385260  -0.0264070   0.0084948   0.0152472   0.0183452
 Final Beta MO Eigenvalues
            1           2           3           4           5           6
    1 -14.3661192 -10.2516029 -10.2502687 -10.2185026 -10.2053793 -10.1945982
            7           8           9          10          11          12
    1 -10.1908271  -0.9845114  -0.8088214  -0.7483300  -0.6735715  -0.6054504
           13          14          15          16          17          18
    1  -0.5871542  -0.5405717  -0.4975085  -0.4827924  -0.4410712  -0.4097551
           19          20          21          22          23          24
    1  -0.3932851  -0.3822837  -0.3287488  -0.3127065  -0.2458373  -0.2017710
           25          26          27          28          29
    1  -0.0766661  -0.0315179  -0.0258822   0.0090751   0.0167453
 SCF   energy in the final basis set = -286.75090808
 Total energy in the final basis set = -286.75090808
 
 --------------------------------------------------------------
 
                    Orbital Energies (a.u.)
 --------------------------------------------------------------
 
 Alpha MOs
 -- Occupied --
-14.366 -10.252 -10.250 -10.218 -10.210 -10.204 -10.192  -0.985
 -0.812  -0.757  -0.682  -0.606  -0.597  -0.546  -0.505  -0.489
 -0.444  -0.421  -0.394  -0.385  -0.332  -0.315  -0.250  -0.233
 -0.206
 -- Virtual --
 -0.039  -0.026   0.008   0.015   0.018   0.035   0.038   0.052
  0.059   0.061   0.069   0.077   0.087   0.098   0.107   0.113
  0.124   0.137   0.140   0.144   0.152   0.155   0.159   0.173
  0.178   0.190   0.197   0.205   0.211   0.225   0.226   0.239
  0.246   0.251   0.279   0.286   0.301   0.315   0.316   0.345
  0.374   0.444   0.472   0.490   0.592   0.617   0.653   0.664
  0.683   0.701   0.716   0.729   0.743   0.753   0.770   0.782
  0.800   0.824   0.873   0.888   0.917   0.943   0.945   0.964
  0.995   1.028   1.053   1.062   1.078   1.138   1.143   1.166
  1.177   1.244   1.258   1.280   1.290   1.362   1.370   1.386
  1.427   1.489   1.530   1.583   1.634   1.681   1.716   1.764
  1.777   1.834   1.871   1.891   1.945   1.961   2.003   2.018
  2.042   2.070   2.119   2.143   2.189   2.230   2.297   2.353
  2.368   2.392   2.423   2.443   2.449   2.464   2.507   2.522
  2.565   2.595   2.612   2.659   2.696   2.713   2.769   2.806
  2.843   2.915   3.043   3.102   3.214   3.279   3.334   3.364
  3.494   3.721   3.774   4.127   4.284   4.380   4.460   4.581
  4.665   4.988
 
 Beta MOs
 -- Occupied --
-14.366 -10.252 -10.250 -10.219 -10.205 -10.195 -10.191  -0.985
 -0.809  -0.748  -0.674  -0.605  -0.587  -0.541  -0.498  -0.483
 -0.441  -0.410  -0.393  -0.382  -0.329  -0.313  -0.246  -0.202
 -- Virtual --
 -0.077  -0.032  -0.026   0.009   0.017   0.019   0.036   0.039
  0.052   0.061   0.062   0.070   0.078   0.087   0.099   0.108
  0.118   0.127   0.138   0.140   0.145   0.153   0.156   0.160
  0.175   0.179   0.192   0.201   0.208   0.212   0.226   0.228
  0.239   0.247   0.254   0.280   0.288   0.302   0.316   0.320
  0.349   0.383   0.449   0.479   0.495   0.594   0.628   0.655
  0.666   0.690   0.709   0.723   0.731   0.745   0.755   0.772
  0.792   0.805   0.829   0.878   0.892   0.919   0.947   0.948
  0.969   0.996   1.041   1.054   1.066   1.084   1.141   1.147
  1.168   1.180   1.257   1.260   1.282   1.294   1.365   1.375
  1.388   1.431   1.491   1.534   1.584   1.678   1.693   1.726
  1.773   1.782   1.848   1.881   1.896   1.958   1.965   2.008
  2.022   2.046   2.072   2.124   2.152   2.189   2.233   2.301
  2.358   2.373   2.394   2.433   2.444   2.454   2.467   2.508
  2.524   2.567   2.599   2.613   2.667   2.711   2.720   2.773
  2.813   2.846   2.920   3.047   3.102   3.218   3.284   3.340
  3.365   3.505   3.730   3.774   4.129   4.287   4.397   4.473
  4.581   4.668   4.988
 --------------------------------------------------------------
 
          Ground-State Mulliken Net Atomic Charges

     Atom                 Charge (a.u.)    Spin (a.u.)
  --------------------------------------------------------
      1 C                    -0.043880      -0.003736
      2 C                    -0.350190       1.201741
      3 C                    -0.114243      -0.270810
      4 C                    -0.095981       0.091876
      5 C                    -0.036030      -0.117809
      6 N                    -0.162906      -0.000041
      7 H                     0.172850      -0.000192
      8 H                     0.146219       0.009179
      9 H                     0.136678       0.082453
     10 H                     0.119088      -0.002578
     11 H                     0.122557       0.004700
     12 C                    -0.055402       0.003709
     13 H                     0.161239       0.001508
  --------------------------------------------------------
  Sum of atomic charges =     0.000000
  Sum of spin   charges =     1.000000

 -----------------------------------------------------------------
                    Cartesian Multipole Moments
 -----------------------------------------------------------------
    Charge (ESU x 10^10)
                 0.0000
    Dipole Moment (Debye)
         X       1.4743      Y       0.0046      Z       1.1582
       Tot       1.8748
    Quadrupole Moments (Debye-Ang)
        XX     -37.5542     XY       3.4129     YY     -35.3419
        XZ      -3.2250     YZ       2.8991     ZZ     -45.4674
    Octopole Moments (Debye-Ang^2)
       XXX       2.4584    XXY       1.1227    XYY       5.0494
       YYY      -4.9511    XXZ       7.1369    XYZ      -0.2809
       YYZ       2.3751    XZZ      -6.1571    YZZ      -6.7008
       ZZZ      17.9589
    Hexadecapole Moments (Debye-Ang^3)
      XXXX    -472.0890   XXXY     -89.4045   XXYY    -119.2494
      XYYY     -76.2811   YYYY    -374.5500   XXXZ      44.6007
      XXYZ      -9.7870   XYYZ      14.9057   YYYZ       3.2981
      XXZZ    -109.4962   XYZZ     -39.3090   YYZZ     -93.9183
      XZZZ      57.8299   YZZZ      -8.2094   ZZZZ    -170.7295
 -----------------------------------------------------------------
 Mayer SCF Bond Order, atomic valence on the diagonal:

            1           2           3           4           5           6
    1   3.7153628  -0.0439365   0.0055190  -0.0309540  -0.0419536   0.7830961
    2  -0.0439365   2.9169492   1.8003993   0.0747789  -0.0227794   0.0517144
    3   0.0055190   1.8003993   3.9610881   1.1928835   0.0920264   0.0166597
    4  -0.0309540   0.0747789   1.1928835   4.1651628   1.9374799  -0.0497975
    5  -0.0419536  -0.0227794   0.0920264   1.9374799   3.9747545   1.0960153
    6   0.7830961   0.0517144   0.0166597  -0.0497975   1.0960153   2.5828095
    7   0.9313762   0.0032476  -0.0045328   0.0126958  -0.0116882  -0.0040133
    8   0.0013918   0.8839310   0.0361663   0.0277511  -0.0028885  -0.0000594
    9  -0.0002000   0.1173811   0.7796392   0.0406231  -0.0014695   0.0002715
   10   0.0004670   0.0073448   0.0259623   0.8397068   0.0689776   0.0069665
   11   0.0047088   0.0043858   0.0251966   0.0698043   0.8801374  -0.0415321
   12   2.0538968   0.0384953  -0.0100244   0.0332376  -0.0101570   0.7291704
   13   0.0519514   0.0019871   0.0011930   0.0169536  -0.0089460  -0.0056822
            7           8           9          10          11          12
    1   0.9313762   0.0013918  -0.0002000   0.0004670   0.0047088   2.0538968
    2   0.0032476   0.8839310   0.1173811   0.0073448   0.0043858   0.0384953
    3  -0.0045328   0.0361663   0.7796392   0.0259623   0.0251966  -0.0100244
    4   0.0126958   0.0277511   0.0406231   0.8397068   0.0698043   0.0332376
    5  -0.0116882  -0.0028885  -0.0014695   0.0689776   0.8801374  -0.0101570
    6  -0.0040133  -0.0000594   0.0002715   0.0069665  -0.0415321   0.7291704
    7   0.9492180  -0.0000175  -0.0000146  -0.0000038   0.0010910   0.0209017
    8  -0.0000175   0.9512794   0.0019076   0.0017178   0.0000779   0.0012794
    9  -0.0000146   0.0019076   0.9409990   0.0004450   0.0014527   0.0009106
   10  -0.0000038   0.0017178   0.0004450   0.9545009   0.0007744   0.0019348
   11   0.0010910   0.0000779   0.0014527   0.0007744   0.9517084   0.0044799
   12   0.0209017   0.0012794   0.0009106   0.0019348   0.0044799   3.7574050
   13   0.0001759   0.0000220   0.0000523   0.0002077   0.0011318   0.8932800
           13
    1   0.0519514
    2   0.0019871
    3   0.0011930
    4   0.0169536
    5  -0.0089460
    6  -0.0056822
    7   0.0001759
    8   0.0000220
    9   0.0000523
   10   0.0002077
   11   0.0011318
   12   0.8932800
   13   0.9523266


Archival summary:
1\1\c8-68\SP\ProcedureUnspecified\6-31+G**\166(2)\hpark21\WedMar213:30:232022WedMar213:30:232022\0\\#,ProcedureUnspecified,6-31+G**,\\0,2\N\C,1,1.4113\H,2,1.09003,1,114.915\C,2,1.35192,1,125.285,3,173.456,0\H,4,1.08638,2,116.818,1,-175.057,0\C,4,1.46176,2,127.349,1,3.47574,0\H,6,1.09844,4,114.466,2,176.605,0\C,6,1.32755,4,129.005,2,-4.93395,0\H,8,1.08266,6,135.461,4,-176.761,0\C,1,1.50031,2,117.103,3,56.0611,0\H,10,1.07689,1,138.053,2,-79.6861,0\C,10,1.28238,1,65.3879,2,104.891,0\H,12,1.0752,10,158.256,1,171.844,0\\\@

 Total job time:  7.77s(wall), 11.90s(cpu) 
 Wed Mar  2 13:30:23 2022

        *************************************************************
        *                                                           *
        *  Thank you very much for using Q-Chem.  Have a nice day.  *
        *                                                           *
        *************************************************************


