
Running Job 1 of 1 irc_transition.in
qchem irc_transition.in_30573.0 ./irc_transition.d/ 1
/home/leeping/opt/qchem/5.0.2-openmp/exe/qcprog.exe_s irc_transition.in_30573.0 ./irc_transition.d/
Check license passed

                  Welcome to Q-Chem
     A Quantum Leap Into The Future Of Chemistry


 Q-Chem 5.0, Q-Chem, Inc., Pleasanton, CA (2017)

 Yihan Shao,  Zhengting Gan,  E. Epifanovsky,  A. T. B. Gilbert,  M. Wormit,  
 J. Kussmann,  A. W. Lange,  A. Behn,  Jia Deng,  Xintian Feng,  D. Ghosh,  
 M. Goldey,  P. R. Horn,  L. D. Jacobson,  I. Kaliman,  T. Kus,  A. Landau,  
 Jie Liu,  E. I. Proynov,  R. M. Richard,  R. P. Steele,  E. J. Sundstrom,  
 H. L. Woodcock III,  P. M. Zimmerman,  D. Zuev,  B. Albrecht,  E. Alguire,  
 S. A. Baeppler,  D. Barton,  Z. Benda,  Y. A. Bernard,  E. J. Berquist,  
 K. B. Bravaya,  H. Burton,  D. Casanova,  Chun-Min Chang,  Yunqing Chen,  
 A. Chien,  K. D. Closser,  M. P. Coons,  S. Dasgupta,  A. L. Dempwolff,  
 M. Diedenhofen,  Hainam Do,  R. G. Edgar,  Po-Tung Fang,  S. Fatehi,  
 Qingguo Feng,  J. Fosso-Tande,  Qinghui Ge,  A. Ghysels,  G. Gidofalvi,  
 J. Gomes,  J. Gonthier,  A. Gunina,  M. W. D. Hanson-Heine,  
 P. H. P. Harbach,  A. W. Hauser,  J. E. Herr,  E. G. Hohenstein,  
 Z. C. Holden,  Kerwin Hui,  T.-C. Jagau,  Hyunjun Ji,  B. Kaduk,  
 K. Khistyaev,  Jaehoon Kim,  P. Klunzinger,  K. Koh,  D. Kosenkov,  
 L. Koulias,  T. Kowalczyk,  C. M. Krauter,  A. Kunitsa,  Ka Un Lao,  
 A. Laurent,  K. V. Lawler,  Joonho Lee,  D. Lefrancois,  S. Lehtola,  
 D. S. Levine,  Yi-Pei Li,  You-Sheng Lin,  Fenglai Liu,  E. Livshits,  
 A. Luenser,  P. Manohar,  E. Mansoor,  S. F. Manzer,  Shan-Ping Mao,  
 Yuezhi Mao,  N. Mardirossian,  A. V. Marenich,  T. Markovich,  
 L. A. Martinez-Martinez,  S. A. Maurer,  N. J. Mayhall,  S. C. McKenzie,  
 J.-M. Mewes,  A. F. Morrison,  J. W. Mullinax,  K. Nanda,  
 T. S. Nguyen-Beck,  R. Olivares-Amaya,  J. A. Parkhill,  T. M. Perrine,  
 F. Plasser,  S. Prager,  A. Prociuk,  E. Ramos,  D. R. Rehn,  F. Rob,  
 M. Schneider,  N. Sergueev,  S. M. Sharada,  S. Sharma,  D. W. Small,  
 T. Stauch,  T. Stein,  Yu-Chuan Su,  A. J. W. Thom,  A. Tkatchenko,  
 T. Tsuchimochi,  L. Vogt,  O. Vydrov,  M. A. Watson,  J. Wenzel,  
 M. de Wergifosse,  T. A. Wesolowski,  A. White,  J. Witte,  A. Yamada,  
 Jun Yang,  K. Yao,  S. Yeganeh,  S. R. Yost,  Zhi-Qiang You,  A. Zech,  
 Igor Ying Zhang,  Xing Zhang,  Yan Zhao,  Ying Zhu,  B. R. Brooks,  
 G. K. L. Chan,  C. J. Cramer,  M. S. Gordon,  W. J. Hehre,  A. Klamt,  
 M. W. Schmidt,  C. D. Sherrill,  D. G. Truhlar,  A. Aspuru-Guzik,  R. Baer,  
 A. T. Bell,  N. A. Besley,  Jeng-Da Chai,  R. A. DiStasio Jr.,  A. Dreuw,  
 B. D. Dunietz,  T. R. Furlani,  Chao-Ping Hsu,  Yousung Jung,  Jing Kong,  
 D. S. Lambrecht,  WanZhen Liang,  C. Ochsenfeld,  V. A. Rassolov,  
 L. V. Slipchenko,  J. E. Subotnik,  T. Van Voorhis,  J. M. Herbert,  
 A. I. Krylov,  P. M. W. Gill,  M. Head-Gordon

 Contributors to earlier versions of Q-Chem not listed above: 
 R. D. Adamson,  B. Austin,  J. Baker,  G. J. O. Beran,  K. Brandhorst,  
 S. T. Brown,  E. F. C. Byrd,  A. K. Chakraborty,  C.-L. Cheng,  
 Siu Hung Chien,  D. M. Chipman,  D. L. Crittenden,  H. Dachsel,  
 R. J. Doerksen,  A. D. Dutoi,  L. Fusti-Molnar,  W. A. Goddard III,  
 A. Golubeva-Zadorozhnaya,  S. R. Gwaltney,  G. Hawkins,  A. Heyden,  
 S. Hirata,  G. Kedziora,  F. J. Keil,  C. Kelley,  Jihan Kim,  R. A. King,  
 R. Z. Khaliullin,  P. P. Korambath,  W. Kurlancheek,  A. M. Lee,  M. S. Lee,  
 S. V. Levchenko,  Ching Yeh Lin,  D. Liotard,  R. C. Lochan,  I. Lotan,  
 P. E. Maslen,  N. Nair,  D. P. O'Neill,  D. Neuhauser,  E. Neuscamman,  
 C. M. Oana,  R. Olson,  B. Peters,  R. Peverati,  P. A. Pieniazek,  
 Y. M. Rhee,  J. Ritchie,  M. A. Rohrdanz,  E. Rosta,  N. J. Russ,  
 H. F. Schaefer III,  N. E. Schultz,  N. Shenvi,  A. C. Simmonett,  A. Sodt,  
 D. Stuck,  K. S. Thanthiriwatte,  V. Vanovschi,  Tao Wang,  A. Warshel,  
 C. F. Williams,  Q. Wu,  X. Xu,  W. Zhang

 Please cite Q-Chem as follows:
 Y. Shao et al., Mol. Phys. 113, 184-215 (2015)
 DOI: 10.1080/00268976.2014.952696

 Q-Chem 5.0.2 for Intel X86 EM64T Linux

 Parts of Q-Chem use Armadillo 5.200.1 (Boston Tea Smuggler).
 http://arma.sourceforge.net/

 Q-Chem begins on Wed Mar  2 13:36:22 2022  

Host: 
0

     Scratch files written to ./irc_transition.d//
 Dec517 15110_ 26548  26544 5633   
Processing $rem in /home/leeping/opt/qchem/5.0.2-openmp/config/preferences.
 MEM_STATIC 2000
 MEM_TOTAL  8000
 SYMMETRY   OFF
 SYM_IGNORE TRUE 

Checking the input file for inconsistencies... 	...done.

--------------------------------------------------------------
User input:
--------------------------------------------------------------
$molecule
0 2
C        1.3611836815    0.1680363770   -1.0293631840
C       -0.2474969814   -1.8876034479   -0.2865789766
C       -1.2186390614   -1.2341157614    0.3283807345
C       -1.2463752393    0.1680196696    0.7636127767
C       -0.4677649886    1.2090109211    0.4013819772
N        0.5096395636    1.3458711264   -0.6195521563
H        1.3618705710   -0.5668181527   -1.8107032294
H       -0.0875687412   -2.9027572459   -0.6270603305
H       -2.1198350733   -1.8066889597    0.5868523390
H       -2.0203588229    0.3990997780    1.4918627763
H       -0.6587381753    2.1718630833    0.8732171520
C        1.9346009282    1.0424295691   -0.2756500226
H        2.7545366587    1.5398604413    0.2135265779
$end

$rem
method                b3lyp
basis                 6-31+g(d,p)
unrestricted          true
symmetry              off
sym_ignore            true
incdft                false
incfock               0
scf_convergence       8
thresh                14
jobtype               sp
scf_guess             read
scf_algorithm         diis
max_scf_cycles        100
scf_final_print       1
$end

--------------------------------------------------------------
 ----------------------------------------------------------------
             Standard Nuclear Orientation (Angstroms)
    I     Atom           X                Y                Z
 ----------------------------------------------------------------
    1      C       1.3611836815     0.1680363770    -1.0293631840
    2      C      -0.2474969814    -1.8876034479    -0.2865789766
    3      C      -1.2186390614    -1.2341157614     0.3283807345
    4      C      -1.2463752393     0.1680196696     0.7636127767
    5      C      -0.4677649886     1.2090109211     0.4013819772
    6      N       0.5096395636     1.3458711264    -0.6195521563
    7      H       1.3618705710    -0.5668181527    -1.8107032294
    8      H      -0.0875687412    -2.9027572459    -0.6270603305
    9      H      -2.1198350733    -1.8066889597     0.5868523390
   10      H      -2.0203588229     0.3990997780     1.4918627763
   11      H      -0.6587381753     2.1718630833     0.8732171520
   12      C       1.9346009282     1.0424295691    -0.2756500226
   13      H       2.7545366587     1.5398604413     0.2135265779
 ----------------------------------------------------------------
 Nuclear Repulsion Energy =   252.1135755991 hartrees
 There are       25 alpha and       24 beta electrons
 Requested basis set is 6-31+G(d,p)
 There are 53 shells and 163 basis functions

 Total QAlloc Memory Limit   8000 MB
 Mega-Array Size      1956 MB
 MEM_STATIC part      2000 MB

                       Distance Matrix (Angstroms)
             C (  1)   C (  2)   C (  3)   C (  4)   C (  5)   N (  6)
   C (  2)  2.713897
   C (  3)  3.234963  1.322248
   C (  4)  3.164510  2.515203  1.468394
   C (  5)  2.544742  3.179753  2.556953  1.349484
   N (  6)  1.510088  3.337587  3.246822  2.526671  1.419985
   H (  7)  1.072615  2.580212  3.417601  3.737651  3.375568  2.409049
   H (  8)  3.419138  1.082609  2.230819  3.564614  4.255453  4.290403
   H (  9)  4.316154  2.067627  1.098545  2.166483  3.443571  4.278806
   H ( 10)  4.224311  3.396308  2.159592  1.087565  2.062923  3.428606
   H ( 11)  3.422750  4.241876  3.494428  2.091105  1.089121  2.067784
   C ( 12)  1.288974  3.653322  3.935789  3.458796  2.501496  1.496950
   H ( 13)  2.316918  4.583647  4.847088  4.265189  3.244685  2.402335
             H (  7)   H (  8)   H (  9)   H ( 10)   H ( 11)   C ( 12)
   H (  8)  2.993075
   H (  9)  4.405431  2.608650
   H ( 10)  4.824875  4.373531  2.386303
   H ( 11)  4.334358  5.322484  4.248021  2.319358
   C ( 12)  2.296538  4.447152  5.029894  4.379461  3.053019
   H ( 13)  3.236529  5.340506  5.924379  5.072978  3.533421  1.076581

 
 A cutoff of  1.0D-14 yielded   1354 shell pairs
 There are     13325 function pairs
 
 -------------------------------------------------------
 OpenMP Integral Computing Module                       
 Release: version 1.0, May 2013, Q-Chem Inc. Pittsburgh 
 -------------------------------------------------------
 Integral Job Info:
 Integral job number is                      11
 Integral operator is                         1
 short-range coefficients                     0
 long-range coefficients              100000000
 Omega coefficients                           0
 if combine SR and LR in K                    0
 Integral screening is                        0
 Integral computing path is                   2
 max size of driver memory is            800000
 size of driver memory is                593474
 size of scratch memory is              2361544
 max col of scratch BK array               1296
 max len of scratch array in speh3          155
 max len of scratch index in speh4           18
 max int batch size is                      520
 min int batch size is                       52
 fixed nKL is                                52
 max L of basis functions is                  2
 order of int derivative is                   0
 number of shells is                         53
 number of basis is                         163
 number of cartesian basis is               163
 number of contracted shell pairs          1354
 number of primitive shell pairs           4478
 maxK2 (contraction) of shell pair           36
 max number of K2 of shell pair               1
 max number of CS2 of shell pair            130
 max number of PS2 of shell pair            726
 mem total for path MDJ                  532812
 -------------------------------------------------------
 Smallest overlap matrix eigenvalue = 2.37E-05

 Scale SEOQF with 1.000000e-01/1.000000e-01/1.000000e-01

 Standard Electronic Orientation quadrupole field applied
 Nucleus-field energy     =     0.0000000058 hartrees
 Guess MOs from SCF MO coefficient file
 Reading MOs from coefficient file
 Reading MOs from coefficient file
 An unrestricted hybrid HF-DFT SCF calculation will be
 performed using Pulay DIIS extrapolation
 Exchange:     0.2000 Hartree-Fock + 0.0800 Slater + 0.7200 B88
 Correlation:  0.1900 VWN1RPA + 0.8100 LYP
 Using SG-1 standard quadrature grid
 SCF converges when DIIS error is below 1.0E-08
Using Q-Chem read-in guess as SCF_GUESS READ specified.

 using 4 threads for integral computing
 -------------------------------------------------------
 OpenMP Integral computing Module                
 Release: version 1.0, May 2013, Q-Chem Inc. Pittsburgh 
 -------------------------------------------------------
 -------------------------------------------------------
 OpenMP BLAS3 based DFT computing Module                
 Release: version 1.0, May 2013, Q-Chem Inc. Pittsburgh 
 -------------------------------------------------------
 ---------------------------------------
  Cycle       Energy         DIIS Error
 ---------------------------------------
    1    -286.7448422332      1.94E-09
    2    -286.7448422332      2.11E-09 Convergence criterion met
 ---------------------------------------
 One-Electron    Energy =  -884.5989965211
 Total Coulomb   Energy =   387.2265666948
 Alpha Exchange  Energy =    -4.0060100631
 Beta  Exchange  Energy =    -3.9119669768
 DFT   Exchange  Energy =   -31.4789939268
 DFT Correlation Energy =    -2.0890170452
 Nuclear Repu.   Energy =   252.1135756049
 Nuclear Attr.   Energy = -1168.5329146389
 Kinetic         Energy =   283.9339181179
 <S^2> = 0.7765
 SCF time:  CPU 9.79 s  wall 3.34 s
 Final Alpha MO Eigenvalues
            1           2           3           4           5           6
    1 -14.3651237 -10.2513625 -10.2465994 -10.2187931 -10.2132654 -10.2075040
            7           8           9          10          11          12
    1 -10.1940590  -0.9823752  -0.8110935  -0.7611298  -0.6835700  -0.6042244
           13          14          15          16          17          18
    1  -0.6000265  -0.5428260  -0.4975333  -0.4935050  -0.4459760  -0.4261310
           19          20          21          22          23          24
    1  -0.3893768  -0.3800701  -0.3360083  -0.3169557  -0.2518159  -0.2290395
           25          26          27          28          29          30
    1  -0.2056399  -0.0431107  -0.0216741   0.0105576   0.0140117   0.0197327
 Final Beta MO Eigenvalues
            1           2           3           4           5           6
    1 -14.3649972 -10.2490301 -10.2477013 -10.2193526 -10.2089692 -10.1986330
            7           8           9          10          11          12
    1 -10.1928978  -0.9815813  -0.8066978  -0.7528168  -0.6756662  -0.6014031
           13          14          15          16          17          18
    1  -0.5898208  -0.5379976  -0.4914812  -0.4861802  -0.4418816  -0.4164479
           19          20          21          22          23          24
    1  -0.3859131  -0.3783204  -0.3331864  -0.3136286  -0.2391163  -0.2045791
           25          26          27          28          29
    1  -0.0902787  -0.0354881  -0.0131671   0.0125755   0.0145649
 SCF   energy in the final basis set = -286.74484223
 Total energy in the final basis set = -286.74484223
 
 --------------------------------------------------------------
 
                    Orbital Energies (a.u.)
 --------------------------------------------------------------
 
 Alpha MOs
 -- Occupied --
-14.365 -10.251 -10.247 -10.219 -10.213 -10.208 -10.194  -0.982
 -0.811  -0.761  -0.684  -0.604  -0.600  -0.543  -0.498  -0.494
 -0.446  -0.426  -0.389  -0.380  -0.336  -0.317  -0.252  -0.229
 -0.206
 -- Virtual --
 -0.043  -0.022   0.011   0.014   0.020   0.035   0.044   0.047
  0.065   0.072   0.075   0.080   0.081   0.092   0.104   0.117
  0.128   0.135   0.140   0.142   0.149   0.155   0.160   0.173
  0.191   0.195   0.198   0.200   0.210   0.216   0.232   0.239
  0.245   0.258   0.268   0.282   0.306   0.311   0.322   0.336
  0.374   0.443   0.475   0.512   0.579   0.632   0.648   0.664
  0.684   0.690   0.701   0.729   0.743   0.749   0.767   0.798
  0.802   0.856   0.869   0.900   0.936   0.951   0.957   0.971
  0.990   1.023   1.031   1.047   1.075   1.120   1.149   1.167
  1.177   1.221   1.252   1.286   1.293   1.359   1.399   1.415
  1.473   1.480   1.539   1.634   1.641   1.671   1.691   1.742
  1.807   1.829   1.861   1.935   1.939   1.951   1.987   2.033
  2.040   2.075   2.111   2.172   2.218   2.248   2.306   2.346
  2.374   2.388   2.412   2.436   2.453   2.485   2.499   2.517
  2.549   2.595   2.610   2.666   2.685   2.688   2.779   2.793
  2.852   2.937   3.052   3.102   3.226   3.289   3.343   3.360
  3.492   3.704   3.776   4.169   4.269   4.385   4.469   4.579
  4.680   4.944
 
 Beta MOs
 -- Occupied --
-14.365 -10.249 -10.248 -10.219 -10.209 -10.199 -10.193  -0.982
 -0.807  -0.753  -0.676  -0.601  -0.590  -0.538  -0.491  -0.486
 -0.442  -0.416  -0.386  -0.378  -0.333  -0.314  -0.239  -0.205
 -- Virtual --
 -0.090  -0.035  -0.013   0.013   0.015   0.021   0.036   0.045
  0.048   0.065   0.073   0.075   0.083   0.084   0.095   0.104
  0.119   0.129   0.138   0.140   0.143   0.150   0.155   0.162
  0.174   0.192   0.196   0.200   0.204   0.211   0.219   0.234
  0.242   0.246   0.260   0.269   0.285   0.306   0.314   0.324
  0.338   0.382   0.452   0.477   0.519   0.580   0.640   0.653
  0.672   0.692   0.699   0.707   0.732   0.749   0.751   0.772
  0.799   0.806   0.858   0.876   0.904   0.939   0.952   0.963
  0.977   0.993   1.025   1.039   1.054   1.077   1.122   1.156
  1.170   1.179   1.225   1.255   1.288   1.299   1.362   1.401
  1.420   1.479   1.487   1.544   1.646   1.656   1.698   1.705
  1.747   1.812   1.846   1.873   1.941   1.945   1.959   1.991
  2.035   2.045   2.084   2.117   2.175   2.219   2.252   2.312
  2.351   2.377   2.393   2.418   2.438   2.455   2.488   2.503
  2.520   2.551   2.597   2.612   2.668   2.695   2.704   2.784
  2.801   2.854   2.941   3.056   3.103   3.230   3.294   3.348
  3.361   3.502   3.713   3.778   4.169   4.274   4.400   4.480
  4.581   4.683   4.946
 --------------------------------------------------------------
 
          Ground-State Mulliken Net Atomic Charges

     Atom                 Charge (a.u.)    Spin (a.u.)
  --------------------------------------------------------
      1 C                    -0.213660      -0.154536
      2 C                    -0.240179       1.048076
      3 C                    -0.159349      -0.208898
      4 C                     0.010382       0.063489
      5 C                    -0.166161      -0.047102
      6 N                    -0.145157       0.009509
      7 H                     0.173929       0.005435
      8 H                     0.146644       0.009360
      9 H                     0.138289       0.077012
     10 H                     0.119625      -0.000576
     11 H                     0.125069       0.003496
     12 C                     0.049686       0.202648
     13 H                     0.160881      -0.007914
  --------------------------------------------------------
  Sum of atomic charges =    -0.000000
  Sum of spin   charges =     1.000000

 -----------------------------------------------------------------
                    Cartesian Multipole Moments
 -----------------------------------------------------------------
    Charge (ESU x 10^10)
                -0.0000
    Dipole Moment (Debye)
         X       1.0386      Y      -0.8629      Z       0.5073
       Tot       1.4424
    Quadrupole Moments (Debye-Ang)
        XX     -36.8214     XY       2.5803     YY     -40.3378
        XZ      -2.3435     YZ       5.3172     ZZ     -42.7631
    Octopole Moments (Debye-Ang^2)
       XXX       1.6030    XXY       2.3286    XYY      -1.2473
       YYY     -19.9769    XXZ       9.1902    XYZ       4.3405
       YYZ       7.3754    XZZ      -1.7169    YZZ      -6.4318
       ZZZ       6.6576
    Hexadecapole Moments (Debye-Ang^3)
      XXXX    -383.8328   XXXY     -46.5915   XXYY    -128.0097
      XYYY     -71.1885   YYYY    -416.3491   XXXZ      72.6113
      XXYZ       5.3670   XYYZ      23.5872   YYYZ      26.9216
      XXZZ     -93.5115   XYZZ     -32.6589   YYZZ    -106.8115
      XZZZ      67.1116   YZZZ       8.0830   ZZZZ    -160.0220
 -----------------------------------------------------------------
 Mayer SCF Bond Order, atomic valence on the diagonal:

            1           2           3           4           5           6
    1   3.8715361   0.0282658  -0.0155146   0.0074510  -0.0225958   0.9180276
    2   0.0282658   3.0540374   1.9629348   0.0586147   0.1060625  -0.0456403
    3  -0.0155146   1.9629348   4.1934300   1.1553472   0.0889426   0.0596827
    4   0.0074510   0.0586147   1.1553472   3.8666687   1.8479652  -0.1195921
    5  -0.0225958   0.1060625   0.0889426   1.8479652   4.1055533   1.1343904
    6   0.9180276  -0.0456403   0.0596827  -0.1195921   1.1343904   2.5661295
    7   0.8759555  -0.0197520   0.0164544  -0.0034355   0.0034847   0.0017704
    8   0.0013879   0.8519421   0.0594246   0.0300880  -0.0004313   0.0003628
    9   0.0018542   0.0869011   0.8017001   0.0298477   0.0142762   0.0008728
   10   0.0008165   0.0111809   0.0252711   0.8356514   0.0687834   0.0095433
   11   0.0120437   0.0014704   0.0229917   0.0168532   0.9386969  -0.0504337
   12   2.0301524   0.0121997   0.0160857   0.0069957  -0.0756185   0.6621956
   13   0.0336919  -0.0001423   0.0001096   0.0008821   0.0015968  -0.0050501
            7           8           9          10          11          12
    1   0.8759555   0.0013879   0.0018542   0.0008165   0.0120437   2.0301524
    2  -0.0197520   0.8519421   0.0869011   0.0111809   0.0014704   0.0121997
    3   0.0164544   0.0594246   0.8017001   0.0252711   0.0229917   0.0160857
    4  -0.0034355   0.0300880   0.0298477   0.8356514   0.0168532   0.0069957
    5   0.0034847  -0.0004313   0.0142762   0.0687834   0.9386969  -0.0756185
    6   0.0017704   0.0003628   0.0008728   0.0095433  -0.0504337   0.6621956
    7   0.9438884   0.0001370   0.0000295  -0.0000372   0.0009630   0.0681434
    8   0.0001370   0.9520441   0.0017313   0.0015843   0.0000536   0.0057485
    9   0.0000295   0.0017313   0.9413609   0.0004805   0.0011904   0.0024630
   10  -0.0000372   0.0015843   0.0004805   0.9545271   0.0005913   0.0004609
   11   0.0009630   0.0000536   0.0011904   0.0005913   0.9473701   0.0024610
   12   0.0681434   0.0057485   0.0024630   0.0004609   0.0024610   3.6529472
   13   0.0001753   0.0000152   0.0000141   0.0002007   0.0004887   0.9216598
           13
    1   0.0336919
    2  -0.0001423
    3   0.0001096
    4   0.0008821
    5   0.0015968
    6  -0.0050501
    7   0.0001753
    8   0.0000152
    9   0.0000141
   10   0.0002007
   11   0.0004887
   12   0.9216598
   13   0.9536419


Archival summary:
1\1\c8-68\SP\ProcedureUnspecified\6-31+G**\166(2)\hpark21\WedMar213:36:302022WedMar213:36:302022\0\\#,ProcedureUnspecified,6-31+G**,\\0,2\N\C,1,1.41998\H,2,1.08912,1,110.302\C,2,1.34948,1,131.642,3,172.608,0\H,4,1.08756,2,115.242,1,-170.904,0\C,4,1.46839,2,130.251,1,8.9543,0\H,6,1.09855,4,114.359,2,-165.142,0\C,6,1.32225,4,128.583,2,17.0754,0\H,8,1.08261,6,135.906,4,177.658,0\C,1,1.49695,2,118.067,3,95.7798,0\H,10,1.07658,1,137.367,2,-79.9706,0\C,10,1.28897,1,65.1467,2,107.936,0\H,12,1.07262,10,152.925,1,147.001,0\\\@

 Total job time:  8.61s(wall), 11.71s(cpu) 
 Wed Mar  2 13:36:30 2022

        *************************************************************
        *                                                           *
        *  Thank you very much for using Q-Chem.  Have a nice day.  *
        *                                                           *
        *************************************************************


