
Running Job 1 of 1 qcopt_rct.in
qchem qcopt_rct.in_11223.0 ./qcopt_rct.d/ 1
/home/leeping/opt/qchem/5.0.2-openmp/exe/qcprog.exe_s qcopt_rct.in_11223.0 ./qcopt_rct.d/
Check license passed

                  Welcome to Q-Chem
     A Quantum Leap Into The Future Of Chemistry


 Q-Chem 5.0, Q-Chem, Inc., Pleasanton, CA (2017)

 Yihan Shao,  Zhengting Gan,  E. Epifanovsky,  A. T. B. Gilbert,  M. Wormit,  
 J. Kussmann,  A. W. Lange,  A. Behn,  Jia Deng,  Xintian Feng,  D. Ghosh,  
 M. Goldey,  P. R. Horn,  L. D. Jacobson,  I. Kaliman,  T. Kus,  A. Landau,  
 Jie Liu,  E. I. Proynov,  R. M. Richard,  R. P. Steele,  E. J. Sundstrom,  
 H. L. Woodcock III,  P. M. Zimmerman,  D. Zuev,  B. Albrecht,  E. Alguire,  
 S. A. Baeppler,  D. Barton,  Z. Benda,  Y. A. Bernard,  E. J. Berquist,  
 K. B. Bravaya,  H. Burton,  D. Casanova,  Chun-Min Chang,  Yunqing Chen,  
 A. Chien,  K. D. Closser,  M. P. Coons,  S. Dasgupta,  A. L. Dempwolff,  
 M. Diedenhofen,  Hainam Do,  R. G. Edgar,  Po-Tung Fang,  S. Fatehi,  
 Qingguo Feng,  J. Fosso-Tande,  Qinghui Ge,  A. Ghysels,  G. Gidofalvi,  
 J. Gomes,  J. Gonthier,  A. Gunina,  M. W. D. Hanson-Heine,  
 P. H. P. Harbach,  A. W. Hauser,  J. E. Herr,  E. G. Hohenstein,  
 Z. C. Holden,  Kerwin Hui,  T.-C. Jagau,  Hyunjun Ji,  B. Kaduk,  
 K. Khistyaev,  Jaehoon Kim,  P. Klunzinger,  K. Koh,  D. Kosenkov,  
 L. Koulias,  T. Kowalczyk,  C. M. Krauter,  A. Kunitsa,  Ka Un Lao,  
 A. Laurent,  K. V. Lawler,  Joonho Lee,  D. Lefrancois,  S. Lehtola,  
 D. S. Levine,  Yi-Pei Li,  You-Sheng Lin,  Fenglai Liu,  E. Livshits,  
 A. Luenser,  P. Manohar,  E. Mansoor,  S. F. Manzer,  Shan-Ping Mao,  
 Yuezhi Mao,  N. Mardirossian,  A. V. Marenich,  T. Markovich,  
 L. A. Martinez-Martinez,  S. A. Maurer,  N. J. Mayhall,  S. C. McKenzie,  
 J.-M. Mewes,  A. F. Morrison,  J. W. Mullinax,  K. Nanda,  
 T. S. Nguyen-Beck,  R. Olivares-Amaya,  J. A. Parkhill,  T. M. Perrine,  
 F. Plasser,  S. Prager,  A. Prociuk,  E. Ramos,  D. R. Rehn,  F. Rob,  
 M. Schneider,  N. Sergueev,  S. M. Sharada,  S. Sharma,  D. W. Small,  
 T. Stauch,  T. Stein,  Yu-Chuan Su,  A. J. W. Thom,  A. Tkatchenko,  
 T. Tsuchimochi,  L. Vogt,  O. Vydrov,  M. A. Watson,  J. Wenzel,  
 M. de Wergifosse,  T. A. Wesolowski,  A. White,  J. Witte,  A. Yamada,  
 Jun Yang,  K. Yao,  S. Yeganeh,  S. R. Yost,  Zhi-Qiang You,  A. Zech,  
 Igor Ying Zhang,  Xing Zhang,  Yan Zhao,  Ying Zhu,  B. R. Brooks,  
 G. K. L. Chan,  C. J. Cramer,  M. S. Gordon,  W. J. Hehre,  A. Klamt,  
 M. W. Schmidt,  C. D. Sherrill,  D. G. Truhlar,  A. Aspuru-Guzik,  R. Baer,  
 A. T. Bell,  N. A. Besley,  Jeng-Da Chai,  R. A. DiStasio Jr.,  A. Dreuw,  
 B. D. Dunietz,  T. R. Furlani,  Chao-Ping Hsu,  Yousung Jung,  Jing Kong,  
 D. S. Lambrecht,  WanZhen Liang,  C. Ochsenfeld,  V. A. Rassolov,  
 L. V. Slipchenko,  J. E. Subotnik,  T. Van Voorhis,  J. M. Herbert,  
 A. I. Krylov,  P. M. W. Gill,  M. Head-Gordon

 Contributors to earlier versions of Q-Chem not listed above: 
 R. D. Adamson,  B. Austin,  J. Baker,  G. J. O. Beran,  K. Brandhorst,  
 S. T. Brown,  E. F. C. Byrd,  A. K. Chakraborty,  C.-L. Cheng,  
 Siu Hung Chien,  D. M. Chipman,  D. L. Crittenden,  H. Dachsel,  
 R. J. Doerksen,  A. D. Dutoi,  L. Fusti-Molnar,  W. A. Goddard III,  
 A. Golubeva-Zadorozhnaya,  S. R. Gwaltney,  G. Hawkins,  A. Heyden,  
 S. Hirata,  G. Kedziora,  F. J. Keil,  C. Kelley,  Jihan Kim,  R. A. King,  
 R. Z. Khaliullin,  P. P. Korambath,  W. Kurlancheek,  A. M. Lee,  M. S. Lee,  
 S. V. Levchenko,  Ching Yeh Lin,  D. Liotard,  R. C. Lochan,  I. Lotan,  
 P. E. Maslen,  N. Nair,  D. P. O'Neill,  D. Neuhauser,  E. Neuscamman,  
 C. M. Oana,  R. Olson,  B. Peters,  R. Peverati,  P. A. Pieniazek,  
 Y. M. Rhee,  J. Ritchie,  M. A. Rohrdanz,  E. Rosta,  N. J. Russ,  
 H. F. Schaefer III,  N. E. Schultz,  N. Shenvi,  A. C. Simmonett,  A. Sodt,  
 D. Stuck,  K. S. Thanthiriwatte,  V. Vanovschi,  Tao Wang,  A. Warshel,  
 C. F. Williams,  Q. Wu,  X. Xu,  W. Zhang

 Please cite Q-Chem as follows:
 Y. Shao et al., Mol. Phys. 113, 184-215 (2015)
 DOI: 10.1080/00268976.2014.952696

 Q-Chem 5.0.2 for Intel X86 EM64T Linux

 Parts of Q-Chem use Armadillo 5.200.1 (Boston Tea Smuggler).
 http://arma.sourceforge.net/

 Q-Chem begins on Tue Mar  1 19:15:47 2022  

Host: 
0

     Scratch files written to ./qcopt_rct.d//
 Dec517 15110_ 26548  26544 5633   
Processing $rem in /home/leeping/opt/qchem/5.0.2-openmp/config/preferences.
 MEM_STATIC 2000
 MEM_TOTAL  8000
 SYMMETRY   OFF
 SYM_IGNORE TRUE 

Checking the input file for inconsistencies... 	...done.

--------------------------------------------------------------
User input:
--------------------------------------------------------------
$molecule
0 2
C        1.3391982006    0.8949661606   -0.5132029640
C        0.2986262970   -1.4060198555   -0.2409339399
C       -0.9094341894   -1.0965453261    0.3087215996
C       -1.4023215397    0.2190729393    0.6293318866
C       -0.7723250425    1.4351560426    0.4481363436
N        0.4355386852    1.7898203683   -0.0521552341
H        2.2496294514    1.3812045761   -0.8709498022
H        0.5110239971   -2.4584455753   -0.4185099411
H       -1.5814082475   -1.9223273493    0.5336194848
H       -2.3961128600    0.2657600052    1.0682431779
H       -1.3513514400    2.3037290084    0.7693430691
C        1.3396267696   -0.4842078085   -0.6180921256
H        2.2393099178   -0.9221631860   -1.0435515545
$end

$rem
method                b3lyp
basis                 6-31g(d)
unrestricted          true
symmetry              off
sym_ignore            true
incdft                false
incfock               0
scf_convergence       8
thresh                14
jobtype               opt
scf_guess             core
scf_guess_mix         5
scf_algorithm         diis
max_scf_cycles        100
geom_opt_max_cycles   300
$end

--------------------------------------------------------------
 ----------------------------------------------------------------
             Standard Nuclear Orientation (Angstroms)
    I     Atom           X                Y                Z
 ----------------------------------------------------------------
    1      C       1.3391982006     0.8949661606    -0.5132029640
    2      C       0.2986262970    -1.4060198555    -0.2409339399
    3      C      -0.9094341894    -1.0965453261     0.3087215996
    4      C      -1.4023215397     0.2190729393     0.6293318866
    5      C      -0.7723250425     1.4351560426     0.4481363436
    6      N       0.4355386852     1.7898203683    -0.0521552341
    7      H       2.2496294514     1.3812045761    -0.8709498022
    8      H       0.5110239971    -2.4584455753    -0.4185099411
    9      H      -1.5814082475    -1.9223273493     0.5336194848
   10      H      -2.3961128600     0.2657600052     1.0682431779
   11      H      -1.3513514400     2.3037290084     0.7693430691
   12      C       1.3396267696    -0.4842078085    -0.6180921256
   13      H       2.2393099178    -0.9221631860    -1.0435515545
 ----------------------------------------------------------------
 Nuclear Repulsion Energy =   260.7183613567 hartrees
 There are       25 alpha and       24 beta electrons
 Requested basis set is 6-31G(d)
 There are 40 shells and 117 basis functions

 Total QAlloc Memory Limit   8000 MB
 Mega-Array Size      1956 MB
 MEM_STATIC part      2000 MB
 A cutoff of  1.0D-14 yielded    791 shell pairs
 There are      7063 function pairs
 
 -------------------------------------------------------
 OpenMP Integral Computing Module                       
 Release: version 1.0, May 2013, Q-Chem Inc. Pittsburgh 
 -------------------------------------------------------
 Integral Job Info:
 Integral job number is                      11
 Integral operator is                         1
 short-range coefficients                     0
 long-range coefficients              100000000
 Omega coefficients                           0
 if combine SR and LR in K                    0
 Integral screening is                        0
 Integral computing path is                   2
 max size of driver memory is            800000
 size of driver memory is                593474
 size of scratch memory is              2361544
 max col of scratch BK array               1296
 max len of scratch array in speh3          155
 max len of scratch index in speh4           18
 max int batch size is                      520
 min int batch size is                       52
 fixed nKL is                                52
 max L of basis functions is                  2
 order of int derivative is                   0
 number of shells is                         40
 number of basis is                         117
 number of cartesian basis is               117
 number of contracted shell pairs           791
 number of primitive shell pairs           3395
 maxK2 (contraction) of shell pair           36
 max number of K2 of shell pair               1
 max number of CS2 of shell pair             94
 max number of PS2 of shell pair            402
 mem total for path MDJ                  535308
 -------------------------------------------------------
 Smallest overlap matrix eigenvalue = 1.33E-03

 Scale SEOQF with 1.000000e-01/1.000000e-01/1.000000e+00

 Standard Electronic Orientation quadrupole field applied
 Nucleus-field energy     =    -0.0000000054 hartrees
 Guess MOs from core Hamiltonian diagonalization
 Mixing HOMO and LUMO in initial guess
 Adding  50% of the LUMO to the HOMO
 An unrestricted hybrid HF-DFT SCF calculation will be
 performed using Pulay DIIS extrapolation
 Exchange:     0.2000 Hartree-Fock + 0.0800 Slater + 0.7200 B88
 Correlation:  0.1900 VWN1RPA + 0.8100 LYP
 Using SG-1 standard quadrature grid
 SCF converges when DIIS error is below 1.0E-08
 using 4 threads for integral computing
 -------------------------------------------------------
 OpenMP Integral computing Module                
 Release: version 1.0, May 2013, Q-Chem Inc. Pittsburgh 
 -------------------------------------------------------
 -------------------------------------------------------
 OpenMP BLAS3 based DFT computing Module                
 Release: version 1.0, May 2013, Q-Chem Inc. Pittsburgh 
 -------------------------------------------------------
 ---------------------------------------
  Cycle       Energy         DIIS Error
 ---------------------------------------
    1    -239.4887146837      1.26E-01
    2    -227.9153082782      1.03E-01
    3    -250.2485350048      1.03E-01
    4    -281.9109122472      4.85E-02
    5    -282.4448770514      4.74E-02
    6    -285.5257232195      2.31E-02
    7    -286.6132052869      1.25E-02
    8    -286.8603785162      4.96E-03
    9    -286.9209668824      9.11E-04
   10    -286.9228851619      7.59E-04
   11    -286.9239649090      2.12E-04
   12    -286.9241442927      1.21E-04
   13    -286.9242448231      5.71E-05
   14    -286.9243287449      1.21E-05
   15    -286.9243379155      6.90E-06
   16    -286.9243396332      3.13E-06
   17    -286.9243408063      1.12E-06
   18    -286.9243408839      5.93E-07
   19    -286.9243409149      5.46E-07
   20    -286.9243409276      2.36E-07
   21    -286.9243409343      8.01E-08
   22    -286.9243409348      1.38E-08
   23    -286.9243409348      3.95E-09 Convergence criterion met
 ---------------------------------------
 <S^2> = 0.7684
 SCF time:  CPU 58.51 s  wall 42.06 s
 SCF   energy in the final basis set = -286.92434093
 Total energy in the final basis set = -286.92434093
 
 --------------------------------------------------------------
 
                    Orbital Energies (a.u.)
 --------------------------------------------------------------
 
 Alpha MOs
 -- Occupied --
-14.322 -10.232 -10.232 -10.212 -10.211 -10.201 -10.201  -0.922
 -0.818  -0.784  -0.693  -0.667  -0.551  -0.537  -0.518  -0.449
 -0.439  -0.414  -0.394  -0.387  -0.349  -0.322  -0.299  -0.251
 -0.162
 -- Virtual --
 -0.072   0.077   0.097   0.101   0.117   0.142   0.181   0.184
  0.193   0.213   0.266   0.319   0.356   0.390   0.412   0.483
  0.496   0.521   0.547   0.576   0.584   0.587   0.591   0.610
  0.619   0.624   0.646   0.658   0.713   0.718   0.833   0.840
  0.847   0.854   0.868   0.872   0.885   0.922   0.965   0.975
  1.024   1.027   1.043   1.127   1.177   1.185   1.300   1.303
  1.326   1.402   1.429   1.480   1.482   1.546   1.574   1.586
  1.682   1.732   1.769   1.829   1.850   1.919   1.925   2.030
  2.046   2.048   2.100   2.141   2.142   2.191   2.247   2.391
  2.410   2.414   2.446   2.545   2.577   2.600   2.614   2.739
  2.748   2.808   3.052   3.249   3.250   4.018   4.046   4.102
  4.196   4.239   4.532   4.595
 
 Beta MOs
 -- Occupied --
-14.314 -10.234 -10.233 -10.210 -10.210 -10.196 -10.196  -0.911
 -0.809  -0.777  -0.681  -0.665  -0.546  -0.534  -0.514  -0.447
 -0.438  -0.411  -0.383  -0.373  -0.348  -0.295  -0.276  -0.242
 -- Virtual --
 -0.078  -0.070   0.078   0.118   0.124   0.125   0.142   0.182
  0.187   0.196   0.219   0.268   0.324   0.360   0.392   0.415
  0.486   0.505   0.525   0.551   0.587   0.588   0.592   0.596
  0.614   0.624   0.629   0.649   0.676   0.715   0.729   0.834
  0.843   0.846   0.869   0.875   0.880   0.887   0.925   0.967
  0.979   1.026   1.030   1.045   1.133   1.180   1.189   1.311
  1.315   1.333   1.411   1.429   1.489   1.492   1.560   1.582
  1.597   1.685   1.736   1.781   1.831   1.854   1.922   1.933
  2.036   2.058   2.061   2.110   2.141   2.147   2.203   2.259
  2.399   2.422   2.426   2.448   2.558   2.578   2.611   2.624
  2.742   2.761   2.810   3.054   3.252   3.254   4.030   4.053
  4.109   4.200   4.239   4.537   4.601
 --------------------------------------------------------------
 
          Ground-State Mulliken Net Atomic Charges

     Atom                 Charge (a.u.)    Spin (a.u.)
  --------------------------------------------------------
      1 C                     0.035908      -0.115255
      2 C                    -0.110763       0.088429
      3 C                    -0.111782       0.098960
      4 C                    -0.130783       0.342583
      5 C                     0.034832      -0.110084
      6 N                    -0.423164       0.386966
      7 H                     0.142598       0.003533
      8 H                     0.142015      -0.006381
      9 H                     0.141903      -0.006886
     10 H                     0.134393      -0.018128
     11 H                     0.142628       0.003280
     12 C                    -0.132109       0.351530
     13 H                     0.134323      -0.018547
  --------------------------------------------------------
  Sum of atomic charges =    -0.000000
  Sum of spin   charges =     1.000000

 -----------------------------------------------------------------
                    Cartesian Multipole Moments
 -----------------------------------------------------------------
    Charge (ESU x 10^10)
                -0.0000
    Dipole Moment (Debye)
         X      -0.5297      Y      -2.1794      Z       0.0618
       Tot       2.2437
    Quadrupole Moments (Debye-Ang)
        XX     -36.1704     XY      -1.5887     YY     -41.9510
        XZ      -3.2541     YZ       0.8225     ZZ     -41.8795
    Octopole Moments (Debye-Ang^2)
       XXX      -3.3993    XXY      -5.6746    XYY      -7.1888
       YYY     -37.7058    XXZ      -0.1900    XYZ      -0.5335
       YYZ       1.1095    XZZ      -1.3194    YZZ      -5.5521
       ZZZ       0.4745
    Hexadecapole Moments (Debye-Ang^3)
      XXXX    -328.9655   XXXY      -2.4238   XXYY    -118.0970
      XYYY     -21.2295   YYYY    -431.4765   XXXZ      50.5034
      XXYZ      -4.2415   XYYZ      14.8371   YYYZ      -5.3734
      XXZZ     -71.9133   XYZZ      -2.6728   YYZZ     -87.1007
      XZZZ      68.7040   YZZZ     -12.4011   ZZZZ    -107.2178
 -----------------------------------------------------------------
 Calculating analytic gradient of the SCF energy
 Gradient of SCF Energy
            1           2           3           4           5           6
    1  -0.0001743  -0.0002865   0.0000684   0.0001047  -0.0003005   0.0002952
    2   0.0003100  -0.0000386  -0.0000427   0.0000690  -0.0001362   0.0000221
    3  -0.0000407   0.0000183  -0.0000276   0.0000498  -0.0000596  -0.0001097
            7           8           9          10          11          12
    1   0.0000387   0.0000420  -0.0000144  -0.0000183   0.0000434   0.0002103
    2   0.0000038  -0.0000006   0.0000088   0.0000151  -0.0000107  -0.0003003
    3   0.0000320  -0.0000226  -0.0000285   0.0000086   0.0000334   0.0002150
           13
    1  -0.0000086
    2   0.0001003
    3  -0.0000684
 Max gradient component =       3.100E-04
 RMS gradient           =       1.296E-04
 Gradient time:  CPU 7.58 s  wall 4.12 s
 Geometry Optimization Parameters
   NAtoms,    NIC,     NZ,  NCons,   NDum,   NFix, NCnnct, MaxDiis
       13      82       0       0       0       0       0       0


** GEOMETRY OPTIMIZATION IN DELOCALIZED INTERNAL COORDINATES **
   Searching for a Minimum

   Optimization Cycle:   1

                       Coordinates (Angstroms)
     ATOM                X               Y               Z
      1  C         1.3391982006    0.8949661606   -0.5132029640
      2  C         0.2986262970   -1.4060198555   -0.2409339399
      3  C        -0.9094341894   -1.0965453261    0.3087215996
      4  C        -1.4023215397    0.2190729393    0.6293318866
      5  C        -0.7723250425    1.4351560426    0.4481363436
      6  N         0.4355386852    1.7898203683   -0.0521552341
      7  H         2.2496294514    1.3812045761   -0.8709498022
      8  H         0.5110239971   -2.4584455753   -0.4185099411
      9  H        -1.5814082475   -1.9223273493    0.5336194848
     10  H        -2.3961128600    0.2657600052    1.0682431779
     11  H        -1.3513514400    2.3037290084    0.7693430691
     12  C         1.3396267696   -0.4842078085   -0.6180921256
     13  H         2.2393099178   -0.9221631860   -1.0435515545
   Point Group: c1    Number of degrees of freedom:    33


   Energy is   -286.924340935


 Attempting to Generate Delocalized Internal Coordinates

 33 Hessian modes will be used to form the next step
  Hessian Eigenvalues:
     0.018543    0.019870    0.020866    0.021841    0.022020    0.022691
     0.023097    0.023771    0.024009    0.025345    0.159998    0.160000
     0.160000    0.160000    0.160000    0.160000    0.219999    0.219999
     0.220000    0.233946    0.345390    0.345615    0.350179    0.350287
     0.351146    0.351250    0.382424    0.389522    0.466836    0.484490
     0.507187    0.533640    0.538881

 Minimum Search - Taking Simple RFO Step
 Searching for Lamda that Minimizes Along All modes
 Value Taken    Lamda =  -0.00000180
 Step Taken.  Stepsize is  0.008019

                             Maximum     Tolerance    Cnvgd?
         Gradient           0.000202      0.000300     YES
         Displacement       0.004190      0.001200      NO
         Energy change     *********      0.000001      NO


 New Cartesian Coordinates Obtained by Inverse Iteration

 Displacement from previous Coordinates is:  0.005474
 ----------------------------------------------------------------
             Standard Nuclear Orientation (Angstroms)
    I     Atom           X                Y                Z
 ----------------------------------------------------------------
    1      C       1.3393483961     0.8948266773    -0.5129563883
    2      C       0.2988286341    -1.4057968142    -0.2410157092
    3      C      -0.9092744615    -1.0964131661     0.3087977658
    4      C      -1.4025453050     0.2191269791     0.6289893221
    5      C      -0.7719712487     1.4351836369     0.4490174965
    6      N       0.4358955383     1.7895997052    -0.0509182057
    7      H       2.2495165303     1.3811631705    -0.8711293942
    8      H       0.5111977024    -2.4583094406    -0.4179942840
    9      H      -1.5808473124    -1.9223572261     0.5343250978
   10      H      -2.3966321372     0.2656924103     1.0671657713
   11      H      -1.3516165464     2.3038603432     0.7689373472
   12      C       1.3390917368    -0.4839680887    -0.6194401010
   13      H       2.2390084729    -0.9226081872    -1.0437787182
 ----------------------------------------------------------------
 Nuclear Repulsion Energy =   260.7262949834 hartrees
 There are       25 alpha and       24 beta electrons
 Applying Cartesian multipole field
    Component          Value
    ---------          -----
     (2,0,0)        1.00000E-11
     (0,2,0)        2.00000E-11
     (0,0,2)       -3.00000E-10
 Nucleus-field energy     =    -0.0000000055 hartrees
 Requested basis set is 6-31G(d)
 There are 40 shells and 117 basis functions
 A cutoff of  1.0D-14 yielded    791 shell pairs
 There are      7063 function pairs
 Smallest overlap matrix eigenvalue = 1.33E-03
 Guess MOs from SCF MO coefficient file
 Reading MOs from coefficient file
 Mixing HOMO and LUMO in initial guess
 Adding  50% of the LUMO to the HOMO
 Reading MOs from coefficient file
 An unrestricted hybrid HF-DFT SCF calculation will be
 performed using Pulay DIIS extrapolation
 Exchange:     0.2000 Hartree-Fock + 0.0800 Slater + 0.7200 B88
 Correlation:  0.1900 VWN1RPA + 0.8100 LYP
 Using SG-1 standard quadrature grid
 SCF converges when DIIS error is below 1.0E-08
 Geometry optimization detected.  Setting ReadMinima to 0
 Setting SaveMinima to 0
 using 4 threads for integral computing
 -------------------------------------------------------
 OpenMP Integral computing Module                
 Release: version 1.0, May 2013, Q-Chem Inc. Pittsburgh 
 -------------------------------------------------------
 -------------------------------------------------------
 OpenMP BLAS3 based DFT computing Module                
 Release: version 1.0, May 2013, Q-Chem Inc. Pittsburgh 
 -------------------------------------------------------
 ---------------------------------------
  Cycle       Energy         DIIS Error
 ---------------------------------------
    1    -286.9146000295      1.13E-03
    2    -286.9159348657      2.08E-03
    3    -286.9227058519      3.74E-04
    4    -286.9231626719      3.02E-04
    5    -286.9235946510      2.02E-04
    6    -286.9240605397      7.99E-05
    7    -286.9241642550      4.05E-05
    8    -286.9242870147      2.11E-05
    9    -286.9243158094      1.31E-05
   10    -286.9243391584      3.43E-06
   11    -286.9243414942      2.11E-06
   12    -286.9243419351      1.12E-06
   13    -286.9243419907      4.39E-07
   14    -286.9243420099      1.90E-07
   15    -286.9243420138      7.33E-08
   16    -286.9243420141      3.80E-08
   17    -286.9243420142      1.68E-08
   18    -286.9243420142      2.98E-09 Convergence criterion met
 ---------------------------------------
 <S^2> = 0.7684
 SCF time:  CPU 45.84 s  wall 40.71 s
 SCF   energy in the final basis set = -286.92434201
 Total energy in the final basis set = -286.92434201
 
 --------------------------------------------------------------
 
                    Orbital Energies (a.u.)
 --------------------------------------------------------------
 
 Alpha MOs
 -- Occupied --
-14.322 -10.232 -10.232 -10.212 -10.211 -10.201 -10.200  -0.922
 -0.818  -0.784  -0.693  -0.667  -0.551  -0.537  -0.518  -0.449
 -0.439  -0.414  -0.394  -0.387  -0.349  -0.322  -0.299  -0.251
 -0.162
 -- Virtual --
 -0.072   0.077   0.097   0.101   0.117   0.142   0.181   0.184
  0.193   0.213   0.266   0.320   0.356   0.390   0.412   0.483
  0.496   0.521   0.547   0.576   0.584   0.587   0.591   0.610
  0.619   0.624   0.646   0.658   0.713   0.718   0.833   0.840
  0.847   0.854   0.868   0.872   0.885   0.922   0.965   0.975
  1.024   1.027   1.043   1.127   1.177   1.185   1.300   1.303
  1.326   1.401   1.429   1.480   1.482   1.546   1.574   1.586
  1.682   1.732   1.769   1.829   1.850   1.919   1.925   2.030
  2.046   2.048   2.100   2.141   2.142   2.191   2.247   2.391
  2.410   2.415   2.446   2.545   2.577   2.601   2.614   2.739
  2.748   2.808   3.052   3.249   3.251   4.018   4.046   4.102
  4.196   4.239   4.532   4.595
 
 Beta MOs
 -- Occupied --
-14.314 -10.234 -10.233 -10.210 -10.210 -10.196 -10.196  -0.911
 -0.809  -0.777  -0.681  -0.665  -0.546  -0.535  -0.514  -0.447
 -0.438  -0.411  -0.383  -0.373  -0.348  -0.295  -0.276  -0.241
 -- Virtual --
 -0.078  -0.070   0.078   0.118   0.124   0.125   0.142   0.182
  0.187   0.196   0.219   0.268   0.324   0.360   0.393   0.415
  0.486   0.505   0.525   0.551   0.587   0.588   0.592   0.596
  0.614   0.624   0.629   0.649   0.676   0.716   0.729   0.834
  0.843   0.846   0.869   0.875   0.880   0.887   0.925   0.967
  0.979   1.026   1.030   1.045   1.133   1.180   1.189   1.311
  1.315   1.333   1.411   1.429   1.489   1.492   1.560   1.582
  1.597   1.685   1.737   1.781   1.831   1.854   1.922   1.933
  2.036   2.058   2.061   2.110   2.141   2.147   2.203   2.259
  2.399   2.422   2.426   2.448   2.558   2.579   2.611   2.624
  2.742   2.761   2.810   3.054   3.252   3.254   4.030   4.053
  4.109   4.200   4.239   4.537   4.601
 --------------------------------------------------------------
 
          Ground-State Mulliken Net Atomic Charges

     Atom                 Charge (a.u.)    Spin (a.u.)
  --------------------------------------------------------
      1 C                     0.035831      -0.114776
      2 C                    -0.110840       0.089255
      3 C                    -0.111733       0.098200
      4 C                    -0.130876       0.343294
      5 C                     0.034959      -0.110462
      6 N                    -0.423210       0.386979
      7 H                     0.142609       0.003509
      8 H                     0.141990      -0.006421
      9 H                     0.141900      -0.006850
     10 H                     0.134376      -0.018161
     11 H                     0.142629       0.003297
     12 C                    -0.131961       0.350641
     13 H                     0.134325      -0.018505
  --------------------------------------------------------
  Sum of atomic charges =     0.000000
  Sum of spin   charges =     1.000000

 -----------------------------------------------------------------
                    Cartesian Multipole Moments
 -----------------------------------------------------------------
    Charge (ESU x 10^10)
                 0.0000
    Dipole Moment (Debye)
         X      -0.5299      Y      -2.1793      Z       0.0614
       Tot       2.2437
    Quadrupole Moments (Debye-Ang)
        XX     -36.1696     XY      -1.5927     YY     -41.9487
        XZ      -3.2524     YZ       0.8155     ZZ     -41.8817
    Octopole Moments (Debye-Ang^2)
       XXX      -3.4060    XXY      -5.6785    XYY      -7.1939
       YYY     -37.7031    XXZ      -0.1932    XYZ      -0.5351
       YYZ       1.0967    XZZ      -1.3200    YZZ      -5.5534
       ZZZ       0.4663
    Hexadecapole Moments (Debye-Ang^3)
      XXXX    -328.9226   XXXY      -2.4524   XXYY    -118.0791
      XYYY     -21.2541   YYYY    -431.3975   XXXZ      50.5281
      XXYZ      -4.2678   XYYZ      14.8328   YYYZ      -5.4816
      XXZZ     -71.9277   XYZZ      -2.6702   YYZZ     -87.0976
      XZZZ      68.7279   YZZZ     -12.4692   ZZZZ    -107.2760
 -----------------------------------------------------------------
 Calculating analytic gradient of the SCF energy
 Gradient of SCF Energy
            1           2           3           4           5           6
    1  -0.0001259  -0.0000236   0.0000080   0.0000679  -0.0001731   0.0002165
    2   0.0001914   0.0000385  -0.0000445   0.0001050  -0.0001223  -0.0000288
    3   0.0000541  -0.0000106  -0.0000296  -0.0000030   0.0001440  -0.0001370
            7           8           9          10          11          12
    1   0.0000112   0.0000129  -0.0000117  -0.0000024  -0.0000085   0.0000194
    2  -0.0000137   0.0000035   0.0000056   0.0000028   0.0000032  -0.0001561
    3  -0.0000037  -0.0000106  -0.0000222  -0.0000018  -0.0000460   0.0000468
           13
    1   0.0000091
    2   0.0000152
    3   0.0000195
 Max gradient component =       2.165E-04
 RMS gradient           =       7.835E-05
 Gradient time:  CPU 7.19 s  wall 2.34 s
 Geometry Optimization Parameters
   NAtoms,    NIC,     NZ,  NCons,   NDum,   NFix, NCnnct, MaxDiis
       13      82       0       0       0       0       0       0

 Cartesian Hessian Update
 Hessian Updated using BFGS Update


** GEOMETRY OPTIMIZATION IN DELOCALIZED INTERNAL COORDINATES **
   Searching for a Minimum

   Optimization Cycle:   2

                       Coordinates (Angstroms)
     ATOM                X               Y               Z
      1  C         1.3393483961    0.8948266773   -0.5129563883
      2  C         0.2988286341   -1.4057968142   -0.2410157092
      3  C        -0.9092744615   -1.0964131661    0.3087977658
      4  C        -1.4025453050    0.2191269791    0.6289893221
      5  C        -0.7719712487    1.4351836369    0.4490174965
      6  N         0.4358955383    1.7895997052   -0.0509182057
      7  H         2.2495165303    1.3811631705   -0.8711293942
      8  H         0.5111977024   -2.4583094406   -0.4179942840
      9  H        -1.5808473124   -1.9223572261    0.5343250978
     10  H        -2.3966321372    0.2656924103    1.0671657713
     11  H        -1.3516165464    2.3038603432    0.7689373472
     12  C         1.3390917368   -0.4839680887   -0.6194401010
     13  H         2.2390084729   -0.9226081872   -1.0437787182
   Point Group: c1    Number of degrees of freedom:    33


   Energy is   -286.924342014

 Hessian Updated using BFGS Update

 30 Hessian modes will be used to form the next step
  Hessian Eigenvalues:
     0.012371    0.019881    0.020193    0.021765    0.021987    0.022708
     0.023115    0.023768    0.025168    0.033611    0.154347    0.160000
     0.161527    0.219537    0.220000    0.220194    0.232268    0.345161
     0.345530    0.350159    0.350281    0.351002    0.351202    0.386104
     0.392314    0.442788    0.484980    0.503536    0.519161    0.534274

 Minimum Search - Taking Simple RFO Step
 Searching for Lamda that Minimizes Along All modes
 Value Taken    Lamda =   0.00000000
 Step Taken.  Stepsize is  0.006149

                             Maximum     Tolerance    Cnvgd?
         Gradient           0.000131      0.000300     YES
         Displacement       0.004051      0.001200      NO
         Energy change     -0.000001      0.000001      NO


 New Cartesian Coordinates Obtained by Inverse Iteration

 Displacement from previous Coordinates is:  0.005825
 ----------------------------------------------------------------
             Standard Nuclear Orientation (Angstroms)
    I     Atom           X                Y                Z
 ----------------------------------------------------------------
    1      C       1.3395490851     0.8947094440    -0.5127749546
    2      C       0.2989461656    -1.4056986771    -0.2409666029
    3      C      -0.9091642169    -1.0963424901     0.3089704339
    4      C      -1.4029826532     0.2191536682     0.6281938981
    5      C      -0.7719831603     1.4352510770     0.4488347516
    6      N       0.4361745857     1.7894371059    -0.0498861750
    7      H       2.2497103551     1.3812114973    -0.8706793694
    8      H       0.5113953700    -2.4583136581    -0.4171916891
    9      H      -1.5802336948    -1.9224424741     0.5354467353
   10      H      -2.3972359443     0.2656751257     1.0659647182
   11      H      -1.3513944638     2.3038717213     0.7694081809
   12      C       1.3387056676    -0.4837671890    -0.6205212429
   13      H       2.2385129037    -0.9227451512    -1.0447986839
 ----------------------------------------------------------------
 Nuclear Repulsion Energy =   260.7288461370 hartrees
 There are       25 alpha and       24 beta electrons
 Applying Cartesian multipole field
    Component          Value
    ---------          -----
     (2,0,0)        1.00000E-11
     (0,2,0)        2.00000E-11
     (0,0,2)       -3.00000E-10
 Nucleus-field energy     =    -0.0000000055 hartrees
 Requested basis set is 6-31G(d)
 There are 40 shells and 117 basis functions
 A cutoff of  1.0D-14 yielded    791 shell pairs
 There are      7063 function pairs
 Smallest overlap matrix eigenvalue = 1.33E-03
 Guess MOs from SCF MO coefficient file
 Reading MOs from coefficient file
 Mixing HOMO and LUMO in initial guess
 Adding  50% of the LUMO to the HOMO
 Reading MOs from coefficient file
 An unrestricted hybrid HF-DFT SCF calculation will be
 performed using Pulay DIIS extrapolation
 Exchange:     0.2000 Hartree-Fock + 0.0800 Slater + 0.7200 B88
 Correlation:  0.1900 VWN1RPA + 0.8100 LYP
 Using SG-1 standard quadrature grid
 SCF converges when DIIS error is below 1.0E-08
 Geometry optimization detected.  Setting ReadMinima to 0
 Setting SaveMinima to 0
 using 4 threads for integral computing
 -------------------------------------------------------
 OpenMP Integral computing Module                
 Release: version 1.0, May 2013, Q-Chem Inc. Pittsburgh 
 -------------------------------------------------------
 -------------------------------------------------------
 OpenMP BLAS3 based DFT computing Module                
 Release: version 1.0, May 2013, Q-Chem Inc. Pittsburgh 
 -------------------------------------------------------
 ---------------------------------------
  Cycle       Energy         DIIS Error
 ---------------------------------------
    1    -286.9144564210      1.13E-03
    2    -286.9159178559      2.08E-03
    3    -286.9227013648      3.75E-04
    4    -286.9231584301      3.02E-04
    5    -286.9235920074      2.02E-04
    6    -286.9240599441      8.00E-05
    7    -286.9241642094      4.05E-05
    8    -286.9242872763      2.12E-05
    9    -286.9243162033      1.31E-05
   10    -286.9243395685      3.43E-06
   11    -286.9243419111      2.10E-06
   12    -286.9243423555      1.13E-06
   13    -286.9243424114      4.48E-07
   14    -286.9243424309      1.92E-07
   15    -286.9243424350      7.42E-08
   16    -286.9243424353      3.86E-08
   17    -286.9243424354      1.66E-08
   18    -286.9243424354      2.95E-09 Convergence criterion met
 ---------------------------------------
 <S^2> = 0.7684
 SCF time:  CPU 45.67 s  wall 46.40 s
 SCF   energy in the final basis set = -286.92434244
 Total energy in the final basis set = -286.92434244
 
 --------------------------------------------------------------
 
                    Orbital Energies (a.u.)
 --------------------------------------------------------------
 
 Alpha MOs
 -- Occupied --
-14.322 -10.232 -10.232 -10.212 -10.211 -10.201 -10.200  -0.922
 -0.818  -0.784  -0.693  -0.667  -0.551  -0.537  -0.518  -0.449
 -0.439  -0.414  -0.394  -0.386  -0.349  -0.322  -0.299  -0.251
 -0.162
 -- Virtual --
 -0.072   0.077   0.097   0.101   0.117   0.142   0.181   0.184
  0.193   0.213   0.266   0.320   0.356   0.390   0.412   0.483
  0.496   0.521   0.547   0.576   0.584   0.587   0.591   0.610
  0.619   0.624   0.646   0.658   0.714   0.718   0.833   0.840
  0.847   0.854   0.868   0.872   0.885   0.922   0.965   0.975
  1.024   1.027   1.043   1.127   1.177   1.185   1.300   1.303
  1.326   1.401   1.429   1.480   1.482   1.546   1.574   1.586
  1.682   1.732   1.769   1.829   1.850   1.919   1.925   2.030
  2.046   2.048   2.100   2.141   2.142   2.191   2.247   2.391
  2.410   2.414   2.446   2.545   2.577   2.601   2.614   2.739
  2.749   2.808   3.052   3.249   3.250   4.018   4.046   4.102
  4.196   4.239   4.532   4.595
 
 Beta MOs
 -- Occupied --
-14.314 -10.233 -10.233 -10.210 -10.210 -10.196 -10.196  -0.911
 -0.809  -0.777  -0.681  -0.665  -0.546  -0.535  -0.514  -0.447
 -0.438  -0.411  -0.383  -0.373  -0.348  -0.295  -0.276  -0.241
 -- Virtual --
 -0.078  -0.070   0.078   0.118   0.124   0.125   0.142   0.182
  0.187   0.196   0.219   0.268   0.324   0.360   0.393   0.415
  0.486   0.505   0.525   0.551   0.587   0.588   0.592   0.596
  0.614   0.624   0.629   0.649   0.676   0.716   0.729   0.834
  0.843   0.846   0.869   0.875   0.880   0.887   0.925   0.967
  0.979   1.026   1.030   1.045   1.133   1.180   1.189   1.311
  1.315   1.333   1.411   1.429   1.489   1.492   1.560   1.582
  1.597   1.685   1.737   1.781   1.831   1.854   1.922   1.933
  2.036   2.058   2.061   2.110   2.141   2.147   2.203   2.259
  2.399   2.422   2.426   2.448   2.558   2.579   2.611   2.624
  2.743   2.761   2.810   3.054   3.252   3.254   4.030   4.053
  4.109   4.200   4.239   4.537   4.601
 --------------------------------------------------------------
 
          Ground-State Mulliken Net Atomic Charges

     Atom                 Charge (a.u.)    Spin (a.u.)
  --------------------------------------------------------
      1 C                     0.035701      -0.114166
      2 C                    -0.110972       0.090487
      3 C                    -0.111625       0.096994
      4 C                    -0.131009       0.344323
      5 C                     0.035118      -0.111051
      6 N                    -0.423231       0.386972
      7 H                     0.142625       0.003478
      8 H                     0.141968      -0.006481
      9 H                     0.141907      -0.006792
     10 H                     0.134363      -0.018209
     11 H                     0.142623       0.003325
     12 C                    -0.131802       0.349574
     13 H                     0.134335      -0.018454
  --------------------------------------------------------
  Sum of atomic charges =    -0.000000
  Sum of spin   charges =     1.000000

 -----------------------------------------------------------------
                    Cartesian Multipole Moments
 -----------------------------------------------------------------
    Charge (ESU x 10^10)
                -0.0000
    Dipole Moment (Debye)
         X      -0.5300      Y      -2.1791      Z       0.0612
       Tot       2.2435
    Quadrupole Moments (Debye-Ang)
        XX     -36.1708     XY      -1.5948     YY     -41.9468
        XZ      -3.2532     YZ       0.8096     ZZ     -41.8816
    Octopole Moments (Debye-Ang^2)
       XXX      -3.4014    XXY      -5.6805    XYY      -7.1942
       YYY     -37.7011    XXZ      -0.1906    XYZ      -0.5356
       YYZ       1.0954    XZZ      -1.3187    YZZ      -5.5541
       ZZZ       0.4772
    Hexadecapole Moments (Debye-Ang^3)
      XXXX    -328.9446   XXXY      -2.4592   XXYY    -118.0818
      XYYY     -21.2626   YYYY    -431.3509   XXXZ      50.5287
      XXYZ      -4.2780   XYYZ      14.8186   YYYZ      -5.5489
      XXZZ     -71.9354   XYZZ      -2.6744   YYZZ     -87.0846
      XZZZ      68.7276   YZZZ     -12.4941   ZZZZ    -107.2768
 -----------------------------------------------------------------
 Calculating analytic gradient of the SCF energy
 Gradient of SCF Energy
            1           2           3           4           5           6
    1  -0.0000748   0.0001090  -0.0000242   0.0000412  -0.0001545   0.0001604
    2   0.0001160   0.0000690  -0.0000541   0.0001086  -0.0000826  -0.0000570
    3   0.0000964  -0.0000142   0.0000009  -0.0000171   0.0000452  -0.0000945
            7           8           9          10          11          12
    1   0.0000031  -0.0000145  -0.0000077   0.0000031   0.0000065  -0.0000611
    2  -0.0000109  -0.0000014   0.0000045  -0.0000074   0.0000031  -0.0000634
    3  -0.0000094  -0.0000047  -0.0000149   0.0000002  -0.0000012  -0.0000333
           13
    1   0.0000135
    2  -0.0000244
    3   0.0000466
 Max gradient component =       1.604E-04
 RMS gradient           =       6.114E-05
 Gradient time:  CPU 7.58 s  wall 4.64 s
 Geometry Optimization Parameters
   NAtoms,    NIC,     NZ,  NCons,   NDum,   NFix, NCnnct, MaxDiis
       13      82       0       0       0       0       0       0

 Cartesian Hessian Update
 Hessian Updated using BFGS Update


** GEOMETRY OPTIMIZATION IN DELOCALIZED INTERNAL COORDINATES **
   Searching for a Minimum

   Optimization Cycle:   3

                       Coordinates (Angstroms)
     ATOM                X               Y               Z
      1  C         1.3395490851    0.8947094440   -0.5127749546
      2  C         0.2989461656   -1.4056986771   -0.2409666029
      3  C        -0.9091642169   -1.0963424901    0.3089704339
      4  C        -1.4029826532    0.2191536682    0.6281938981
      5  C        -0.7719831603    1.4352510770    0.4488347516
      6  N         0.4361745857    1.7894371059   -0.0498861750
      7  H         2.2497103551    1.3812114973   -0.8706793694
      8  H         0.5113953700   -2.4583136581   -0.4171916891
      9  H        -1.5802336948   -1.9224424741    0.5354467353
     10  H        -2.3972359443    0.2656751257    1.0659647182
     11  H        -1.3513944638    2.3038717213    0.7694081809
     12  C         1.3387056676   -0.4837671890   -0.6205212429
     13  H         2.2385129037   -0.9227451512   -1.0447986839
   Point Group: c1    Number of degrees of freedom:    33


   Energy is   -286.924342435

 Hessian Updated using BFGS Update

 31 Hessian modes will be used to form the next step
  Hessian Eigenvalues:
     0.008046    0.020138    0.021431    0.021827    0.022499    0.022805
     0.023113    0.025127    0.026308    0.035217    0.155343    0.160000
     0.160402    0.164624    0.216367    0.220023    0.220360    0.233465
     0.344332    0.345505    0.350038    0.350262    0.350794    0.351202
     0.376703    0.395842    0.400436    0.487289    0.494709    0.512614
     0.534436

 Minimum Search - Taking Simple RFO Step
 Searching for Lamda that Minimizes Along All modes
 Value Taken    Lamda =   0.00000000
 Step Taken.  Stepsize is  0.005246

                             Maximum     Tolerance    Cnvgd?
         Gradient           0.000126      0.000300     YES
         Displacement       0.004702      0.001200      NO
         Energy change     -0.000000      0.000001     YES


                       Distance Matrix (Angstroms)
             C (  1)   C (  2)   C (  3)   C (  4)   C (  5)   N (  6)
   C (  2)  2.539412
   C (  3)  3.113883  1.362961
   C (  4)  3.046254  2.508415  1.440934
   C (  5)  2.382320  3.113473  2.539163  1.381746
   N (  6)  1.353104  3.203785  3.204128  2.511590  1.354184
   H (  7)  1.092325  3.459608  4.184296  4.115722  3.297676  2.032058
   H (  8)  3.455103  1.088204  2.097681  3.453477  4.190096  4.264265
   H (  9)  4.190495  2.097894  1.088148  2.150919  3.454689  4.264571
   H ( 10)  4.105078  3.430883  2.154644  1.087358  2.095281  3.405171
   H ( 11)  3.297106  4.183945  3.459628  2.090132  1.092239  2.032557
   C ( 12)  1.382681  1.440527  2.508410  3.093581  3.046500  2.511502
   H ( 13)  2.096265  2.154370  3.430845  4.166933  4.105383  3.405027
             H (  7)   H (  8)   H (  9)   H ( 10)   H ( 11)   C ( 12)
   H (  8)  4.239026
   H (  9)  5.249742  2.359998
   H ( 10)  5.156464  4.252059  2.395162
   H ( 11)  4.063145  5.249420  4.238967  2.309973
   C ( 12)  2.090611  2.150493  3.453441  4.166912  4.115759
   H ( 13)  2.310554  2.394743  4.251987  5.230472  5.156534  1.087367

 
 Final energy is   -286.924342435400     


 ******************************
 **  OPTIMIZATION CONVERGED  **
 ******************************

                       Coordinates (Angstroms)
     ATOM                X               Y               Z
      1  C         1.3395490851    0.8947094440   -0.5127749546
      2  C         0.2989461656   -1.4056986771   -0.2409666029
      3  C        -0.9091642169   -1.0963424901    0.3089704339
      4  C        -1.4029826532    0.2191536682    0.6281938981
      5  C        -0.7719831603    1.4352510770    0.4488347516
      6  N         0.4361745857    1.7894371059   -0.0498861750
      7  H         2.2497103551    1.3812114973   -0.8706793694
      8  H         0.5113953700   -2.4583136581   -0.4171916891
      9  H        -1.5802336948   -1.9224424741    0.5354467353
     10  H        -2.3972359443    0.2656751257    1.0659647182
     11  H        -1.3513944638    2.3038717213    0.7694081809
     12  C         1.3387056676   -0.4837671890   -0.6205212429
     13  H         2.2385129037   -0.9227451512   -1.0447986839

Z-matrix Print:
$molecule
0 2
N 
C  1 1.353104
H  2 1.092325 1 111.954869
C  1 1.354184 2 123.276370 3 -179.960771 0
H  4 1.092239 1 111.923376 2 179.958082 0
C  4 1.381746 1 133.268876 2 -0.057333 0
H  6 1.087358 4 115.605433 1 179.959434 0
C  2 1.382681 1 133.273440 3 -179.979610 0
H  8 1.087367 2 115.618735 1 -179.929630 0
C  8 1.440527 2 128.167153 1 0.006677 0
H  10 1.088204 8 115.815946 2 179.928161 0
C  10 1.362961 8 126.929766 2 -0.031326 0
H  12 1.088148 10 117.277815 8 179.985955 0
$end

 
 --------------------------------------------------------------
 
                    Orbital Energies (a.u.)
 --------------------------------------------------------------
 
 Alpha MOs
 -- Occupied --
-14.322 -10.232 -10.232 -10.212 -10.211 -10.201 -10.200  -0.922
 -0.818  -0.784  -0.693  -0.667  -0.551  -0.537  -0.518  -0.449
 -0.439  -0.414  -0.394  -0.386  -0.349  -0.322  -0.299  -0.251
 -0.162
 -- Virtual --
 -0.072   0.077   0.097   0.101   0.117   0.142   0.181   0.184
  0.193   0.213   0.266   0.320   0.356   0.390   0.412   0.483
  0.496   0.521   0.547   0.576   0.584   0.587   0.591   0.610
  0.619   0.624   0.646   0.658   0.714   0.718   0.833   0.840
  0.847   0.854   0.868   0.872   0.885   0.922   0.965   0.975
  1.024   1.027   1.043   1.127   1.177   1.185   1.300   1.303
  1.326   1.401   1.429   1.480   1.482   1.546   1.574   1.586
  1.682   1.732   1.769   1.829   1.850   1.919   1.925   2.030
  2.046   2.048   2.100   2.141   2.142   2.191   2.247   2.391
  2.410   2.414   2.446   2.545   2.577   2.601   2.614   2.739
  2.749   2.808   3.052   3.249   3.250   4.018   4.046   4.102
  4.196   4.239   4.532   4.595
 
 Beta MOs
 -- Occupied --
-14.314 -10.233 -10.233 -10.210 -10.210 -10.196 -10.196  -0.911
 -0.809  -0.777  -0.681  -0.665  -0.546  -0.535  -0.514  -0.447
 -0.438  -0.411  -0.383  -0.373  -0.348  -0.295  -0.276  -0.241
 -- Virtual --
 -0.078  -0.070   0.078   0.118   0.124   0.125   0.142   0.182
  0.187   0.196   0.219   0.268   0.324   0.360   0.393   0.415
  0.486   0.505   0.525   0.551   0.587   0.588   0.592   0.596
  0.614   0.624   0.629   0.649   0.676   0.716   0.729   0.834
  0.843   0.846   0.869   0.875   0.880   0.887   0.925   0.967
  0.979   1.026   1.030   1.045   1.133   1.180   1.189   1.311
  1.315   1.333   1.411   1.429   1.489   1.492   1.560   1.582
  1.597   1.685   1.737   1.781   1.831   1.854   1.922   1.933
  2.036   2.058   2.061   2.110   2.141   2.147   2.203   2.259
  2.399   2.422   2.426   2.448   2.558   2.579   2.611   2.624
  2.743   2.761   2.810   3.054   3.252   3.254   4.030   4.053
  4.109   4.200   4.239   4.537   4.601
 --------------------------------------------------------------
 
          Ground-State Mulliken Net Atomic Charges

     Atom                 Charge (a.u.)    Spin (a.u.)
  --------------------------------------------------------
      1 C                     0.035701      -0.114166
      2 C                    -0.110972       0.090487
      3 C                    -0.111625       0.096994
      4 C                    -0.131009       0.344323
      5 C                     0.035118      -0.111051
      6 N                    -0.423231       0.386972
      7 H                     0.142625       0.003478
      8 H                     0.141968      -0.006481
      9 H                     0.141907      -0.006792
     10 H                     0.134363      -0.018209
     11 H                     0.142623       0.003325
     12 C                    -0.131802       0.349574
     13 H                     0.134335      -0.018454
  --------------------------------------------------------
  Sum of atomic charges =    -0.000000
  Sum of spin   charges =     1.000000

 -----------------------------------------------------------------
                    Cartesian Multipole Moments
 -----------------------------------------------------------------
    Charge (ESU x 10^10)
                -0.0000
    Dipole Moment (Debye)
         X      -0.5300      Y      -2.1791      Z       0.0612
       Tot       2.2435
    Quadrupole Moments (Debye-Ang)
        XX     -36.1708     XY      -1.5948     YY     -41.9468
        XZ      -3.2532     YZ       0.8096     ZZ     -41.8816
    Octopole Moments (Debye-Ang^2)
       XXX      -3.4014    XXY      -5.6805    XYY      -7.1942
       YYY     -37.7011    XXZ      -0.1906    XYZ      -0.5356
       YYZ       1.0954    XZZ      -1.3187    YZZ      -5.5541
       ZZZ       0.4772
    Hexadecapole Moments (Debye-Ang^3)
      XXXX    -328.9446   XXXY      -2.4592   XXYY    -118.0818
      XYYY     -21.2626   YYYY    -431.3509   XXXZ      50.5287
      XXYZ      -4.2780   XYYZ      14.8186   YYYZ      -5.5489
      XXZZ     -71.9354   XYZZ      -2.6744   YYZZ     -87.0846
      XZZZ      68.7276   YZZZ     -12.4941   ZZZZ    -107.2768
 -----------------------------------------------------------------
Archival summary:
1\1\c8-68\OPT\ProcedureUnspecified\6-31G*\166(2)\hpark21\TueMar119:18:262022TueMar119:18:262022\0\\#,OPT,ProcedureUnspecified,6-31G*,\\0,2\N\C,1,1.3531\H,2,1.09232,1,111.955\C,1,1.35418,2,123.276,3,-179.961,0\H,4,1.09224,1,111.923,2,179.958,0\C,4,1.38175,1,133.269,2,-0.0573335,0\H,6,1.08736,4,115.605,1,179.959,0\C,2,1.38268,1,133.273,3,-179.98,0\H,8,1.08737,2,115.619,1,-179.93,0\C,8,1.44053,2,128.167,1,0.0066772,0\H,10,1.0882,8,115.816,2,179.928,0\C,10,1.36296,8,126.93,2,-0.0313264,0\H,12,1.08815,10,117.278,8,179.986,0\\\@

 Total job time:  158.62s(wall), 176.87s(cpu) 
 Tue Mar  1 19:18:26 2022

        *************************************************************
        *                                                           *
        *  Thank you very much for using Q-Chem.  Have a nice day.  *
        *                                                           *
        *************************************************************


