
Running Job 1 of 1 qcts2.in
qchem qcts2.in_43749.0 ./qcts2.d/ 1
/home/leeping/opt/qchem/5.0.2-openmp/exe/qcprog.exe_s qcts2.in_43749.0 ./qcts2.d/
Check license passed

                  Welcome to Q-Chem
     A Quantum Leap Into The Future Of Chemistry


 Q-Chem 5.0, Q-Chem, Inc., Pleasanton, CA (2017)

 Yihan Shao,  Zhengting Gan,  E. Epifanovsky,  A. T. B. Gilbert,  M. Wormit,  
 J. Kussmann,  A. W. Lange,  A. Behn,  Jia Deng,  Xintian Feng,  D. Ghosh,  
 M. Goldey,  P. R. Horn,  L. D. Jacobson,  I. Kaliman,  T. Kus,  A. Landau,  
 Jie Liu,  E. I. Proynov,  R. M. Richard,  R. P. Steele,  E. J. Sundstrom,  
 H. L. Woodcock III,  P. M. Zimmerman,  D. Zuev,  B. Albrecht,  E. Alguire,  
 S. A. Baeppler,  D. Barton,  Z. Benda,  Y. A. Bernard,  E. J. Berquist,  
 K. B. Bravaya,  H. Burton,  D. Casanova,  Chun-Min Chang,  Yunqing Chen,  
 A. Chien,  K. D. Closser,  M. P. Coons,  S. Dasgupta,  A. L. Dempwolff,  
 M. Diedenhofen,  Hainam Do,  R. G. Edgar,  Po-Tung Fang,  S. Fatehi,  
 Qingguo Feng,  J. Fosso-Tande,  Qinghui Ge,  A. Ghysels,  G. Gidofalvi,  
 J. Gomes,  J. Gonthier,  A. Gunina,  M. W. D. Hanson-Heine,  
 P. H. P. Harbach,  A. W. Hauser,  J. E. Herr,  E. G. Hohenstein,  
 Z. C. Holden,  Kerwin Hui,  T.-C. Jagau,  Hyunjun Ji,  B. Kaduk,  
 K. Khistyaev,  Jaehoon Kim,  P. Klunzinger,  K. Koh,  D. Kosenkov,  
 L. Koulias,  T. Kowalczyk,  C. M. Krauter,  A. Kunitsa,  Ka Un Lao,  
 A. Laurent,  K. V. Lawler,  Joonho Lee,  D. Lefrancois,  S. Lehtola,  
 D. S. Levine,  Yi-Pei Li,  You-Sheng Lin,  Fenglai Liu,  E. Livshits,  
 A. Luenser,  P. Manohar,  E. Mansoor,  S. F. Manzer,  Shan-Ping Mao,  
 Yuezhi Mao,  N. Mardirossian,  A. V. Marenich,  T. Markovich,  
 L. A. Martinez-Martinez,  S. A. Maurer,  N. J. Mayhall,  S. C. McKenzie,  
 J.-M. Mewes,  A. F. Morrison,  J. W. Mullinax,  K. Nanda,  
 T. S. Nguyen-Beck,  R. Olivares-Amaya,  J. A. Parkhill,  T. M. Perrine,  
 F. Plasser,  S. Prager,  A. Prociuk,  E. Ramos,  D. R. Rehn,  F. Rob,  
 M. Schneider,  N. Sergueev,  S. M. Sharada,  S. Sharma,  D. W. Small,  
 T. Stauch,  T. Stein,  Yu-Chuan Su,  A. J. W. Thom,  A. Tkatchenko,  
 T. Tsuchimochi,  L. Vogt,  O. Vydrov,  M. A. Watson,  J. Wenzel,  
 M. de Wergifosse,  T. A. Wesolowski,  A. White,  J. Witte,  A. Yamada,  
 Jun Yang,  K. Yao,  S. Yeganeh,  S. R. Yost,  Zhi-Qiang You,  A. Zech,  
 Igor Ying Zhang,  Xing Zhang,  Yan Zhao,  Ying Zhu,  B. R. Brooks,  
 G. K. L. Chan,  C. J. Cramer,  M. S. Gordon,  W. J. Hehre,  A. Klamt,  
 M. W. Schmidt,  C. D. Sherrill,  D. G. Truhlar,  A. Aspuru-Guzik,  R. Baer,  
 A. T. Bell,  N. A. Besley,  Jeng-Da Chai,  R. A. DiStasio Jr.,  A. Dreuw,  
 B. D. Dunietz,  T. R. Furlani,  Chao-Ping Hsu,  Yousung Jung,  Jing Kong,  
 D. S. Lambrecht,  WanZhen Liang,  C. Ochsenfeld,  V. A. Rassolov,  
 L. V. Slipchenko,  J. E. Subotnik,  T. Van Voorhis,  J. M. Herbert,  
 A. I. Krylov,  P. M. W. Gill,  M. Head-Gordon

 Contributors to earlier versions of Q-Chem not listed above: 
 R. D. Adamson,  B. Austin,  J. Baker,  G. J. O. Beran,  K. Brandhorst,  
 S. T. Brown,  E. F. C. Byrd,  A. K. Chakraborty,  C.-L. Cheng,  
 Siu Hung Chien,  D. M. Chipman,  D. L. Crittenden,  H. Dachsel,  
 R. J. Doerksen,  A. D. Dutoi,  L. Fusti-Molnar,  W. A. Goddard III,  
 A. Golubeva-Zadorozhnaya,  S. R. Gwaltney,  G. Hawkins,  A. Heyden,  
 S. Hirata,  G. Kedziora,  F. J. Keil,  C. Kelley,  Jihan Kim,  R. A. King,  
 R. Z. Khaliullin,  P. P. Korambath,  W. Kurlancheek,  A. M. Lee,  M. S. Lee,  
 S. V. Levchenko,  Ching Yeh Lin,  D. Liotard,  R. C. Lochan,  I. Lotan,  
 P. E. Maslen,  N. Nair,  D. P. O'Neill,  D. Neuhauser,  E. Neuscamman,  
 C. M. Oana,  R. Olson,  B. Peters,  R. Peverati,  P. A. Pieniazek,  
 Y. M. Rhee,  J. Ritchie,  M. A. Rohrdanz,  E. Rosta,  N. J. Russ,  
 H. F. Schaefer III,  N. E. Schultz,  N. Shenvi,  A. C. Simmonett,  A. Sodt,  
 D. Stuck,  K. S. Thanthiriwatte,  V. Vanovschi,  Tao Wang,  A. Warshel,  
 C. F. Williams,  Q. Wu,  X. Xu,  W. Zhang

 Please cite Q-Chem as follows:
 Y. Shao et al., Mol. Phys. 113, 184-215 (2015)
 DOI: 10.1080/00268976.2014.952696

 Q-Chem 5.0.2 for Intel X86 EM64T Linux

 Parts of Q-Chem use Armadillo 5.200.1 (Boston Tea Smuggler).
 http://arma.sourceforge.net/

 Q-Chem begins on Wed Mar  2 01:36:49 2022  

Host: 
0

     Scratch files written to ./qcts2.d//
 Dec517 15110_ 26548  26544 5633   
Processing $rem in /home/leeping/opt/qchem/5.0.2-openmp/config/preferences.
 MEM_STATIC 2000
 MEM_TOTAL  8000
 SYMMETRY   OFF
 SYM_IGNORE TRUE 

Checking the input file for inconsistencies... 	...done.

--------------------------------------------------------------
User input:
--------------------------------------------------------------
$molecule
0 2
C        1.3611836815    0.1680363770   -1.0293631840
C       -0.2474969814   -1.8876034479   -0.2865789766
C       -1.2186390614   -1.2341157614    0.3283807345
C       -1.2463752393    0.1680196696    0.7636127767
C       -0.4677649886    1.2090109211    0.4013819772
N        0.5096395636    1.3458711264   -0.6195521563
H        1.3618705710   -0.5668181527   -1.8107032294
H       -0.0875687412   -2.9027572459   -0.6270603305
H       -2.1198350733   -1.8066889597    0.5868523390
H       -2.0203588229    0.3990997780    1.4918627763
H       -0.6587381753    2.1718630833    0.8732171520
C        1.9346009282    1.0424295691   -0.2756500226
H        2.7545366587    1.5398604413    0.2135265779
$end

$rem
method                b3lyp
basis                 6-31+g(d,p)
unrestricted          true
symmetry              off
sym_ignore            true
incdft                false
incfock               0
scf_convergence       6
thresh                14
jobtype               sp
scf_guess             read
scf_algorithm         diis
max_scf_cycles        100
stability_analysis    true
max_cis_cycles        100
cis_n_roots           4
$end

--------------------------------------------------------------
 ----------------------------------------------------------------
             Standard Nuclear Orientation (Angstroms)
    I     Atom           X                Y                Z
 ----------------------------------------------------------------
    1      C       1.3611836815     0.1680363770    -1.0293631840
    2      C      -0.2474969814    -1.8876034479    -0.2865789766
    3      C      -1.2186390614    -1.2341157614     0.3283807345
    4      C      -1.2463752393     0.1680196696     0.7636127767
    5      C      -0.4677649886     1.2090109211     0.4013819772
    6      N       0.5096395636     1.3458711264    -0.6195521563
    7      H       1.3618705710    -0.5668181527    -1.8107032294
    8      H      -0.0875687412    -2.9027572459    -0.6270603305
    9      H      -2.1198350733    -1.8066889597     0.5868523390
   10      H      -2.0203588229     0.3990997780     1.4918627763
   11      H      -0.6587381753     2.1718630833     0.8732171520
   12      C       1.9346009282     1.0424295691    -0.2756500226
   13      H       2.7545366587     1.5398604413     0.2135265779
 ----------------------------------------------------------------
 Nuclear Repulsion Energy =   252.1135755991 hartrees
 There are       25 alpha and       24 beta electrons
 Requested basis set is 6-31+G(d,p)
 There are 53 shells and 163 basis functions

 Total QAlloc Memory Limit   8000 MB
 Mega-Array Size      1956 MB
 MEM_STATIC part      2000 MB

                       Distance Matrix (Angstroms)
             C (  1)   C (  2)   C (  3)   C (  4)   C (  5)   N (  6)
   C (  2)  2.713897
   C (  3)  3.234963  1.322248
   C (  4)  3.164510  2.515203  1.468394
   C (  5)  2.544742  3.179753  2.556953  1.349484
   N (  6)  1.510088  3.337587  3.246822  2.526671  1.419985
   H (  7)  1.072615  2.580212  3.417601  3.737651  3.375568  2.409049
   H (  8)  3.419138  1.082609  2.230819  3.564614  4.255453  4.290403
   H (  9)  4.316154  2.067627  1.098545  2.166483  3.443571  4.278806
   H ( 10)  4.224311  3.396308  2.159592  1.087565  2.062923  3.428606
   H ( 11)  3.422750  4.241876  3.494428  2.091105  1.089121  2.067784
   C ( 12)  1.288974  3.653322  3.935789  3.458796  2.501496  1.496950
   H ( 13)  2.316918  4.583647  4.847088  4.265189  3.244685  2.402335
             H (  7)   H (  8)   H (  9)   H ( 10)   H ( 11)   C ( 12)
   H (  8)  2.993075
   H (  9)  4.405431  2.608650
   H ( 10)  4.824875  4.373531  2.386303
   H ( 11)  4.334358  5.322484  4.248021  2.319358
   C ( 12)  2.296538  4.447152  5.029894  4.379461  3.053019
   H ( 13)  3.236529  5.340506  5.924379  5.072978  3.533421  1.076581

 
 A cutoff of  1.0D-14 yielded   1354 shell pairs
 There are     13325 function pairs
 Smallest overlap matrix eigenvalue = 2.37E-05

 Scale SEOQF with 1.000000e-01/1.000000e-01/1.000000e-01

 Standard Electronic Orientation quadrupole field applied
 Nucleus-field energy     =     0.0000000058 hartrees
 Guess MOs from SCF MO coefficient file
 Reading MOs from coefficient file
 Reading MOs from coefficient file
 An unrestricted hybrid HF-DFT SCF calculation will be
 performed using Pulay DIIS extrapolation
 Exchange:     0.2000 Hartree-Fock + 0.0800 Slater + 0.7200 B88
 Correlation:  0.1900 VWN1RPA + 0.8100 LYP
 Using SG-1 standard quadrature grid
 SCF converges when DIIS error is below 1.0E-06
Using Q-Chem read-in guess as SCF_GUESS READ specified.

 -------------------------------------------------------
 OpenMP BLAS3 based DFT computing Module                
 -------------------------------------------------------
 ---------------------------------------
  Cycle       Energy         DIIS Error
 ---------------------------------------
    1    -286.7448422332      1.82E-09
    2    -286.7448422332      2.28E-09 Convergence criterion met
 ---------------------------------------
 <S^2> = 0.7765
 SCF time:  CPU 6.41 s  wall 15.12 s
 SCF   energy in the final basis set = -286.74484223
 Total energy in the final basis set = -286.74484223
 
 Direct TDDFT/TDA calculation will be performed
 Exchange:     0.2000 Hartree-Fock + 0.0800 Slater + 0.7200 B88
 Correlation:  0.1900 VWN1RPA + 0.8100 LYP
 Using SG-1 standard quadrature grid
 CIS energy converged when residual is below 10e- 6
 ---------------------------------------------------
 Iter    Rts Conv    Rts Left    Ttl Dev     Max Dev
 ---------------------------------------------------
   1         0           4      0.003583    0.001801
   2         0           4      0.001558    0.000534
   3         0           4      0.001016    0.000347
   4         0           4      0.000530    0.000226
   5         0           4      0.000389    0.000311
   6         0           4      0.000121    0.000103
   7         1           3      0.000043    0.000038
   8         3           1      0.000011    0.000010
   9         3           1      0.000004    0.000003
  10         4           0      0.000002    0.000001    Roots Converged
 ---------------------------------------------------
 
 ---------------------------------------------------
         TDDFT/TDA Excitation Energies              
 ---------------------------------------------------

 Excited state   1: excitation energy (eV) =    1.8421
 Total energy for state  1:                  -286.67714660 au
    <S**2>     :  0.8815
    Trans. Mom.:  0.1578 X   0.2394 Y   0.0566 Z
    Strength   :     0.0038551919
    D( 23) --> S(  1) amplitude = -0.2045 beta
    D( 24) --> S(  1) amplitude =  0.9538 beta

 Excited state   2: excitation energy (eV) =    2.5875
 Total energy for state  2:                  -286.64975155 au
    <S**2>     :  1.3944
    Trans. Mom.:  0.0685 X   0.1877 Y  -0.0496 Z
    Strength   :     0.0026860419
    S(  1) --> V(  1) amplitude =  0.3593 alpha
    S(  1) --> V(  2) amplitude =  0.2666 alpha
    D( 23) --> S(  1) amplitude =  0.8077 beta
    D( 24) --> V(  2) amplitude = -0.2022 beta

 Excited state   3: excitation energy (eV) =    2.8608
 Total energy for state  3:                  -286.63971058 au
    <S**2>     :  2.5900
    Trans. Mom.:  0.0676 X   0.1102 Y  -0.0262 Z
    Strength   :     0.0012189005
    D( 23) --> V(  1) amplitude = -0.1670 alpha
    D( 24) --> V(  1) amplitude =  0.3294 alpha
    S(  1) --> V(  1) amplitude = -0.5079 alpha
    D( 23) --> S(  1) amplitude =  0.2680 beta
    D( 23) --> V(  1) amplitude = -0.2590 beta
    D( 24) --> V(  1) amplitude =  0.6277 beta

 Excited state   4: excitation energy (eV) =    3.4434
 Total energy for state  4:                  -286.61830133 au
    <S**2>     :  1.8956
    Trans. Mom.: -0.2037 X  -0.1866 Y   0.0041 Z
    Strength   :     0.0064375148
    D( 23) --> V(  1) amplitude = -0.1501 alpha
    D( 23) --> V(  2) amplitude = -0.1575 alpha
    S(  1) --> V(  2) amplitude =  0.6818 alpha
    D( 23) --> S(  1) amplitude = -0.3504 beta
    D( 23) --> V(  2) amplitude = -0.2505 beta
    D( 24) --> S(  1) amplitude = -0.1754 beta
    D( 24) --> V(  1) amplitude = -0.2251 beta
    D( 24) --> V(  2) amplitude = -0.3704 beta
 
 ---------------------------------------------------

 Stability analysis will be performed
 ---------------------------------------------------
 Iter    Rts Conv    Rts Left    Ttl Dev     Max Dev
 ---------------------------------------------------
   1         0           8      0.004158    0.000622
   2         0           8      0.002242    0.000435
   3         0           8      0.000804    0.000191
   4         0           8      0.000321    0.000082
   5         2           6      0.000111    0.000031
   6         3           5      0.000038    0.000013
   7         4           4      0.000014    0.000006
   8         7           1      0.000004    0.000002
   9         8           0      0.000003    0.000001    Roots Converged
 UKS-> UKS   stable,    smallest eigenvalue:      0.0552199
 UKS->CUKS   stable,    smallest eigenvalue:      0.0697775
 ---------------------------------------------------
  SETman timing summary (seconds)
  CPU time               172.46s
  System time              0.00s
  Wall time              226.08s
 
 --------------------------------------------------------------
 
                    Orbital Energies (a.u.)
 --------------------------------------------------------------
 
 Alpha MOs
 -- Occupied --
-14.365 -10.251 -10.247 -10.219 -10.213 -10.208 -10.194  -0.982
 -0.811  -0.761  -0.684  -0.604  -0.600  -0.543  -0.498  -0.494
 -0.446  -0.426  -0.389  -0.380  -0.336  -0.317  -0.252  -0.229
 -0.206
 -- Virtual --
 -0.043  -0.022   0.011   0.014   0.020   0.035   0.044   0.047
  0.065   0.072   0.075   0.080   0.081   0.092   0.104   0.117
  0.128   0.135   0.140   0.142   0.149   0.155   0.160   0.173
  0.191   0.195   0.198   0.200   0.210   0.216   0.232   0.239
  0.245   0.258   0.268   0.282   0.306   0.311   0.322   0.336
  0.374   0.443   0.475   0.512   0.579   0.632   0.648   0.664
  0.684   0.690   0.701   0.729   0.743   0.749   0.767   0.798
  0.802   0.856   0.869   0.900   0.936   0.951   0.957   0.971
  0.990   1.023   1.031   1.047   1.075   1.120   1.149   1.167
  1.177   1.221   1.252   1.286   1.293   1.359   1.399   1.415
  1.473   1.480   1.539   1.634   1.641   1.671   1.691   1.742
  1.807   1.829   1.861   1.935   1.939   1.951   1.987   2.033
  2.040   2.075   2.111   2.172   2.218   2.248   2.306   2.346
  2.374   2.388   2.412   2.436   2.453   2.485   2.499   2.517
  2.549   2.595   2.610   2.666   2.685   2.688   2.779   2.793
  2.852   2.937   3.052   3.102   3.226   3.289   3.343   3.360
  3.492   3.704   3.776   4.169   4.269   4.385   4.469   4.579
  4.680   4.944
 
 Beta MOs
 -- Occupied --
-14.365 -10.249 -10.248 -10.219 -10.209 -10.199 -10.193  -0.982
 -0.807  -0.753  -0.676  -0.601  -0.590  -0.538  -0.491  -0.486
 -0.442  -0.416  -0.386  -0.378  -0.333  -0.314  -0.239  -0.205
 -- Virtual --
 -0.090  -0.035  -0.013   0.013   0.015   0.021   0.036   0.045
  0.048   0.065   0.073   0.075   0.083   0.084   0.095   0.104
  0.119   0.129   0.138   0.140   0.143   0.150   0.155   0.162
  0.174   0.192   0.196   0.200   0.204   0.211   0.219   0.234
  0.242   0.246   0.260   0.269   0.285   0.306   0.314   0.324
  0.338   0.382   0.452   0.477   0.519   0.580   0.640   0.653
  0.672   0.692   0.699   0.707   0.732   0.749   0.751   0.772
  0.799   0.806   0.858   0.876   0.904   0.939   0.952   0.963
  0.977   0.993   1.025   1.039   1.054   1.077   1.122   1.156
  1.170   1.179   1.225   1.255   1.288   1.299   1.362   1.401
  1.420   1.479   1.487   1.544   1.646   1.656   1.698   1.705
  1.747   1.812   1.846   1.873   1.941   1.945   1.959   1.991
  2.035   2.045   2.084   2.117   2.175   2.219   2.252   2.312
  2.351   2.377   2.393   2.418   2.438   2.455   2.488   2.503
  2.520   2.551   2.597   2.612   2.668   2.695   2.704   2.784
  2.801   2.854   2.941   3.056   3.103   3.230   3.294   3.348
  3.361   3.502   3.713   3.778   4.169   4.274   4.400   4.480
  4.581   4.683   4.946
 --------------------------------------------------------------
 
          Ground-State Mulliken Net Atomic Charges

     Atom                 Charge (a.u.)    Spin (a.u.)
  --------------------------------------------------------
      1 C                    -0.213660      -0.154534
      2 C                    -0.240179       1.048062
      3 C                    -0.159349      -0.208885
      4 C                     0.010382       0.063476
      5 C                    -0.166161      -0.047087
      6 N                    -0.145157       0.009509
      7 H                     0.173929       0.005435
      8 H                     0.146644       0.009361
      9 H                     0.138289       0.077011
     10 H                     0.119625      -0.000575
     11 H                     0.125069       0.003495
     12 C                     0.049686       0.202646
     13 H                     0.160881      -0.007914
  --------------------------------------------------------
  Sum of atomic charges =    -0.000000
  Sum of spin   charges =     1.000000

 -----------------------------------------------------------------
                    Cartesian Multipole Moments
 -----------------------------------------------------------------
    Charge (ESU x 10^10)
                -0.0000
    Dipole Moment (Debye)
         X       1.0386      Y      -0.8629      Z       0.5073
       Tot       1.4424
    Quadrupole Moments (Debye-Ang)
        XX     -36.8214     XY       2.5803     YY     -40.3378
        XZ      -2.3435     YZ       5.3172     ZZ     -42.7631
    Octopole Moments (Debye-Ang^2)
       XXX       1.6030    XXY       2.3286    XYY      -1.2473
       YYY     -19.9769    XXZ       9.1902    XYZ       4.3405
       YYZ       7.3754    XZZ      -1.7169    YZZ      -6.4318
       ZZZ       6.6576
    Hexadecapole Moments (Debye-Ang^3)
      XXXX    -383.8328   XXXY     -46.5915   XXYY    -128.0097
      XYYY     -71.1885   YYYY    -416.3491   XXXZ      72.6113
      XXYZ       5.3670   XYYZ      23.5872   YYYZ      26.9216
      XXZZ     -93.5115   XYZZ     -32.6589   YYZZ    -106.8115
      XZZZ      67.1115   YZZZ       8.0830   ZZZZ    -160.0220
 -----------------------------------------------------------------
Archival summary:
1\1\c8-68\SP\ProcedureUnspecified\6-31+G**\166(2)\hpark21\WedMar201:41:042022WedMar201:41:042022\0\\#,ProcedureUnspecified,6-31+G**,\\0,2\N\C,1,1.41998\H,2,1.08912,1,110.302\C,2,1.34948,1,131.642,3,172.608,0\H,4,1.08756,2,115.242,1,-170.904,0\C,4,1.46839,2,130.251,1,8.9543,0\H,6,1.09855,4,114.359,2,-165.142,0\C,6,1.32225,4,128.583,2,17.0754,0\H,8,1.08261,6,135.906,4,177.658,0\C,1,1.49695,2,118.067,3,95.7798,0\H,10,1.07658,1,137.367,2,-79.9706,0\C,10,1.28897,1,65.1467,2,107.936,0\H,12,1.07262,10,152.925,1,147.001,0\\\@

 Total job time:  254.85s(wall), 179.12s(cpu) 
 Wed Mar  2 01:41:04 2022

        *************************************************************
        *                                                           *
        *  Thank you very much for using Q-Chem.  Have a nice day.  *
        *                                                           *
        *************************************************************


