
Running Job 1 of 1 qcts2.in
qchem qcts2.in_41188.0 ./qcts2.d/ 1
/home/leeping/opt/qchem/5.0.2-openmp/exe/qcprog.exe_s qcts2.in_41188.0 ./qcts2.d/
Check license passed

                  Welcome to Q-Chem
     A Quantum Leap Into The Future Of Chemistry


 Q-Chem 5.0, Q-Chem, Inc., Pleasanton, CA (2017)

 Yihan Shao,  Zhengting Gan,  E. Epifanovsky,  A. T. B. Gilbert,  M. Wormit,  
 J. Kussmann,  A. W. Lange,  A. Behn,  Jia Deng,  Xintian Feng,  D. Ghosh,  
 M. Goldey,  P. R. Horn,  L. D. Jacobson,  I. Kaliman,  T. Kus,  A. Landau,  
 Jie Liu,  E. I. Proynov,  R. M. Richard,  R. P. Steele,  E. J. Sundstrom,  
 H. L. Woodcock III,  P. M. Zimmerman,  D. Zuev,  B. Albrecht,  E. Alguire,  
 S. A. Baeppler,  D. Barton,  Z. Benda,  Y. A. Bernard,  E. J. Berquist,  
 K. B. Bravaya,  H. Burton,  D. Casanova,  Chun-Min Chang,  Yunqing Chen,  
 A. Chien,  K. D. Closser,  M. P. Coons,  S. Dasgupta,  A. L. Dempwolff,  
 M. Diedenhofen,  Hainam Do,  R. G. Edgar,  Po-Tung Fang,  S. Fatehi,  
 Qingguo Feng,  J. Fosso-Tande,  Qinghui Ge,  A. Ghysels,  G. Gidofalvi,  
 J. Gomes,  J. Gonthier,  A. Gunina,  M. W. D. Hanson-Heine,  
 P. H. P. Harbach,  A. W. Hauser,  J. E. Herr,  E. G. Hohenstein,  
 Z. C. Holden,  Kerwin Hui,  T.-C. Jagau,  Hyunjun Ji,  B. Kaduk,  
 K. Khistyaev,  Jaehoon Kim,  P. Klunzinger,  K. Koh,  D. Kosenkov,  
 L. Koulias,  T. Kowalczyk,  C. M. Krauter,  A. Kunitsa,  Ka Un Lao,  
 A. Laurent,  K. V. Lawler,  Joonho Lee,  D. Lefrancois,  S. Lehtola,  
 D. S. Levine,  Yi-Pei Li,  You-Sheng Lin,  Fenglai Liu,  E. Livshits,  
 A. Luenser,  P. Manohar,  E. Mansoor,  S. F. Manzer,  Shan-Ping Mao,  
 Yuezhi Mao,  N. Mardirossian,  A. V. Marenich,  T. Markovich,  
 L. A. Martinez-Martinez,  S. A. Maurer,  N. J. Mayhall,  S. C. McKenzie,  
 J.-M. Mewes,  A. F. Morrison,  J. W. Mullinax,  K. Nanda,  
 T. S. Nguyen-Beck,  R. Olivares-Amaya,  J. A. Parkhill,  T. M. Perrine,  
 F. Plasser,  S. Prager,  A. Prociuk,  E. Ramos,  D. R. Rehn,  F. Rob,  
 M. Schneider,  N. Sergueev,  S. M. Sharada,  S. Sharma,  D. W. Small,  
 T. Stauch,  T. Stein,  Yu-Chuan Su,  A. J. W. Thom,  A. Tkatchenko,  
 T. Tsuchimochi,  L. Vogt,  O. Vydrov,  M. A. Watson,  J. Wenzel,  
 M. de Wergifosse,  T. A. Wesolowski,  A. White,  J. Witte,  A. Yamada,  
 Jun Yang,  K. Yao,  S. Yeganeh,  S. R. Yost,  Zhi-Qiang You,  A. Zech,  
 Igor Ying Zhang,  Xing Zhang,  Yan Zhao,  Ying Zhu,  B. R. Brooks,  
 G. K. L. Chan,  C. J. Cramer,  M. S. Gordon,  W. J. Hehre,  A. Klamt,  
 M. W. Schmidt,  C. D. Sherrill,  D. G. Truhlar,  A. Aspuru-Guzik,  R. Baer,  
 A. T. Bell,  N. A. Besley,  Jeng-Da Chai,  R. A. DiStasio Jr.,  A. Dreuw,  
 B. D. Dunietz,  T. R. Furlani,  Chao-Ping Hsu,  Yousung Jung,  Jing Kong,  
 D. S. Lambrecht,  WanZhen Liang,  C. Ochsenfeld,  V. A. Rassolov,  
 L. V. Slipchenko,  J. E. Subotnik,  T. Van Voorhis,  J. M. Herbert,  
 A. I. Krylov,  P. M. W. Gill,  M. Head-Gordon

 Contributors to earlier versions of Q-Chem not listed above: 
 R. D. Adamson,  B. Austin,  J. Baker,  G. J. O. Beran,  K. Brandhorst,  
 S. T. Brown,  E. F. C. Byrd,  A. K. Chakraborty,  C.-L. Cheng,  
 Siu Hung Chien,  D. M. Chipman,  D. L. Crittenden,  H. Dachsel,  
 R. J. Doerksen,  A. D. Dutoi,  L. Fusti-Molnar,  W. A. Goddard III,  
 A. Golubeva-Zadorozhnaya,  S. R. Gwaltney,  G. Hawkins,  A. Heyden,  
 S. Hirata,  G. Kedziora,  F. J. Keil,  C. Kelley,  Jihan Kim,  R. A. King,  
 R. Z. Khaliullin,  P. P. Korambath,  W. Kurlancheek,  A. M. Lee,  M. S. Lee,  
 S. V. Levchenko,  Ching Yeh Lin,  D. Liotard,  R. C. Lochan,  I. Lotan,  
 P. E. Maslen,  N. Nair,  D. P. O'Neill,  D. Neuhauser,  E. Neuscamman,  
 C. M. Oana,  R. Olson,  B. Peters,  R. Peverati,  P. A. Pieniazek,  
 Y. M. Rhee,  J. Ritchie,  M. A. Rohrdanz,  E. Rosta,  N. J. Russ,  
 H. F. Schaefer III,  N. E. Schultz,  N. Shenvi,  A. C. Simmonett,  A. Sodt,  
 D. Stuck,  K. S. Thanthiriwatte,  V. Vanovschi,  Tao Wang,  A. Warshel,  
 C. F. Williams,  Q. Wu,  X. Xu,  W. Zhang

 Please cite Q-Chem as follows:
 Y. Shao et al., Mol. Phys. 113, 184-215 (2015)
 DOI: 10.1080/00268976.2014.952696

 Q-Chem 5.0.2 for Intel X86 EM64T Linux

 Parts of Q-Chem use Armadillo 5.200.1 (Boston Tea Smuggler).
 http://arma.sourceforge.net/

 Q-Chem begins on Wed Mar  2 01:13:42 2022  

Host: 
0

     Scratch files written to ./qcts2.d//
 Dec517 15110_ 26548  26544 5633   
Processing $rem in /home/leeping/opt/qchem/5.0.2-openmp/config/preferences.
 MEM_STATIC 2000
 MEM_TOTAL  8000
 SYMMETRY   OFF
 SYM_IGNORE TRUE 

Checking the input file for inconsistencies... 	...done.

--------------------------------------------------------------
User input:
--------------------------------------------------------------
$molecule
0 2
C        1.3702042856    0.1722898742   -1.0234739736
C       -0.2738228105   -1.8770960671   -0.3420086374
C       -1.2037652143   -1.2372731909    0.3436083309
C       -1.2413221777    0.1703423799    0.7549835108
C       -0.4736479440    1.2122643190    0.3786350994
N        0.5103073309    1.3547264949   -0.6357420324
H        1.3776119758   -0.5803976259   -1.7886303499
H       -0.1281727675   -2.8952727241   -0.6819342112
H       -2.0659721450   -1.8261351550    0.6866353672
H       -2.0151576671    0.4040006649    1.4833317200
H       -0.6763847410    2.1787575536    0.8400834099
C        1.9332514306    1.0405319344   -0.2613179487
H        2.7419247638    1.5294689403    0.2557561490
$end

$rem
method                b3lyp
basis                 6-31+g(d,p)
unrestricted          true
symmetry              off
sym_ignore            true
incdft                false
incfock               0
scf_convergence       8
thresh                14
jobtype               sp
scf_guess             core
scf_guess_mix         5
scf_algorithm         diis
max_scf_cycles        100
$end

--------------------------------------------------------------
 ----------------------------------------------------------------
             Standard Nuclear Orientation (Angstroms)
    I     Atom           X                Y                Z
 ----------------------------------------------------------------
    1      C       1.3702042856     0.1722898742    -1.0234739736
    2      C      -0.2738228105    -1.8770960671    -0.3420086374
    3      C      -1.2037652143    -1.2372731909     0.3436083309
    4      C      -1.2413221777     0.1703423799     0.7549835108
    5      C      -0.4736479440     1.2122643190     0.3786350994
    6      N       0.5103073309     1.3547264949    -0.6357420324
    7      H       1.3776119758    -0.5803976259    -1.7886303499
    8      H      -0.1281727675    -2.8952727241    -0.6819342112
    9      H      -2.0659721450    -1.8261351550     0.6866353672
   10      H      -2.0151576671     0.4040006649     1.4833317200
   11      H      -0.6763847410     2.1787575536     0.8400834099
   12      C       1.9332514306     1.0405319344    -0.2613179487
   13      H       2.7419247638     1.5294689403     0.2557561490
 ----------------------------------------------------------------
 Nuclear Repulsion Energy =   252.1523478243 hartrees
 There are       25 alpha and       24 beta electrons
 Requested basis set is 6-31+G(d,p)
 There are 53 shells and 163 basis functions

 Total QAlloc Memory Limit   8000 MB
 Mega-Array Size      1956 MB
 MEM_STATIC part      2000 MB

                       Distance Matrix (Angstroms)
             C (  1)   C (  2)   C (  3)   C (  4)   C (  5)   N (  6)
   C (  2)  2.714259
   C (  3)  3.237453  1.320696
   C (  4)  3.159586  2.516237  1.466977
   C (  5)  2.539143  3.178585  2.556273  1.347799
   N (  6)  1.512586  3.338535  3.258164  2.530828  1.420361
   H (  7)  1.073339  2.549780  3.411955  3.727251  3.367171  2.413726
   H (  8)  3.430995  1.083258  2.226567  3.563963  4.256292  4.297939
   H (  9)  4.327295  2.067004  1.099012  2.161167  3.444159  4.301602
   H ( 10)  4.218820  3.401105  2.156643  1.088076  2.061528  3.431082
   H ( 11)  3.418667  4.243742  3.491974  2.088092  1.090021  2.065267
   C ( 12)  1.285204  3.659268  3.923672  3.444999  2.496437  1.504554
   H ( 13)  2.315163  4.588763  4.819860  4.238244  3.233516  2.409444
             H (  7)   H (  8)   H (  9)   H ( 10)   H ( 11)   C ( 12)
   H (  8)  2.975031
   H (  9)  4.420076  2.602135
   H ( 10)  4.815149  4.374276  2.368715
   H ( 11)  4.329200  5.325679  4.241894  2.314270
   C ( 12)  2.295393  4.462841  5.011006  4.363360  3.052678
   H ( 13)  3.239198  5.356777  5.878912  5.040184  3.528152  1.077208

 
 A cutoff of  1.0D-14 yielded   1353 shell pairs
 There are     13307 function pairs
 
 -------------------------------------------------------
 OpenMP Integral Computing Module                       
 Release: version 1.0, May 2013, Q-Chem Inc. Pittsburgh 
 -------------------------------------------------------
 Integral Job Info:
 Integral job number is                      11
 Integral operator is                         1
 short-range coefficients                     0
 long-range coefficients              100000000
 Omega coefficients                           0
 if combine SR and LR in K                    0
 Integral screening is                        0
 Integral computing path is                   2
 max size of driver memory is            800000
 size of driver memory is                593474
 size of scratch memory is              2361544
 max col of scratch BK array               1296
 max len of scratch array in speh3          155
 max len of scratch index in speh4           18
 max int batch size is                      520
 min int batch size is                       52
 fixed nKL is                                52
 max L of basis functions is                  2
 order of int derivative is                   0
 number of shells is                         53
 number of basis is                         163
 number of cartesian basis is               163
 number of contracted shell pairs          1353
 number of primitive shell pairs           4479
 maxK2 (contraction) of shell pair           36
 max number of K2 of shell pair               1
 max number of CS2 of shell pair            130
 max number of PS2 of shell pair            726
 mem total for path MDJ                  532812
 -------------------------------------------------------
 Smallest overlap matrix eigenvalue = 2.10E-05

 Scale SEOQF with 1.000000e-01/1.000000e-01/1.000000e-01

 Standard Electronic Orientation quadrupole field applied
 Nucleus-field energy     =     0.0000000058 hartrees
 Guess MOs from core Hamiltonian diagonalization
 Mixing HOMO and LUMO in initial guess
 Adding  50% of the LUMO to the HOMO
 An unrestricted hybrid HF-DFT SCF calculation will be
 performed using Pulay DIIS extrapolation
 Exchange:     0.2000 Hartree-Fock + 0.0800 Slater + 0.7200 B88
 Correlation:  0.1900 VWN1RPA + 0.8100 LYP
 Using SG-1 standard quadrature grid
 SCF converges when DIIS error is below 1.0E-08
 using 4 threads for integral computing
 -------------------------------------------------------
 OpenMP Integral computing Module                
 Release: version 1.0, May 2013, Q-Chem Inc. Pittsburgh 
 -------------------------------------------------------
 -------------------------------------------------------
 OpenMP BLAS3 based DFT computing Module                
 Release: version 1.0, May 2013, Q-Chem Inc. Pittsburgh 
 -------------------------------------------------------
 ---------------------------------------
  Cycle       Energy         DIIS Error
 ---------------------------------------
    1    -230.0939771360      9.66E-02
    2    -190.2373242757      9.28E-02
    3    -245.0179407838      6.95E-02
    4    -232.0486344366      8.58E-02
    5    -285.1171142505      1.78E-02
    6    -285.0902715465      2.06E-02
    7    -286.6293501567      5.42E-03
    8    -286.6862942080      3.66E-03
    9    -286.7349619965      1.42E-03
   10    -286.7431698810      4.77E-04
   11    -286.7442215129      1.73E-04
   12    -286.7446413746      1.06E-04
   13    -286.7447406319      5.06E-05
   14    -286.7447739619      1.11E-05
   15    -286.7447850164      5.00E-06
   16    -286.7447901210      1.68E-06
   17    -286.7447923562      1.21E-06
   18    -286.7447940188      5.03E-07
   19    -286.7447950610      2.18E-07
   20    -286.7447952493      8.64E-08
   21    -286.7447952732      4.49E-08
   22    -286.7447952810      1.79E-08
   23    -286.7447952818      4.95E-09 Convergence criterion met
 ---------------------------------------
 <S^2> = 0.7746
 SCF time:  CPU 112.08 s  wall 49.51 s
 SCF   energy in the final basis set = -286.74479528
 Total energy in the final basis set = -286.74479528
 
 --------------------------------------------------------------
 
                    Orbital Energies (a.u.)
 --------------------------------------------------------------
 
 Alpha MOs
 -- Occupied --
-14.365 -10.251 -10.246 -10.219 -10.214 -10.208 -10.194  -0.981
 -0.812  -0.762  -0.685  -0.604  -0.600  -0.543  -0.498  -0.494
 -0.446  -0.425  -0.389  -0.380  -0.335  -0.318  -0.252  -0.230
 -0.207
 -- Virtual --
 -0.043  -0.021   0.010   0.014   0.019   0.035   0.043   0.049
  0.065   0.072   0.074   0.080   0.081   0.094   0.104   0.117
  0.128   0.136   0.140   0.142   0.149   0.155   0.161   0.176
  0.188   0.194   0.199   0.201   0.210   0.214   0.233   0.240
  0.244   0.258   0.268   0.286   0.305   0.310   0.323   0.336
  0.374   0.444   0.479   0.513   0.576   0.632   0.651   0.665
  0.683   0.692   0.700   0.728   0.741   0.748   0.769   0.798
  0.802   0.853   0.869   0.902   0.942   0.951   0.960   0.973
  0.989   1.025   1.032   1.049   1.080   1.120   1.151   1.169
  1.177   1.228   1.264   1.290   1.303   1.361   1.396   1.403
  1.470   1.475   1.546   1.632   1.639   1.665   1.689   1.748
  1.802   1.833   1.864   1.933   1.936   1.954   1.987   2.030
  2.041   2.078   2.111   2.174   2.217   2.247   2.307   2.344
  2.376   2.383   2.413   2.434   2.450   2.484   2.497   2.519
  2.551   2.591   2.610   2.665   2.684   2.691   2.774   2.795
  2.854   2.939   3.059   3.105   3.230   3.286   3.343   3.361
  3.489   3.707   3.781   4.170   4.266   4.382   4.467   4.582
  4.687   4.953
 
 Beta MOs
 -- Occupied --
-14.365 -10.248 -10.247 -10.219 -10.209 -10.199 -10.193  -0.980
 -0.807  -0.753  -0.677  -0.601  -0.590  -0.538  -0.492  -0.486
 -0.442  -0.415  -0.386  -0.379  -0.332  -0.314  -0.240  -0.205
 -- Virtual --
 -0.091  -0.036  -0.013   0.012   0.015   0.021   0.036   0.044
  0.050   0.065   0.073   0.075   0.083   0.085   0.096   0.104
  0.118   0.129   0.139   0.141   0.144   0.150   0.155   0.163
  0.177   0.189   0.196   0.201   0.203   0.210   0.217   0.234
  0.242   0.246   0.261   0.269   0.288   0.305   0.312   0.323
  0.338   0.382   0.452   0.481   0.521   0.578   0.640   0.655
  0.673   0.695   0.698   0.706   0.732   0.749   0.749   0.773
  0.798   0.806   0.855   0.877   0.906   0.945   0.953   0.964
  0.980   0.991   1.029   1.039   1.056   1.082   1.122   1.158
  1.171   1.178   1.233   1.266   1.291   1.309   1.363   1.402
  1.406   1.476   1.481   1.549   1.650   1.657   1.691   1.698
  1.752   1.806   1.849   1.878   1.939   1.943   1.962   1.992
  2.032   2.045   2.087   2.117   2.177   2.218   2.250   2.313
  2.350   2.379   2.388   2.420   2.436   2.452   2.487   2.502
  2.522   2.553   2.594   2.612   2.668   2.699   2.704   2.780
  2.803   2.857   2.943   3.063   3.106   3.234   3.291   3.348
  3.362   3.499   3.716   3.782   4.170   4.271   4.398   4.477
  4.583   4.690   4.955
 --------------------------------------------------------------
 
          Ground-State Mulliken Net Atomic Charges

     Atom                 Charge (a.u.)    Spin (a.u.)
  --------------------------------------------------------
      1 C                    -0.202720      -0.143502
      2 C                    -0.237835       1.060608
      3 C                    -0.160501      -0.220118
      4 C                     0.020194       0.073231
      5 C                    -0.180163      -0.051699
      6 N                    -0.147783       0.006912
      7 H                     0.174484       0.004662
      8 H                     0.147197       0.009967
      9 H                     0.138126       0.078774
     10 H                     0.118989      -0.000662
     11 H                     0.125215       0.003591
     12 C                     0.043656       0.185449
     13 H                     0.161141      -0.007214
  --------------------------------------------------------
  Sum of atomic charges =     0.000000
  Sum of spin   charges =     1.000000

 -----------------------------------------------------------------
                    Cartesian Multipole Moments
 -----------------------------------------------------------------
    Charge (ESU x 10^10)
                 0.0000
    Dipole Moment (Debye)
         X       1.0351      Y      -0.9415      Z       0.6356
       Tot       1.5368
    Quadrupole Moments (Debye-Ang)
        XX     -36.9758     XY       2.4376     YY     -40.3484
        XZ      -2.3752     YZ       5.2784     ZZ     -42.7624
    Octopole Moments (Debye-Ang^2)
       XXX       1.9602    XXY       2.1741    XYY      -1.6874
       YYY     -20.7823    XXZ      10.0254    XYZ       4.8449
       YYZ       8.0477    XZZ      -1.7928    YZZ      -7.0337
       ZZZ       8.0882
    Hexadecapole Moments (Debye-Ang^3)
      XXXX    -384.6954   XXXY     -48.8601   XXYY    -128.3840
      XYYY     -71.4303   YYYY    -416.6446   XXXZ      72.0181
      XXYZ       5.1099   XYYZ      23.1176   YYYZ      26.2911
      XXZZ     -92.9556   XYZZ     -32.3731   YYZZ    -106.4977
      XZZZ      66.2269   YZZZ       7.2204   ZZZZ    -161.3903
 -----------------------------------------------------------------
Archival summary:
1\1\c8-68\SP\ProcedureUnspecified\6-31+G**\166(2)\hpark21\WedMar201:14:412022WedMar201:14:412022\0\\#,ProcedureUnspecified,6-31+G**,\\0,2\N\C,1,1.42036\H,2,1.09002,1,110.014\C,2,1.3478,1,132.185,3,173.061,0\H,4,1.08808,2,115.213,1,-171.568,0\C,4,1.46698,2,130.458,1,8.56468,0\H,6,1.09901,4,113.986,2,-169.913,0\C,6,1.3207,4,128.937,2,11.8191,0\H,8,1.08326,6,135.474,4,178.562,0\C,1,1.50455,2,117.162,3,96.8341,0\H,10,1.07721,1,137.279,2,-79.2487,0\C,10,1.2852,1,65.1125,2,107.625,0\H,12,1.07334,10,153.313,1,149.65,0\\\@

 Total job time:  60.11s(wall), 114.02s(cpu) 
 Wed Mar  2 01:14:42 2022

        *************************************************************
        *                                                           *
        *  Thank you very much for using Q-Chem.  Have a nice day.  *
        *                                                           *
        *************************************************************


