
Running Job 1 of 1 qcts1.in
qchem qcts1.in_40915.0 ./qcts1.d/ 1
/home/leeping/opt/qchem/5.0.2-openmp/exe/qcprog.exe_s qcts1.in_40915.0 ./qcts1.d/
Check license passed

                  Welcome to Q-Chem
     A Quantum Leap Into The Future Of Chemistry


 Q-Chem 5.0, Q-Chem, Inc., Pleasanton, CA (2017)

 Yihan Shao,  Zhengting Gan,  E. Epifanovsky,  A. T. B. Gilbert,  M. Wormit,  
 J. Kussmann,  A. W. Lange,  A. Behn,  Jia Deng,  Xintian Feng,  D. Ghosh,  
 M. Goldey,  P. R. Horn,  L. D. Jacobson,  I. Kaliman,  T. Kus,  A. Landau,  
 Jie Liu,  E. I. Proynov,  R. M. Richard,  R. P. Steele,  E. J. Sundstrom,  
 H. L. Woodcock III,  P. M. Zimmerman,  D. Zuev,  B. Albrecht,  E. Alguire,  
 S. A. Baeppler,  D. Barton,  Z. Benda,  Y. A. Bernard,  E. J. Berquist,  
 K. B. Bravaya,  H. Burton,  D. Casanova,  Chun-Min Chang,  Yunqing Chen,  
 A. Chien,  K. D. Closser,  M. P. Coons,  S. Dasgupta,  A. L. Dempwolff,  
 M. Diedenhofen,  Hainam Do,  R. G. Edgar,  Po-Tung Fang,  S. Fatehi,  
 Qingguo Feng,  J. Fosso-Tande,  Qinghui Ge,  A. Ghysels,  G. Gidofalvi,  
 J. Gomes,  J. Gonthier,  A. Gunina,  M. W. D. Hanson-Heine,  
 P. H. P. Harbach,  A. W. Hauser,  J. E. Herr,  E. G. Hohenstein,  
 Z. C. Holden,  Kerwin Hui,  T.-C. Jagau,  Hyunjun Ji,  B. Kaduk,  
 K. Khistyaev,  Jaehoon Kim,  P. Klunzinger,  K. Koh,  D. Kosenkov,  
 L. Koulias,  T. Kowalczyk,  C. M. Krauter,  A. Kunitsa,  Ka Un Lao,  
 A. Laurent,  K. V. Lawler,  Joonho Lee,  D. Lefrancois,  S. Lehtola,  
 D. S. Levine,  Yi-Pei Li,  You-Sheng Lin,  Fenglai Liu,  E. Livshits,  
 A. Luenser,  P. Manohar,  E. Mansoor,  S. F. Manzer,  Shan-Ping Mao,  
 Yuezhi Mao,  N. Mardirossian,  A. V. Marenich,  T. Markovich,  
 L. A. Martinez-Martinez,  S. A. Maurer,  N. J. Mayhall,  S. C. McKenzie,  
 J.-M. Mewes,  A. F. Morrison,  J. W. Mullinax,  K. Nanda,  
 T. S. Nguyen-Beck,  R. Olivares-Amaya,  J. A. Parkhill,  T. M. Perrine,  
 F. Plasser,  S. Prager,  A. Prociuk,  E. Ramos,  D. R. Rehn,  F. Rob,  
 M. Schneider,  N. Sergueev,  S. M. Sharada,  S. Sharma,  D. W. Small,  
 T. Stauch,  T. Stein,  Yu-Chuan Su,  A. J. W. Thom,  A. Tkatchenko,  
 T. Tsuchimochi,  L. Vogt,  O. Vydrov,  M. A. Watson,  J. Wenzel,  
 M. de Wergifosse,  T. A. Wesolowski,  A. White,  J. Witte,  A. Yamada,  
 Jun Yang,  K. Yao,  S. Yeganeh,  S. R. Yost,  Zhi-Qiang You,  A. Zech,  
 Igor Ying Zhang,  Xing Zhang,  Yan Zhao,  Ying Zhu,  B. R. Brooks,  
 G. K. L. Chan,  C. J. Cramer,  M. S. Gordon,  W. J. Hehre,  A. Klamt,  
 M. W. Schmidt,  C. D. Sherrill,  D. G. Truhlar,  A. Aspuru-Guzik,  R. Baer,  
 A. T. Bell,  N. A. Besley,  Jeng-Da Chai,  R. A. DiStasio Jr.,  A. Dreuw,  
 B. D. Dunietz,  T. R. Furlani,  Chao-Ping Hsu,  Yousung Jung,  Jing Kong,  
 D. S. Lambrecht,  WanZhen Liang,  C. Ochsenfeld,  V. A. Rassolov,  
 L. V. Slipchenko,  J. E. Subotnik,  T. Van Voorhis,  J. M. Herbert,  
 A. I. Krylov,  P. M. W. Gill,  M. Head-Gordon

 Contributors to earlier versions of Q-Chem not listed above: 
 R. D. Adamson,  B. Austin,  J. Baker,  G. J. O. Beran,  K. Brandhorst,  
 S. T. Brown,  E. F. C. Byrd,  A. K. Chakraborty,  C.-L. Cheng,  
 Siu Hung Chien,  D. M. Chipman,  D. L. Crittenden,  H. Dachsel,  
 R. J. Doerksen,  A. D. Dutoi,  L. Fusti-Molnar,  W. A. Goddard III,  
 A. Golubeva-Zadorozhnaya,  S. R. Gwaltney,  G. Hawkins,  A. Heyden,  
 S. Hirata,  G. Kedziora,  F. J. Keil,  C. Kelley,  Jihan Kim,  R. A. King,  
 R. Z. Khaliullin,  P. P. Korambath,  W. Kurlancheek,  A. M. Lee,  M. S. Lee,  
 S. V. Levchenko,  Ching Yeh Lin,  D. Liotard,  R. C. Lochan,  I. Lotan,  
 P. E. Maslen,  N. Nair,  D. P. O'Neill,  D. Neuhauser,  E. Neuscamman,  
 C. M. Oana,  R. Olson,  B. Peters,  R. Peverati,  P. A. Pieniazek,  
 Y. M. Rhee,  J. Ritchie,  M. A. Rohrdanz,  E. Rosta,  N. J. Russ,  
 H. F. Schaefer III,  N. E. Schultz,  N. Shenvi,  A. C. Simmonett,  A. Sodt,  
 D. Stuck,  K. S. Thanthiriwatte,  V. Vanovschi,  Tao Wang,  A. Warshel,  
 C. F. Williams,  Q. Wu,  X. Xu,  W. Zhang

 Please cite Q-Chem as follows:
 Y. Shao et al., Mol. Phys. 113, 184-215 (2015)
 DOI: 10.1080/00268976.2014.952696

 Q-Chem 5.0.2 for Intel X86 EM64T Linux

 Parts of Q-Chem use Armadillo 5.200.1 (Boston Tea Smuggler).
 http://arma.sourceforge.net/

 Q-Chem begins on Wed Mar  2 01:10:29 2022  

Host: 
0

     Scratch files written to ./qcts1.d//
 Dec517 15110_ 26548  26544 5633   
Processing $rem in /home/leeping/opt/qchem/5.0.2-openmp/config/preferences.
 MEM_STATIC 2000
 MEM_TOTAL  8000
 SYMMETRY   OFF
 SYM_IGNORE TRUE 

Checking the input file for inconsistencies... 	...done.

--------------------------------------------------------------
User input:
--------------------------------------------------------------
$molecule
0 2
C        1.3702042856    0.1722898742   -1.0234739736
C       -0.2738228105   -1.8770960671   -0.3420086374
C       -1.2037652143   -1.2372731909    0.3436083309
C       -1.2413221777    0.1703423799    0.7549835108
C       -0.4736479440    1.2122643190    0.3786350994
N        0.5103073309    1.3547264949   -0.6357420324
H        1.3776119758   -0.5803976259   -1.7886303499
H       -0.1281727675   -2.8952727241   -0.6819342112
H       -2.0659721450   -1.8261351550    0.6866353672
H       -2.0151576671    0.4040006649    1.4833317200
H       -0.6763847410    2.1787575536    0.8400834099
C        1.9332514306    1.0405319344   -0.2613179487
H        2.7419247638    1.5294689403    0.2557561490
$end

$rem
method                b3lyp
basis                 6-31g(d)
unrestricted          true
symmetry              off
sym_ignore            true
incdft                false
incfock               0
scf_convergence       8
thresh                14
jobtype               sp
scf_guess             read
scf_algorithm         diis
max_scf_cycles        100
$end

--------------------------------------------------------------
 ----------------------------------------------------------------
             Standard Nuclear Orientation (Angstroms)
    I     Atom           X                Y                Z
 ----------------------------------------------------------------
    1      C       1.3702042856     0.1722898742    -1.0234739736
    2      C      -0.2738228105    -1.8770960671    -0.3420086374
    3      C      -1.2037652143    -1.2372731909     0.3436083309
    4      C      -1.2413221777     0.1703423799     0.7549835108
    5      C      -0.4736479440     1.2122643190     0.3786350994
    6      N       0.5103073309     1.3547264949    -0.6357420324
    7      H       1.3776119758    -0.5803976259    -1.7886303499
    8      H      -0.1281727675    -2.8952727241    -0.6819342112
    9      H      -2.0659721450    -1.8261351550     0.6866353672
   10      H      -2.0151576671     0.4040006649     1.4833317200
   11      H      -0.6763847410     2.1787575536     0.8400834099
   12      C       1.9332514306     1.0405319344    -0.2613179487
   13      H       2.7419247638     1.5294689403     0.2557561490
 ----------------------------------------------------------------
 Nuclear Repulsion Energy =   252.1523478243 hartrees
 There are       25 alpha and       24 beta electrons
 Requested basis set is 6-31G(d)
 There are 40 shells and 117 basis functions

 Total QAlloc Memory Limit   8000 MB
 Mega-Array Size      1956 MB
 MEM_STATIC part      2000 MB

                       Distance Matrix (Angstroms)
             C (  1)   C (  2)   C (  3)   C (  4)   C (  5)   N (  6)
   C (  2)  2.714259
   C (  3)  3.237453  1.320696
   C (  4)  3.159586  2.516237  1.466977
   C (  5)  2.539143  3.178585  2.556273  1.347799
   N (  6)  1.512586  3.338535  3.258164  2.530828  1.420361
   H (  7)  1.073339  2.549780  3.411955  3.727251  3.367171  2.413726
   H (  8)  3.430995  1.083258  2.226567  3.563963  4.256292  4.297939
   H (  9)  4.327295  2.067004  1.099012  2.161167  3.444159  4.301602
   H ( 10)  4.218820  3.401105  2.156643  1.088076  2.061528  3.431082
   H ( 11)  3.418667  4.243742  3.491974  2.088092  1.090021  2.065267
   C ( 12)  1.285204  3.659268  3.923672  3.444999  2.496437  1.504554
   H ( 13)  2.315163  4.588763  4.819860  4.238244  3.233516  2.409444
             H (  7)   H (  8)   H (  9)   H ( 10)   H ( 11)   C ( 12)
   H (  8)  2.975031
   H (  9)  4.420076  2.602135
   H ( 10)  4.815149  4.374276  2.368715
   H ( 11)  4.329200  5.325679  4.241894  2.314270
   C ( 12)  2.295393  4.462841  5.011006  4.363360  3.052678
   H ( 13)  3.239198  5.356777  5.878912  5.040184  3.528152  1.077208

 
 A cutoff of  1.0D-14 yielded    788 shell pairs
 There are      7045 function pairs
 
 -------------------------------------------------------
 OpenMP Integral Computing Module                       
 Release: version 1.0, May 2013, Q-Chem Inc. Pittsburgh 
 -------------------------------------------------------
 Integral Job Info:
 Integral job number is                      11
 Integral operator is                         1
 short-range coefficients                     0
 long-range coefficients              100000000
 Omega coefficients                           0
 if combine SR and LR in K                    0
 Integral screening is                        0
 Integral computing path is                   2
 max size of driver memory is            800000
 size of driver memory is                593474
 size of scratch memory is              2361544
 max col of scratch BK array               1296
 max len of scratch array in speh3          155
 max len of scratch index in speh4           18
 max int batch size is                      520
 min int batch size is                       52
 fixed nKL is                                52
 max L of basis functions is                  2
 order of int derivative is                   0
 number of shells is                         40
 number of basis is                         117
 number of cartesian basis is               117
 number of contracted shell pairs           788
 number of primitive shell pairs           3320
 maxK2 (contraction) of shell pair           36
 max number of K2 of shell pair               1
 max number of CS2 of shell pair             88
 max number of PS2 of shell pair            432
 mem total for path MDJ                  532812
 -------------------------------------------------------
 Smallest overlap matrix eigenvalue = 1.55E-03

 Scale SEOQF with 1.000000e-01/1.000000e-01/1.000000e-01

 Standard Electronic Orientation quadrupole field applied
 Nucleus-field energy     =     0.0000000058 hartrees
 Guess MOs from SCF MO coefficient file
 Reading MOs from coefficient file
 Reading MOs from coefficient file
 An unrestricted hybrid HF-DFT SCF calculation will be
 performed using Pulay DIIS extrapolation
 Exchange:     0.2000 Hartree-Fock + 0.0800 Slater + 0.7200 B88
 Correlation:  0.1900 VWN1RPA + 0.8100 LYP
 Using SG-1 standard quadrature grid
 SCF converges when DIIS error is below 1.0E-08
Using Q-Chem read-in guess as SCF_GUESS READ specified.

 using 4 threads for integral computing
 -------------------------------------------------------
 OpenMP Integral computing Module                
 Release: version 1.0, May 2013, Q-Chem Inc. Pittsburgh 
 -------------------------------------------------------
 -------------------------------------------------------
 OpenMP BLAS3 based DFT computing Module                
 Release: version 1.0, May 2013, Q-Chem Inc. Pittsburgh 
 -------------------------------------------------------
 ---------------------------------------
  Cycle       Energy         DIIS Error
 ---------------------------------------
    1    -286.7188535513      1.90E-09
    2    -286.7188535513      2.66E-09 Convergence criterion met
 ---------------------------------------
 <S^2> = 0.7768
 SCF time:  CPU 5.04 s  wall 2.71 s
 SCF   energy in the final basis set = -286.71885355
 Total energy in the final basis set = -286.71885355
 
 --------------------------------------------------------------
 
                    Orbital Energies (a.u.)
 --------------------------------------------------------------
 
 Alpha MOs
 -- Occupied --
-14.349 -10.239 -10.234 -10.206 -10.200 -10.195 -10.181  -0.967
 -0.798  -0.749  -0.672  -0.595  -0.590  -0.533  -0.488  -0.484
 -0.434  -0.414  -0.378  -0.368  -0.323  -0.305  -0.239  -0.218
 -0.193
 -- Virtual --
 -0.023   0.002   0.091   0.104   0.110   0.117   0.138   0.159
  0.166   0.181   0.200   0.269   0.338   0.377   0.394   0.444
  0.476   0.494   0.503   0.537   0.543   0.559   0.578   0.596
  0.627   0.643   0.655   0.668   0.694   0.714   0.766   0.777
  0.795   0.835   0.858   0.865   0.894   0.903   0.938   0.961
  0.979   1.017   1.027   1.071   1.093   1.185   1.219   1.290
  1.321   1.415   1.474   1.493   1.512   1.526   1.583   1.680
  1.709   1.717   1.722   1.781   1.844   1.886   1.898   1.967
  1.982   2.019   2.056   2.148   2.180   2.232   2.310   2.333
  2.341   2.370   2.433   2.490   2.558   2.585   2.694   2.744
  2.764   2.818   2.928   2.983   3.200   3.953   4.068   4.146
  4.252   4.268   4.349   4.578
 
 Beta MOs
 -- Occupied --
-14.349 -10.237 -10.235 -10.206 -10.196 -10.186 -10.180  -0.966
 -0.794  -0.741  -0.664  -0.592  -0.580  -0.528  -0.482  -0.477
 -0.430  -0.404  -0.374  -0.367  -0.321  -0.302  -0.227  -0.191
 -- Virtual --
 -0.075  -0.013   0.014   0.094   0.106   0.111   0.120   0.144
  0.161   0.168   0.186   0.201   0.270   0.343   0.380   0.405
  0.450   0.483   0.496   0.507   0.538   0.554   0.564   0.583
  0.602   0.631   0.657   0.661   0.677   0.694   0.715   0.767
  0.778   0.801   0.838   0.864   0.868   0.904   0.911   0.941
  0.964   0.986   1.022   1.030   1.076   1.097   1.188   1.222
  1.297   1.323   1.423   1.477   1.498   1.515   1.531   1.587
  1.691   1.714   1.727   1.761   1.790   1.858   1.896   1.913
  1.975   1.999   2.024   2.063   2.153   2.186   2.235   2.313
  2.339   2.347   2.371   2.440   2.495   2.562   2.589   2.699
  2.750   2.770   2.823   2.932   2.985   3.205   3.953   4.077
  4.165   4.257   4.272   4.349   4.580
 --------------------------------------------------------------
 
          Ground-State Mulliken Net Atomic Charges

     Atom                 Charge (a.u.)    Spin (a.u.)
  --------------------------------------------------------
      1 C                    -0.032481      -0.114644
      2 C                    -0.229170       0.997010
      3 C                    -0.120097      -0.162773
      4 C                    -0.116769       0.064503
      5 C                     0.004290      -0.052866
      6 N                    -0.400817       0.003215
      7 H                     0.186708       0.005803
      8 H                     0.155362       0.005908
      9 H                     0.141112       0.080414
     10 H                     0.122995      -0.000331
     11 H                     0.135666       0.003775
     12 C                    -0.019406       0.177922
     13 H                     0.172605      -0.007935
  --------------------------------------------------------
  Sum of atomic charges =    -0.000000
  Sum of spin   charges =     1.000000

 -----------------------------------------------------------------
                    Cartesian Multipole Moments
 -----------------------------------------------------------------
    Charge (ESU x 10^10)
                -0.0000
    Dipole Moment (Debye)
         X       1.0595      Y      -0.9481      Z       0.6039
       Tot       1.5447
    Quadrupole Moments (Debye-Ang)
        XX     -35.5895     XY       2.2092     YY     -38.7914
        XZ      -2.0417     YZ       4.8089     ZZ     -40.9785
    Octopole Moments (Debye-Ang^2)
       XXX       1.9888    XXY       1.7832    XYY      -1.8351
       YYY     -20.6782    XXZ       9.0028    XYZ       4.2747
       YYZ       7.2829    XZZ      -1.5957    YZZ      -6.9304
       ZZZ       8.0334
    Hexadecapole Moments (Debye-Ang^3)
      XXXX    -363.1444   XXXY     -48.7744   XXYY    -121.8342
      XYYY     -70.1488   YYYY    -393.4537   XXXZ      70.4718
      XXYZ       4.2266   XYYZ      23.3869   YYYZ      21.7921
      XXZZ     -86.6859   XYZZ     -30.6529   YYZZ     -98.7151
      XZZZ      65.0805   YZZZ       5.9091   ZZZZ    -145.2416
 -----------------------------------------------------------------
Archival summary:
1\1\c8-68\SP\ProcedureUnspecified\6-31G*\166(2)\hpark21\WedMar201:10:372022WedMar201:10:372022\0\\#,ProcedureUnspecified,6-31G*,\\0,2\N\C,1,1.42036\H,2,1.09002,1,110.014\C,2,1.3478,1,132.185,3,173.061,0\H,4,1.08808,2,115.213,1,-171.568,0\C,4,1.46698,2,130.458,1,8.56468,0\H,6,1.09901,4,113.986,2,-169.913,0\C,6,1.3207,4,128.937,2,11.8191,0\H,8,1.08326,6,135.474,4,178.562,0\C,1,1.50455,2,117.162,3,96.8341,0\H,10,1.07721,1,137.279,2,-79.2487,0\C,10,1.2852,1,65.1125,2,107.625,0\H,12,1.07334,10,153.313,1,149.65,0\\\@

 Total job time:  8.25s(wall), 6.74s(cpu) 
 Wed Mar  2 01:10:37 2022

        *************************************************************
        *                                                           *
        *  Thank you very much for using Q-Chem.  Have a nice day.  *
        *                                                           *
        *************************************************************


