
Running Job 1 of 1 qcts2.in
qchem qcts2.in_41585.0 ./qcts2.d/ 1
/home/leeping/opt/qchem/5.0.2-openmp/exe/qcprog.exe_s qcts2.in_41585.0 ./qcts2.d/
Check license passed

                  Welcome to Q-Chem
     A Quantum Leap Into The Future Of Chemistry


 Q-Chem 5.0, Q-Chem, Inc., Pleasanton, CA (2017)

 Yihan Shao,  Zhengting Gan,  E. Epifanovsky,  A. T. B. Gilbert,  M. Wormit,  
 J. Kussmann,  A. W. Lange,  A. Behn,  Jia Deng,  Xintian Feng,  D. Ghosh,  
 M. Goldey,  P. R. Horn,  L. D. Jacobson,  I. Kaliman,  T. Kus,  A. Landau,  
 Jie Liu,  E. I. Proynov,  R. M. Richard,  R. P. Steele,  E. J. Sundstrom,  
 H. L. Woodcock III,  P. M. Zimmerman,  D. Zuev,  B. Albrecht,  E. Alguire,  
 S. A. Baeppler,  D. Barton,  Z. Benda,  Y. A. Bernard,  E. J. Berquist,  
 K. B. Bravaya,  H. Burton,  D. Casanova,  Chun-Min Chang,  Yunqing Chen,  
 A. Chien,  K. D. Closser,  M. P. Coons,  S. Dasgupta,  A. L. Dempwolff,  
 M. Diedenhofen,  Hainam Do,  R. G. Edgar,  Po-Tung Fang,  S. Fatehi,  
 Qingguo Feng,  J. Fosso-Tande,  Qinghui Ge,  A. Ghysels,  G. Gidofalvi,  
 J. Gomes,  J. Gonthier,  A. Gunina,  M. W. D. Hanson-Heine,  
 P. H. P. Harbach,  A. W. Hauser,  J. E. Herr,  E. G. Hohenstein,  
 Z. C. Holden,  Kerwin Hui,  T.-C. Jagau,  Hyunjun Ji,  B. Kaduk,  
 K. Khistyaev,  Jaehoon Kim,  P. Klunzinger,  K. Koh,  D. Kosenkov,  
 L. Koulias,  T. Kowalczyk,  C. M. Krauter,  A. Kunitsa,  Ka Un Lao,  
 A. Laurent,  K. V. Lawler,  Joonho Lee,  D. Lefrancois,  S. Lehtola,  
 D. S. Levine,  Yi-Pei Li,  You-Sheng Lin,  Fenglai Liu,  E. Livshits,  
 A. Luenser,  P. Manohar,  E. Mansoor,  S. F. Manzer,  Shan-Ping Mao,  
 Yuezhi Mao,  N. Mardirossian,  A. V. Marenich,  T. Markovich,  
 L. A. Martinez-Martinez,  S. A. Maurer,  N. J. Mayhall,  S. C. McKenzie,  
 J.-M. Mewes,  A. F. Morrison,  J. W. Mullinax,  K. Nanda,  
 T. S. Nguyen-Beck,  R. Olivares-Amaya,  J. A. Parkhill,  T. M. Perrine,  
 F. Plasser,  S. Prager,  A. Prociuk,  E. Ramos,  D. R. Rehn,  F. Rob,  
 M. Schneider,  N. Sergueev,  S. M. Sharada,  S. Sharma,  D. W. Small,  
 T. Stauch,  T. Stein,  Yu-Chuan Su,  A. J. W. Thom,  A. Tkatchenko,  
 T. Tsuchimochi,  L. Vogt,  O. Vydrov,  M. A. Watson,  J. Wenzel,  
 M. de Wergifosse,  T. A. Wesolowski,  A. White,  J. Witte,  A. Yamada,  
 Jun Yang,  K. Yao,  S. Yeganeh,  S. R. Yost,  Zhi-Qiang You,  A. Zech,  
 Igor Ying Zhang,  Xing Zhang,  Yan Zhao,  Ying Zhu,  B. R. Brooks,  
 G. K. L. Chan,  C. J. Cramer,  M. S. Gordon,  W. J. Hehre,  A. Klamt,  
 M. W. Schmidt,  C. D. Sherrill,  D. G. Truhlar,  A. Aspuru-Guzik,  R. Baer,  
 A. T. Bell,  N. A. Besley,  Jeng-Da Chai,  R. A. DiStasio Jr.,  A. Dreuw,  
 B. D. Dunietz,  T. R. Furlani,  Chao-Ping Hsu,  Yousung Jung,  Jing Kong,  
 D. S. Lambrecht,  WanZhen Liang,  C. Ochsenfeld,  V. A. Rassolov,  
 L. V. Slipchenko,  J. E. Subotnik,  T. Van Voorhis,  J. M. Herbert,  
 A. I. Krylov,  P. M. W. Gill,  M. Head-Gordon

 Contributors to earlier versions of Q-Chem not listed above: 
 R. D. Adamson,  B. Austin,  J. Baker,  G. J. O. Beran,  K. Brandhorst,  
 S. T. Brown,  E. F. C. Byrd,  A. K. Chakraborty,  C.-L. Cheng,  
 Siu Hung Chien,  D. M. Chipman,  D. L. Crittenden,  H. Dachsel,  
 R. J. Doerksen,  A. D. Dutoi,  L. Fusti-Molnar,  W. A. Goddard III,  
 A. Golubeva-Zadorozhnaya,  S. R. Gwaltney,  G. Hawkins,  A. Heyden,  
 S. Hirata,  G. Kedziora,  F. J. Keil,  C. Kelley,  Jihan Kim,  R. A. King,  
 R. Z. Khaliullin,  P. P. Korambath,  W. Kurlancheek,  A. M. Lee,  M. S. Lee,  
 S. V. Levchenko,  Ching Yeh Lin,  D. Liotard,  R. C. Lochan,  I. Lotan,  
 P. E. Maslen,  N. Nair,  D. P. O'Neill,  D. Neuhauser,  E. Neuscamman,  
 C. M. Oana,  R. Olson,  B. Peters,  R. Peverati,  P. A. Pieniazek,  
 Y. M. Rhee,  J. Ritchie,  M. A. Rohrdanz,  E. Rosta,  N. J. Russ,  
 H. F. Schaefer III,  N. E. Schultz,  N. Shenvi,  A. C. Simmonett,  A. Sodt,  
 D. Stuck,  K. S. Thanthiriwatte,  V. Vanovschi,  Tao Wang,  A. Warshel,  
 C. F. Williams,  Q. Wu,  X. Xu,  W. Zhang

 Please cite Q-Chem as follows:
 Y. Shao et al., Mol. Phys. 113, 184-215 (2015)
 DOI: 10.1080/00268976.2014.952696

 Q-Chem 5.0.2 for Intel X86 EM64T Linux

 Parts of Q-Chem use Armadillo 5.200.1 (Boston Tea Smuggler).
 http://arma.sourceforge.net/

 Q-Chem begins on Wed Mar  2 01:20:08 2022  

Host: 
0

     Scratch files written to ./qcts2.d//
 Dec517 15110_ 26548  26544 5633   
Processing $rem in /home/leeping/opt/qchem/5.0.2-openmp/config/preferences.
 MEM_STATIC 2000
 MEM_TOTAL  8000
 SYMMETRY   OFF
 SYM_IGNORE TRUE 

Checking the input file for inconsistencies... 	...done.

--------------------------------------------------------------
User input:
--------------------------------------------------------------
$molecule
0 2
C        1.3702042856    0.1722898742   -1.0234739736
C       -0.2738228105   -1.8770960671   -0.3420086374
C       -1.2037652143   -1.2372731909    0.3436083309
C       -1.2413221777    0.1703423799    0.7549835108
C       -0.4736479440    1.2122643190    0.3786350994
N        0.5103073309    1.3547264949   -0.6357420324
H        1.3776119758   -0.5803976259   -1.7886303499
H       -0.1281727675   -2.8952727241   -0.6819342112
H       -2.0659721450   -1.8261351550    0.6866353672
H       -2.0151576671    0.4040006649    1.4833317200
H       -0.6763847410    2.1787575536    0.8400834099
C        1.9332514306    1.0405319344   -0.2613179487
H        2.7419247638    1.5294689403    0.2557561490
$end

$rem
method                b3lyp
basis                 6-31+g(d,p)
unrestricted          true
symmetry              off
sym_ignore            true
incdft                false
incfock               0
scf_convergence       8
thresh                14
jobtype               freq
scf_guess             read
scf_algorithm         diis
max_scf_cycles        100
$end

--------------------------------------------------------------
 ----------------------------------------------------------------
             Standard Nuclear Orientation (Angstroms)
    I     Atom           X                Y                Z
 ----------------------------------------------------------------
    1      C       1.3702042856     0.1722898742    -1.0234739736
    2      C      -0.2738228105    -1.8770960671    -0.3420086374
    3      C      -1.2037652143    -1.2372731909     0.3436083309
    4      C      -1.2413221777     0.1703423799     0.7549835108
    5      C      -0.4736479440     1.2122643190     0.3786350994
    6      N       0.5103073309     1.3547264949    -0.6357420324
    7      H       1.3776119758    -0.5803976259    -1.7886303499
    8      H      -0.1281727675    -2.8952727241    -0.6819342112
    9      H      -2.0659721450    -1.8261351550     0.6866353672
   10      H      -2.0151576671     0.4040006649     1.4833317200
   11      H      -0.6763847410     2.1787575536     0.8400834099
   12      C       1.9332514306     1.0405319344    -0.2613179487
   13      H       2.7419247638     1.5294689403     0.2557561490
 ----------------------------------------------------------------
 Nuclear Repulsion Energy =   252.1523478243 hartrees
 There are       25 alpha and       24 beta electrons
 Requested basis set is 6-31+G(d,p)
 There are 53 shells and 163 basis functions

 Total QAlloc Memory Limit   8000 MB
 Mega-Array Size      1956 MB
 MEM_STATIC part      2000 MB

                       Distance Matrix (Angstroms)
             C (  1)   C (  2)   C (  3)   C (  4)   C (  5)   N (  6)
   C (  2)  2.714259
   C (  3)  3.237453  1.320696
   C (  4)  3.159586  2.516237  1.466977
   C (  5)  2.539143  3.178585  2.556273  1.347799
   N (  6)  1.512586  3.338535  3.258164  2.530828  1.420361
   H (  7)  1.073339  2.549780  3.411955  3.727251  3.367171  2.413726
   H (  8)  3.430995  1.083258  2.226567  3.563963  4.256292  4.297939
   H (  9)  4.327295  2.067004  1.099012  2.161167  3.444159  4.301602
   H ( 10)  4.218820  3.401105  2.156643  1.088076  2.061528  3.431082
   H ( 11)  3.418667  4.243742  3.491974  2.088092  1.090021  2.065267
   C ( 12)  1.285204  3.659268  3.923672  3.444999  2.496437  1.504554
   H ( 13)  2.315163  4.588763  4.819860  4.238244  3.233516  2.409444
             H (  7)   H (  8)   H (  9)   H ( 10)   H ( 11)   C ( 12)
   H (  8)  2.975031
   H (  9)  4.420076  2.602135
   H ( 10)  4.815149  4.374276  2.368715
   H ( 11)  4.329200  5.325679  4.241894  2.314270
   C ( 12)  2.295393  4.462841  5.011006  4.363360  3.052678
   H ( 13)  3.239198  5.356777  5.878912  5.040184  3.528152  1.077208

 
 A cutoff of  1.0D-14 yielded   1353 shell pairs
 There are     13307 function pairs
 Smallest overlap matrix eigenvalue = 2.10E-05
 Guess MOs from SCF MO coefficient file
 Reading MOs from coefficient file
 Reading MOs from coefficient file
 An unrestricted hybrid HF-DFT SCF calculation will be
 performed using Pulay DIIS extrapolation
 Exchange:     0.2000 Hartree-Fock + 0.0800 Slater + 0.7200 B88
 Correlation:  0.1900 VWN1RPA + 0.8100 LYP
 Using SG-1 standard quadrature grid
 SCF converges when DIIS error is below 1.0E-08
Using Q-Chem read-in guess as SCF_GUESS READ specified.

 -------------------------------------------------------
 OpenMP BLAS3 based DFT computing Module                
 -------------------------------------------------------
 ---------------------------------------
  Cycle       Energy         DIIS Error
 ---------------------------------------
    1    -286.7447952819      1.64E-09
    2    -286.7447952819      2.24E-09 Convergence criterion met
 ---------------------------------------
 <S^2> = 0.7746
 SCF time:  CPU 6.71 s  wall 13.34 s
 SCF   energy in the final basis set = -286.74479528
 Total energy in the final basis set = -286.74479528
 
 --------------------------------------------------------------
 
                    Orbital Energies (a.u.)
 --------------------------------------------------------------
 
 Alpha MOs
 -- Occupied --
-14.365 -10.251 -10.246 -10.219 -10.214 -10.208 -10.194  -0.981
 -0.812  -0.762  -0.685  -0.604  -0.600  -0.543  -0.498  -0.494
 -0.446  -0.425  -0.389  -0.380  -0.335  -0.318  -0.252  -0.230
 -0.207
 -- Virtual --
 -0.043  -0.021   0.010   0.014   0.019   0.035   0.043   0.049
  0.065   0.072   0.074   0.080   0.081   0.094   0.104   0.117
  0.128   0.136   0.140   0.142   0.149   0.155   0.161   0.176
  0.188   0.194   0.199   0.201   0.210   0.214   0.233   0.240
  0.244   0.258   0.268   0.286   0.305   0.310   0.323   0.336
  0.374   0.444   0.479   0.513   0.576   0.632   0.651   0.665
  0.683   0.692   0.700   0.728   0.741   0.748   0.769   0.798
  0.802   0.853   0.869   0.902   0.942   0.951   0.960   0.973
  0.989   1.025   1.032   1.049   1.080   1.120   1.151   1.169
  1.177   1.228   1.264   1.290   1.303   1.361   1.396   1.403
  1.470   1.475   1.546   1.632   1.639   1.665   1.689   1.748
  1.802   1.833   1.864   1.933   1.936   1.954   1.987   2.030
  2.041   2.078   2.111   2.174   2.217   2.247   2.307   2.344
  2.376   2.383   2.413   2.434   2.450   2.484   2.497   2.519
  2.551   2.591   2.610   2.665   2.684   2.691   2.774   2.795
  2.854   2.939   3.059   3.105   3.230   3.286   3.343   3.361
  3.489   3.707   3.781   4.170   4.266   4.382   4.467   4.582
  4.687   4.953
 
 Beta MOs
 -- Occupied --
-14.365 -10.248 -10.247 -10.219 -10.209 -10.199 -10.193  -0.980
 -0.807  -0.753  -0.677  -0.601  -0.590  -0.538  -0.492  -0.486
 -0.442  -0.415  -0.386  -0.379  -0.332  -0.314  -0.240  -0.205
 -- Virtual --
 -0.091  -0.036  -0.013   0.012   0.015   0.021   0.036   0.044
  0.050   0.065   0.073   0.075   0.083   0.085   0.096   0.104
  0.118   0.129   0.139   0.141   0.144   0.150   0.155   0.163
  0.177   0.189   0.196   0.201   0.203   0.210   0.217   0.234
  0.242   0.246   0.261   0.269   0.288   0.305   0.312   0.323
  0.338   0.382   0.452   0.481   0.521   0.578   0.640   0.655
  0.673   0.695   0.698   0.706   0.732   0.749   0.749   0.773
  0.798   0.806   0.855   0.877   0.906   0.945   0.953   0.964
  0.980   0.991   1.029   1.039   1.056   1.082   1.122   1.158
  1.171   1.178   1.233   1.266   1.291   1.309   1.363   1.402
  1.406   1.476   1.481   1.549   1.650   1.657   1.691   1.698
  1.752   1.806   1.849   1.878   1.939   1.943   1.962   1.992
  2.032   2.045   2.087   2.117   2.177   2.218   2.250   2.313
  2.350   2.379   2.388   2.420   2.436   2.452   2.487   2.502
  2.522   2.553   2.594   2.612   2.668   2.699   2.704   2.780
  2.803   2.857   2.943   3.063   3.106   3.234   3.291   3.348
  3.362   3.499   3.716   3.782   4.170   4.271   4.398   4.477
  4.583   4.690   4.955
 --------------------------------------------------------------
 
          Ground-State Mulliken Net Atomic Charges

     Atom                 Charge (a.u.)    Spin (a.u.)
  --------------------------------------------------------
      1 C                    -0.202720      -0.143487
      2 C                    -0.237835       1.060591
      3 C                    -0.160501      -0.220103
      4 C                     0.020194       0.073214
      5 C                    -0.180163      -0.051680
      6 N                    -0.147783       0.006910
      7 H                     0.174484       0.004662
      8 H                     0.147197       0.009968
      9 H                     0.138126       0.078774
     10 H                     0.118989      -0.000661
     11 H                     0.125215       0.003590
     12 C                     0.043655       0.185435
     13 H                     0.161141      -0.007213
  --------------------------------------------------------
  Sum of atomic charges =     0.000000
  Sum of spin   charges =     1.000000

 -----------------------------------------------------------------
                    Cartesian Multipole Moments
 -----------------------------------------------------------------
    Charge (ESU x 10^10)
                 0.0000
    Dipole Moment (Debye)
         X       1.0351      Y      -0.9415      Z       0.6356
       Tot       1.5368
    Quadrupole Moments (Debye-Ang)
        XX     -36.9758     XY       2.4376     YY     -40.3484
        XZ      -2.3752     YZ       5.2784     ZZ     -42.7624
    Octopole Moments (Debye-Ang^2)
       XXX       1.9602    XXY       2.1741    XYY      -1.6874
       YYY     -20.7823    XXZ      10.0254    XYZ       4.8449
       YYZ       8.0477    XZZ      -1.7928    YZZ      -7.0337
       ZZZ       8.0882
    Hexadecapole Moments (Debye-Ang^3)
      XXXX    -384.6954   XXXY     -48.8601   XXYY    -128.3840
      XYYY     -71.4303   YYYY    -416.6447   XXXZ      72.0181
      XXYZ       5.1099   XYYZ      23.1176   YYYZ      26.2911
      XXZZ     -92.9556   XYZZ     -32.3731   YYZZ    -106.4977
      XZZZ      66.2269   YZZZ       7.2204   ZZZZ    -161.3903
 -----------------------------------------------------------------
 Calculating MO derivatives via CPSCF
   1         3          39      0.317717    0.071101
   2         3          39      0.038041    0.007859
   3         3          39      0.005325    0.000892
   4         3          39      0.000792    0.000123
   5        21          21      0.000072    0.000013
   6        41           1      0.000001    0.000001
   7        42           0      0.000000    0.000000    Roots Converged
 Time for AOints: 18.9 s (CPU) 21.9 s (wall)
 ------------------------------------------------------------------------------
                     AOints        : Timing summary (seconds)
 ------------------------------------------------------------------------------
     job step          cpu (% of tot)      sys (% of tot)     wall (% of tot)
 ------------------------------------------------------------------------------
  cpscf_lag         0.1095E+03 (27.5)   0.4100E-04 (35.7)   0.1157E+03 (26.7)
  iterzp            0.2692E+03 (67.7)   0.7000E-04 (60.9)   0.2957E+03 (68.2)
  make_fx           0.0000E+00 ( 0.0)   0.0000E+00 ( 0.0)   0.0000E+00 ( 0.0)
  AOints            0.1886E+02 ( 4.7)   0.1000E-05 ( 0.9)   0.2187E+02 ( 5.0)
 ------------------------------------------------------------------------------
   Grand Totals     0.3979E+03          0.1150E-03          0.4338E+03
 ------------------------------------------------------------------------------
 Calculating analytic Hessian of the SCF energy
 Polarizability Matrix (a.u.)
            1           2           3
    1 -85.8088236 -12.5271442  12.2389685
    2 -12.5271442 -95.6012242  -6.9651878
    3  12.2389685  -6.9651878 -61.4759129
 
 Direct stationary perturbation theory relativistic correction:
 
 rels  =       0.069353997649
 relv  =      -0.332310526456
 rel2e =       0.149952356112
 E_rel =      -0.113004172696
 
 Hessian of the SCF Energy
            1           2           3           4           5           6
    1   0.2469557   0.1337522   0.1616575   0.0071099   0.0135057   0.0012284
    2   0.1337522   0.5916411   0.4924365   0.0122561   0.0181223   0.0002962
    3   0.1616575   0.4924365   0.5375546   0.0052785   0.0056235  -0.0045318
    4   0.0071099   0.0122561   0.0052785   0.3557360  -0.2278303  -0.2404516
    5   0.0135057   0.0181223   0.0056235  -0.2278303   0.5189779   0.2491343
    6   0.0012284   0.0002962  -0.0045318  -0.2404516   0.2491343   0.2324682
    7  -0.0045032  -0.0036232  -0.0001364  -0.3014594   0.1830090   0.1960654
    8  -0.0079151  -0.0046751  -0.0004671   0.1461085  -0.1808242  -0.1176761
    9  -0.0006868   0.0006955  -0.0004447   0.1870759  -0.1396903  -0.1726048
   10   0.0054869   0.0038933  -0.0013898   0.0005614   0.0177232   0.0026399
   11   0.0015426   0.0021295   0.0010951   0.0242257  -0.0299262  -0.0241118
   12  -0.0036935  -0.0006407   0.0009896   0.0046864  -0.0180493  -0.0089963
   13  -0.0197328  -0.0008016   0.0003436  -0.0001966   0.0098869   0.0053752
   14   0.0278667   0.0021772  -0.0250649  -0.0077575   0.0062577   0.0077263
   15   0.0069253   0.0043052  -0.0080696  -0.0014641  -0.0067508  -0.0011361
   16  -0.0852968   0.1124901   0.0346149  -0.0056230  -0.0113259  -0.0012336
   17   0.0330368  -0.1128036  -0.0099167   0.0013935  -0.0011124  -0.0022409
   18   0.0071401  -0.0175559  -0.0199244  -0.0006857   0.0047201   0.0017493
   19  -0.0337834   0.0063936  -0.0077123  -0.0029136  -0.0040100   0.0011045
   20   0.0080672  -0.1870919  -0.1770594  -0.0048245  -0.0050000   0.0021791
   21  -0.0160003  -0.1941173  -0.2141326   0.0032390   0.0038928   0.0000402
   22   0.0002455   0.0007200   0.0003603  -0.0332831   0.0274103   0.0156316
   23   0.0004801   0.0001916  -0.0003577   0.0562337  -0.3213208  -0.1085320
   24   0.0006192   0.0012844   0.0015765   0.0225448  -0.0932487  -0.0532627
   25  -0.0007100  -0.0014028  -0.0004027  -0.0213767  -0.0074835   0.0194034
   26   0.0006083   0.0012405   0.0001667   0.0088912   0.0088018  -0.0066297
   27   0.0004382  -0.0011012  -0.0006685   0.0233847   0.0044222   0.0037975
   28   0.0015746   0.0008438  -0.0004381   0.0012392  -0.0010784   0.0003895
   29   0.0002772   0.0005418  -0.0001343  -0.0016148  -0.0043951  -0.0010633
   30   0.0002553   0.0000069   0.0000622   0.0002646  -0.0024648   0.0001748
   31   0.0004141  -0.0007503   0.0055052  -0.0003073  -0.0000459   0.0002746
   32  -0.0022299   0.0025454   0.0006020  -0.0001651   0.0003909   0.0001783
   33   0.0014367   0.0002835  -0.0016271   0.0007510   0.0003416  -0.0001830
   34  -0.1173806  -0.2696150  -0.1997370   0.0005324   0.0001784  -0.0003278
   35  -0.2051981  -0.3154276  -0.2833001  -0.0069348  -0.0101978   0.0005794
   36  -0.1493063  -0.2897814  -0.2966306  -0.0044764  -0.0076964   0.0023001
   37  -0.0003800   0.0058440   0.0020562  -0.0000191   0.0000606  -0.0000992
   38  -0.0037936   0.0014089  -0.0036237   0.0000183   0.0002260   0.0001601
   39  -0.0100137   0.0038883   0.0058462  -0.0001471  -0.0002342   0.0001847
            7           8           9          10          11          12
    1  -0.0045032  -0.0079151  -0.0006868   0.0054869   0.0015426  -0.0036935
    2  -0.0036232  -0.0046751   0.0006955   0.0038933   0.0021295  -0.0006407
    3  -0.0001364  -0.0004671  -0.0004447  -0.0013898   0.0010951   0.0009896
    4  -0.3014594   0.1461085   0.1870759   0.0005614   0.0242257   0.0046864
    5   0.1830090  -0.1808242  -0.1396903   0.0177232  -0.0299262  -0.0180493
    6   0.1960654  -0.1176761  -0.1726048   0.0026399  -0.0241118  -0.0089963
    7   0.5644561  -0.0565372  -0.2733008  -0.0781147  -0.0237949   0.0115115
    8  -0.0565372   0.5617876   0.1472382   0.0167151  -0.2117695  -0.0571235
    9  -0.2733008   0.1472382   0.3120734   0.0235236  -0.0270588  -0.0817076
   10  -0.0781147   0.0167151   0.0235236   0.4767186   0.1502587  -0.2728607
   11  -0.0237949  -0.2117695  -0.0270588   0.1502587   0.6688691   0.0261097
   12   0.0115115  -0.0571235  -0.0817076  -0.2728607   0.0261097   0.3489632
   13   0.0088201  -0.0205441  -0.0067588  -0.2032670  -0.1607427   0.0864313
   14  -0.0093532  -0.0407289  -0.0033872  -0.1834602  -0.3352619   0.0766417
   15  -0.0054866   0.0038276   0.0106146   0.0815880   0.0559018  -0.1048681
   16   0.0016142   0.0166377  -0.0008618  -0.0255011  -0.0157160   0.0261964
   17   0.0008705   0.0015138   0.0013275  -0.0215776   0.0069840   0.0187625
   18  -0.0032717  -0.0071520  -0.0054434   0.0223800   0.0171917  -0.0095101
   19   0.0004686   0.0001361   0.0001453  -0.0008354   0.0002413   0.0001740
   20   0.0002830   0.0000784  -0.0001066  -0.0005875   0.0001112   0.0000874
   21  -0.0007160  -0.0013363  -0.0000911   0.0008690   0.0007128  -0.0006337
   22   0.0030184   0.0247691   0.0046877  -0.0002994  -0.0021203   0.0044053
   23  -0.0089688  -0.0014639   0.0047213   0.0014986   0.0019154  -0.0025880
   24  -0.0028559  -0.0129661  -0.0017068   0.0041307  -0.0013388   0.0056109
   25  -0.1961391  -0.1128813   0.0622650   0.0029794   0.0014763   0.0041439
   26  -0.1016091  -0.1186731   0.0368463  -0.0261940  -0.0184022   0.0090714
   27   0.0657022   0.0420243  -0.0647095  -0.0026185  -0.0065865   0.0084650
   28   0.0010408  -0.0002449  -0.0000503  -0.1874702   0.0375739   0.1438631
   29   0.0219782  -0.0090992  -0.0213671   0.0401223  -0.0638910  -0.0444215
   30   0.0063229   0.0010164  -0.0031814   0.1416332  -0.0457102  -0.1666769
   31   0.0027611  -0.0029808   0.0054583   0.0060585  -0.0186807  -0.0041749
   32  -0.0038885   0.0000632   0.0003537   0.0048621  -0.0202257  -0.0110895
   33   0.0047722  -0.0002269   0.0056850   0.0019544   0.0075524   0.0075356
   34  -0.0020704  -0.0039227  -0.0016176   0.0045871   0.0060862  -0.0017528
   35   0.0017209   0.0043049   0.0005352  -0.0037214  -0.0007309   0.0040544
   36   0.0011572   0.0026325   0.0015738  -0.0022009  -0.0038249   0.0013949
   37   0.0001075   0.0006595   0.0001203  -0.0009042  -0.0003502   0.0010700
   38  -0.0000866  -0.0005140  -0.0001076   0.0004673   0.0001983  -0.0008147
   39   0.0002360   0.0002089  -0.0000576   0.0003511   0.0000673  -0.0005664
           13          14          15          16          17          18
    1  -0.0197328   0.0278667   0.0069253  -0.0852968   0.0330368   0.0071401
    2  -0.0008016   0.0021772   0.0043052   0.1124901  -0.1128036  -0.0175559
    3   0.0003436  -0.0250649  -0.0080696   0.0346149  -0.0099167  -0.0199244
    4  -0.0001966  -0.0077575  -0.0014641  -0.0056230   0.0013935  -0.0006857
    5   0.0098869   0.0062577  -0.0067508  -0.0113259  -0.0011124   0.0047201
    6   0.0053752   0.0077263  -0.0011361  -0.0012336  -0.0022409   0.0017493
    7   0.0088201  -0.0093532  -0.0054866   0.0016142   0.0008705  -0.0032717
    8  -0.0205441  -0.0407289   0.0038276   0.0166377   0.0015138  -0.0071520
    9  -0.0067588  -0.0033872   0.0106146  -0.0008618   0.0013275  -0.0054434
   10  -0.2032670  -0.1834602   0.0815880  -0.0255011  -0.0215776   0.0223800
   11  -0.1607427  -0.3352619   0.0559018  -0.0157160   0.0069840   0.0171917
   12   0.0864313   0.0766417  -0.1048681   0.0261964   0.0187625  -0.0095101
   13   0.4465461   0.1524241  -0.2128863  -0.1349306  -0.0058485   0.0704641
   14   0.1524241   0.7397789   0.0382645  -0.0285607  -0.0894317   0.0070544
   15  -0.2128863   0.0382645   0.3450190   0.0873813  -0.0008210  -0.1532000
   16  -0.1349306  -0.0285607   0.0873813   0.3988077  -0.0928647  -0.1133597
   17  -0.0058485  -0.0894317  -0.0008210  -0.0928647   0.2070834   0.0059769
   18   0.0704641   0.0070544  -0.1532000  -0.1133597   0.0059769   0.2127866
   19   0.0029499   0.0034390   0.0017105   0.0024607   0.0051097   0.0080415
   20   0.0010875   0.0006321   0.0003077  -0.0102560  -0.0041612  -0.0092106
   21  -0.0024370  -0.0011641   0.0001250   0.0060410  -0.0002658   0.0043094
   22  -0.0011528  -0.0000353   0.0008859   0.0008458   0.0004448  -0.0007160
   23  -0.0005987   0.0002412   0.0004801   0.0004319  -0.0001065   0.0003635
   24   0.0007222  -0.0005287  -0.0011210  -0.0016911   0.0013825  -0.0005845
   25   0.0004111  -0.0000491  -0.0001452   0.0016789  -0.0003655   0.0012326
   26   0.0023077  -0.0033941  -0.0041002  -0.0011259   0.0000638  -0.0003138
   27   0.0000426  -0.0018495   0.0003542   0.0009870  -0.0004484   0.0019516
   28  -0.0140291   0.0065853   0.0137492   0.0034584  -0.0052927   0.0049071
   29  -0.0195273   0.0040914   0.0191406  -0.0032807  -0.0022626  -0.0020471
   30   0.0059177  -0.0007222  -0.0065815   0.0043769  -0.0018035   0.0089797
   31  -0.0534301   0.0410520   0.0278386  -0.0073723   0.0233208   0.0148973
   32   0.0403076  -0.2727014  -0.1046778   0.0006729   0.0028215   0.0004496
   33   0.0229804  -0.1031330  -0.0895502   0.0136758  -0.0188657  -0.0141260
   34  -0.0330930   0.0000934   0.0020637  -0.1437440   0.0675633  -0.0042832
   35   0.0035356  -0.0125296  -0.0081535   0.0278500  -0.0178481  -0.0019823
   36   0.0293280   0.0038467   0.0073825  -0.0556102   0.0144102  -0.0267509
   37   0.0011050  -0.0022446  -0.0021603  -0.0063980  -0.0057903  -0.0067463
   38  -0.0014866   0.0008692   0.0022758   0.0050472   0.0092597   0.0025055
   39   0.0004771   0.0023159   0.0010311  -0.0005168  -0.0074978  -0.0002372
           19          20          21          22          23          24
    1  -0.0337834   0.0080672  -0.0160003   0.0002455   0.0004801   0.0006192
    2   0.0063936  -0.1870919  -0.1941173   0.0007200   0.0001916   0.0012844
    3  -0.0077123  -0.1770594  -0.2141326   0.0003603  -0.0003577   0.0015765
    4  -0.0029136  -0.0048245   0.0032390  -0.0332831   0.0562337   0.0225448
    5  -0.0040100  -0.0050000   0.0038928   0.0274103  -0.3213208  -0.0932487
    6   0.0011045   0.0021791   0.0000402   0.0156316  -0.1085320  -0.0532627
    7   0.0004686   0.0002830  -0.0007160   0.0030184  -0.0089688  -0.0028559
    8   0.0001361   0.0000784  -0.0013363   0.0247691  -0.0014639  -0.0129661
    9   0.0001453  -0.0001066  -0.0000911   0.0046877   0.0047213  -0.0017068
   10  -0.0008354  -0.0005875   0.0008690  -0.0002994   0.0014986   0.0041307
   11   0.0002413   0.0001112   0.0007128  -0.0021203   0.0019154  -0.0013388
   12   0.0001740   0.0000874  -0.0006337   0.0044053  -0.0025880   0.0056109
   13   0.0029499   0.0010875  -0.0024370  -0.0011528  -0.0005987   0.0007222
   14   0.0034390   0.0006321  -0.0011641  -0.0000353   0.0002412  -0.0005287
   15   0.0017105   0.0003077   0.0001250   0.0008859   0.0004801  -0.0011210
   16   0.0024607  -0.0102560   0.0060410   0.0008458   0.0004319  -0.0016911
   17   0.0051097  -0.0041612  -0.0002658   0.0004448  -0.0001065   0.0013825
   18   0.0080415  -0.0092106   0.0043094  -0.0007160   0.0003635  -0.0005845
   19   0.0296693  -0.0021005   0.0051781   0.0000114  -0.0003304   0.0002948
   20  -0.0021005   0.2020207   0.1891981  -0.0008587  -0.0005223  -0.0001984
   21   0.0051781   0.1891981   0.2035097  -0.0000161   0.0002574  -0.0000212
   22   0.0000114  -0.0008587  -0.0000161   0.0293599  -0.0500382  -0.0218078
   23  -0.0003304  -0.0005223   0.0002574  -0.0500382   0.3218106   0.1062436
   24   0.0002948  -0.0001984  -0.0000212  -0.0218078   0.1062436   0.0517324
   25   0.0001801   0.0003341  -0.0002160   0.0019188   0.0017994  -0.0022377
   26  -0.0001463  -0.0000693   0.0001185  -0.0007356  -0.0000098   0.0010812
   27   0.0000411   0.0005840   0.0000096  -0.0031553  -0.0003728  -0.0013406
   28  -0.0002111  -0.0002036   0.0001600   0.0003009   0.0000876   0.0000468
   29  -0.0000882  -0.0000385   0.0000632   0.0011736  -0.0005970  -0.0003456
   30  -0.0002184  -0.0001950   0.0002199   0.0002855  -0.0001581   0.0000870
   31  -0.0010596   0.0001853   0.0000459  -0.0000819   0.0000397  -0.0005251
   32  -0.0002284   0.0002126  -0.0000839   0.0001208  -0.0001158   0.0000751
   33   0.0007772  -0.0000454   0.0002243  -0.0003973   0.0001090  -0.0003950
   34   0.0014424   0.0098528   0.0030570  -0.0010486  -0.0007086   0.0008383
   35  -0.0059758  -0.0067292   0.0028484  -0.0008539  -0.0000684  -0.0014464
   36  -0.0098579  -0.0058876   0.0072140  -0.0001709  -0.0001373  -0.0005167
   37   0.0016208  -0.0009791   0.0007953   0.0001650   0.0000737  -0.0000792
   38  -0.0024403   0.0005573  -0.0001239   0.0000032   0.0000456   0.0000060
   39   0.0003215   0.0003468  -0.0007736   0.0000072  -0.0000290  -0.0000584
           25          26          27          28          29          30
    1  -0.0007100   0.0006083   0.0004382   0.0015746   0.0002772   0.0002553
    2  -0.0014028   0.0012405  -0.0011012   0.0008438   0.0005418   0.0000069
    3  -0.0004027   0.0001667  -0.0006685  -0.0004381  -0.0001343   0.0000622
    4  -0.0213767   0.0088912   0.0233847   0.0012392  -0.0016148   0.0002646
    5  -0.0074835   0.0088018   0.0044222  -0.0010784  -0.0043951  -0.0024648
    6   0.0194034  -0.0066297   0.0037975   0.0003895  -0.0010633   0.0001748
    7  -0.1961391  -0.1016091   0.0657022   0.0010408   0.0219782   0.0063229
    8  -0.1128813  -0.1186731   0.0420243  -0.0002449  -0.0090992   0.0010164
    9   0.0622650   0.0368463  -0.0647095  -0.0000503  -0.0213671  -0.0031814
   10   0.0029794  -0.0261940  -0.0026185  -0.1874702   0.0401223   0.1416332
   11   0.0014763  -0.0184022  -0.0065865   0.0375739  -0.0638910  -0.0457102
   12   0.0041439   0.0090714   0.0084650   0.1438631  -0.0444215  -0.1666769
   13   0.0004111   0.0023077   0.0000426  -0.0140291  -0.0195273   0.0059177
   14  -0.0000491  -0.0033941  -0.0018495   0.0065853   0.0040914  -0.0007222
   15  -0.0001452  -0.0041002   0.0003542   0.0137492   0.0191406  -0.0065815
   16   0.0016789  -0.0011259   0.0009870   0.0034584  -0.0032807   0.0043769
   17  -0.0003655   0.0000638  -0.0004484  -0.0052927  -0.0022626  -0.0018035
   18   0.0012326  -0.0003138   0.0019516   0.0049071  -0.0020471   0.0089797
   19   0.0001801  -0.0001463   0.0000411  -0.0002111  -0.0000882  -0.0002184
   20   0.0003341  -0.0000693   0.0005840  -0.0002036  -0.0000385  -0.0001950
   21  -0.0002160   0.0001185   0.0000096   0.0001600   0.0000632   0.0002199
   22   0.0019188  -0.0007356  -0.0031553   0.0003009   0.0011736   0.0002855
   23   0.0017994  -0.0000098  -0.0003728   0.0000876  -0.0005970  -0.0001581
   24  -0.0022377   0.0010812  -0.0013406   0.0000468  -0.0003456   0.0000870
   25   0.2115865   0.1173905  -0.0829744   0.0006595   0.0003808  -0.0004139
   26   0.1173905   0.1313284  -0.0374726   0.0004089   0.0008362   0.0003370
   27  -0.0829744  -0.0374726   0.0532041  -0.0010183   0.0003026   0.0001973
   28   0.0006595   0.0004089  -0.0010183   0.1939437  -0.0389657  -0.1569202
   29   0.0003808   0.0008362   0.0003026  -0.0389657   0.0753305   0.0473824
   30  -0.0004139   0.0003370   0.0001973  -0.1569202   0.0473824   0.1715349
   31  -0.0003969  -0.0003807  -0.0005066  -0.0022000   0.0001969  -0.0037540
   32  -0.0000351  -0.0012381  -0.0001482   0.0005635   0.0001678   0.0013707
   33  -0.0002563   0.0007726  -0.0003665  -0.0033065   0.0019101  -0.0031587
   34  -0.0008386   0.0006578  -0.0002674   0.0017680  -0.0004283   0.0020485
   35   0.0008193  -0.0004751   0.0006152  -0.0002081  -0.0008231   0.0011367
   36  -0.0004398   0.0001318  -0.0008774  -0.0015280   0.0004935  -0.0015869
   37   0.0000471  -0.0000728  -0.0000552  -0.0000748  -0.0002242   0.0002020
   38   0.0000169  -0.0000089   0.0000308  -0.0000694   0.0001387  -0.0001962
   39   0.0000411  -0.0000091  -0.0000169   0.0001458   0.0000864  -0.0000705
           31          32          33          34          35          36
    1   0.0004141  -0.0022299   0.0014367  -0.1173806  -0.2051981  -0.1493063
    2  -0.0007503   0.0025454   0.0002835  -0.2696150  -0.3154276  -0.2897814
    3   0.0055052   0.0006020  -0.0016271  -0.1997370  -0.2833001  -0.2966306
    4  -0.0003073  -0.0001651   0.0007510   0.0005324  -0.0069348  -0.0044764
    5  -0.0000459   0.0003909   0.0003416   0.0001784  -0.0101978  -0.0076964
    6   0.0002746   0.0001783  -0.0001830  -0.0003278   0.0005794   0.0023001
    7   0.0027611  -0.0038885   0.0047722  -0.0020704   0.0017209   0.0011572
    8  -0.0029808   0.0000632  -0.0002269  -0.0039227   0.0043049   0.0026325
    9   0.0054583   0.0003537   0.0056850  -0.0016176   0.0005352   0.0015738
   10   0.0060585   0.0048621   0.0019544   0.0045871  -0.0037214  -0.0022009
   11  -0.0186807  -0.0202257   0.0075524   0.0060862  -0.0007309  -0.0038249
   12  -0.0041749  -0.0110895   0.0075356  -0.0017528   0.0040544   0.0013949
   13  -0.0534301   0.0403076   0.0229804  -0.0330930   0.0035356   0.0293280
   14   0.0410520  -0.2727014  -0.1031330   0.0000934  -0.0125296   0.0038467
   15   0.0278386  -0.1046778  -0.0895502   0.0020637  -0.0081535   0.0073825
   16  -0.0073723   0.0006729   0.0136758  -0.1437440   0.0278500  -0.0556102
   17   0.0233208   0.0028215  -0.0188657   0.0675633  -0.0178481   0.0144102
   18   0.0148973   0.0004496  -0.0141260  -0.0042832  -0.0019823  -0.0267509
   19  -0.0010596  -0.0002284   0.0007772   0.0014424  -0.0059758  -0.0098579
   20   0.0001853   0.0002126  -0.0000454   0.0098528  -0.0067292  -0.0058876
   21   0.0000459  -0.0000839   0.0002243   0.0030570   0.0028484   0.0072140
   22  -0.0000819   0.0001208  -0.0003973  -0.0010486  -0.0008539  -0.0001709
   23   0.0000397  -0.0001158   0.0001090  -0.0007086  -0.0000684  -0.0001373
   24  -0.0005251   0.0000751  -0.0003950   0.0008383  -0.0014464  -0.0005167
   25  -0.0003969  -0.0000351  -0.0002563  -0.0008386   0.0008193  -0.0004398
   26  -0.0003807  -0.0012381   0.0007726   0.0006578  -0.0004751   0.0001318
   27  -0.0005066  -0.0001482  -0.0003665  -0.0002674   0.0006152  -0.0008774
   28  -0.0022000   0.0005635  -0.0033065   0.0017680  -0.0002081  -0.0015280
   29   0.0001969   0.0001678   0.0019101  -0.0004283  -0.0008231   0.0004935
   30  -0.0037540   0.0013707  -0.0031587   0.0020485   0.0011367  -0.0015869
   31   0.0557155  -0.0411323  -0.0431870   0.0002075  -0.0009865  -0.0016344
   32  -0.0411323   0.2878147   0.1125785   0.0009975   0.0005720   0.0005173
   33  -0.0431870   0.1125785   0.0962322   0.0008379  -0.0014166  -0.0004820
   34   0.0002075   0.0009975   0.0008379   0.5096384   0.3044913   0.3215777
   35  -0.0009865   0.0005720  -0.0014166   0.3044913   0.4731044   0.3711175
   36  -0.0016344   0.0005173  -0.0004820   0.3215777   0.3711175   0.4115875
   37  -0.0003085   0.0001548  -0.0000385  -0.2200004  -0.1145385  -0.1268379
   38   0.0001623  -0.0003072   0.0001397  -0.1152458  -0.1131513  -0.0858220
   39  -0.0002378  -0.0001257   0.0002115  -0.1224373  -0.0845880  -0.1046083
           37          38          39
    1  -0.0003800  -0.0037936  -0.0100137
    2   0.0058440   0.0014089   0.0038883
    3   0.0020562  -0.0036237   0.0058462
    4  -0.0000191   0.0000183  -0.0001471
    5   0.0000606   0.0002260  -0.0002342
    6  -0.0000992   0.0001601   0.0001847
    7   0.0001075  -0.0000866   0.0002360
    8   0.0006595  -0.0005140   0.0002089
    9   0.0001203  -0.0001076  -0.0000576
   10  -0.0009042   0.0004673   0.0003511
   11  -0.0003502   0.0001983   0.0000673
   12   0.0010700  -0.0008147  -0.0005664
   13   0.0011050  -0.0014866   0.0004771
   14  -0.0022446   0.0008692   0.0023159
   15  -0.0021603   0.0022758   0.0010311
   16  -0.0063980   0.0050472  -0.0005168
   17  -0.0057903   0.0092597  -0.0074978
   18  -0.0067463   0.0025055  -0.0002372
   19   0.0016208  -0.0024403   0.0003215
   20  -0.0009791   0.0005573   0.0003468
   21   0.0007953  -0.0001239  -0.0007736
   22   0.0001650   0.0000032   0.0000072
   23   0.0000737   0.0000456  -0.0000290
   24  -0.0000792   0.0000060  -0.0000584
   25   0.0000471   0.0000169   0.0000411
   26  -0.0000728  -0.0000089  -0.0000091
   27  -0.0000552   0.0000308  -0.0000169
   28  -0.0000748  -0.0000694   0.0001458
   29  -0.0002242   0.0001387   0.0000864
   30   0.0002020  -0.0001962  -0.0000705
   31  -0.0003085   0.0001623  -0.0002378
   32   0.0001548  -0.0003072  -0.0001257
   33  -0.0000385   0.0001397   0.0002115
   34  -0.2200004  -0.1152458  -0.1224373
   35  -0.1145385  -0.1131513  -0.0845880
   36  -0.1268379  -0.0858220  -0.1046083
   37   0.2250395   0.1174071   0.1317730
   38   0.1174071   0.1012778   0.0855702
   39   0.1317730   0.0855702   0.0991153
 Gradient time:  CPU 517.80 s  wall 558.87 s
 **********************************************************************
 **                                                                  **
 **                       VIBRATIONAL ANALYSIS                       **
 **                       --------------------                       **
 **                                                                  **
 **        VIBRATIONAL FREQUENCIES (CM**-1) AND NORMAL MODES         **
 **     FORCE CONSTANTS (mDYN/ANGSTROM) AND REDUCED MASSES (AMU)     **
 **                  INFRARED INTENSITIES (KM/MOL)                   **
 **                                                                  **
 **********************************************************************
 

 Mode:                 1                      2                      3
 Frequency:      -161.02                  40.66                 137.84
 Force Cnst:      0.0542                 0.0028                 0.0460
 Red. Mass:       3.5465                 2.8854                 4.1116
 IR Active:          YES                    YES                    YES
 IR Intens:        3.502                  6.218                  5.976
 Raman Active:       YES                    YES                    YES
               X      Y      Z        X      Y      Z        X      Y      Z
 C         -0.166 -0.115 -0.074    0.026  0.034 -0.036    0.087 -0.207  0.177
 C          0.256  0.196  0.090    0.063 -0.085  0.213    0.040  0.257 -0.123
 C          0.043  0.045 -0.060   -0.147  0.026 -0.177   -0.028  0.061 -0.037
 C         -0.041  0.031 -0.008   -0.036 -0.015 -0.012   -0.015  0.011  0.117
 C         -0.043  0.033  0.018    0.067 -0.046  0.117    0.021 -0.050  0.049
 N          0.019  0.009  0.058   -0.008 -0.023  0.058   -0.079 -0.212 -0.069
 H         -0.112  0.285 -0.467   -0.033 -0.007  0.004    0.324 -0.175  0.150
 H          0.421  0.233  0.047    0.030 -0.077  0.174    0.139  0.335 -0.314
 H         -0.010 -0.004 -0.284   -0.417  0.153 -0.634   -0.017 -0.014 -0.144
 H         -0.074  0.001 -0.033   -0.035 -0.032 -0.005    0.051 -0.003  0.190
 H         -0.043  0.040  0.001    0.173 -0.081  0.238    0.168 -0.014  0.040
 C         -0.085 -0.217  0.023    0.052  0.102 -0.133   -0.059  0.131 -0.074
 H         -0.011 -0.362  0.049    0.088  0.165 -0.248   -0.100  0.409 -0.269
 TransDip  -0.004  0.018 -0.057    0.005  0.041 -0.069    0.035  0.069 -0.012

 Mode:                 4                      5                      6
 Frequency:       261.37                 309.68                 450.92
 Force Cnst:      0.1325                 0.1677                 0.2640
 Red. Mass:       3.2916                 2.9671                 2.2039
 IR Active:          YES                    YES                    YES
 IR Intens:        6.046                  2.017                 32.738
 Raman Active:       YES                    YES                    YES
               X      Y      Z        X      Y      Z        X      Y      Z
 C         -0.092 -0.062  0.109   -0.188 -0.094  0.194   -0.075  0.079  0.063
 C          0.031 -0.132  0.022    0.035 -0.091 -0.086    0.008  0.061  0.039
 C          0.043  0.051 -0.136    0.131  0.021 -0.052   -0.071 -0.059  0.033
 C          0.233  0.001  0.098   -0.021  0.045 -0.112    0.058 -0.074  0.101
 C          0.029  0.085 -0.045   -0.009  0.105  0.068   -0.097 -0.019 -0.123
 N         -0.060  0.079 -0.137   -0.002  0.019  0.097    0.030  0.018 -0.013
 H         -0.052 -0.136  0.185   -0.355 -0.208  0.308   -0.133  0.003  0.134
 H         -0.272 -0.117 -0.159   -0.050 -0.167  0.100   -0.018  0.231 -0.473
 H         -0.194  0.218 -0.439    0.214 -0.009  0.113   -0.241  0.011 -0.280
 H          0.380 -0.093  0.285   -0.153 -0.031 -0.230    0.013  0.002  0.030
 H          0.063  0.061  0.020   -0.096  0.099  0.039   -0.339  0.024 -0.323
 C         -0.150 -0.025  0.102    0.069  0.008 -0.109    0.176 -0.038  0.006
 H         -0.214 -0.068  0.242    0.263  0.128 -0.527    0.321  0.073 -0.334
 TransDip  -0.073 -0.017  0.026    0.010  0.041 -0.016   -0.068 -0.042 -0.165

 Mode:                 7                      8                      9
 Frequency:       483.39                 509.28                 555.16
 Force Cnst:      0.2838                 0.4414                 0.2875
 Red. Mass:       2.0614                 2.8888                 1.5835
 IR Active:          YES                    YES                    YES
 IR Intens:       53.211                 14.202                 28.423
 Raman Active:       YES                    YES                    YES
               X      Y      Z        X      Y      Z        X      Y      Z
 C          0.108 -0.075 -0.063   -0.018 -0.148  0.104    0.050 -0.083 -0.010
 C         -0.010 -0.090 -0.012   -0.073  0.008  0.014    0.017  0.033  0.010
 C          0.095  0.058  0.004   -0.125 -0.127  0.056   -0.015 -0.041  0.030
 C          0.005  0.026  0.090    0.100 -0.061 -0.088   -0.005 -0.026  0.003
 C         -0.112  0.067 -0.011    0.056  0.001 -0.043   -0.012  0.007  0.025
 N          0.035 -0.045  0.125    0.122  0.157  0.042    0.038  0.103  0.042
 H          0.237  0.235 -0.370    0.209  0.488 -0.522   -0.177 -0.433  0.344
 H         -0.464 -0.099 -0.194    0.259  0.057  0.022    0.025  0.128 -0.268
 H         -0.062  0.127 -0.258   -0.141 -0.034  0.157   -0.069 -0.023 -0.076
 H         -0.195  0.011 -0.119    0.172  0.032 -0.037   -0.113  0.013 -0.121
 H         -0.333  0.163 -0.307   -0.063 -0.060  0.036   -0.194  0.018 -0.073
 C         -0.056  0.023 -0.039   -0.118  0.087 -0.037   -0.017  0.045 -0.136
 H         -0.025  0.085 -0.133   -0.001  0.188 -0.298   -0.204 -0.347  0.529
 TransDip  -0.049  0.166 -0.157    0.061  0.071 -0.076   -0.083 -0.117  0.092

 Mode:                10                     11                     12
 Frequency:       641.30                 706.29                 751.11
 Force Cnst:      0.3563                 0.5047                 0.6623
 Red. Mass:       1.4703                 1.7172                 1.9924
 IR Active:          YES                    YES                    YES
 IR Intens:       43.681                 11.671                 26.636
 Raman Active:       YES                    YES                    YES
               X      Y      Z        X      Y      Z        X      Y      Z
 C          0.032 -0.015 -0.010   -0.107  0.024  0.105    0.046 -0.068  0.062
 C         -0.040  0.024 -0.075   -0.016 -0.013 -0.009    0.041 -0.018  0.017
 C         -0.039  0.016 -0.067    0.014  0.014  0.008    0.005  0.015 -0.046
 C          0.056 -0.027  0.100    0.019  0.003  0.000   -0.146 -0.002  0.050
 C         -0.083  0.031 -0.033    0.027 -0.022 -0.025   -0.114 -0.007 -0.012
 N          0.013  0.003  0.036   -0.015 -0.101 -0.013    0.012  0.125 -0.072
 H         -0.027 -0.091  0.067   -0.035  0.490 -0.358    0.257  0.144 -0.152
 H          0.435 -0.196  0.788   -0.069 -0.051  0.079   -0.361 -0.082  0.008
 H         -0.008  0.002 -0.014   -0.027  0.042 -0.045    0.214 -0.193  0.129
 H          0.078 -0.078  0.140   -0.043  0.049 -0.083    0.223 -0.186  0.503
 H         -0.187  0.057 -0.134    0.012  0.006 -0.098    0.173 -0.102  0.319
 C          0.032 -0.000 -0.032    0.108  0.089 -0.078    0.096 -0.012 -0.055
 H          0.026 -0.071  0.046   -0.164 -0.254  0.662    0.185 -0.231  0.019
 TransDip   0.068 -0.069  0.188    0.000  0.095  0.054    0.051 -0.074  0.139

 Mode:                13                     14                     15
 Frequency:       785.76                 815.82                 852.98
 Force Cnst:      0.6923                 0.8937                 0.7024
 Red. Mass:       1.9031                 2.2789                 1.6386
 IR Active:          YES                    YES                    YES
 IR Intens:       13.220                  8.569                  4.797
 Raman Active:       YES                    YES                    YES
               X      Y      Z        X      Y      Z        X      Y      Z
 C          0.040  0.002 -0.021   -0.024  0.018 -0.030    0.004 -0.004  0.006
 C         -0.015 -0.100  0.024    0.028  0.053  0.065    0.024  0.006  0.067
 C         -0.052 -0.070 -0.040   -0.035  0.071 -0.065   -0.088  0.059 -0.145
 C          0.029  0.070 -0.023    0.067 -0.034 -0.073    0.068 -0.046  0.051
 C         -0.077  0.182  0.030   -0.050 -0.037 -0.164    0.035 -0.022  0.071
 N         -0.049 -0.081  0.026    0.053 -0.086  0.177   -0.032  0.021 -0.039
 H          0.121  0.039 -0.062   -0.337 -0.122  0.113    0.146  0.043 -0.044
 H          0.615  0.179 -0.489   -0.353  0.041 -0.073   -0.145  0.035 -0.092
 H          0.006  0.035  0.301    0.229 -0.046  0.388    0.358 -0.131  0.640
 H          0.171 -0.096  0.187    0.452 -0.072  0.340   -0.250  0.016 -0.308
 H          0.127  0.180  0.128    0.143 -0.133  0.116   -0.324  0.057 -0.254
 C          0.042 -0.010 -0.015   -0.045  0.047 -0.018    0.010 -0.016  0.002
 H          0.033 -0.106  0.092   -0.141  0.114  0.068    0.027 -0.030 -0.013
 TransDip   0.101 -0.058 -0.002    0.050  0.069  0.039   -0.063 -0.028 -0.014

 Mode:                16                     17                     18
 Frequency:       905.07                 962.13                 968.97
 Force Cnst:      1.1346                 1.0051                 0.7912
 Red. Mass:       2.3508                 1.8428                 1.4302
 IR Active:          YES                    YES                    YES
 IR Intens:        4.624                 14.937                  2.099
 Raman Active:       YES                    YES                    YES
               X      Y      Z        X      Y      Z        X      Y      Z
 C         -0.030 -0.006  0.005    0.003 -0.008  0.025    0.055 -0.001  0.006
 C          0.015 -0.112 -0.022   -0.069 -0.047  0.023    0.037  0.032 -0.012
 C          0.000 -0.003 -0.072    0.078  0.149 -0.004   -0.046 -0.076 -0.000
 C         -0.137  0.094  0.185    0.027 -0.033  0.036    0.058 -0.012  0.057
 C          0.048 -0.066 -0.065   -0.032 -0.120 -0.107   -0.054  0.081 -0.037
 N          0.147  0.018 -0.026   -0.053  0.047  0.047    0.008 -0.036 -0.028
 H         -0.556  0.068 -0.060    0.228 -0.011  0.030   -0.385  0.061 -0.050
 H          0.382  0.014 -0.221    0.452  0.119 -0.180   -0.245 -0.058  0.099
 H          0.158 -0.149  0.105   -0.017  0.323  0.076    0.026 -0.178 -0.008
 H         -0.201  0.181  0.092   -0.226  0.064 -0.273   -0.316  0.109 -0.375
 H          0.186  0.015 -0.165    0.232 -0.266  0.308    0.398 -0.007  0.345
 C         -0.045  0.033  0.018   -0.020  0.011 -0.016   -0.038  0.051  0.027
 H         -0.234  0.334  0.027    0.231 -0.316 -0.094    0.264 -0.306 -0.095
 TransDip  -0.038  0.042 -0.039    0.105 -0.034 -0.055   -0.035  0.003 -0.030

 Mode:                19                     20                     21
 Frequency:       972.91                1022.34                1139.10
 Force Cnst:      0.7357                 0.9522                 2.3490
 Red. Mass:       1.3192                 1.5463                 3.0726
 IR Active:          YES                    YES                    YES
 IR Intens:        9.604                  4.193                 20.222
 Raman Active:       YES                    YES                    YES
               X      Y      Z        X      Y      Z        X      Y      Z
 C         -0.090  0.011 -0.025   -0.073  0.052  0.000   -0.118  0.065 -0.026
 C          0.018  0.005 -0.009    0.042 -0.022 -0.027   -0.048  0.021  0.033
 C         -0.022 -0.039 -0.002   -0.033 -0.068 -0.015    0.038  0.057  0.004
 C          0.028 -0.003  0.048   -0.034  0.079  0.038   -0.026 -0.109 -0.015
 C         -0.037  0.042 -0.043    0.080 -0.018 -0.046   -0.087  0.039  0.102
 N          0.034  0.018  0.031    0.013 -0.027  0.057    0.270 -0.095 -0.112
 H          0.560 -0.141  0.116    0.537 -0.127  0.182    0.252 -0.112  0.153
 H         -0.096 -0.038  0.053   -0.064 -0.065  0.025    0.037  0.065 -0.026
 H          0.016 -0.093 -0.003    0.047 -0.200 -0.036   -0.070  0.278  0.108
 H         -0.212  0.086 -0.232    0.105  0.266  0.128   -0.172 -0.720  0.032
 H          0.300 -0.030  0.258    0.051  0.092 -0.288    0.041  0.095  0.018
 C          0.046 -0.055 -0.033   -0.080  0.054 -0.009   -0.092  0.090  0.012
 H         -0.369  0.427  0.143    0.323 -0.504 -0.110    0.129 -0.226 -0.037
 TransDip   0.048  0.076  0.042    0.058  0.021 -0.023   -0.125  0.003  0.071

 Mode:                22                     23                     24
 Frequency:      1278.62                1318.71                1436.72
 Force Cnst:      1.2077                 1.2517                 1.6917
 Red. Mass:       1.2538                 1.2217                 1.3910
 IR Active:          YES                    YES                    YES
 IR Intens:       14.311                 14.766                  7.852
 Raman Active:       YES                    YES                    YES
               X      Y      Z        X      Y      Z        X      Y      Z
 C          0.002 -0.002 -0.000   -0.018  0.009 -0.012   -0.002 -0.005  0.000
 C          0.108 -0.004 -0.061    0.009 -0.021 -0.011   -0.015 -0.004  0.007
 C         -0.028 -0.059 -0.004    0.001  0.016 -0.002    0.020  0.038 -0.006
 C         -0.024  0.021  0.019    0.020  0.021 -0.009    0.000 -0.119 -0.035
 C         -0.017 -0.031  0.005   -0.064 -0.010  0.050   -0.095 -0.018  0.083
 N         -0.002  0.009 -0.002    0.066 -0.044 -0.047    0.015  0.020 -0.011
 H         -0.022 -0.010  0.007    0.031 -0.023  0.019   -0.024 -0.003 -0.003
 H         -0.145 -0.100  0.050    0.041 -0.014 -0.025    0.044  0.019 -0.014
 H         -0.405  0.757  0.437    0.037 -0.052 -0.030    0.041  0.007 -0.021
 H          0.005  0.117  0.024    0.197  0.626 -0.014    0.233  0.603 -0.023
 H          0.028 -0.010 -0.018   -0.509 -0.296  0.442    0.522  0.336 -0.394
 C          0.007  0.000  0.001   -0.009  0.016  0.005    0.005  0.003  0.001
 H          0.001  0.012  0.002    0.007 -0.015  0.007   -0.003  0.019  0.004
 TransDip   0.002  0.113  0.044   -0.093 -0.025  0.076   -0.075 -0.023  0.044

 Mode:                25                     26                     27
 Frequency:      1643.21                1682.14                1742.82
 Force Cnst:     13.9671                 8.8689                 8.9455
 Red. Mass:       8.7795                 5.3198                 4.9986
 IR Active:          YES                    YES                    YES
 IR Intens:       39.531                 26.450                  6.894
 Raman Active:       YES                    YES                    YES
               X      Y      Z        X      Y      Z        X      Y      Z
 C         -0.013 -0.021 -0.013   -0.016 -0.021 -0.013    0.173  0.283  0.256
 C         -0.259  0.174  0.187    0.179 -0.119 -0.132    0.009  0.008 -0.003
 C          0.273 -0.351 -0.243   -0.229  0.163  0.178   -0.006 -0.006  0.002
 C          0.163  0.390 -0.033    0.190  0.252 -0.088    0.019  0.026 -0.009
 C         -0.220 -0.270  0.115   -0.204 -0.229  0.113   -0.035 -0.020  0.018
 N          0.019  0.027 -0.013    0.025  0.024 -0.017    0.055 -0.030 -0.008
 H         -0.018 -0.038 -0.014   -0.019 -0.041 -0.006   -0.027  0.478  0.288
 H         -0.168  0.307  0.159    0.087 -0.233 -0.120   -0.003  0.000  0.012
 H          0.051  0.154  0.036    0.034 -0.399 -0.130   -0.007 -0.006 -0.000
 H         -0.003 -0.095 -0.091   -0.022 -0.461 -0.126    0.010 -0.007 -0.010
 H          0.220 -0.065 -0.209    0.250 -0.017 -0.242    0.039  0.002 -0.005
 C          0.024  0.021  0.011    0.019  0.022  0.013   -0.186 -0.279 -0.258
 H          0.029  0.035  0.018    0.032  0.025  0.016   -0.473 -0.190 -0.253
 TransDip  -0.121 -0.152  0.051   -0.130 -0.054  0.086    0.054 -0.063  0.016

 Mode:                28                     29                     30
 Frequency:      3025.78                3144.71                3170.50
 Force Cnst:      5.8319                 6.3199                 6.4712
 Red. Mass:       1.0812                 1.0847                 1.0927
 IR Active:          YES                    YES                    YES
 IR Intens:       21.536                  4.776                 28.802
 Raman Active:       YES                    YES                    YES
               X      Y      Z        X      Y      Z        X      Y      Z
 C          0.000  0.000  0.000   -0.001  0.000  0.000    0.001 -0.000 -0.000
 C         -0.002  0.002  0.001    0.000  0.000 -0.000   -0.000  0.001  0.001
 C         -0.064 -0.044  0.026   -0.002 -0.001  0.001   -0.003 -0.004  0.001
 C          0.002 -0.000 -0.002   -0.026  0.010  0.025   -0.056  0.013  0.051
 C          0.001 -0.000 -0.001    0.011 -0.067 -0.030   -0.004  0.039  0.015
 N         -0.000 -0.000  0.000    0.001 -0.001 -0.001   -0.000  0.000 -0.000
 H          0.000  0.000  0.000    0.000  0.002  0.002    0.000  0.000 -0.000
 H          0.012 -0.047 -0.019    0.001 -0.007 -0.002    0.003 -0.017 -0.006
 H          0.780  0.531 -0.312    0.019  0.014 -0.008    0.039  0.031 -0.015
 H         -0.043  0.011  0.041    0.328 -0.101 -0.310    0.628 -0.187 -0.590
 H         -0.001  0.001  0.002   -0.164  0.782  0.374    0.084 -0.410 -0.193
 C          0.000 -0.000 -0.000    0.000  0.000  0.000   -0.000 -0.000  0.000
 H         -0.000 -0.000 -0.000    0.002 -0.001  0.000   -0.002 -0.000 -0.000
 TransDip  -0.107 -0.097  0.034    0.004 -0.067 -0.018   -0.104  0.093  0.101

 Mode:                31                     32                     33
 Frequency:      3240.78                3305.63                3371.28
 Force Cnst:      6.8151                 7.0104                 7.6623
 Red. Mass:       1.1013                 1.0889                 1.1442
 IR Active:          YES                    YES                    YES
 IR Intens:        0.529                 20.964                  9.063
 Raman Active:       YES                    YES                    YES
               X      Y      Z        X      Y      Z        X      Y      Z
 C         -0.000 -0.000 -0.000    0.001 -0.021 -0.023   -0.008 -0.067 -0.066
 C          0.022 -0.082 -0.033   -0.000  0.000  0.000   -0.001 -0.000  0.000
 C         -0.012  0.002  0.007    0.000 -0.000 -0.000    0.000 -0.000 -0.000
 C         -0.000  0.002  0.001   -0.000 -0.000 -0.000    0.000  0.000 -0.000
 C         -0.000 -0.000  0.000    0.000  0.000  0.000   -0.000  0.000  0.000
 N          0.000  0.000 -0.000    0.000 -0.001 -0.001   -0.003  0.002  0.000
 H          0.000  0.002  0.002    0.005  0.330  0.334    0.004  0.621  0.632
 H         -0.153  0.929  0.321    0.000 -0.003 -0.001   -0.002 -0.002 -0.001
 H          0.036  0.023 -0.015    0.000 -0.000  0.001    0.000 -0.000  0.001
 H          0.012 -0.006 -0.011    0.000 -0.000 -0.000   -0.001  0.000  0.001
 H         -0.000 -0.002 -0.001   -0.000 -0.002  0.000   -0.000 -0.001 -0.000
 C         -0.000  0.000 -0.000   -0.057 -0.039 -0.040    0.040  0.030  0.031
 H          0.001  0.001  0.001    0.654  0.405  0.425   -0.335 -0.206 -0.219
 TransDip   0.018  0.013 -0.007    0.073  0.098  0.081   -0.042  0.054  0.068

 STANDARD THERMODYNAMIC QUANTITIES AT   298.15 K  AND     1.00 ATM

   This Molecule has  1 Imaginary Frequencies
   Zero point vibrational energy:       59.517 kcal/mol

   Atom    1 Element C  Has Mass   12.00000
   Atom    2 Element C  Has Mass   12.00000
   Atom    3 Element C  Has Mass   12.00000
   Atom    4 Element C  Has Mass   12.00000
   Atom    5 Element C  Has Mass   12.00000
   Atom    6 Element N  Has Mass   14.00307
   Atom    7 Element H  Has Mass    1.00783
   Atom    8 Element H  Has Mass    1.00783
   Atom    9 Element H  Has Mass    1.00783
   Atom   10 Element H  Has Mass    1.00783
   Atom   11 Element H  Has Mass    1.00783
   Atom   12 Element C  Has Mass   12.00000
   Atom   13 Element H  Has Mass    1.00783
   Molecular Mass:    92.050050 amu
   Principal axes and moments of inertia in amu*Bohr^2:
                             1           2           3
    Eigenvalues --      371.79514   737.11321  1036.82206
          X               0.71298    -0.52865     0.46065
          Y               0.66116     0.72564    -0.19057
          Z              -0.23352     0.44044     0.86688
   Rotational Symmetry Number is   1
   The Molecule is an Asymmetric Top
   Translational Enthalpy:        0.889 kcal/mol
   Rotational Enthalpy:           0.889 kcal/mol
   Vibrational Enthalpy:         62.111 kcal/mol
   gas constant (RT):             0.592 kcal/mol
   Translational Entropy:        39.471  cal/mol.K
   Rotational Entropy:           27.143  cal/mol.K
   Vibrational Entropy:          15.937  cal/mol.K

   Total Enthalpy:               64.481 kcal/mol
   Total Entropy:                82.551  cal/mol.K
Archival summary:
1\1\c8-68\FREQ\ProcedureUnspecified\6-31+G**\166(2)\hpark21\WedMar201:29:482022WedMar201:29:482022\0\\#,FREQ,ProcedureUnspecified,6-31+G**,\\0,2\N\C,1,1.42036\H,2,1.09002,1,110.014\C,2,1.3478,1,132.185,3,173.061,0\H,4,1.08808,2,115.213,1,-171.568,0\C,4,1.46698,2,130.458,1,8.56468,0\H,6,1.09901,4,113.986,2,-169.913,0\C,6,1.3207,4,128.937,2,11.8191,0\H,8,1.08326,6,135.474,4,178.562,0\C,1,1.50455,2,117.162,3,96.8341,0\H,10,1.07721,1,137.279,2,-79.2487,0\C,10,1.2852,1,65.1125,2,107.625,0\H,12,1.07334,10,153.313,1,149.65,0\\\@

 Total job time:  580.05s(wall), 524.75s(cpu) 
 Wed Mar  2 01:29:48 2022

        *************************************************************
        *                                                           *
        *  Thank you very much for using Q-Chem.  Have a nice day.  *
        *                                                           *
        *************************************************************


