13
image # 1 Energy = -286.92434
C 1.33955   0.89471   -0.51277  
C 0.29895   -1.40570  -0.24097  
C -0.90916  -1.09634  0.30897   
C -1.40298  0.21915   0.62819   
C -0.77198  1.43525   0.44883   
N 0.43617   1.78944   -0.04989  
H 2.24971   1.38121   -0.87068  
H 0.51140   -2.45831  -0.41719  
H -1.58023  -1.92244  0.53545   
H -2.39724  0.26568   1.06596   
H -1.35139  2.30387   0.76941   
C 1.33871   -0.48377  -0.62052  
H 2.23851   -0.92275  -1.04480  
13
image # 2 Energy = -286.91489
C 1.35781   0.92082   -0.55399  
C 0.30502   -1.43704  -0.20735  
C -0.95118  -1.11265  0.32015   
C -1.42303  0.19852   0.62081   
C -0.75055  1.42394   0.45955   
N 0.45561   1.75983   0.03065   
H 2.23383   1.44717   -0.92734  
H 0.44969   -2.53626  -0.34648  
H -1.65763  -1.92019  0.53081   
H -2.41727  0.27879   1.04025   
H -1.32884  2.29116   0.77577   
C 1.36780   -0.48688  -0.64833  
H 2.33706   -0.84300  -1.08660  
13
image # 3 Energy = -286.89816
C 1.35035   0.90932   -0.59063  
C 0.28849   -1.47653  -0.16651  
C -0.96415  -1.12673  0.31718   
C -1.43655  0.19238   0.60646   
C -0.74402  1.39538   0.46967   
N 0.50602   1.71634   0.12617   
H 2.20728   1.50345   -0.99135  
H 0.40378   -2.58193  -0.28501  
H -1.71739  -1.91861  0.52262   
H -2.43893  0.29092   1.01667   
H -1.30566  2.28120   0.77855   
C 1.41878   -0.45902  -0.67301  
H 2.40675   -0.77466  -1.11411  
13
image # 4 Energy = -286.87829
C 1.34372   0.90897   -0.61195  
C 0.28853   -1.50286  -0.13738  
C -0.96831  -1.14110  0.30847   
C -1.45152  0.18914   0.57585   
C -0.72675  1.36634   0.49529   
N 0.56304   1.64788   0.22505   
H 2.13379   1.54824   -1.07536  
H 0.36962   -2.59682  -0.21901  
H -1.75895  -1.90524  0.50532   
H -2.46449  0.30618   0.98223   
H -1.26979  2.26768   0.78455   
C 1.46508   -0.46829  -0.68237  
H 2.45069   -0.69947  -1.12558  
13
image # 5 Energy = -286.86049
C 1.33118   0.87248   -0.61564  
C 0.31044   -1.49518  -0.11468  
C -0.97759  -1.13347  0.29017   
C -1.47086  0.18566   0.52711   
C -0.68520  1.33153   0.54616   
N 0.61551   1.55468   0.33120   
H 1.98936   1.57773   -1.20496  
H 0.35430   -2.60276  -0.14089  
H -1.77928  -1.88095  0.47095   
H -2.48841  0.32654   0.91547   
H -1.20794  2.25026   0.80967   
C 1.48106   -0.47103  -0.65676  
H 2.49940   -0.62494  -1.12631  
13
image # 6 Energy = -286.85366
C 1.29879   0.85490   -0.63117  
C 0.32130   -1.49714  -0.09153  
C -0.98728  -1.12063  0.26645   
C -1.47841  0.19410   0.48992   
C -0.65825  1.30430   0.59272   
N 0.65194   1.48619   0.39699   
H 1.83933   1.57448   -1.32450  
H 0.34903   -2.60387  -0.08445  
H -1.79373  -1.86864  0.43870   
H -2.50487  0.34555   0.85104   
H -1.14771  2.23613   0.85678   
C 1.52684   -0.47972  -0.62115  
H 2.55327   -0.56240  -1.10672  
13
image # 7 Energy = -286.85767
C 1.24482   0.80973   -0.64175  
C 0.35672   -1.46593  -0.08308  
C -0.97478  -1.08486  0.21560   
C -1.48298  0.21385   0.43828   
C -0.61675  1.30872   0.66817   
N 0.66348   1.44675   0.41208   
H 1.58456   1.48590   -1.49397  
H 0.38364   -2.57328  -0.02961  
H -1.77837  -1.84536  0.37542   
H -2.51573  0.37713   0.73896   
H -1.06660  2.22515   0.99367   
C 1.57292   -0.50900  -0.52667  
H 2.59093   -0.54085  -1.04042  
13
image # 8 Energy = -286.85994
C 1.18239   0.76916   -0.67651  
C 0.40232   -1.43701  -0.07724  
C -0.96270  -1.02927  0.16937   
C -1.46153  0.24906   0.40646   
C -0.60582  1.34267   0.72235   
N 0.63460   1.45882   0.33846   
H 1.30277   1.29772   -1.66738  
H 0.43976   -2.54032  -0.00897  
H -1.74346  -1.80955  0.28753   
H -2.52467  0.41226   0.62859   
H -0.98924  2.21570   1.22430   
C 1.62901   -0.51698  -0.41704  
H 2.64217   -0.57686  -0.91447  
13
image # 9 Energy = -286.83195
C 1.12698   0.74982   -0.74161  
C 0.42377   -1.41599  -0.05645  
C -0.94449  -0.99508  0.14962   
C -1.45483  0.28420   0.41504   
C -0.60272  1.38019   0.72654   
N 0.59661   1.48653   0.26526   
H 1.10327   1.07621   -1.80187  
H 0.47421   -2.52374  -0.01668  
H -1.72259  -1.77453  0.21153   
H -2.52800  0.43116   0.58210   
H -0.92976  2.18556   1.39433   
C 1.67364   -0.47644  -0.34768  
H 2.70908   -0.58386  -0.77558  
13
image # 10 Energy = -286.82970
C 1.08961   0.73590   -0.79065  
C 0.42230   -1.41554  -0.03573  
C -0.94479  -0.97903  0.14998   
C -1.45764  0.29395   0.43228   
C -0.60445  1.39307   0.71859   
N 0.58936   1.48833   0.22056   
H 0.98006   0.90390   -1.88745  
H 0.48523   -2.51570  -0.02672  
H -1.72273  -1.76005  0.17531   
H -2.52734  0.43530   0.58332   
H -0.89840  2.16375   1.44873   
C 1.72236   -0.40932  -0.30446  
H 2.77258   -0.52074  -0.69096  
13
image # 11 Energy = -286.79701
C 1.03210   0.71931   -0.90304  
C 0.47093   -1.35927  0.00364   
C -0.92318  -0.93230  0.13674   
C -1.44291  0.32140   0.45248   
C -0.59583  1.43336   0.70575   
N 0.57359   1.53325   0.13028   
H 0.76888   0.57674   -1.98196  
H 0.53827   -2.46862  -0.04070  
H -1.69431  -1.71310  0.08200   
H -2.52261  0.45182   0.58032   
H -0.81904  2.11480   1.56168   
C 1.69243   -0.36921  -0.25967  
H 2.80372   -0.50113  -0.48627  
13
image # 12 Energy = -286.76995
C 1.01167   0.71574   -0.96772  
C 0.45009   -1.35928  0.02780   
C -0.93050  -0.94319  0.14666   
C -1.44897  0.33223   0.47706   
C -0.61520  1.42317   0.68784   
N 0.58172   1.52403   0.09075   
H 0.70014   0.40373   -1.98968  
H 0.53958   -2.48031  -0.05017  
H -1.71104  -1.71697  0.07857   
H -2.51527  0.44772   0.61433   
H -0.80849  2.10663   1.53608   
C 1.73937   -0.28101  -0.24123  
H 2.87680   -0.37749  -0.43541  
13
image # 13 Energy = -286.74286
C 0.99706   0.69547   -1.05596  
C 0.43636   -1.33314  0.09091   
C -0.91376  -0.95502  0.15253   
C -1.44113  0.34585   0.48922   
C -0.64127  1.44062   0.63502   
N 0.59346   1.46838   0.04569   
H 0.58834   0.17779   -2.00303  
H 0.56363   -2.45021  -0.05689  
H -1.71876  -1.70881  0.06573   
H -2.51033  0.45576   0.69094   
H -0.78146  2.12476   1.49310   
C 1.74114   -0.22674  -0.25291  
H 2.94228   -0.25020  -0.32839  
13
image # 14 Energy = -286.70353
C 1.00032   0.67235   -1.07427  
C 0.38538   -1.37411  0.11435   
C -0.93443  -0.99385  0.17640   
C -1.45370  0.33170   0.49424   
C -0.65256  1.41194   0.61473   
N 0.60797   1.38673   0.04712   
H 0.60363   0.14682   -1.97560  
H 0.54644   -2.47444  -0.05146  
H -1.74893  -1.74009  0.11425   
H -2.51805  0.44670   0.72895   
H -0.80638  2.16079   1.41122   
C 1.81938   -0.11885  -0.26584  
H 3.00669   -0.08611  -0.37069  
13
image # 15 Energy = -286.68028
C 0.98924   0.64384   -1.12282  
C 0.35776   -1.40733  0.16971   
C -0.95297  -1.01799  0.20437   
C -1.47671  0.33436   0.50215   
C -0.65082  1.38980   0.61141   
N 0.63262   1.31463   0.01992   
H 0.57319   0.08623   -1.99696  
H 0.55467   -2.48323  -0.04173  
H -1.75904  -1.75810  0.13169   
H -2.52620  0.44279   0.74427   
H -0.80701  2.18902   1.37936   
C 1.87054   -0.01431  -0.28280  
H 3.04867   0.03372   -0.35621  
13
image # 16 Energy = -286.66785
C 0.98313   0.60895   -1.15761  
C 0.31133   -1.45493  0.21364   
C -0.97216  -1.03470  0.23482   
C -1.47852  0.32117   0.51508   
C -0.63378  1.35791   0.63585   
N 0.64282   1.27589   0.00330   
H 0.56313   0.08018   -2.02119  
H 0.56072   -2.51413  -0.02634  
H -1.77781  -1.79042  0.14682   
H -2.54702  0.43726   0.72926   
H -0.80484  2.19316   1.35444   
C 1.92699   0.11205   -0.31179  
H 3.07950   0.14058   -0.35002  
13
image # 17 Energy = -286.67970
C 0.98093   0.57195   -1.13449  
C 0.25569   -1.52413  0.21734   
C -1.01113  -1.07287  0.25059   
C -1.48003  0.28596   0.53073   
C -0.60638  1.31215   0.67314   
N 0.64561   1.28021   0.01342   
H 0.56653   0.12199   -2.04353  
H 0.56088   -2.55891  0.00092   
H -1.79900  -1.82373  0.16326   
H -2.55577  0.42534   0.68546   
H -0.80046  2.17161   1.33142   
C 1.99664   0.27853   -0.35927  
H 3.10131   0.23768   -0.35130  
13
image # 18 Energy = -286.68417
C 0.97680   0.51963   -1.12943  
C 0.18507   -1.60059  0.25493   
C -1.05348  -1.11905  0.27069   
C -1.46730  0.24872   0.55781   
C -0.57285  1.25855   0.68917   
N 0.64435   1.34583   -0.01901  
H 0.56510   0.21752   -2.09991  
H 0.56834   -2.59586  0.01989   
H -1.84888  -1.86025  0.15612   
H -2.53661  0.41952   0.69177   
H -0.77619  2.14474   1.29909   
C 2.04760   0.43029   -0.41331  
H 3.11915   0.27311   -0.28667  
13
image # 19 Energy = -286.68175
C 0.98947   0.46074   -1.20367  
C 0.20583   -1.55285  0.20332   
C -1.04823  -1.10095  0.25620   
C -1.48766  0.25238   0.52978   
C -0.54995  1.23653   0.67302   
N 0.65557   1.12512   0.01097   
H 0.44918   0.08208   -2.06893  
H 0.63852   -2.52859  0.03995   
H -1.82995  -1.86428  0.18420   
H -2.54777  0.42436   0.71664   
H -0.73211  2.16546   1.22451   
C 2.02100   0.50567   -0.41304  
H 3.08718   0.45609   -0.15059  
13
image # 20 Energy = -286.65567
C 0.97856   0.48471   -1.16852  
C 0.22695   -1.53791  0.18911   
C -1.03003  -1.10109  0.25372   
C -1.49496  0.25407   0.51260   
C -0.59525  1.27484   0.62345   
N 0.64371   0.99696   0.09489   
H 0.49488   -0.05144  -1.98903  
H 0.60869   -2.54419  0.03061   
H -1.83030  -1.86149  0.20594   
H -2.54310  0.41040   0.73508   
H -0.77732  2.18131   1.21381   
C 2.07074   0.66241   -0.48963  
H 3.10247   0.47763   -0.20209  
13
image # 21 Energy = -286.66024
C 0.97428   0.47614   -1.14400  
C 0.22084   -1.55949  0.17460   
C -1.04683  -1.12894  0.25601   
C -1.48788  0.24169   0.51091   
C -0.59702  1.27021   0.59770   
N 0.66667   0.92700   0.13535   
H 0.51647   -0.13526  -1.92792  
H 0.59789   -2.57951  0.03260   
H -1.84717  -1.86923  0.22460   
H -2.53573  0.40444   0.73440   
H -0.77920  2.17500   1.18325   
C 2.08140   0.83880   -0.54634  
H 3.09698   0.57985   -0.21760  
13
image # 22 Energy = -286.66805
C 0.99838   0.46228   -1.11083  
C 0.19755   -1.59909  0.16645   
C -1.05244  -1.14455  0.26264   
C -1.48360  0.22782   0.51166   
C -0.59313  1.25631   0.58687   
N 0.68476   0.89655   0.17256   
H 0.57261   -0.20903  -1.87009  
H 0.57672   -2.61509  0.03448   
H -1.86819  -1.88377  0.24388   
H -2.53505  0.39879   0.72752   
H -0.78606  2.16813   1.15776   
C 2.06909   0.98530   -0.59577  
H 3.08718   0.70445   -0.27305  
13
image # 23 Energy = -286.67402
C 1.01576   0.45243   -1.09740  
C 0.17530   -1.63920  0.16268   
C -1.06577  -1.16219  0.27257   
C -1.48041  0.21760   0.51509   
C -0.59011  1.24360   0.58045   
N 0.70434   0.88062   0.19543   
H 0.63716   -0.29653  -1.80165  
H 0.56038   -2.64959  0.03124   
H -1.88213  -1.89591  0.26482   
H -2.53365  0.39152   0.72239   
H -0.79392  2.16312   1.13305   
C 2.05835   1.11183   -0.62981  
H 3.07312   0.84317   -0.33478  
13
image # 24 Energy = -286.67975
C 1.05576   0.43923   -1.07261  
C 0.14691   -1.67621  0.16049   
C -1.08140  -1.18141  0.28318   
C -1.47934  0.20798   0.51694   
C -0.58295  1.22735   0.57753   
N 0.72826   0.86498   0.21113   
H 0.71976   -0.36581  -1.73617  
H 0.53995   -2.68293  0.03004   
H -1.89430  -1.90909  0.29140   
H -2.53177  0.38302   0.72178   
H -0.80639  2.16027   1.09756   
C 2.02082   1.22446   -0.66181  
H 3.05672   0.98426   -0.40514  
13
image # 25 Energy = -286.68387
C 1.09546   0.42671   -1.03998  
C 0.12280   -1.71065  0.15761   
C -1.09271  -1.19363  0.29248   
C -1.48198  0.20035   0.51912   
C -0.58864  1.22275   0.57764   
N 0.74200   0.87244   0.23047   
H 0.86018   -0.44326  -1.64250  
H 0.50339   -2.71269  0.01899   
H -1.90370  -1.92320  0.32029   
H -2.53518  0.36975   0.72678   
H -0.83902  2.15952   1.07460   
C 1.98691   1.32805   -0.70353  
H 3.03843   1.09815   -0.51803  
13
image # 26 Energy = -286.67988
C 1.13367   0.40704   -0.97068  
C 0.10559   -1.73171  0.15261   
C -1.10529  -1.19922  0.29764   
C -1.48995  0.19096   0.51825   
C -0.60452  1.22386   0.57372   
N 0.74775   0.89182   0.27599   
H 1.06358   -0.49280  -1.55593  
H 0.44375   -2.74829  0.00857   
H -1.91427  -1.93665  0.34945   
H -2.54241  0.35452   0.73849   
H -0.88935  2.16255   1.05623   
C 1.95121   1.41348   -0.75400  
H 3.02287   1.17536   -0.67535  
13
image # 27 Energy = -286.67322
C 1.17944   0.37987   -0.90981  
C 0.08579   -1.75224  0.15072   
C -1.11990  -1.21267  0.30350   
C -1.49267  0.17586   0.51612   
C -0.60722  1.21198   0.56618   
N 0.76147   0.90186   0.31743   
H 1.24282   -0.51904  -1.48843  
H 0.38989   -2.78333  0.00944   
H -1.93185  -1.94696  0.37657   
H -2.54056  0.34750   0.75485   
H -0.91779  2.16067   1.01025   
C 1.89882   1.47236   -0.79556  
H 2.98921   1.28554   -0.79444  
13
image # 28 Energy = -286.66856
C 1.22248   0.34095   -0.83397  
C 0.08228   -1.77825  0.14885   
C -1.13883  -1.22540  0.30854   
C -1.49442  0.16566   0.51490   
C -0.60378  1.19207   0.55720   
N 0.77398   0.92065   0.36298   
H 1.43450   -0.52940  -1.42872  
H 0.32858   -2.81224  0.01493   
H -1.95513  -1.95238  0.39564   
H -2.53615  0.34449   0.77361   
H -0.93645  2.15152   0.95885   
C 1.83797   1.50791   -0.84507  
H 2.93770   1.40322   -0.90826  
13
image # 29 Energy = -286.66195
C 1.28870   0.30649   -0.75364  
C 0.06133   -1.79237  0.15524   
C -1.14381  -1.24864  0.31499   
C -1.49576  0.13816   0.50907   
C -0.59195  1.17345   0.54887   
N 0.78752   0.93292   0.41724   
H 1.61055   -0.48754  -1.40340  
H 0.26514   -2.85612  0.02829   
H -1.98373  -1.94916  0.41303   
H -2.53185  0.35077   0.79553   
H -0.94550  2.13835   0.88892   
C 1.77395   1.51181   -0.89403  
H 2.87293   1.51911   -1.00127  
13
image # 30 Energy = -286.66781
C 1.34289   0.29740   -0.73447  
C 0.04554   -1.83116  0.15606   
C -1.15905  -1.26350  0.32781   
C -1.49222  0.12938   0.51912   
C -0.58263  1.14492   0.53401   
N 0.80572   0.94670   0.42817   
H 1.73876   -0.49768  -1.34571  
H 0.23578   -2.88808  0.02846   
H -2.00717  -1.95319  0.42117   
H -2.51825  0.34991   0.81276   
H -0.94593  2.13365   0.83503   
C 1.71285   1.52301   -0.91508  
H 2.80399   1.66321   -1.05062  
13
image # 31 Energy = -286.68001
C 1.39519   0.29437   -0.73218  
C 0.01796   -1.87433  0.16682   
C -1.16360  -1.28495  0.33831   
C -1.47690  0.11955   0.52519   
C -0.57029  1.13559   0.52777   
N 0.82877   0.95319   0.42444   
H 1.81216   -0.51644  -1.31950  
H 0.22142   -2.92962  0.03591   
H -2.03085  -1.95620  0.41547   
H -2.50493  0.35541   0.81279   
H -0.92410  2.12145   0.79173   
C 1.67473   1.53561   -0.90582  
H 2.71379   1.83761   -1.06973  
13
image # 32 Energy = -286.69368
C 1.44307   0.28718   -0.74717  
C -0.00069  -1.91363  0.18591   
C -1.16921  -1.30169  0.34415   
C -1.45969  0.10985   0.52088   
C -0.54039  1.11233   0.52469   
N 0.86061   0.94641   0.41705   
H 1.80199   -0.53937  -1.33297  
H 0.21978   -2.96543  0.06039   
H -2.04592  -1.95086  0.39711   
H -2.48946  0.36859   0.78964   
H -0.88640  2.12308   0.76247   
C 1.65407   1.54012   -0.86495  
H 2.61458   2.01344   -1.05289  
13
image # 33 Energy = -286.70497
C 1.47909   0.28536   -0.76670  
C -0.01197  -1.95032  0.20970   
C -1.16834  -1.30866  0.34666   
C -1.44722  0.10423   0.51398   
C -0.51984  1.10028   0.51911   
N 0.90773   0.91971   0.41261   
H 1.75489   -0.56856  -1.36564  
H 0.21932   -2.99627  0.09735   
H -2.06437  -1.94423  0.37422   
H -2.45920  0.38444   0.75375   
H -0.83655  2.11705   0.73429   
C 1.64988   1.53893   -0.81236  
H 2.50284   2.18859   -1.01668  
13
image # 34 Energy = -286.71344
C 1.50404   0.28813   -0.79878  
C -0.02753  -1.96974  0.23514   
C -1.16378  -1.32390  0.34593   
C -1.40540  0.11910   0.50619   
C -0.49708  1.07521   0.50433   
N 0.92954   0.88729   0.42514   
H 1.70612   -0.59402  -1.39115  
H 0.21647   -3.02789  0.13542   
H -2.08102  -1.93528  0.35281   
H -2.43795  0.40220   0.72151   
H -0.78915  2.11454   0.71013   
C 1.67080   1.54211   -0.77215  
H 2.38186   2.33598   -0.97655  
13
image # 35 Energy = -286.71899
C 1.51816   0.26915   -0.85096  
C -0.02992  -2.00509  0.25956   
C -1.17649  -1.32382  0.34841   
C -1.39460  0.09854   0.49970   
C -0.43452  1.08483   0.49218   
N 0.94589   0.85769   0.42820   
H 1.65844   -0.60545  -1.40251  
H 0.20925   -3.05211  0.17750   
H -2.09336  -1.92114  0.33191   
H -2.41021  0.41973   0.68829   
H -0.74062  2.10553   0.68263   
C 1.71039   1.57646   -0.72527  
H 2.24256   2.45149   -0.93219  
13
image # 36 Energy = -286.72396
C 1.53548   0.32008   -0.90598  
C -0.04722  -2.03005  0.28603   
C -1.17464  -1.33553  0.35124   
C -1.36028  0.10677   0.49819   
C -0.40799  1.06316   0.48583   
N 0.98447   0.84226   0.40570   
H 1.60984   -0.63072  -1.40362  
H 0.19950   -3.08305  0.22252   
H -2.11113  -1.90936  0.31102   
H -2.38457  0.43629   0.65313   
H -0.69195  2.10220   0.65573   
C 1.72590   1.56637   -0.68855  
H 2.12259   2.55157   -0.87124  
