13   
From optimize.out: Frame 1 / 3, Energy=    -286.8363719332
C        4.4551559802    0.6487122645   -3.6478587444
C       -0.8364894736   -0.1403905592    1.1145847169
C       -1.9887526648   -1.0006039089    0.8586060911
C       -3.0337687367   -0.3939309564    1.4892313860
C       -2.4661828979    0.8063851475    2.0977945959
N       -1.1472583463    0.9375122163    1.8601138212
H        4.2240368269    1.2751648086   -4.4800388038
H        0.1804892806   -0.3045800291    0.7704758154
H       -1.9875289051   -1.9202018104    0.2876864905
H       -4.0666423064   -0.7135493232    1.5421566572
H       -3.0004509864    1.5446399108    2.6881119977
C        4.7172256354   -0.0568077150   -2.7066846635
H        4.9501665941   -0.6823500455   -1.8741793602
13   
From optimize.out: Frame 2 / 3, Energy=    -286.8363743846
C        4.4504565312    0.6446029684   -3.6490895980
C       -0.8340955828   -0.1414310026    1.1194380998
C       -1.9865312093   -0.9989343524    0.8559084337
C       -3.0327284821   -0.3924898858    1.4848442171
C       -2.4656601624    0.8038073307    2.1013749210
N       -1.1459134355    0.9341051399    1.8678013198
H        4.2152938200    1.2653369098   -4.4840755019
H        0.1829392501   -0.3042083288    0.7751714232
H       -1.9847149916   -1.9152996157    0.2797768975
H       -4.0668582481   -0.7087137740    1.5317163096
H       -3.0018554847    1.5418266073    2.6907610349
C        4.7166594893   -0.0545214639   -2.7045383428
H        4.9530085058   -0.6740805327   -1.8690892139
