13   
From optimize.out: Frame 1 / 3, Energy=    -286.8363719332
C       -0.1877020000   -0.0000000000   -0.0000000000
C        0.0573220000    0.5327040000    0.0000000000
C       -0.1512690000    0.0839180000    0.0000000000
C       -0.1511310000    0.0842030000    0.0000000000
C        0.0570200000    0.5319360000    0.0000000000
N       -0.4085620000   -0.1676500000    0.0000000000
H        0.1888750000    0.0000000000   -0.0000000000
H        0.1533580000   -0.0266370000    0.0000000000
H        0.1453620000   -0.0059250000    0.0000000000
H        0.1452520000   -0.0059300000    0.0000000000
H        0.1526480000   -0.0266190000    0.0000000000
C       -0.1891610000   -0.0000000000   -0.0000000000
H        0.1879900000    0.0000000000   -0.0000000000
13   
From optimize.out: Frame 2 / 3, Energy=    -286.8363743846
C       -0.1875890000   -0.0000000000   -0.0000000000
C        0.0573600000    0.5326170000    0.0000000000
C       -0.1512780000    0.0838150000    0.0000000000
C       -0.1511720000    0.0843660000    0.0000000000
C        0.0571080000    0.5319430000    0.0000000000
N       -0.4086520000   -0.1676280000    0.0000000000
H        0.1887640000    0.0000000000   -0.0000000000
H        0.1533570000   -0.0266310000    0.0000000000
H        0.1454050000   -0.0059180000    0.0000000000
H        0.1451690000   -0.0059410000    0.0000000000
H        0.1527020000   -0.0266210000    0.0000000000
C       -0.1890220000   -0.0000000000   -0.0000000000
H        0.1878480000    0.0000000000   -0.0000000000
