13   
From optimize.out: Frame 2 / 3, Energy=    -286.8383134969
C        1.5482631015    0.2439600781   -0.2499162964
C        0.5831613954   -0.9257548257   -0.0945058348
C       -0.7090733236   -0.3596409117   -0.7859874656
C       -1.1198146451    0.1988849191    0.5900884062
C       -0.4422720388    1.0837288812   -0.5510927869
N        0.9666768840    1.3699051016   -0.4517862960
H        2.6206041138    0.1766951608   -0.0731473905
H        0.9604500354   -1.9282857562   -0.3077102016
H       -1.3183502057   -0.8222857861   -1.5565333331
H       -2.0927552132    0.5054232907    0.9613640526
H       -1.0832845491    1.8562957945   -0.9634132650
C       -0.1337518241   -0.6625006690    1.2284612501
H        0.2201462699   -0.7364252773    2.2541791605
13   
From optimize.out: Frame 1 / 3, Energy=    -286.8383083155
C        1.5477255974    0.2440207349   -0.2492566422
C        0.5831869512   -0.9256665192   -0.0963448576
C       -0.7104209427   -0.3606046270   -0.7864160132
C       -1.1188234227    0.1997346515    0.5899274094
C       -0.4427073848    1.0830013269   -0.5527709375
N        0.9655620787    1.3692773523   -0.4535485873
H        2.6184038945    0.1766845042   -0.0637774026
H        0.9616089138   -1.9272756960   -0.3097850277
H       -1.3210858112   -0.8234516541   -1.5561275853
H       -2.0903897572    0.5088980849    0.9634525803
H       -1.0837427399    1.8556698745   -0.9643347575
C       -0.1326904676   -0.6631843754    1.2268954763
H        0.2233730905   -0.7371036576    2.2520863449
13   
From optimize.out: Frame 42 / 43, Energy=    -286.8383083154
C        1.5477255974    0.2440207349   -0.2492566422
C        0.5831869512   -0.9256665192   -0.0963448576
C       -0.7104209427   -0.3606046270   -0.7864160132
C       -1.1188234227    0.1997346515    0.5899274094
C       -0.4427073848    1.0830013269   -0.5527709375
N        0.9655620787    1.3692773523   -0.4535485873
H        2.6184038945    0.1766845042   -0.0637774026
H        0.9616089138   -1.9272756960   -0.3097850277
H       -1.3210858112   -0.8234516541   -1.5561275853
H       -2.0903897572    0.5088980849    0.9634525803
H       -1.0837427399    1.8556698745   -0.9643347575
C       -0.1326904676   -0.6631843754    1.2268954763
H        0.2233730905   -0.7371036576    2.2520863449
13   
From optimize.out: Frame 40 / 43, Energy=    -286.8383031937
C        1.5383753789    0.2486703596   -0.2533381762
C        0.5835526238   -0.9215550482   -0.1000490201
C       -0.6950885283   -0.3669789803   -0.7714003879
C       -1.0973319736    0.2219842343    0.5966552910
C       -0.4424857394    1.0863018608   -0.5528711589
N        0.9691428232    1.3786195212   -0.4585698916
H        2.5964776064    0.1809184808   -0.0482208418
H        0.9183514170   -1.9320778999   -0.3499877270
H       -1.2736600407   -0.8426573206   -1.5629626693
H       -2.0606735725    0.5205264306    0.9897229386
H       -1.1091008571    1.8330832258   -0.9810879441
C       -0.1237305358   -0.6535877598    1.2291022815
H        0.1961713980   -0.7532471043    2.2630073059
13   
From optimize.out: Frame 38 / 43, Energy=    -286.8382963117
C        1.5457048946    0.2543710878   -0.2556712144
C        0.5911677458   -0.9179265641   -0.1007506345
C       -0.6904748689   -0.3589932397   -0.7829924726
C       -1.0862025948    0.2586394296    0.6004195161
C       -0.4465999075    1.0885701438   -0.5506787917
N        0.9766640134    1.3826883733   -0.4678400738
H        2.6097434149    0.1883446349   -0.0555367010
H        0.9581249272   -1.9239797674   -0.3223075889
H       -1.3226415659   -0.8612483713   -1.5033423077
H       -2.0707882092    0.5131011930    0.9721199310
H       -1.0972029524    1.8440336949   -0.9895867408
C       -0.1356043864   -0.6630781335    1.2114029926
H        0.1681094893   -0.8045224813    2.2447640857
13   
From optimize.out: Frame 36 / 43, Energy=    -286.8382878253
C        1.5564275203    0.2667800971   -0.2563954304
C        0.6069817032   -0.9080343299   -0.0963663118
C       -0.6827801889   -0.3599863913   -0.7958657120
C       -1.0719626677    0.3032917779    0.6173380084
C       -0.4486857667    1.0814327811   -0.5528782374
N        0.9854994967    1.3916102735   -0.4791020638
H        2.6295377931    0.2048065215   -0.0783987329
H        1.0027149197   -1.9089259195   -0.2825481790
H       -1.3751793822   -0.8747694479   -1.4517956426
H       -2.0746614291    0.5285576040    0.9669432403
H       -1.0879819938    1.8367491856   -1.0016606080
C       -0.1625218385   -0.6838168248    1.1894184724
H        0.1226118338   -0.8776953273    2.2213111969
13   
From optimize.out: Frame 35 / 43, Energy=    -286.8382818476
C        1.5610362432    0.2843809008   -0.2537116454
C        0.6292622309   -0.8980282928   -0.0852843199
C       -0.6565119761   -0.3763437405   -0.7950350771
C       -1.0489643852    0.3501989640    0.6503333085
C       -0.4539374418    1.0673300139   -0.5596225014
N        0.9827903790    1.4028744638   -0.4860576468
H        2.6415021065    0.2261147564   -0.1271577909
H        1.0254325439   -1.9023550994   -0.2469553732
H       -1.3670363861   -0.8763955867   -1.4426189684
H       -2.0500676715    0.5932019008    0.9943753569
H       -1.1125082755    1.8020874975   -1.0149738969
C       -0.2096063075   -0.7171017516    1.1684195398
H        0.0586089402   -0.9559640262    2.1982890149
13   
From optimize.out: Frame 33 / 43, Energy=    -286.8382555909
C        1.5664896001    0.3023589085   -0.2505197931
C        0.6546687186   -0.8887299266   -0.0722509743
C       -0.6308990806   -0.3959215084   -0.7784166947
C       -1.0275941836    0.3874473312    0.6794391629
C       -0.4556185901    1.0531887773   -0.5678365350
N        0.9761944077    1.4127330141   -0.4911647656
H        2.6525418488    0.2495536024   -0.1839604728
H        1.0472314002   -1.8964102057   -0.2143684847
H       -1.3572712005   -0.8674877354   -1.4303854742
H       -2.0259251432    0.6601489865    1.0112076654
H       -1.1354672475    1.7656015446   -1.0274016461
C       -0.2577008674   -0.7494462733    1.1495604046
H       -0.0066496625   -1.0330365152    2.1760976075
13   
From optimize.out: Frame 31 / 43, Energy=    -286.8382069164
C        1.5739027180    0.3207271900   -0.2475187533
C        0.6833041345   -0.8789757331   -0.0599004988
C       -0.6048654695   -0.4173699899   -0.7459264778
C       -1.0110729234    0.4173083726    0.7062011375
C       -0.4523781733    1.0381515304   -0.5786376664
N        0.9646038637    1.4205742977   -0.4934826973
H        2.6621572148    0.2756797468   -0.2451489931
H        1.0673952990   -1.8897527528   -0.1926798514
H       -1.3476426861   -0.8518825984   -1.4061135514
H       -2.0062499062    0.7270043569    1.0155248044
H       -1.1515030439    1.7283544699   -1.0426256668
C       -0.3058499450   -0.7793657844    1.1351474649
H       -0.0718010826   -1.1104531057    2.1551607495
13   
From optimize.out: Frame 29 / 43, Energy=    -286.8380955592
C        1.5852654436    0.3395377690   -0.2458305641
C        0.7145469851   -0.8678688163   -0.0499844126
C       -0.5773573833   -0.4394792475   -0.7049611144
C       -1.0016687966    0.4416310258    0.7356729892
C       -0.4455428899    1.0222171933   -0.5936980158
N        0.9463166288    1.4246927789   -0.4942734124
H        2.6714510765    0.3018238081   -0.3072706704
H        1.0862228537   -1.8812597598   -0.1862354604
H       -1.3360400162   -0.8330569547   -1.3730026126
H       -1.9921741850    0.7905205818    1.0174172201
H       -1.1583061362    1.6924049114   -1.0642001140
C       -0.3541627269   -0.8047894096    1.1288078267
H       -0.1385508538   -1.1863738803    2.1375583408
13   
From optimize.out: Frame 27 / 43, Energy=    -286.8377736778
C        1.6005263276    0.3598773101   -0.2446329432
C        0.7463363693   -0.8548938643   -0.0402725855
C       -0.5493848086   -0.4605317713   -0.6645869640
C       -0.9944773594    0.4588720415    0.7684483205
C       -0.4376269403    1.0059269416   -0.6152355798
N        0.9213412507    1.4263328429   -0.4950587567
H        2.6805505631    0.3243403763   -0.3708297720
H        1.1039523905   -1.8703464603   -0.1878321767
H       -1.3227269691   -0.8083525759   -1.3407724024
H       -1.9774806858    0.8476519615    1.0246310076
H       -1.1598096978    1.6582187079   -1.0929073235
C       -0.4025167755   -0.8276179363    1.1320806585
H       -0.2086836647   -1.2594775737    2.1269685170
13   
From optimize.out: Frame 25 / 43, Energy=    -286.8363486802
C        1.6168989578    0.3839167918   -0.2432658874
C        0.7745516556   -0.8408340754   -0.0269356011
C       -0.5220200882   -0.4768212537   -0.6308289884
C       -0.9834048722    0.4625445370    0.7982403076
C       -0.4290105052    0.9897310680   -0.6455860748
N        0.8887184655    1.4293594475   -0.4941207075
H        2.6848834682    0.3409163782   -0.4412247980
H        1.1165656504   -1.8577919922   -0.1914671928
H       -1.3080335210   -0.7700329386   -1.3157333492
H       -1.9549990722    0.8932036675    1.0335284933
H       -1.1578879222    1.6261463687   -1.1299032579
C       -0.4468147346   -0.8525459677    1.1507448327
H       -0.2794474819   -1.3277920311    2.1365522233
13   
From optimize.out: Frame 15 / 43, Energy=    -286.8332058640
C        1.6360836334    0.4137375305   -0.2408894362
C        0.7951487843   -0.8246657576   -0.0077547992
C       -0.4943106068   -0.4849087796   -0.6028830312
C       -0.9718857581    0.4595261825    0.8183283860
C       -0.4217808703    0.9772200012   -0.6806043689
N        0.8448810858    1.4381991457   -0.4919846893
H        2.6844536578    0.3432404218   -0.5155973707
H        1.1163573651   -1.8426433113   -0.1947912258
H       -1.2883159873   -0.7226205133   -1.2927552155
H       -1.9340936823    0.9243841129    1.0337651914
H       -1.1530402349    1.5974352957   -1.1763765481
C       -0.4785282113   -0.8814201597    1.1815353289
H       -0.3349691755   -1.3974841688    2.1700077786
13   
From optimize.out: Frame 14 / 43, Energy=    -286.8295200433
C        1.6623381671    0.4457308573   -0.2387965502
C        0.8081680777   -0.8090123003    0.0139113839
C       -0.4669882656   -0.4866283583   -0.5793816168
C       -0.9637783290    0.4649737887    0.8262751424
C       -0.4209437439    0.9713007671   -0.7139412153
N        0.7869529116    1.4559144072   -0.4957189082
H        2.6875959478    0.3311821942   -0.5789853034
H        1.1032699546   -1.8274427548   -0.1942918211
H       -1.2630670343   -0.6782365020   -1.2683686702
H       -1.9221588988    0.9526610826    1.0207678316
H       -1.1524394922    1.5723555000   -1.2252578897
C       -0.4947093539   -0.9131064796    1.2130720759
H       -0.3642399411   -1.4796922021    2.2207155409
13   
From optimize.out: Frame 12 / 43, Energy=    -286.8185238991
C        1.6847955531    0.4720277736   -0.2390260272
C        0.8185113041   -0.7984967810    0.0340477207
C       -0.4426873117   -0.4828058200   -0.5589902733
C       -0.9545723931    0.4842952545    0.8255802481
C       -0.4276664984    0.9627653511   -0.7365131848
N        0.7214289159    1.4587205637   -0.5082593836
H        2.6940218393    0.3233999516   -0.6260516880
H        1.0866428426   -1.8167856378   -0.1845133352
H       -1.2252518620   -0.6357128598   -1.2474188744
H       -1.9117182822    0.9884689927    1.0033230160
H       -1.1598355776    1.5445988136   -1.2558021810
C       -0.5030885923   -0.9385019702    1.2353792113
H       -0.3805799377   -1.5619736320    2.2582447513
13   
From optimize.out: Frame 10 / 43, Energy=    -286.8016985184
C        1.7144777098    0.4852634425   -0.2627741288
C        0.8355915103   -0.7957819090    0.0250599267
C       -0.4608213086   -0.4641057858   -0.5269164613
C       -0.9606716463    0.5153527664    0.8350884466
C       -0.4178374575    0.9461556806   -0.7209734389
N        0.7440199017    1.4479226948   -0.5321006259
H        2.7284081243    0.3301781126   -0.6477275965
H        1.0904284165   -1.8445197233   -0.1326219369
H       -1.1776638981   -0.6369839414   -1.2761516689
H       -1.9178583887    1.0049105379    1.0324117793
H       -1.2099546755    1.5087725799   -1.2070797118
C       -0.5356924990   -0.9180069807    1.2372360824
H       -0.4324257888   -1.5791574745    2.1765493340
13   
From optimize.out: Frame 8 / 43, Energy=    -286.7786724359
C        1.7399492644    0.4918953237   -0.2855793554
C        0.8501777304   -0.7971954522    0.0137062829
C       -0.4809942864   -0.4421276703   -0.4991282467
C       -0.9650162157    0.5451312766    0.8484316254
C       -0.4095674097    0.9351028253   -0.6996206875
N        0.7781702939    1.4381166943   -0.5518091661
H        2.7616205168    0.3433724463   -0.6579086048
H        1.0981768006   -1.8695075538   -0.0873708839
H       -1.1466984110   -0.6671318941   -1.3094387459
H       -1.9197639413    1.0178804962    1.0649399248
H       -1.2519368935    1.4838329804   -1.1540453840
C       -0.5666750008   -0.8965952190    1.2368366305
H       -0.4874424478   -1.5827742534    2.0809866107
13   
From optimize.out: Frame 6 / 43, Energy=    -286.7513092227
C        1.7611649201    0.4933033384   -0.3091852211
C        0.8625823255   -0.8017103304   -0.0004324662
C       -0.5024380942   -0.4200746396   -0.4755537081
C       -0.9680174986    0.5742585976    0.8646556772
C       -0.4035752246    0.9298549346   -0.6745791889
N        0.8201854576    1.4288751559   -0.5707781050
H        2.7927971958    0.3632054126   -0.6601980964
H        1.1079009467   -1.8872406414   -0.0490494359
H       -1.1272485590   -0.7196917177   -1.3404254566
H       -1.9208185273    1.0286558997    1.0980102326
H       -1.2815602568    1.4664181688   -1.0987277168
C       -0.5960451003   -0.8725327491    1.2324156855
H       -0.5449275848   -1.5833214293    1.9838477995
13   
From optimize.out: Frame 4 / 43, Energy=    -286.7165093425
C        1.7783620173    0.4907664000   -0.3363606424
C        0.8732976978   -0.8082559994   -0.0183413870
C       -0.5253685831   -0.4003310143   -0.4563773950
C       -0.9701506929    0.6043309287    0.8827721992
C       -0.4002003381    0.9306921174   -0.6474373016
N        0.8678489014    1.4197840282   -0.5931411399
H        2.8222042380    0.3905708716   -0.6577259500
H        1.1192385117   -1.8952442201   -0.0171173175
H       -1.1134476024   -0.7894419256   -1.3610632569
H       -1.9240890236    1.0391969991    1.1298658974
H       -1.2972614983    1.4544318717   -1.0436100929
C       -0.6241806238   -0.8427188161    1.2220243779
H       -0.6062530040   -1.5937812411    1.8965120088
13   
From optimize.out: Frame 2 / 43, Energy=    -286.6597824050
C        1.7912050865    0.4849657945   -0.3683053577
C        0.8825453897   -0.8158646547   -0.0400353732
C       -0.5491373071   -0.3862137007   -0.4422407123
C       -0.9715714785    0.6356036746    0.9019567136
C       -0.3996139071    0.9377845748   -0.6196373981
N        0.9178930657    1.4108193943   -0.6212751026
H        2.8492086427    0.4254077337   -0.6523337666
H        1.1327399981   -1.8926176595    0.0078912737
H       -1.1014506680   -0.8694921613   -1.3630969162
H       -1.9314646552    1.0506475146    1.1587820786
H       -1.2983491891    1.4480379620   -0.9935601263
C       -0.6499166979   -0.8059563083    1.2049189295
H       -0.6720882799   -1.6231221638    1.8269357576
13   
From optimize.out: Frame 1 / 43, Energy=    -286.6162339899
C        1.7997605293    0.4758333177   -0.4031419662
C        0.8904841953   -0.8242221701   -0.0641991011
C       -0.5722131958   -0.3811729095   -0.4330507175
C       -0.9723157925    0.6660513580    0.9224702263
C       -0.4013431626    0.9499373019   -0.5912820193
N        0.9661841084    1.4020546981   -0.6536668590
H        2.8725523861    0.4651443988   -0.6440415836
H        1.1490772606   -1.8824659022    0.0249853444
H       -1.0890093292   -0.9503401704   -1.3426403517
H       -1.9427291975    1.0620042584    1.1846476891
H       -1.2871152042    1.4489864802   -0.9532317464
C       -0.6716222462   -0.7659118143    1.1825374656
H       -0.7417103515   -1.6658988467    1.7706136196
13   
C6H6N->C6H6N atoms 1-13 frame 244 charge -0.000 sz -1.000 sz^2 0.587
C        1.8050809511    0.4626373632   -0.4382354088
C        0.8975024526   -0.8337267212   -0.0899522685
C       -0.5936856198   -0.3870230958   -0.4278671480
C       -0.9725839723    0.6934746630    0.9459655754
C       -0.4045077617    0.9651311238   -0.5604181772
N        1.0107286392    1.3935515807   -0.6871568899
H        2.8915618942    0.5066671343   -0.6312122811
H        1.1690439831   -1.8707853333    0.0339679507
H       -1.0747986171   -1.0254897119   -1.3017720488
H       -1.9561438230    1.0712384441    1.2097765496
H       -1.2684603615    1.4597686590   -0.9242207518
C       -0.6893186658   -0.7278317634    1.1563958171
H       -0.8144190989   -1.7076123425    1.7147290814
13   
C6H6N->C6H6N atoms 1-13 frame 246 charge +0.000 sz -1.000 sz^2 0.642
C        1.8084082238    0.4448082275   -0.4714818669
C        0.9040617929   -0.8445222380   -0.1170255241
C       -0.6129663746   -0.4040712613   -0.4260182837
C       -0.9727019054    0.7162892572    0.9739249589
C       -0.4083674231    0.9813717191   -0.5250781138
N        1.0507029402    1.3859004542   -0.7190689115
H        2.9054988919    0.5469592759   -0.6120604912
H        1.1933307690   -1.8632545691    0.0352398100
H       -1.0585617567   -1.0915822989   -1.2456623148
H       -1.9695922860    1.0767824562    1.2366586636
H       -1.2474652765    1.4828504370   -0.9070878211
C       -0.7039098105   -0.6955823529    1.1272379065
H       -0.8884377849   -1.7359491068    1.6504219882
13   
C6H6N->C6H6N atoms 1-13 frame 248 charge -0.000 sz -1.000 sz^2 0.635
C        1.8107076511    0.4226661692   -0.5011355594
C        0.9106000476   -0.8560619345   -0.1450622002
C       -0.6292397626   -0.4311679982   -0.4271916625
C       -0.9730673546    0.7333408779    1.0067022662
C       -0.4125659178    0.9968572610   -0.4846647484
N        1.0851440615    1.3803041956   -0.7473220454
H        2.9133060422    0.5826958265   -0.5858287069
H        1.2220019605   -1.8632113226    0.0296836523
H       -1.0416997220   -1.1473001347   -1.1818231047
H       -1.9811800523    1.0778956967    1.2667109503
H       -1.2273855820    1.5189204311   -0.9015059343
C       -0.7162774929   -0.6714639766    1.0957953780
H       -0.9603438787   -1.7434750914    1.5756417152
13   
C6H6N->C6H6N atoms 1-13 frame 250 charge +0.000 sz -1.000 sz^2 0.619
C        1.8125641700    0.3974933526   -0.5262166230
C        0.9175589732   -0.8673562464   -0.1736328346
C       -0.6417143752   -0.4657726050   -0.4310145996
C       -0.9741004281    0.7443419860    1.0437665380
C       -0.4172800677    1.0104892744   -0.4397946735
N        1.1134621145    1.3781029642   -0.7707040844
H        2.9143243267    0.6110284189   -0.5530228188
H        1.2543614293   -1.8702762017    0.0185654199
H       -1.0274556377   -1.1949869030   -1.1197056728
H       -1.9897678723    1.0748483281    1.3005494454
H       -1.2079079222    1.5655865799   -0.9046184428
C       -0.7272893074   -0.6558815988    1.0628691592
H       -1.0267554030   -1.7276173491    1.4929591869
13   
C6H6N->C6H6N atoms 1-13 frame 252 charge -0.000 sz -1.000 sz^2 0.614
C        1.8142305212    0.3709660329   -0.5467284265
C        0.9254543388   -0.8773702884   -0.2025444346
C       -0.6497506880   -0.5048790662   -0.4370195939
C       -0.9760920682    0.7499465618    1.0843898333
C       -0.4230078834    1.0222612123   -0.3914897489
N        1.1359487039    1.3803542474   -0.7889946974
H        2.9087080431    0.6302429378   -0.5148051188
H        1.2893856919   -1.8809132572    0.0030204157
H       -1.0201978597   -1.2409453425   -1.0688737198
H       -1.9950810876    1.0688650771    1.3386895229
H       -1.1857954731    1.6185394590   -0.9114080219
C       -0.7377935313   -0.6474868466    1.0289312544
H       -1.0860087077   -1.6895807276    1.4068327354
13   
C6H6N->C6H6N atoms 1-13 frame 253 charge +0.000 sz -1.000 sz^2 0.615
C        1.8157559980    0.3448471341   -0.5632460552
C        0.9349140222   -0.8850883905   -0.2317314807
C       -0.6525863257   -0.5457638722   -0.4449364910
C       -0.9791387726    0.7512685265    1.1276232673
C       -0.4302272069    1.0328596552   -0.3411165597
N        1.1532612567    1.3877863793   -0.8026733366
H        2.8972369004    0.6392693233   -0.4728039703
H        1.3260860910   -1.8902929681   -0.0160212786
H       -1.0241446359   -1.2924311915   -1.0372470476
H       -1.9973106264    1.0618121160    1.3815879022
H       -1.1574520894    1.6730877928   -0.9166791305
C       -0.7483784032   -0.6440006209    0.9942232394
H       -1.1380162081   -1.6333538840    1.3230209414
13   
C6H6N->C6H6N atoms 1-13 frame 255 charge +0.000 sz -1.000 sz^2 0.625
C        1.8170068026    0.3208849793   -0.5770130114
C        0.9467571274   -0.8895275159   -0.2611926839
C       -0.6493035710   -0.5866215809   -0.4549580879
C       -0.9832007796    0.7497632091    1.1718456335
C       -0.4394048825    1.0431356627   -0.2908426299
N        1.1658712850    1.4007045036   -0.8133666888
H        2.8811262305    0.6375479530   -0.4296187747
H        1.3638868963   -1.8934842215   -0.0373447792
H       -1.0412582256   -1.3536208727   -1.0282514695
H       -1.9969272238    1.0560896444    1.4293663667
H       -1.1207714528    1.7244572033   -0.9167558552
C       -0.7592029192   -0.6424558389    0.9589482922
H       -1.1845792872   -1.5668731256    1.2491836881
13   
C6H6N->C6H6N atoms 1-13 frame 257 charge -0.000 sz -1.000 sz^2 0.652
C        1.8175946589    0.3005205879   -0.5903719937
C        0.9622120038   -0.8897748337   -0.2913785002
C       -0.6387448769   -0.6274944453   -0.4678851118
C       -0.9881595008    0.7473035463    1.2149697569
C       -0.4513216477    1.0539542830   -0.2434462823
N        1.1736760539    1.4191509410   -0.8246040619
H        2.8617445540    0.6250104320   -0.3889029999
H        1.4033836677   -1.8859435486   -0.0593575671
H       -1.0697924221   -1.4237571138   -1.0388865677
H       -1.9944110117    1.0546733688    1.4824050504
H       -1.0753989233    1.7681061759   -0.9103280489
C       -0.7699955584   -0.6392492921    0.9231132493
H       -1.2307869975   -1.5025001013    1.1946730771
13   
C6H6N->C6H6N atoms 1-13 frame 259 charge +0.000 sz -1.000 sz^2 0.714
C        1.8167834072    0.2851340273   -0.6063307572
C        0.9826551754   -0.8849842867   -0.3230178836
C       -0.6194308492   -0.6695471654   -0.4849096120
C       -0.9937953142    0.7459371501    1.2539908245
C       -0.4670377577    1.0660835455   -0.2027270428
N        1.1756430862    1.4428574252   -0.8413474815
H        2.8410872643    0.6017105497   -0.3555494032
H        1.4456876213   -1.8638723133   -0.0801707916
H       -1.1040586340   -1.4970412592   -1.0611405319
H       -1.9898511839    1.0610700938    1.5413282784
H       -1.0232234643    1.7992078928   -0.8979006103
C       -0.7803056862   -0.6308206086    0.8871436286
H       -1.2841536648   -1.4557350510    1.1706313825
13   
C6H6N->C6H6N atoms 1-13 frame 261 charge -0.000 sz -1.000 sz^2 0.803
C        1.8136092351    0.2756757071   -0.6261580090
C        1.0078164477   -0.8754254746   -0.3560225064
C       -0.5911832454   -0.7127563716   -0.5068617754
C       -1.0002169606    0.7463034153    1.2845885014
C       -0.4869213370    1.0793916135   -0.1730123490
N        1.1706587021    1.4699211212   -0.8663604167
H        2.8228341141    0.5682654368   -0.3336441490
H        1.4897068462   -1.8276818486   -0.0979616162
H       -1.1345563145   -1.5622330907   -1.0849483345
H       -1.9832392540    1.0769499989    1.6050367512
H       -0.9704918735    1.8139884676   -0.8810030358
C       -0.7909021728   -0.6165100388    0.8529123616
H       -1.3471141874   -1.4358889359    1.1834345777
13   
C6H6N->C6H6N atoms 1-13 frame 263 charge -0.000 sz -1.000 sz^2 0.897
C        1.8072302941    0.2712028628   -0.6479820371
C        1.0355964734   -0.8630020015   -0.3900998541
C       -0.5554829706   -0.7567083080   -0.5342613204
C       -1.0088065264    0.7462082066    1.3041696292
C       -0.5107392312    1.0927405395   -0.1550904547
N        1.1589071485    1.4974735757   -0.8975086697
H        2.8105608718    0.5246935491   -0.3218089313
H        1.5331286232   -1.7837149092   -0.1119529360
H       -1.1524385120   -1.6086406845   -1.1039440365
H       -1.9743111625    1.0999934464    1.6725477089
H       -0.9255723295    1.8144425535   -0.8615716901
C       -0.8055069239   -0.5998863971    0.8220365007
H       -1.4125657549   -1.4348024333    1.2254660911
13   
C6H6N->C6H6N atoms 1-13 frame 265 charge +0.000 sz -1.000 sz^2 0.979
C        1.7973247304    0.2696106468   -0.6688739575
C        1.0640599600   -0.8499580250   -0.4254724769
C       -0.5135312246   -0.8021036583   -0.5670354064
C       -1.0214464523    0.7424567653    1.3134129544
C       -0.5382884947    1.1048918635   -0.1454387384
N        1.1415958821    1.5236767136   -0.9306172222
H        2.8052223207    0.4696770607   -0.3151517686
H        1.5758007015   -1.7401842543   -0.1216399905
H       -1.1531800751   -1.6315442558   -1.1172492003
H       -1.9608444890    1.1260329048    1.7454302668
H       -0.8960301288    1.8091507360   -0.8434259692
C       -0.8289120563   -0.5851481409    0.7948617691
H       -1.4717706738   -1.4365583564    1.2811997395
13   
C6H6N->C6H6N atoms 1-13 frame 266 charge +0.000 sz -1.000 sz^2 1.012
C        1.7845558706    0.2695168828   -0.6858279456
C        1.0912677802   -0.8386660562   -0.4611597199
C       -0.4666639532   -0.8484460935   -0.6030075814
C       -1.0388729355    0.7328803107    1.3137876393
C       -0.5683463198    1.1145615282   -0.1398430326
N        1.1205470536    1.5468752348   -0.9612327320
H        2.8054088922    0.4032387336   -0.3106621686
H        1.6180314926   -1.7047546665   -0.1255047525
H       -1.1349588828   -1.6293481488   -1.1261040910
H       -1.9382831289    1.1505750117    1.8240766242
H       -0.8900995866    1.8092815236   -0.8334999609
C       -0.8639601154   -0.5752710686    0.7725004459
H       -1.5186261669   -1.4304431919    1.3364772754
13   
C6H6N->C6H6N atoms 1-13 frame 268 charge +0.000 sz -1.000 sz^2 1.064
C        1.7711709565    0.2704601494   -0.6957381052
C        1.1146590037   -0.8320493581   -0.4940039588
C       -0.4179587262   -0.8923644224   -0.6371462220
C       -1.0599418139    0.7176141302    1.3072041340
C       -0.5977838705    1.1210863371   -0.1347849108
N        1.0990306574    1.5649793094   -0.9844946553
H        2.8075044518    0.3301063753   -0.3077313030
H        1.6578931103   -1.6827801047   -0.1221672781
H       -1.1006207468   -1.6056677690   -1.1339456663
H       -1.9019220630    1.1690586128    1.9040071887
H       -0.9127219349    1.8228702944   -0.8368992427
C       -0.9098750778   -0.5719379836    0.7568918509
H       -1.5494339466   -1.4113755707    1.3788081686
13   
C6H6N->C6H6N atoms 1-13 frame 270 charge -0.000 sz -1.000 sz^2 1.112
C        1.7599632976    0.2727249682   -0.6973680895
C        1.1331428009   -0.8319322155   -0.5212406454
C       -0.3699494578   -0.9302910000   -0.6647511883
C       -1.0825835492    0.6997309353    1.2959494505
C       -0.6237124021    1.1261422465   -0.1287453371
N        1.0805010321    1.5774457522   -0.9982863032
H        2.8074345199    0.2574990724   -0.3067471133
H        1.6925676950   -1.6727053201   -0.1124242359
H       -1.0598645454   -1.5723217380   -1.1478138154
H       -1.8496987268    1.1801244574    1.9792574416
H       -0.9583754998    1.8469379195   -0.8485423040
C       -0.9633028388   -0.5740140375    0.7483340689
H       -1.5661223258   -1.3793410405    1.4023780711
13   
C6H6N->C6H6N atoms 1-13 frame 272 charge +0.000 sz -1.000 sz^2 1.167
C        1.7524628996    0.2768581955   -0.6914025901
C        1.1476861322   -0.8385229456   -0.5422910854
C       -0.3225371083   -0.9611859725   -0.6837883316
C       -1.1054953210    0.6828654581    1.2813267895
C       -0.6452883704    1.1326242928   -0.1221522301
N        1.0665519620    1.5852384482   -1.0038482738
H        2.8034630101    0.1902523678   -0.3082041189
H        1.7207723557   -1.6691784506   -0.0981363242
H       -1.0229618254   -1.5413114312   -1.1755501397
H       -1.7809141969    1.1856969306    2.0472413856
H       -1.0176221548    1.8726250143   -0.8583082923
C       -1.0220456019   -0.5788024314    0.7457483025
H       -1.5740717809   -1.3371594759    1.4093649085
13   
C6H6N->C6H6N atoms 1-13 frame 274 charge +0.000 sz -1.000 sz^2 1.227
C        1.7491179350    0.2831175871   -0.6793222670
C        1.1591691704   -0.8518282365   -0.5569732734
C       -0.2760680377   -0.9850456010   -0.6924916368
C       -1.1274599974    0.6705271860    1.2636933334
C       -0.6622128435    1.1428471630   -0.1164450896
N        1.0574501392    1.5886111769   -1.0036718965
H        2.7958095731    0.1333572663   -0.3135719203
H        1.7415528800   -1.6682462568   -0.0809866027
H       -0.9956892934   -1.5192435502   -1.2218566921
H       -1.6947282426    1.1882301044    2.1054803292
H       -1.0836826218    1.8921057249   -0.8586751625
C       -1.0844245544   -0.5836993549    0.7487366803
H       -1.5788341068   -1.2907332091    1.4060841981
13   
C6H6N->C6H6N atoms 1-13 frame 276 charge +0.000 sz -1.000 sz^2 1.255
C        1.7489165024    0.2911207002   -0.6648244357
C        1.1679440775   -0.8714089109   -0.5658456738
C       -0.2332259669   -1.0031215144   -0.6895855159
C       -1.1467600066    0.6664479183    1.2429807907
C       -0.6747385869    1.1582293334   -0.1141871945
N        1.0517044377    1.5869193420   -1.0026094113
H        2.7863894230    0.0931128278   -0.3263464062
H        1.7544912004   -1.6675230724   -0.0632589668
H       -0.9754172829   -1.5057282308   -1.2833890668
H       -1.5911869811    1.1909927633    2.1502053885