13   
From optimize.out: Frame 2 / 3, Energy=    -286.8383134969
C        1.5482631015    0.2439600781   -0.2499162964
C        0.5831613954   -0.9257548257   -0.0945058348
C       -0.7090733236   -0.3596409117   -0.7859874656
C       -1.1198146451    0.1988849191    0.5900884062
C       -0.4422720388    1.0837288812   -0.5510927869
N        0.9666768840    1.3699051016   -0.4517862960
H        2.6206041138    0.1766951608   -0.0731473905
H        0.9604500354   -1.9282857562   -0.3077102016
H       -1.3183502057   -0.8222857861   -1.5565333331
H       -2.0927552132    0.5054232907    0.9613640526
H       -1.0832845491    1.8562957945   -0.9634132650
C       -0.1337518241   -0.6625006690    1.2284612501
H        0.2201462699   -0.7364252773    2.2541791605
13   
From optimize.out: Frame 1 / 3, Energy=    -286.8383083155
C        1.5415701942    0.2511552133   -0.2543551092
C        0.5868719302   -0.9199734517   -0.1003548422
C       -0.6930775101   -0.3634981274   -0.7764531869
C       -1.0924808605    0.2379616310    0.5982960548
C       -0.4442790376    1.0872905681   -0.5519155421
N        0.9724211863    1.3803930669   -0.4626106115
H        2.6022599541    0.1841554192   -0.0514097045
H        0.9356880358   -1.9285480572   -0.3379224102
H       -1.2950102817   -0.8507608538   -1.5369751344
H       -2.0650823763    0.5172898917    0.9820500771
H       -1.1039147562    1.8378563551   -0.9847924298
C       -0.1289061520   -0.6577244576    1.2213874526
H        0.1839396736   -0.7755971977    2.2550553863
13   
From optimize.out: Frame 42 / 43, Energy=    -286.8383083154
C        1.5533413215    0.2632085214   -0.2561869857
C        0.6024301113   -0.9108815244   -0.0976282127
C       -0.6849948808   -0.3597005413   -0.7921605210
C       -1.0760612203    0.2904398864    0.6124685080
C       -0.4480854122    1.0834870652   -0.5522451904
N        0.9829564575    1.3890423617   -0.4758606246
H        2.6238405519    0.2000684419   -0.0718185560
H        0.9898809755   -1.9132587357   -0.2939917792
H       -1.3600578860   -0.8708777957   -1.4666318645
H       -2.0735466344    0.5241089216    0.9684332015
H       -1.0906359810    1.8388458217   -0.9981854933
C       -0.1547744257   -0.6778477902    1.1957460829
H        0.1357070226   -0.8566346325    2.2280614350
13   
From optimize.out: Frame 40 / 43, Energy=    -286.8383031937
C        1.5599146293    0.2800974350   -0.2543647918
C        0.6238398718   -0.9004634383   -0.0879813180
C       -0.6629048087   -0.3723628913   -0.7952372268
C       -1.0545614226    0.3387832734    0.6423033206
C       -0.4526593541    1.0707621709   -0.5579811659
N        0.9834496905    1.4001331246   -0.4843648831
H        2.6385903800    0.2209290218   -0.1152914146
H        1.0199038096   -1.9039542242   -0.2556175099
H       -1.3690181278   -0.8759998372   -1.4448522738
H       -2.0560529959    0.5774695717    0.9876992678
H       -1.1065393725    1.8105230303   -1.0117338734
C       -0.1981474720   -0.7090012780    1.1735300002
H        0.0741851725   -0.9369159587    2.2038918687
13   
From optimize.out: Frame 38 / 43, Energy=    -286.8382963117
C        1.5651810370    0.2980449865   -0.2512856956
C        0.6485722918   -0.8909611208   -0.0753783974
C       -0.6370450360   -0.3912237151   -0.7824043671
C       -1.0327220812    0.3785093802    0.6724550528
C       -0.4552151893    1.0565820450   -0.5658655323
N        0.9777771474    1.4103674006   -0.4899392843
H        2.6498928018    0.2439293221   -0.1703303562
H        1.0420006445   -1.8978367157   -0.2221878882
H       -1.3596144106   -0.8696252234   -1.4333209686
H       -2.0317182759    0.6440846644    1.0071686602
H       -1.1299581157    1.7743565501   -1.0244195392
C       -0.2461603127   -0.7416850271    1.1540857580
H        0.0090094988   -1.0145425468    2.1814225580
13   
From optimize.out: Frame 36 / 43, Energy=    -286.8382878253
C        1.5721459410    0.3163742342   -0.2482299464
C        0.6765180506   -0.8812873034   -0.0628273417
C       -0.6110349720   -0.4122870815   -0.7536260810
C       -1.0149881680    0.4102318372    0.6998590258
C       -0.4531460944    1.0417150903   -0.5760779905
N        0.9673506163    1.4187160530   -0.4929333887
H        2.6598785442    0.2694883156   -0.2306484028
H        1.0626168138   -1.8913304506   -0.1978196715
H       -1.3499244727   -0.8555807382   -1.4118655651
H       -2.0109125872    0.7111608240    1.0145017193
H       -1.1477028455    1.7371813637   -1.0390178449
C       -0.2944394705   -0.7722753928    1.1385630751
H       -0.0563613555   -1.0921067516    2.1601224122
13   
From optimize.out: Frame 35 / 43, Energy=    -286.8382818476
C        1.5826056808    0.3351346284   -0.2462257318
C        0.7072337247   -0.8704686999   -0.0523055491
C       -0.5837964179   -0.4343039593   -0.7145502000
C       -1.0038700947    0.4359376306    0.7287742805
C       -0.4471428786    1.0259470692   -0.5901727211
N        0.9505972661    1.4237287335   -0.4940883235
H        2.6692755890    0.2957040616   -0.2927293596
H        1.0818157395   -1.8832477817   -0.1877439498
H       -1.3387559447   -0.8374636216   -1.3807531511
H       -1.9954690000    0.7756528382    1.0169742474
H       -1.1567136827    1.7008199080   -1.0591500131
C       -0.3428537731   -0.7988383012    1.1302917958
H       -0.1229262085   -1.1686025060    2.1416786754
13   
From optimize.out: Frame 33 / 43, Energy=    -286.8382555909
C        1.5970038483    0.3551825877   -0.2449093750
C        0.7389988227   -0.8578887105   -0.0425142453
C       -0.5558413687   -0.4556724801   -0.6739060251
C       -0.9961372691    0.4548925131    0.7608832000
C       -0.4394540801    1.0096870170   -0.6102643328
N        0.9271060054    1.4259542874   -0.4948774855
H        2.6784502422    0.3191431580   -0.3561592182
H        1.0998601029   -1.8728654410   -0.1874636266
H       -1.3257998536   -0.8140547792   -1.3482116994
H       -1.9808722028    0.8344650384    1.0229659391
H       -1.1594626494    1.6661094824   -1.0862811968
C       -0.3913558142   -0.8223487125    1.1313252316
H       -0.1924957836   -1.2426039609    2.1294128338
13   
From optimize.out: Frame 29 / 43, Energy=    -286.8380955592
C        1.6132019941    0.3784886418   -0.2435745705
C        0.7681806029   -0.8440087962   -0.0299471116
C       -0.5281990819   -0.4731430649   -0.6384515884
C       -0.9859050559    0.4617152822    0.7915132335
C       -0.4309561088    0.9933881198   -0.6387328888
N        0.8960847378    1.4286760358   -0.4943325204
H        2.6839050919    0.3371734929   -0.4253294987
H        1.1137175580   -1.8606268094   -0.1906464009
H       -1.3113513230   -0.7786855684   -1.3213872038
H       -1.9600754532    0.8829180260    1.0315194281
H       -1.1583218619    1.6333883495   -1.1215495221
C       -0.4368121910   -0.8469171819    1.1465304350
H       -0.2634689090   -1.3123665272    2.1343882085
13   
From optimize.out: Frame 27 / 43, Energy=    -286.8377736778
C        1.6318946278    0.4072261230   -0.2414083382
C        0.7906513673   -0.8281961364   -0.0119429589
C       -0.5003610178   -0.4831428550   -0.6089850770
C       -0.9744009756    0.4601852452    0.8139421209
C       -0.4233594730    0.9799518132   -0.6729580666
N        0.8544530500    1.4362689830   -0.4924510924
H        2.6845475076    0.3427329630   -0.4993579967
H        1.1164028446   -1.8459510508   -0.1940654177
H       -1.2926213433   -0.7329730945   -1.2977725289
H       -1.9386584087    0.9175758112    1.0337135080
H       -1.1540987354    1.6037044059   -1.1662290285
C       -0.4716035214   -0.8751154322    1.1748121733
H       -0.3228459221   -1.3822667756    2.1627027029
13   
From optimize.out: Frame 25 / 43, Energy=    -286.8363486802
C        1.6568342948    0.4390239324   -0.2392352926
C        0.8054387766   -0.8122938147    0.0093693911
C       -0.4727159878   -0.4862678742   -0.5843083386
C       -0.9654779309    0.4638317791    0.8246092232
C       -0.4211192350    0.9725416464   -0.7069526415
N        0.7990966913    1.4522006663   -0.4949360848
H        2.6869372135    0.3337100222   -0.5656969666
H        1.1060135355   -1.8306293253   -0.1943965138
H       -1.2683601016   -0.6875409495   -1.2734809466
H       -1.9246608485    0.9467332367    1.0234925347
H       -1.1525654290    1.5776131060   -1.2150106438
C       -0.4913172182   -0.9064639142    1.2064608661
H       -0.3581037607   -1.4624585112    2.2100854131
13   
From optimize.out: Frame 15 / 43, Energy=    -286.8332058640
C        1.6819258923    0.4686674881   -0.2389967041
C        0.8171896208   -0.7998404803    0.0314746494
C       -0.4457925482   -0.4832942735   -0.5615959301
C       -0.9557487506    0.4818263094    0.8256690435
C       -0.4268074481    0.9638560278   -0.7336288823
N        0.7298017356    1.4583619860   -0.5066569303
H        2.6932007229    0.3243943860   -0.6200374280
H        1.0887674964   -1.8181474308   -0.1857628545
H       -1.2300839790   -0.6411466369   -1.2500958915
H       -1.9130524102    0.9838933686    1.0055521581
H       -1.1588904874    1.5481456322   -1.2518991552
C       -0.5020178724   -0.9352568711    1.2325287499
H       -0.3784919721   -1.5514595056    2.2534491751
13   
From optimize.out: Frame 14 / 43, Energy=    -286.8295200433
C        1.7111995310    0.4838016589   -0.2601513233
C        0.8337051255   -0.7960817469    0.0260525633
C       -0.4588185402   -0.4661710688   -0.5304587810
C       -0.9599980281    0.5119226896    0.8340383350
C       -0.4189230037    0.9479900982   -0.7226896911
N        0.7415248913    1.4491152411   -0.5294675337
H        2.7246104086    0.3294295139   -0.6453336497
H        1.0900103273   -1.8414566948   -0.1383529652
H       -1.1829196434   -0.6368435597   -1.2729783403
H       -1.9171802585    1.0030946886    1.0291991365
H       -1.2044193849    1.5127293274   -1.2124607549
C       -0.5320916341   -0.9202705036    1.2370310044
H       -0.4266997908   -1.5772596438    2.1855719999
13   
From optimize.out: Frame 12 / 43, Energy=    -286.8185238991
C        1.7372560661    0.4911941112   -0.2831680774
C        0.8486354774   -0.7970459932    0.0149067442
C       -0.4788613255   -0.4444514948   -0.5020663937
C       -0.9645568489    0.5419826886    0.8470208035
C       -0.4104418313    0.9362714831   -0.7018783900
N        0.7745594511    1.4391535177   -0.5497253119
H        2.7581088521    0.3419773623   -0.6568321305
H        1.0973575363   -1.8668655014   -0.0921554391
H       -1.1499725024   -0.6639442436   -1.3059191846
H       -1.9195624604    1.0165091363    1.0615006080
H       -1.2474979639    1.4864699332   -1.1596528926
C       -0.5633991104   -0.8988591609    1.2368788659
H       -0.4816253402   -1.5823918385    2.0910907982
13   
From optimize.out: Frame 10 / 43, Energy=    -286.8016985184
C        1.7589980161    0.4931595279   -0.3067741881
C        0.8613153571   -0.8012491942    0.0010116236
C       -0.5002478874   -0.4223270706   -0.4779615413
C       -0.9677109565    0.5712836197    0.8629986008
C       -0.4041872486    0.9303909386   -0.6771368531
N        0.8158941537    1.4298190592   -0.5688406740
H        2.7896129025    0.3611797324   -0.6599642546
H        1.1069077514   -1.8854294365   -0.0529634747
H       -1.1292351091   -0.7143234136   -1.3372605661
H       -1.9207108150    1.0275553320    1.0946325297
H       -1.2785346146    1.4681968658   -1.1043776988
C       -0.5930453257   -0.8749904183    1.2328672277
H       -0.5390562238   -1.5832655424    1.9937692689
13   
From optimize.out: Frame 8 / 43, Energy=    -286.7786724359
C        1.7766771452    0.4910149546   -0.3336981518
C        0.8722478676   -0.8076146926   -0.0165867745
C       -0.5231219864   -0.4022653806   -0.4582561793
C       -0.9699416948    0.6013846156    0.8809972472
C       -0.4005309899    0.9306100951   -0.6500965067
N        0.8631791128    1.4206747243   -0.5909501391
H        2.8193231061    0.3878897622   -0.6579681566
H        1.1181277226   -1.8944600758   -0.0202458418
H       -1.1147997403   -0.7826082037   -1.3590412846
H       -1.9237685993    1.0381642431    1.1267448636
H       -1.2957231815    1.4556062197   -1.0490101989
C       -0.6214240679   -0.8456398128    1.2230424581
H       -0.6002446941   -1.5927564492    1.9050686644
13   
From optimize.out: Frame 6 / 43, Energy=    -286.7513092227
C        1.7900028642    0.4855087813   -0.3653150562
C        0.8816797258   -0.8151524188   -0.0380046285
C       -0.5469123491   -0.3875352033   -0.4435640280
C       -0.9714384807    0.6326762753    0.9001608773
C       -0.3996688021    0.9371206595   -0.6222397094
N        0.9132084994    1.4116585616   -0.6186415205
H        2.8466807970    0.4221467023   -0.6528385216
H        1.1314761423   -1.8928635283    0.0055502533
H       -1.1025736848   -0.8619987673   -1.3629065481
H       -1.9307742323    1.0495756474    1.1560752741
H       -1.2982473718    1.4486364872   -0.9982452358
C       -0.6475075789   -0.8093975968    1.2065201473
H       -0.6659255290   -1.6203755998    1.8334486961
13   
From optimize.out: Frame 4 / 43, Energy=    -286.7165093425
C        1.7989861942    0.4766598789   -0.3999889783
C        0.8897656708   -0.8234657490   -0.0620120931
C       -0.5701246459   -0.3816291408   -0.4338824845
C       -0.9722484262    0.6632956025    0.9206135916
C       -0.4011866513    0.9488373842   -0.5938484047
N        0.9618133881    1.4028479723   -0.6507351496
H        2.8704395931    0.4615479171   -0.6447920916
H        1.1475986095   -1.8833847163    0.0234381961
H       -1.0901353685   -0.9430227878   -1.3444918322
H       -1.9417096676    1.0609763835    1.1823066473
H       -1.2881319685    1.4489006318   -0.9568817829
C       -0.6696577229   -0.7695361569    1.1845631646
H       -0.7354090048   -1.6620272195    1.7757112174
13   
From optimize.out: Frame 2 / 43, Energy=    -286.6597824050
C        1.8046135138    0.4637967226   -0.4351521975
C        0.8968858482   -0.8328916781   -0.0876896676
C       -0.5917991129   -0.3865091149   -0.4283225619
C       -0.9725604108    0.6910653285    0.9439013400
C       -0.4042297289    0.9637962373   -0.5631297877
N        1.0068150819    1.3942986407   -0.6842145499
H        2.8898917722    0.5030190634   -0.6323394276
H        1.1672897629   -1.8718115552    0.0331787642
H       -1.0760471304   -1.0188872843   -1.3053626231
H       -1.9549652517    1.0704271545    1.2075687985
H       -1.2700993236    1.4588213671   -0.9267695763
C       -0.6877639081   -0.7311773697    1.1586925489
H       -0.8080311126   -1.7039475119    1.7196389400
13   
From optimize.out: Frame 1 / 43, Energy=    -286.6162339899
C        1.8081254429    0.4463235041   -0.4686562908
C        0.9035043225   -0.8436047402   -0.1147246010
C       -0.6113277267   -0.4026223584   -0.4261754164
C       -0.9726918824    0.7143502725    0.9715487249
C       -0.4080393952    0.9799914507   -0.5280816228
N        1.0473055729    1.3865507142   -0.7163567476
H        2.9043144034    0.5435348957   -0.6136881785
H        1.1912666646   -1.8638945996    0.0351317162
H       -1.0599417077   -1.0859651703   -1.2504310130
H       -1.9684493175    1.0763112773    1.2343739854
H       -1.2492496233    1.4808887448   -0.9085439281
C       -0.7026697268   -0.6983231911    1.1297160019
H       -0.8821470267   -1.7335407997    1.6558873699
13   
C6H6N->C6H6N atoms 1-13 frame 244 charge -0.000 sz -1.000 sz^2 0.587
C        1.8105189427    0.4244833146   -0.4987019522
C        0.9100634688   -0.8551148994   -0.1427612977
C       -0.6279042448   -0.4289442342   -0.4270953661
C       -0.9730373631    0.7319414924    1.0040123114
C       -0.4122213574    0.9955863998   -0.4879813761
N        1.0823175615    1.3807634671   -0.7450033787
H        2.9126653282    0.5797630137   -0.5879814863
H        1.2196489848   -1.8632148717    0.0301396328
H       -1.0430835487   -1.1427275059   -1.1870622351
H       -1.9802290722    1.0778043357    1.2642446314
H       -1.2290334743    1.5159602534   -0.9019640263
C       -0.7152625069   -0.6734433137    1.0983757907
H       -0.9544427186   -1.7428574520    1.5817787523
13   
C6H6N->C6H6N atoms 1-13 frame 246 charge +0.000 sz -1.000 sz^2 0.642
C        1.8124170149    0.3994886516   -0.5242285967
C        0.9170073806   -0.8664610137   -0.1713682108
C       -0.6407255871   -0.4630297042   -0.4307115782
C       -0.9740185425    0.7434699938    1.0408286743
C       -0.4169064051    1.0094087460   -0.4433512567
N        1.1112175114    1.3782774427   -0.7688507296
H        2.9142436133    0.6087826633   -0.5556231458
H        1.2517964872   -1.8697162109    0.0194466958
H       -1.0285846813   -1.1912070573   -1.1246293511
H       -1.9890871670    1.0750898748    1.2978672697
H       -1.2094518001    1.5618876326   -0.9043717328
C       -0.7264164666   -0.6571167209    1.0654790242
H       -1.0214913576   -1.7288742978    1.4995129377
13   
C6H6N->C6H6N atoms 1-13 frame 250 charge +0.000 sz -1.000 sz^2 0.619
C        1.8141033750    0.3729901245   -0.5451633317
C        0.9248519054   -0.8766061954   -0.2003384173
C       -0.6491375000   -0.5018951589   -0.4365613999
C       -0.9759401018    0.7495189206    1.0812901884
C       -0.4225708387    1.0213629881   -0.3951755187
N        1.1342329287    1.3801824696   -0.7875990842
H        2.9091365777    0.6287768286   -0.5177212116
H        1.2867132653   -1.8801016269    0.0042065330
H       -1.0207516438   -1.2374386146   -1.0727523073
H       -1.9946756778    1.0693216120    1.3357793529
H       -1.1874827006    1.6144990403   -0.9108899624
C       -0.7369920364   -0.6481273843    1.0315207896
H       -1.0814875529   -1.6924830037    1.4134043692
13   
C6H6N->C6H6N atoms 1-13 frame 252 charge -0.000 sz -1.000 sz^2 0.614
C        1.8156449817    0.3467479321   -0.5620439879
C        0.9342255955   -0.8845267071   -0.2296073988
C       -0.6523799627   -0.5427884881   -0.4443603403
C       -0.9789170493    0.7511723208    1.1244769622
C       -0.4297018220    1.0320883555   -0.3447824592
N        1.1520013389    1.3872455073   -0.8016778762
H        2.8980717107    0.6386124297   -0.4758605961
H        1.3234152263   -1.8896103614   -0.0146355228
H       -1.0238574100   -1.2886843184   -1.0395486728
H       -1.9971483722    1.0623253940    1.3784659806
H       -1.1595147739    1.6691180479   -0.9162955266
C       -0.7476080911   -0.6442543304    0.9967491087
H       -1.1342313719   -1.6374457821    1.3291203292
13   
C6H6N->C6H6N atoms 1-13 frame 253 charge +0.000 sz -1.000 sz^2 0.615
C        1.8169207786    0.3225329752   -0.5760661897
C        0.9459426184   -0.8892222153   -0.2591664913
C       -0.6495293423   -0.5838115942   -0.4542688532
C       -0.9829214153    0.7498667372    1.1688042427
C       -0.4387736884    1.0424289308   -0.2943002167
N        1.1650040310    1.3998160603   -0.8126312541
H        2.8822342410    0.6376663402   -0.4325888342
H        1.3612871480   -1.8932647432   -0.0358782566
H       -1.0400812394   -1.3494125557   -1.0288701399
H       -1.9969535923    1.0564832071    1.4260804054
H       -1.1232941616    1.7209242749   -0.9167505784
C       -0.7584584637   -0.6425620812    0.9613743248
H       -1.1813769140   -1.5714453362    1.2542618411
13   
C6H6N->C6H6N atoms 1-13 frame 255 charge +0.000 sz -1.000 sz^2 0.625
C        1.8175569988    0.3018252015   -0.5895161709
C        0.9612219107   -0.8897589896   -0.2894446920
C       -0.6394213035   -0.6248759876   -0.4670569617
C       -0.9878418279    0.7474611208    1.2122070757
C       -0.4505582183    1.0532612046   -0.2464826569
N        1.1731760533    1.4179691982   -0.8238841568
H        2.8629862115    0.6258136291   -0.3915113939
H        1.4008533674   -1.8864266303   -0.0579473515
H       -1.0679644224   -1.4192639426   -1.0382052463
H       -1.9945722090    1.0547641003    1.4790072081
H       -1.0783056452    1.7653098711   -0.9107398365
C       -0.7693041444   -0.6394547147    0.9254089666
H       -1.2278267710   -1.5066240608    1.1981652162
13   
C6H6N->C6H6N atoms 1-13 frame 257 charge -0.000 sz -1.000 sz^2 0.652
C        1.8168300669    0.2860189957   -0.6054128781
C        0.9814793726   -0.8852598183   -0.3211981232
C       -0.6205417085   -0.6671284749   -0.4839304364
C       -0.9934711666    0.7460157393    1.2517465015
C       -0.4661338351    1.0653859228   -0.2050690373
N        1.1755299510    1.4414939308   -0.8403844724
H        2.8422753822    0.6030506581   -0.3574677577
H        1.4432544809   -1.8651417553   -0.0789737050
H       -1.1020877898   -1.4928262723   -1.0598605801
H       -1.9901134454    1.0607021818    1.5379392693
H       -1.0262243710    1.7974190566   -0.8986153828
C       -0.7797126922   -0.6313053900    0.8892124456
H       -1.2810842450   -1.4584247744    1.1720141568
13   
C6H6N->C6H6N atoms 1-13 frame 259 charge +0.000 sz -1.000 sz^2 0.714
C        1.8137722138    0.2761613471   -0.6251399733
C        1.0065245353   -0.8759162744   -0.3543278750
C       -0.5926336263   -0.7105377831   -0.5057346355
C       -0.9998872394    0.7462846093    1.2830174553
C       -0.4859004092    1.0787083071   -0.1745380581
N        1.1709146266    1.4685315283   -0.8650761207
H        2.8237713271    0.5699826853   -0.3347688803
H        1.4874466670   -1.8295400580   -0.0970481414
H       -1.1329904027   -1.5588857982   -1.0837259164
H       -1.9835787454    1.0761346408    1.6017656222
H       -0.9731993915    1.8132295549   -0.8818706464
C       -0.7903580933   -0.6172448189    0.8546699753
H       -1.3438814621   -1.4369079401    1.1827771942
13   
C6H6N->C6H6N atoms 1-13 frame 261 charge -0.000 sz -1.000 sz^2 0.803
C        1.8075299392    0.2714129707   -0.6469568726
C        1.0342915311   -0.8635855833   -0.3884991007
C       -0.5571599597   -0.7546437044   -0.5329742508
C       -1.0084030391    0.7462126789    1.3032498229
C       -0.5096204066    1.0921134854   -0.1559323199
N        1.1594591674    1.4961793233   -0.8960455078
H        2.8111373966    0.5267403003   -0.3223648802
H        1.5310889233   -1.7857802175   -0.1112957061
H       -1.1515985115   -1.6064607285   -1.1030517301
H       -1.9747305518    1.0989110007    1.6693764410
H       -0.9276823856    1.8144212232   -0.8624844605
C       -0.8048208786   -0.6006672780    0.8234868671
H       -1.4094912250   -1.4348534708    1.2234916977
13   
C6H6N->C6H6N atoms 1-13 frame 263 charge -0.000 sz -1.000 sz^2 0.897
C        1.7977408845    0.2696775392   -0.6679962428
C        1.0628641475   -0.8505060306   -0.4239863966
C       -0.5152937080   -0.8001965016   -0.5656584963
C       -1.0209154218    0.7426143714    1.3130246224
C       -0.5371310906    1.1043813601   -0.1458442278
N        1.1423231658    1.5225758632   -0.9292262604
H        2.8054466048    0.4719884221   -0.3154314503
H        1.5740079553   -1.7420130711   -0.1212330164
H       -1.1531489204   -1.6305820273   -1.1166902217
H       -1.9614102531    1.1249389309    1.7423683132
H       -0.8972712605    1.8093730567   -0.8441883101
C       -0.8279287562   -0.5857673269    0.7960034382
H       -1.4692833474   -1.4364845863    1.2788582487
13   
C6H6N->C6H6N atoms 1-13 frame 265 charge +0.000 sz -1.000 sz^2 0.979
C        1.7850068604    0.2695201945   -0.6852291391
C        1.0903068133   -0.8390648829   -0.4598992641
C       -0.4683192822   -0.8468093014   -0.6017370619
C       -1.0382574407    0.7332185464    1.3137744056
C       -0.5672846922    1.1142200004   -0.1400406702
N        1.1212904879    1.5460558745   -0.9601514073
H        2.8054023026    0.4055853027   -0.3108207390
H        1.6165399218   -1.7060060221   -0.1253682510
H       -1.1356024464   -1.6294257142   -1.1257913406
H       -1.9390799851    1.1497081965    1.8212988735
H       -0.8903090505    1.8092769042   -0.8338505427
C       -0.8627222351   -0.5756199220    0.7732902368
H       -1.5169712539   -1.4306591765    1.3345249000
13   
C6H6N->C6H6N atoms 1-13 frame 266 charge +0.000 sz -1.000 sz^2 1.012
C        1.7715587091    0.2704328235   -0.6954510140
C        1.1139813745   -0.8322410398   -0.4930524816
C       -0.4193696864   -0.8910921357   -0.6361572468
C       -1.0593314616    0.7180563819    1.3073948541
C       -0.5969310830    1.1208973174   -0.1349314414
N        1.0996539740    1.5644548456   -0.9838207718
H        2.8074437448    0.3322249743   -0.3078162083
H        1.6567383440   -1.6834166941   -0.1222639627
H       -1.1016155012   -1.6063537748   -1.1337185008
H       -1.9029754204    1.1685231543    1.9016916499
H       -0.9120665795    1.8224766362   -0.8368007677
C       -0.9085449499   -0.5720345410    0.7573440222
H       -1.5485414643   -1.4119279479    1.3775818690
13   
C6H6N->C6H6N atoms 1-13 frame 268 charge +0.000 sz -1.000 sz^2 1.064
C        1.7602364953    0.2726697610   -0.6973283570
C        1.1326922403   -0.8319350709   -0.5205767245
C       -0.3711197307   -0.9293665026   -0.6640782902
C       -1.0820316347    0.7001668557    1.2962237944
C       -0.6230803688    1.1260190037   -0.1288925576
N        1.0809527098    1.5771418705   -0.9979501183
H        2.8074362246    0.2592689464   -0.3067711039
H        1.6917224681   -1.6729509028   -0.1126617321
H       -1.0608580177   -1.5731345801   -1.1474757657
H       -1.8509717217    1.1798547166    1.9774231431
H       -0.9572626495    1.8463512476   -0.8482584930
C       -0.9620004849   -0.5739634316    0.7485426732
H       -1.5657155302   -1.3801219135    1.4018035317
13   
C6H6N->C6H6N atoms 1-13 frame 270 charge -0.000 sz -1.000 sz^2 1.112
C        1.7526112116    0.2767764656   -0.6915205511
C        1.1473985541   -0.8383926213   -0.5418748366
C       -0.3234746343   -0.9605750591   -0.6834118935
C       -1.1050422664    0.6831989540    1.2816159362
C       -0.6448617299    1.1324961176   -0.1222826014
N        1.0668277892    1.5850843564   -1.0037382921
H        2.8035415423    0.1915820959   -0.3081753082
H        1.7202146401   -1.6692481905   -0.0984188516
H       -1.0236915353   -1.5419246252   -1.1750016850
H       -1.7822743339    1.1855867412    2.0458970793
H       -1.0164506187    1.8721170808   -0.8581151808
C       -1.0208840296   -0.5787077463    0.7457994332
H       -1.5739145893   -1.3379935691    1.4092267516
13   
C6H6N->C6H6N atoms 1-13 frame 272 charge +0.000 sz -1.000 sz^2 1.167
C        1.7491689139    0.2830221910   -0.6795063769
C        1.1589941634   -0.8516254575   -0.5567495098
C       -0.2767762486   -0.9846819688   -0.6923589943
C       -1.1271252453    0.6707152272    1.2639620757
C       -0.6619549064    1.1426913615   -0.1165320692
N        1.0575888553    1.5885597749   -1.0036745846
H        2.7959262152    0.1342243748   -0.3134901125
H        1.7412361748   -1.6682604639   -0.0812479727
H       -0.9961049399   -1.5195798753   -1.2211509581
H       -1.6960417578    1.1881914977    2.1045927398
H       -1.0826758287    1.8918088295   -0.8586695712
C       -1.0834738693   -0.5836247235    0.7486911360
H       -1.5787615267   -1.2914407676    1.4061341977
13   
C6H6N->C6H6N atoms 1-13 frame 274 charge +0.000 sz -1.000 sz^2 1.227
C        1.7489186016    0.2910372978   -0.6649755211
C        1.1678526321   -0.8712048560   -0.5657532124
C       -0.2336724345   -1.0029331409   -0.6896158013
C       -1.1465588765    0.6664904294    1.2431966411
C       -0.6746080530    1.1580690321   -0.1142107245
N        1.0517643151    1.5869369730   -1.0026204837
H        2.7864875927    0.0935322249   -0.3262132801
H        1.7543563670   -1.6675306089   -0.0634437108
H       -0.9756285424   -1.5058690772   -1.2827478230
H       -1.5922660098    1.1909639730    2.1497392978
H       -1.1512566796    1.8992393971   -0.8464004340
C       -1.1471924815   -0.5857503353    0.7571427349
H       -1.5881964311   -1.2529813089    1.4059023172
13   
C6H6N->C6H6N atoms 1-13 frame 276 charge +0.000 sz -1.000 sz^2 1.255
C        1.7494433809    0.2997867503   -0.6535808067
C        1.1740128489   -0.8953809271   -0.5706427432
C       -0.1989099849   -1.0173622679   -0.6761592874
C       -1.1615066870    0.6730709753    1.2194600631
C       -0.6837363757    1.1787195067   -0.1181081612
N        1.0464525129    1.5796063336   -1.0065713093
H        2.7789009165    0.0748540891   -0.3503784516
H        1.7606174001   -1.6666225936   -0.0480555561
H       -0.9528304558   -1.4953710837   -1.3473216718
H       -1.4744501152    1.1972632608    2.1772769925
H       -1.2187101088    1.8923386599   -0.8226427939
C       -1.2084131056   -0.5824107388    0.7704742229
H       -1.6108702263   -1.2384919646    1.4262495029
13   
C6H6N->C6H6N atoms 1-13 frame 279 charge -0.000 sz -1.000 sz^2 1.225
C        1.7484595050    0.3074988654   -0.6486073238
C        1.1774919473   -0.9210575622   -0.5731369296
C       -0.1767625718   -1.0292783947   -0.6560152219
C       -1.1713229915    0.6887406913    1.1945394578
C       -0.6902215172    1.2024605940   -0.1281962534
N        1.0397561447    1.5672072256   -1.0169733183
H        2.7768734711    0.0779972772   -0.3852309167
H        1.7622869325   -1.6677661128   -0.0372956973
H       -0.9215921568   -1.4832635848   -1.4011657450
H       -1.3535295939    1.2069681506    2.1860421128
H       -1.2807004987    1.8756041877   -0.7922497526
C       -1.2635822973   -0.5739886958    0.7869090866
H       -1.6471563735   -1.2511226415    1.4713805013
13   
C6H6N->C6H6N atoms 1-13 frame 281 charge -0.000 sz -1.000 sz^2 1.182
C        1.7450392247    0.3125736298   -0.6487298774
C        1.1786265513   -0.9467590214   -0.5740324345
C       -0.1676656495   -1.0397270828   -0.6328870455
C       -1.1771931673    0.7092326011    1.1701857439
C       -0.6946367846    1.2270774204   -0.1418154032
N        1.0315358758    1.5506514499   -1.0303343412
H        2.7817871350    0.0976942219   -0.4270697291
H        1.7616960571   -1.6744973474   -0.0308342839
H       -0.8813132725   -1.4669809294   -1.4398637541
H       -1.2371619882    1.2167466852    2.1794374160