13   
From optimize.out: Frame 42 / 43, Energy=    -286.8383083154
C        1.5477255952    0.2440207351   -0.2492566558
C        0.5831869504   -0.9256665191   -0.0963448637
C       -0.7104209497   -0.3606046263   -0.7864160072
C       -1.1188234174    0.1997346509    0.5899274195
C       -0.4427073897    1.0830013274   -0.5527709326
N        0.9655620747    1.3692773527   -0.4535485947
H        2.6184038939    0.1766845043   -0.0637774257
H        0.9616089111   -1.9272756957   -0.3097850380
H       -1.3210858250   -0.8234516527   -1.5561275743
H       -2.0903897486    0.5088980840    0.9634525993
H       -1.0837427485    1.8556698754   -0.9643347462
C       -0.1326904567   -0.6631843765    1.2268954768
H        0.2233731105   -0.7371036596    2.2520863422
13   
From optimize.out: Frame 40 / 43, Energy=    -286.8383031937
C        1.5383752847    0.2486697064   -0.2533393893
C        0.5835520117   -0.9215552927   -0.1000503388
C       -0.6950894489   -0.3669779365   -0.7714000550
C       -1.0973312964    0.2219843488    0.5966564938
C       -0.4424856385    1.0863025775   -0.5528698315
N        0.9691431762    1.3786193623   -0.4585696232
H        2.5964776638    0.1809170577   -0.0482230911
H        0.9183500040   -1.9320781219   -0.3499902095
H       -1.2736619617   -0.8426552816   -1.5629622031
H       -2.0606723634    0.5205267560    0.9897252849
H       -1.1091007313    1.8330846802   -0.9810853689
C       -0.1237297672   -0.6535887288    1.2291018436
H        0.1961730670   -0.7532491274    2.2630064879
13   
From optimize.out: Frame 38 / 43, Energy=    -286.8382963117
C        1.5457051758    0.2543836861   -0.2556569794
C        0.5911747204   -0.9179217204   -0.1007538394
C       -0.6904663357   -0.3589912235   -0.7830009218
C       -1.0862090260    0.2586269918    0.6004132393
C       -0.4466029466    1.0885718247   -0.5506730042
N        0.9766583448    1.3826989430   -0.4678206685
H        2.6097425787    0.1883627010   -0.0555147212
H        0.9581404137   -1.9239705624   -0.3223165002
H       -1.3226240228   -0.8612444794   -1.5033599714
H       -2.0707992577    0.5130789511    0.9721081350
H       -1.0972076576    1.8440347292   -0.9895795964
C       -0.1356093741   -0.6630893684    1.2113962847
H        0.1680973873   -0.8045404728    2.2447585438
13   
From optimize.out: Frame 36 / 43, Energy=    -286.8382878253
C        1.5564275693    0.2668110417   -0.2563629314
C        0.6069983428   -0.9080223364   -0.0963745135
C       -0.6827604506   -0.3599812297   -0.7958849798
C       -1.0719783744    0.3032613738    0.6173256710
C       -0.4486940038    1.0814367888   -0.5528637131
N        0.9854848665    1.3916364005   -0.4790562658
H        2.6295357761    0.2048514837   -0.0783488993
H        1.0027512874   -1.9089035619   -0.2825701619
H       -1.3751397811   -0.8747621697   -1.4518375381
H       -2.0746869126    0.5285034600    0.9669181576
H       -1.0879948976    1.8367519121   -1.0016415923
C       -0.1625311962   -0.6838440378    1.1894015481
H        0.1225877742   -0.8777391251    2.2212952187
13   
From optimize.out: Frame 35 / 43, Energy=    -286.8382818476
C        1.5610352413    0.2844297641   -0.2536630306
C        0.6292872550   -0.8980091988   -0.0853007307
C       -0.6564827613   -0.3763322264   -0.7950646509
C       -1.0489893627    0.3501490665    0.6503198875
C       -0.4539508813    1.0673383261   -0.5595957458
N        0.9827665599    1.4029168293   -0.4859835235
H        2.6414994698    0.2261866964   -0.1270845984
H        1.0254871894   -1.9023201443   -0.2469977235
H       -1.3669784357   -0.8763791800   -1.4426838471
H       -2.0501073362    0.5931142187    0.9943458840
H       -1.1125292376    1.8020951918   -1.0149372584
C       -0.2096168221   -0.7171486473    1.1683888706
H        0.0585791214   -0.9560406961    2.1982564669
13   
From optimize.out: Frame 33 / 43, Energy=    -286.8382555909
C        1.5664873557    0.3024276834   -0.2504508018
C        0.6547024211   -0.8887029489   -0.0722774183
C       -0.6308590450   -0.3959013228   -0.7784594076
C       -1.0276306003    0.3873741642    0.6794258038
C       -0.4556366199    1.0532036616   -0.5677944598
N        0.9761611506    1.4127941156   -0.4910551016
H        2.6525392301    0.2496569768   -0.1838579408
H        1.0473053348   -1.8963616703   -0.2144366385
H       -1.3571927064   -0.8674576100   -1.4304782208
H       -2.0259822809    0.6600226155    1.0111756806
H       -1.1354949427    1.7656175260   -1.0273435715
C       -0.2577130322   -0.7495179423    1.1495109502
H       -0.0066862649   -1.0331552490    2.1760411262
13   
From optimize.out: Frame 31 / 43, Energy=    -286.8382069164
C        1.5738993804    0.3208170084   -0.2474235571
C        0.6833461554   -0.8789404540   -0.0599387989
C       -0.6048135552   -0.4173387314   -0.7459860599
C       -1.0111230621    0.4172078767    0.7061887295
C       -0.4523988785    1.0381765267   -0.5785766284
N        0.9645622405    1.4206560698   -0.4933286299
H        2.6621557864    0.2758181003   -0.2450088411
H        1.0674884887   -1.8896898900   -0.1927800879
H       -1.3475419089   -0.8518329609   -1.4062402003
H       -2.0063276873    0.7268351156    1.0154922823
H       -1.1515339821    1.7283844510   -1.0425417942
C       -0.3058656138   -0.7794682495    1.1350728858
H       -0.0718473634   -1.1106248627    2.1550707001
13   
From optimize.out: Frame 29 / 43, Energy=    -286.8380955592
C        1.5852611680    0.3396476466   -0.2457063183
C        0.7145960765   -0.8678255554   -0.0500336940
C       -0.5772942700   -0.4394373269   -0.7050389290
C       -1.0017337484    0.4415017432    0.7356621482
C       -0.4455639860    1.0222546579   -0.5936176713
N        0.9462684702    1.4247942020   -0.4940732199
H        2.6714522667    0.3019979385   -0.3070891764
H        1.0863336528   -1.8811826226   -0.1863683288
H       -1.3359183148   -0.8329865896   -1.3731637145
H       -1.9922735956    0.7903094261    1.0173866054
H       -1.1583364887    1.6924528895   -1.0640907704
C       -0.3541833393   -0.8049247025    1.1287048888
H       -0.1386078915   -1.1866017067    2.1374281801
13   
From optimize.out: Frame 27 / 43, Energy=    -286.8377736778
C        1.6005203197    0.3600071785   -0.2444811206
C        0.7463921050   -0.8548425167   -0.0403295650
C       -0.5493118626   -0.4604828196   -0.6646811744
C       -0.9945571294    0.4587143219    0.7684392477
C       -0.4376482901    1.0059766472   -0.6151391132
N        0.9212857844    1.4264518485   -0.4948190364
H        2.6805551804    0.3245530241   -0.3706102811
H        1.1040809890   -1.8702544776   -0.1879921471
H       -1.3225872963   -0.8082671201   -1.3409616934
H       -1.9776016792    0.8474012382    1.0246048761
H       -1.1598396349    1.6582832795   -1.0927775723
C       -0.4025409899   -0.8277843472    1.1319503728
H       -0.2087474960   -1.2597562568    2.1267972069
13   
From optimize.out: Frame 25 / 43, Energy=    -286.8363486802
C        1.6168886530    0.3840694934   -0.2430932797
C        0.7746150594   -0.8407736463   -0.0269985469
C       -0.5219391946   -0.4767697348   -0.6309348541
C       -0.9834969350    0.4623592367    0.7982342358
C       -0.4290356994    0.9897914609   -0.6454767332
N        0.8886500832    1.4294945846   -0.4938526874
H        2.6848907502    0.3411752431   -0.4409803285
H        1.1167153741   -1.8576831789   -0.1916496905
H       -1.3078812020   -0.7699415059   -1.3159382599
H       -1.9551397742    0.8929139362    1.0335126880
H       -1.1579242633    1.6262223308   -1.1297566801
C       -0.4468364351   -0.8527421444    1.1505910392
H       -0.2795064164   -1.3281160753    2.1363430974
13   
From optimize.out: Frame 15 / 43, Energy=    -286.8332058640
C        1.6360665676    0.4139135297   -0.2407029214
C        0.7952194944   -0.8245969451   -0.0078212206
C       -0.4942239910   -0.4848584834   -0.6029944838
C       -0.9719864208    0.4593182232    0.8183255796
C       -0.4218127486    0.9772883437   -0.6804864720
N        0.8447958005    1.4383463031   -0.4917008585
H        2.6844632558    0.3435476324   -0.5153427298
H        1.1165287214   -1.8425185295   -0.1949893432
H       -1.2881572291   -0.7225320873   -1.2929628272
H       -1.9342500859    0.9240613388    1.0337611322
H       -1.1530875399    1.5975173675   -1.1762187195
C       -0.4785421758   -0.8816417662    1.1813643225
H       -0.3350136488   -1.3978449268    2.1697685419
13   
From optimize.out: Frame 14 / 43, Energy=    -286.8295200433
C        1.6623138489    0.4459294651   -0.2385949523
C        0.8082449772   -0.8089366204    0.0138445518
C       -0.4668960613   -0.4865802486   -0.5794963216
C       -0.9638877330    0.4647480842    0.8262745059
C       -0.4209815743    0.9713749154   -0.7138180177
N        0.7868512953    1.4560699079   -0.4954233995
H        2.6876092555    0.3315343049   -0.5787219542
H        1.1034613081   -1.8273051498   -0.1944992485
H       -1.2629024975   -0.6781543944   -1.2685763945
H       -1.9223305134    0.9523117307    1.0207706408
H       -1.1524952950    1.5724413032   -1.2250952782
C       -0.4947161410   -0.9133491092    1.2128866368
H       -0.3642708694   -1.4800841891    2.2204492312
13   
From optimize.out: Frame 12 / 43, Energy=    -286.8185238991
C        1.6847657208    0.4722485998   -0.2388000051
C        0.8185934356   -0.7984154882    0.0339795094
C       -0.4425880260   -0.4827561369   -0.5591117894
C       -0.9546946468    0.4840505844    0.8255823741
C       -0.4277059940    0.9628473522   -0.7363830428
N        0.7213170413    1.4588854013   -0.5079449543
H        2.6940409617    0.3237953014   -0.6257649837
H        1.0868521478   -1.8166379110   -0.1847349477
H       -1.2250773464   -0.6356272786   -1.2476338692
H       -1.9119094465    0.9880915875    1.0033305026
H       -1.1598925863    1.5446927687   -1.2556339508
C       -0.5030943797   -0.9387695063    1.2351735646
H       -0.3806068815   -1.5624052743    2.2579415921
13   
From optimize.out: Frame 10 / 43, Energy=    -286.8016985184
C        1.7144523843    0.4854933875   -0.2625144975
C        0.8356740872   -0.7956969693    0.0250034354
C       -0.4607183200   -0.4640616318   -0.5270453942
C       -0.9608112974    0.5151019409    0.8350825354
C       -0.4178656771    0.9462388101   -0.7208479747
N        0.7439188773    1.4480965841   -0.5317685656
H        2.7284383454    0.3305847572   -0.6473927952
H        1.0906391334   -1.8443795476   -0.1328385655
H       -1.1774665648   -0.6368836013   -1.2763838168
H       -1.9180703709    1.0045223434    1.0323957496
H       -1.2099938599    1.5088571733   -1.2069346854
C       -0.5357195410   -0.9182836299    1.2370190549
H       -0.4324771965   -1.5795896167    2.1762255198
13   
From optimize.out: Frame 8 / 43, Energy=    -286.7786724359
C        1.7399308284    0.4921299282   -0.2852873405
C        0.8502600478   -0.7971084153    0.0136619865
C       -0.4808894048   -0.4420883353   -0.4992641297
C       -0.9651727433    0.5448767796    0.8484170549
C       -0.4095840957    0.9351857822   -0.6995000247
N        0.7780833621    1.4382980223   -0.5514590366
H        2.7616612151    0.3437816978   -0.6575239352
H        1.0983838209   -1.8693761727   -0.0875794352
H       -1.1464751398   -0.6670165890   -1.3096929653
H       -1.9199955297    1.0174864722    1.0648989545
H       -1.2519582361    1.4839091557   -1.1539242784
C       -0.5667251358   -0.8968777551    1.2366087929
H       -0.4875189892   -1.5832005705    2.0806443568
13   
From optimize.out: Frame 6 / 43, Energy=    -286.7513092227
C        1.7611554166    0.4935392946   -0.3088626288
C        0.8626639961   -0.8016224312   -0.0004657801
C       -0.5023326464   -0.4200385670   -0.4756969468
C       -0.9681899023    0.5740014907    0.8646333654
C       -0.4035809914    0.9299375380   -0.6744618613
N        0.8201151869    1.4290632800   -0.5704079797
H        2.7928471824    0.3636107500   -0.6597633769
H        1.1080995433   -1.8871188320   -0.0492494634
H       -1.1269986194   -0.7195606386   -1.3407059656
H       -1.9210679347    1.0282590048    1.0979456522
H       -1.2815647445    1.4664891701   -1.0986277135
C       -0.5961186708   -0.8728194006    1.2321771001
H       -0.5450278158   -1.5837406588    1.9834855983
13   
From optimize.out: Frame 4 / 43, Energy=    -286.7165093425
C        1.7783633144    0.4910026675   -0.3360087918
C        0.8733789406   -0.8081676409   -0.0183664514
C       -0.5252631168   -0.4002960106   -0.4565294710
C       -0.9703381351    0.6040701555    0.8827446657
C       -0.4001964264    0.9307752853   -0.6473201496
N        0.8677973260    1.4199801968   -0.5927468733
H        2.8222621132    0.3909691993   -0.6572407793
H        1.1194252539   -1.8951321632   -0.0173114787
H       -1.1131723997   -0.7892934762   -1.3613744245
H       -1.9243547551    1.0387969020    1.1297812587
H       -1.2972507341    1.4545025425   -1.0435249768
C       -0.6242768433   -0.8430099022    1.2217744317
H       -0.6063745375   -1.5941977557    1.8961230405
13   
From optimize.out: Frame 2 / 43, Energy=    -286.6597824050
C        1.7912187640    0.4852036692   -0.3679253447
C        0.8826270507   -0.8157752983   -0.0400559964
C       -0.5490314251   -0.3861772180   -0.4424040041
C       -0.9717733509    0.6353362488    0.9019276511
C       -0.3996020901    0.9378697846   -0.6195160413
N        0.9178614508    1.4110265043   -0.6208513170
H        2.8492728981    0.4257992229   -0.6517974736
H        1.1329134491   -1.8925146327    0.0076982004
H       -1.1011539495   -0.8693251665   -1.3634431157
H       -1.9317456057    1.0502408811    1.1586823664
H       -1.2983250919    1.4481139066   -0.9934809258
C       -0.6500335972   -0.8062537198    1.2046568696
H       -0.6722285022   -1.6235441822    1.8265091312
13   
From optimize.out: Frame 1 / 43, Energy=    -286.6162339899
C        1.7997879589    0.4760747763   -0.4027342355
C        0.8905673263   -0.8241308615   -0.0642181658
C       -0.5721055838   -0.3811327237   -0.4332282311
C       -0.9725322124    0.6657740462    0.9224422722
C       -0.4013249360    0.9500253758   -0.5911528729
N        0.9661734318    1.4022754070   -0.6532090422
H        2.8726220291    0.4655299166   -0.6434521416
H        1.1492377227   -1.8823705263    0.0247901097
H       -1.0886959579   -0.9501556437   -1.3430250321
H       -1.9430252015    1.0615874009    1.1845358517
H       -1.2870785920    1.4490724675   -0.9531504671
C       -0.6717579198   -0.7662169747    1.1822626828
H       -0.7418680653   -1.6663326603    1.7701392718
13   
C6H6N->C6H6N atoms 1-13 frame 244 charge -0.000 sz -1.000 sz^2 0.587
C        1.8051236938    0.4628833268   -0.4377994052
C        0.8975880269   -0.8336326430   -0.0899703244
C       -0.5935744699   -0.3869777016   -0.4280623732
C       -0.9728162505    0.6931853943    0.9459387471
C       -0.4044839392    0.9652213837   -0.5602799052
N        1.0107404363    1.3937868060   -0.6866622834
H        2.8916366608    0.5070455199   -0.6305656028
H        1.1691924099   -1.8706961367    0.0337711698
H       -1.0744730354   -1.0252911357   -1.3021971690
H       -1.9564561134    1.0708096116    1.2096511945
H       -1.2684101534    1.4598678019   -0.9241330577
C       -0.6894723092   -0.7281440333    1.1561076015
H       -0.8145949567   -1.7080581939    1.7142014078
13   
C6H6N->C6H6N atoms 1-13 frame 246 charge +0.000 sz -1.000 sz^2 0.642
C        1.8084677735    0.4450581389   -0.4710173872
C        0.9041507619   -0.8444248310   -0.1170410770
C       -0.6128498895   -0.4040199134   -0.4262345143
C       -0.9729520289    0.7159875236    0.9738969853
C       -0.4083388110    0.9814619185   -0.5249317546
N        1.0507388258    1.3861489959   -0.7185372071
H        2.9055785523    0.5473270253   -0.6113531787
H        1.1934684811   -1.8631700294    0.0350454539
H       -1.0582281610   -1.0913751848   -1.2461271508
H       -1.9699228643    1.0763422833    1.2365152969
H       -1.2473993246    1.4829641767   -0.9069925720
C       -0.7040808524   -0.6958987755    1.1269357464
H       -0.8886324630   -1.7364013282    1.6498413595
13   
C6H6N->C6H6N atoms 1-13 frame 248 charge -0.000 sz -1.000 sz^2 0.635
C        1.8107847063    0.4229178345   -0.5006445745
C        0.9106932297   -0.8559610752   -0.1450724075
C       -0.6291166783   -0.4311107496   -0.4274306549
C       -0.9733368625    0.7330281704    1.0066694721
C       -0.4125339469    0.9969439809   -0.4845135656
N        1.0852046736    1.3805625381   -0.7467566142
H        2.9133896804    0.5830476935   -0.5850621788
H        1.2221305404   -1.8631299338    0.0294980539
H       -1.0413625262   -1.1470911445   -1.1823230337
H       -1.9815303895    1.0774474276    1.2665443224
H       -1.2273018098    1.5190484431   -0.9014042865
C       -0.7164643790   -0.6717794860    1.0954797784
H       -0.9605562381   -1.7439236989    1.5750156889
13   
C6H6N->C6H6N atoms 1-13 frame 250 charge +0.000 sz -1.000 sz^2 0.619
C        1.8126581566    0.3977426320   -0.5257042667
C        0.9176566383   -0.8672526503   -0.1736341652
C       -0.6415845003   -0.4657102383   -0.4312752565
C       -0.9743892583    0.7440223299    1.0437248526
C       -0.4172467443    1.0105687069   -0.4396437493
N        1.1135466753    1.3783652277   -0.7701126846
H        2.9144101683    0.6113577248   -0.5522058955
H        1.2544820014   -1.8701969989    0.0183965839
H       -1.0271192645   -1.1947822195   -1.1202325848
H       -1.9901375768    1.0743982620    1.3003556335
H       -1.2078051273    1.5657266617   -0.9045132448
C       -0.7274890412   -0.6561894071    1.0625424297
H       -1.0269821272   -1.7280500311    1.4923023477
13   
C6H6N->C6H6N atoms 1-13 frame 252 charge -0.000 sz -1.000 sz^2 0.614
C        1.8143395759    0.3712066744   -0.5462029497
C        0.9255557864   -0.8772658802   -0.2025331232
C       -0.6496152366   -0.5048129064   -0.4372972986
C       -0.9763978364    0.7496268385    1.0843356260
C       -0.4229752626    1.0223299939   -0.3913453590
N        1.1360552896    1.3806124067   -0.7883893074
H        2.9087937910    0.6305416715   -0.5139541158
H        1.2894980892   -1.8808364266    0.0028776511
H       -1.0198662198   -1.2407493279   -1.0694176189
H       -1.9954671434    1.0684228824    1.3384670940
H       -1.1856737191    1.6186875274   -0.9113034551
C       -0.7380019001   -0.6477788539    1.0285979727
H       -1.0862452139   -1.6899846000    1.4061648839
13   
C6H6N->C6H6N atoms 1-13 frame 253 charge +0.000 sz -1.000 sz^2 0.615
C        1.8158770500    0.3450712100   -0.5627183205
C        0.9350174459   -0.8849863727   -0.2317038261
C       -0.6524479104   -0.5456956988   -0.4452230073
C       -0.9794564851    0.7509584268    1.1275539025
C       -0.4301968743    1.0329155369   -0.3409855823
N        1.1533870060    1.3880308639   -0.8020696860
H        2.8973202053    0.6395290288   -0.4719414883
H        1.3261887136   -1.8902200650   -0.0161278893
H       -1.0238209232   -1.2922463296   -1.0377968002
H       -1.9977072497    1.0613905648    1.3813383558
H       -1.1573130059    1.6732379254   -0.9165807009
C       -0.7485903158   -0.6442680043    0.9938904173
H       -1.1382576563   -1.6337170861    1.3223646253
13   
C6H6N->C6H6N atoms 1-13 frame 255 charge +0.000 sz -1.000 sz^2 0.625
C        1.8171358649    0.3210844815   -0.5764953687
C        0.9468599972   -0.8894318530   -0.2611455580
C       -0.6491656746   -0.5865535878   -0.4552424451
C       -0.9835231786    0.7494741539    1.1717599931
C       -0.4393776488    1.0431780525   -0.2907317137
N        1.1660125170    1.4009258320   -0.8127828452
H        2.8812051521    0.6377620556   -0.4287708855
H        1.3639774422   -1.8934177924   -0.0374058301
H       -1.0409453851   -1.3534489129   -1.0287944349
H       -1.9973265280    1.0557028399    1.4290941674
H       -1.1206184507    1.7246021935   -0.9166701454
C       -0.7594127919   -0.6426904037    0.9586248804
H       -1.1848213157   -1.5671870591    1.2485601858
13   
C6H6N->C6H6N atoms 1-13 frame 257 charge -0.000 sz -1.000 sz^2 0.652
C        1.8177274314    0.3006894878   -0.5898770007
C        0.9623118689   -0.8896893032   -0.2913098627
C       -0.6386109558   -0.6274292546   -0.4681552649
C       -0.9884780004    0.7470468491    1.2148685309
C       -0.4512976243    1.0539842482   -0.2433610720
N        1.1738284880    1.4193417440   -0.8240585092
H        2.8618178419    0.6251766657   -0.3880956739
H        1.4034603614   -1.8858862128   -0.0593659387
H       -1.0694940676   -1.4236008539   -1.0394077613
H       -1.9948043208    1.0543341118    1.4821171459
H       -1.0752372345    1.7682384881   -0.9102620440
C       -0.7701976232   -0.6394449396    0.9228091237
H       -1.2310261649   -1.5027610308    1.1940983269
13   
C6H6N->C6H6N atoms 1-13 frame 259 charge +0.000 sz -1.000 sz^2 0.714
C        1.8169157967    0.2852699012   -0.6058699699
C        0.9827504651   -0.8849115362   -0.3229272845
C       -0.6193034821   -0.6694879059   -0.4851540542
C       -0.9941010858    0.7457220222    1.2538764067
C       -0.4670166458    1.0661033428   -0.2026715621
N        1.1758018194    1.4430138729   -0.8408572080
H        2.8411544735    0.6018325622   -0.3548050614
H        1.4457505032   -1.8638255810   -0.0801232846
H       -1.1037791594   -1.4969055838   -1.0616225639
H       -1.9902304427    1.0607873493    1.5410332003
H       -1.0230601944    1.7993205377   -0.8978609283
C       -0.7804943385   -0.6309746301    0.8868680994
H       -1.2843877093   -1.4559443513    1.1701142105
13   
C6H6N->C6H6N atoms 1-13 frame 261 charge -0.000 sz -1.000 sz^2 0.803
C        1.8137380093    0.2757800289   -0.6257389348
C        1.0079069552   -0.8753665425   -0.3559111755
C       -0.5910632824   -0.7127063580   -0.5070719649
C       -1.0005031811    0.7461348832    1.2844635046
C       -0.4869025364    1.0794039072   -0.1729885596
N        1.1708186748    1.4700430662   -0.8659372293
H        2.8228956304    0.5683520688   -0.3329754436
H        1.4897583000   -1.8276453455   -0.0978601262
H       -1.1342989219   -1.5621238465   -1.0853746787
H       -1.9835992771    1.0767271571    1.6047413339
H       -0.9703344944    1.8140763315   -0.8809954701
C       -0.7910735825   -0.6166240496    0.8526709446
H       -1.3473422940   -1.4360513007    1.1829777997
13   
C6H6N->C6H6N atoms 1-13 frame 263 charge -0.000 sz -1.000 sz^2 0.897
C        1.8073536341    0.2712779853   -0.6476064738
C        1.0356831119   -0.8629574039   -0.3899684823
C       -0.5553694080   -0.7566710168   -0.5344321711
C       -1.0090704099    0.7460886821    1.3040338582
C       -0.5107220953    1.0927471485   -0.1551003185
N        1.1590644732    1.4975614232   -0.8971588664
H        2.8106173836    0.5247539099   -0.3212164068
H        1.5331719990   -1.7836872109   -0.1118001228
H       -1.1522033139   -1.6085636854   -1.1043016820
H       -1.9746512957    1.0998319589    1.6722523463
H       -0.9254258135    1.8145023215   -0.8616032051
C       -0.8056603356   -0.5999637757    0.8218296622
H       -1.4127879298   -1.4349203367    1.2250718621
13   
C6H6N->C6H6N atoms 1-13 frame 265 charge +0.000 sz -1.000 sz^2 0.979
C        1.7974419372    0.2696575158   -0.6685400249
C        1.0641444797   -0.8499289825   -0.4253190829
C       -0.5134217775   -0.8020837781   -0.5671626227
C       -1.0216890474    0.7423891715    1.3132624645
C       -0.5382731993    1.1048929989   -0.1454867144
N        1.1417477736    1.5237286773   -0.9303457634
H        2.8052741712    0.4697182292   -0.3146284420
H        1.5758394475   -1.7401635572   -0.1214339606
H       -1.1529639268   -1.6315064629   -1.1175274338
H       -1.9611682298    1.1259371967    1.7451282569
H       -0.8958966141    1.8091790150   -0.8435071377
C       -0.8290487787   -0.5851911007    0.7946875323
H       -1.4719862358   -1.4366289231    1.2808729287
13   
C6H6N->C6H6N atoms 1-13 frame 266 charge +0.000 sz -1.000 sz^2 1.012
C        1.7846667363    0.2695366988   -0.6855316074
C        1.0913528855   -0.8386538565   -0.4609804740
C       -0.4665552131   -0.8484497401   -0.6030865888
C       -1.0390982746    0.7328669803    1.3136168589
C       -0.5683346683    1.1145559202   -0.1399350522
N        1.1206903573    1.5468887187   -0.9610439490
H        2.8054561738    0.4032683793   -0.3101963611
H        1.6180699183   -1.7047376734   -0.1252398950
H       -1.1347553446   -1.6293576859   -1.1262953959
H       -1.9385973622    1.1505513710    1.8237575733
H       -0.8899801437    1.8092739464   -0.8336439414
C       -0.8640821956   -0.5752815265    0.7723561011
H       -1.5188328691   -1.4304615322    1.3362227315
13   
C6H6N->C6H6N atoms 1-13 frame 268 charge +0.000 sz -1.000 sz^2 1.064
C        1.7712754321    0.2704564037   -0.6954735349
C        1.1147478089   -0.8320540586   -0.4937956117
C       -0.4178467472   -0.8923969903   -0.6371740539
C       -1.0601556391    0.7176535607    1.3070090759
C       -0.5977788771    1.1210721705   -0.1349248154
N        1.0991616317    1.5649539070   -0.9843888090
H        2.8075476325    0.3301336304   -0.3073078232
H        1.6579361429   -1.6827615220   -0.1218388124
H       -1.1004212005   -1.6057308269   -1.1340500341
H       -1.9022352733    1.1691109305    1.9036621406
H       -0.9126176054    1.8228223177   -0.8371174872
C       -0.9099847841   -0.5719193819    0.7567740095
H       -1.5496285214   -1.4113401408    1.3786257559
13   
C6H6N->C6H6N atoms 1-13 frame 270 charge -0.000 sz -1.000 sz^2 1.112
C        1.7600612288    0.2727025804   -0.6971296457
C        1.1332374677   -0.8319527262   -0.5210020460
C       -0.3698314151   -0.9303547995   -0.6647275831
C       -1.0827905700    0.6998179108    1.2957295143
C       -0.6237166082    1.1261184364   -0.1289330888
N        1.0806166353    1.5773838594   -0.9982589705
H        2.8074747229    0.2575313908   -0.3063517754
H        1.6926190459   -1.6726797061   -0.1120315367
H       -1.0596614231   -1.5724406320   -1.1478384836
H       -1.8500172100    1.1802532204    1.9788829661
H       -0.9582877055    1.8468463875   -0.8488406289
C       -0.9634021063   -0.5739708237    0.7482394191
H       -1.5663020626   -1.3792550982    1.4022618594
13   
C6H6N->C6H6N atoms 1-13 frame 272 charge +0.000 sz -1.000 sz^2 1.167
C        1.7525538959    0.2768221591   -0.6911863359
C        1.1477876379   -0.8385576801   -0.5420224766
C       -0.3224118421   -0.9612803139   -0.6837147830
C       -1.1056981162    0.6829934151    1.2810835847
C       -0.6453032158    1.1325906447   -0.1223855713
N        1.0666503216    1.5851439089   -1.0038930529
H        2.8035016440    0.1902940607   -0.3078267279
H        1.7208340204   -1.6691415096   -0.0976823083
H       -1.0227496383   -1.5414870010   -1.1755045547
H       -1.7812409146    1.1859009560    2.0468389301
H       -1.0175527979    1.8724890685   -0.8586870272
C       -1.0221357627   -0.5787387648    0.7456741395
H       -1.5742352321   -1.3370289435    1.4093061836
13   
C6H6N->C6H6N atoms 1-13 frame 274 charge +0.000 sz -1.000 sz^2 1.227
C        1.7492016980    0.2830743296   -0.6791245871
C        1.1592781983   -0.8518739283   -0.5566763929
C       -0.2759352203   -0.9851663717   -0.6923727601
C       -1.1276604007    0.6706868333    1.2634297709
C       -0.6622392094    1.1428039020   -0.1167193984
N        1.0575303486    1.5884903836   -1.0037785647
H        2.7958481178    0.1334113583   -0.3132050302
H        1.7416262039   -1.6681942929   -0.0804785952
H       -0.9954630850   -1.5194755876   -1.2217524688
H       -1.6950647873    1.1885029416    2.1050553766
H       -1.0836338192    1.8919283176   -0.8591275345
C       -1.0845067734   -0.5836202601    0.7486792491
H       -1.5789812712   -1.2905676255    1.4060709353
13   
C6H6N->C6H6N atoms 1-13 frame 276 charge +0.000 sz -1.000 sz^2 1.255
C        1.7489934187    0.2910800275   -0.6646398751
C        1.1680623277   -0.8714586354   -0.5655249158
C       -0.2330846157   -1.0032602811   -0.6894314166
C       -1.1469609337    0.6666241191    1.2427008840
C       -0.6747776308    1.1581763151   -0.1144938286
N        1.0517663151    1.5867831555   -1.0027600360
H        2.7864295075    0.0931838330   -0.3259836884
H        1.7545784507   -1.6674519762   -0.0627107132
H       -0.9751712420   -1.5060120411   -1.2832430240
H       -1.5915363623    1.1913160922    2.1497676525
H       -1.1519424540    1.8991033163   -0.8467801885
C       -1.1479291182   -0.5856857714    0.7571832601
H       -1.5884276628   -1.2523981535    1.4059158897
13   
C6H6N->C6H6N atoms 1-13 frame 278 charge +0.000 sz -1.000 sz^2 1.241
C        1.7495169480    0.2997938725   -0.6533588020
C        1.1741664669   -0.8955128854   -0.5703236243
C       -0.1986296906   -1.0175601382   -0.6759361298
C       -1.1617681215    0.6732669512    1.2190811523
C       -0.6838234642    1.1787318892   -0.1184484358
N        1.0464771103    1.5794428368   -1.0067540457
H        2.7789165476    0.0748817908   -0.3501025029
H        1.7607454049   -1.6665243665   -0.0474299768
H       -0.9524736319   -1.4956544099   -1.3473950719
H       -1.4743847691    1.1976281007    2.1769401675
H       -1.2189577827    1.8920784589   -0.8230943572
C       -1.2087091386   -0.5823180607    0.7704728700
H       -1.6110758792   -1.2382540393    1.4263487568
13   
C6H6N->C6H6N atoms 1-13 frame 279 charge -0.000 sz -1.000 sz^2 1.225
C        1.7485355946    0.3074901479   -0.6484202788
C        1.1776376130   -0.9210287393   -0.5727903831
C       -0.1766141126   -1.0293966295   -0.6558889594
C       -1.1715293421    0.6888438193    1.1942918345
C       -0.6902820043    1.2023336138   -0.1284982304
N        1.0398022116    1.5671206085   -1.0171027186
H        2.7769118033    0.0780843505   -0.3847669097
H        1.7624152540   -1.6676304916   -0.0367373650
H       -0.9213706713   -1.4836367932   -1.4009265198
H       -1.3541701196    1.2072726734    2.1856308176