13   
From optimize.out: Frame 2 / 3, Energy=    -286.8567767057
C        1.2762323032   -0.0344161555    0.0311421112
C        0.5639265049   -1.0674673373    0.8147103130
C       -0.8212684279   -1.0082271577    0.8734651133
C       -1.4462738638    0.0128801417    0.1709790399
C       -0.5997817113    0.9720388691   -0.5713043746
N        0.7461510193    1.3939038696    0.0092692356
H        2.3629562781   -0.0438134166    0.0861051046
H        1.1395610226   -1.8206073240    1.3425101071
H       -1.3935218229   -1.7291016916    1.4510486186
H       -2.5231111663    0.1454006781    0.1677329326
H       -1.1080484569    1.8196118488   -1.0267283693
C        0.6792492842    0.5509776372   -1.1963526825
H        1.1239290367    0.8088200381   -2.1525771491
13   
From optimize.out: Frame 2 / 3, Energy=    -286.9243187257
C        1.3039598563    0.7965268478   -0.7228682282
C        0.4951139294   -1.2759311870    0.5015500873
C       -0.8219571704   -0.9828837305    0.6939385684
C       -1.5121013535    0.2121170641    0.2815789290
C       -0.9986928380    1.3072033124   -0.3890205457
N        0.2333656991    1.6160727984   -0.8545094442
H        2.2045231627    1.2285811855   -1.1647175560
H        0.8540334735   -2.2313644080    0.8789290893
H       -1.4267849242   -1.7242806425    1.2122957954
H       -2.5704297854    0.2642518236    0.5255433424
H       -1.7231217941    2.0982751265   -0.5952876469
C        1.4775882790   -0.4509772900   -0.1549758542
H        2.4845034657   -0.8575909002   -0.2124565365
