13   
Frame   0 IRC: Energy =  -286.8779060000 ; +0.0000 kcal/mol
C       -0.1838460000   -0.0732680000    0.0000000000
C       -0.0908400000    0.6735860000    0.0000000000
C       -0.0993020000   -0.3111080000    0.0000000000
C       -0.0890500000    0.6727380000    0.0000000000
C       -0.1858230000   -0.0721480000   -0.0000000000
N       -0.1845540000    0.0908080000   -0.0000000000
H        0.1352860000    0.0013800000    0.0000000000
H        0.1297810000   -0.0310420000    0.0000000000
H        0.1294110000    0.0091890000    0.0000000000
H        0.1297890000   -0.0310900000    0.0000000000
H        0.1358490000    0.0013860000   -0.0000000000
C        0.0306920000    0.0721550000   -0.0000000000
H        0.1426070000   -0.0025860000   -0.0000000000
13   
Frame   1 IRC: Energy =  -286.8779020000 ; +0.0025 kcal/mol
C       -0.1843350000   -0.0734030000    0.0000000000
C       -0.0904380000    0.6735710000    0.0000000000
C       -0.0998350000   -0.3108110000    0.0000000000
C       -0.0886070000    0.6721090000    0.0000000000
C       -0.1861620000   -0.0720360000   -0.0000000000
N       -0.1845640000    0.0911460000   -0.0000000000
H        0.1353350000    0.0013900000    0.0000000000
H        0.1297680000   -0.0310390000    0.0000000000
H        0.1293620000    0.0091810000    0.0000000000
H        0.1297590000   -0.0310600000    0.0000000000
H        0.1358680000    0.0013780000   -0.0000000000
C        0.0313400000    0.0721640000   -0.0000000000
H        0.1425080000   -0.0025900000   -0.0000000000
13   
Frame   2 IRC: Energy =  -286.8778810000 ; +0.0157 kcal/mol
C       -0.1835720000   -0.0732690000    0.0000000000
C       -0.0907560000    0.6736310000    0.0000000000
C       -0.1003780000   -0.3111700000    0.0000000000
C       -0.0884090000    0.6727000000    0.0000000000
C       -0.1855070000   -0.0717790000   -0.0000000000
N       -0.1844910000    0.0899570000   -0.0000000000
H        0.1352560000    0.0013860000    0.0000000000
H        0.1298060000   -0.0310440000    0.0000000000
H        0.1294200000    0.0092050000    0.0000000000
H        0.1297910000   -0.0311100000    0.0000000000
H        0.1359720000    0.0013960000   -0.0000000000
C        0.0303030000    0.0726990000   -0.0000000000
H        0.1425620000   -0.0026030000   -0.0000000000
13   
Frame   3 IRC: Energy =  -286.8778770000 ; +0.0182 kcal/mol
C       -0.1835470000   -0.0734040000    0.0000000000
C       -0.0907000000    0.6740850000    0.0000000000
C       -0.1003690000   -0.3112620000    0.0000000000
C       -0.0885430000    0.6724590000    0.0000000000
C       -0.1849000000   -0.0716110000   -0.0000000000
N       -0.1845330000    0.0897070000   -0.0000000000
H        0.1352490000    0.0013890000    0.0000000000
H        0.1298230000   -0.0310670000    0.0000000000
H        0.1294380000    0.0092090000    0.0000000000
H        0.1297950000   -0.0311050000    0.0000000000
H        0.1359540000    0.0013960000   -0.0000000000
C        0.0297750000    0.0728120000   -0.0000000000
H        0.1425590000   -0.0026080000   -0.0000000000
13   
Frame   4 IRC: Energy =  -286.8777690000 ; +0.0860 kcal/mol
C       -0.1872780000   -0.0730580000    0.0000000000
C       -0.0868560000    0.6732460000    0.0000000000
C       -0.1056110000   -0.3110320000    0.0000000000
C       -0.0853580000    0.6729190000    0.0000000000
C       -0.1840760000   -0.0716380000   -0.0000000000
N       -0.1825720000    0.0880420000   -0.0000000000
H        0.1352340000    0.0013990000    0.0000000000
H        0.1296670000   -0.0310200000    0.0000000000
H        0.1294360000    0.0092150000    0.0000000000
H        0.1297180000   -0.0311560000    0.0000000000
H        0.1366220000    0.0014260000   -0.0000000000
C        0.0287470000    0.0743210000   -0.0000000000
H        0.1423270000   -0.0026650000   -0.0000000000
13   
Frame   5 IRC: Energy =  -286.8777410000 ; +0.1035 kcal/mol
C       -0.1886950000   -0.0734800000    0.0000000000
C       -0.0856930000    0.6739600000    0.0000000000
C       -0.1066160000   -0.3108630000    0.0000000000
C       -0.0848370000    0.6721200000    0.0000000000
C       -0.1830930000   -0.0711770000   -0.0000000000
N       -0.1822480000    0.0877660000   -0.0000000000
H        0.1353100000    0.0014170000    0.0000000000
H        0.1296140000   -0.0310480000    0.0000000000
H        0.1293810000    0.0092070000    0.0000000000
H        0.1296770000   -0.0311250000    0.0000000000
H        0.1366260000    0.0014090000   -0.0000000000
C        0.0283370000    0.0744890000   -0.0000000000
H        0.1422380000   -0.0026750000   -0.0000000000
13   
Frame   6 IRC: Energy =  -286.8774500000 ; +0.2861 kcal/mol
C       -0.1926880000   -0.0727940000    0.0000000000
C       -0.0826910000    0.6732710000    0.0000000000
C       -0.1095570000   -0.3112660000    0.0000000000
C       -0.0835740000    0.6738820000    0.0000000000
C       -0.1821220000   -0.0718710000   -0.0000000000
N       -0.1793470000    0.0851220000   -0.0000000000
H        0.1352530000    0.0014060000    0.0000000000
H        0.1295130000   -0.0310210000    0.0000000000
H        0.1294990000    0.0092290000    0.0000000000
H        0.1296540000   -0.0312360000    0.0000000000
H        0.1373440000    0.0014640000   -0.0000000000
C        0.0262490000    0.0765410000   -0.0000000000
H        0.1424680000   -0.0027270000   -0.0000000000
13   
Frame   7 IRC: Energy =  -286.8773290000 ; +0.3621 kcal/mol
C       -0.1937230000   -0.0733120000    0.0000000000
C       -0.0821950000    0.6745110000    0.0000000000
C       -0.1095230000   -0.3117240000    0.0000000000
C       -0.0843730000    0.6738000000    0.0000000000
C       -0.1789390000   -0.0713840000   -0.0000000000
N       -0.1792260000    0.0841620000   -0.0000000000
H        0.1352930000    0.0014240000    0.0000000000
H        0.1294550000   -0.0310780000    0.0000000000
H        0.1295020000    0.0092410000    0.0000000000
H        0.1296380000   -0.0312540000    0.0000000000
H        0.1373520000    0.0014600000   -0.0000000000
C        0.0242300000    0.0768980000   -0.0000000000
H        0.1425100000   -0.0027450000   -0.0000000000
13   
Frame   8 IRC: Energy =  -286.8761970000 ; +1.0724 kcal/mol
C       -0.2055790000   -0.0727920000    0.0000000000
C       -0.0724900000    0.6725030000    0.0000000000
C       -0.1151830000   -0.3107260000    0.0000000000
C       -0.0809580000    0.6744660000    0.0000000000
C       -0.1823300000   -0.0729090000   -0.0000000000
N       -0.1724870000    0.0804450000   -0.0000000000
H        0.1357190000    0.0014610000    0.0000000000
H        0.1290970000   -0.0308930000    0.0000000000
H        0.1292550000    0.0092190000    0.0000000000
H        0.1292870000   -0.0313460000    0.0000000000
H        0.1383180000    0.0015100000   -0.0000000000
C        0.0240810000    0.0819330000   -0.0000000000
H        0.1432720000   -0.0028700000   -0.0000000000
13   
Frame   9 IRC: Energy =  -286.8739250000 ; +2.4981 kcal/mol
C       -0.2147620000   -0.0737000000    0.0000000000
C       -0.0658640000    0.6719990000    0.0000000000
C       -0.1151540000   -0.3121240000    0.0000000000
C       -0.0826350000    0.6761870000    0.0000000000
C       -0.1837090000   -0.0746650000   -0.0000000000
N       -0.1657570000    0.0753360000   -0.0000000000
H        0.1370020000    0.0015500000    0.0000000000
H        0.1291890000   -0.0307570000    0.0000000000
H        0.1290500000    0.0093100000    0.0000000000
H        0.1292980000   -0.0314940000    0.0000000000
H        0.1388530000    0.0015270000   -0.0000000000
C        0.0196530000    0.0898310000   -0.0000000000
H        0.1448370000   -0.0030020000   -0.0000000000
13   
Frame  10 IRC: Energy =  -286.8704510000 ; +4.6781 kcal/mol
C       -0.2196450000   -0.0744760000    0.0000000000
C       -0.0542560000    0.6657660000    0.0000000000
C       -0.1259220000   -0.3120920000    0.0000000000
C       -0.0646720000    0.6763560000    0.0000000000
C       -0.1995830000   -0.0800180000   -0.0000000000
N       -0.1536740000    0.0700590000   -0.0000000000
H        0.1388850000    0.0019020000    0.0000000000
H        0.1294020000   -0.0303790000    0.0000000000
H        0.1289990000    0.0094900000    0.0000000000
H        0.1295660000   -0.0315520000    0.0000000000
H        0.1387460000    0.0014990000   -0.0000000000
C        0.0055520000    0.1067070000   -0.0000000000
H        0.1466010000   -0.0032610000   -0.0000000000
13   
Frame  11 IRC: Energy =  -286.8651190000 ; +8.0240 kcal/mol
C       -0.2153450000   -0.0746890000    0.0000000000
C       -0.0388240000    0.6458280000    0.0000000000
C       -0.1452470000   -0.3088290000    0.0000000000
C       -0.0278010000    0.6743960000    0.0000000000
C       -0.2233680000   -0.0954710000   -0.0000000000
N       -0.1392380000    0.0650750000   -0.0000000000
H        0.1406440000    0.0027650000    0.0000000000
H        0.1294850000   -0.0293800000    0.0000000000
H        0.1293240000    0.0097650000    0.0000000000
H        0.1300940000   -0.0315890000    0.0000000000
H        0.1388720000    0.0018610000   -0.0000000000
C       -0.0257200000    0.1439400000   -0.0000000000
H        0.1471240000   -0.0036720000   -0.0000000000
13   
Frame  12 IRC: Energy =  -286.8578610000 ; +12.5784 kcal/mol
C       -0.2015310000   -0.0764920000    0.0000000000
C       -0.0236440000    0.6073480000    0.0000000000
C       -0.1639750000   -0.3010440000    0.0000000000
C        0.0139210000    0.6649320000    0.0000000000
C       -0.2435520000   -0.1297090000   -0.0000000000
N       -0.1270130000    0.0593630000   -0.0000000000
H        0.1421550000    0.0045780000    0.0000000000
H        0.1294320000   -0.0274980000    0.0000000000
H        0.1299940000    0.0100940000    0.0000000000
H        0.1307000000   -0.0312790000    0.0000000000
H        0.1399600000    0.0030820000   -0.0000000000
C       -0.0732270000    0.2206790000   -0.0000000000
H        0.1467790000   -0.0040530000   -0.0000000000
13   
Frame  13 IRC: Energy =  -286.8501110000 ; +17.4416 kcal/mol
C       -0.1808160000   -0.0836440000    0.0000000000
C       -0.0116130000    0.5421220000    0.0000000000
C       -0.1756670000   -0.2862190000    0.0000000000
C        0.0478200000    0.6346820000    0.0000000000
C       -0.2550640000   -0.1921080000   -0.0000000000
N       -0.1207320000    0.0528190000   -0.0000000000
H        0.1435420000    0.0079950000    0.0000000000
H        0.1292660000   -0.0243030000    0.0000000000
H        0.1307930000    0.0103900000    0.0000000000
H        0.1309930000   -0.0298420000    0.0000000000
H        0.1418630000    0.0056320000   -0.0000000000
C       -0.1264840000    0.3665310000   -0.0000000000
H        0.1460980000   -0.0040570000   -0.0000000000
13   
Frame  14 IRC: Energy =  -286.8443430000 ; +21.0611 kcal/mol
C       -0.1542860000   -0.0968150000    0.0000000000
C       -0.0066660000    0.4350080000    0.0000000000
C       -0.1770290000   -0.2532570000    0.0000000000
C        0.0648270000    0.5565570000    0.0000000000
C       -0.2582040000   -0.2588710000   -0.0000000000
N       -0.1238620000    0.0459560000   -0.0000000000
H        0.1447080000    0.0131080000    0.0000000000
H        0.1288700000   -0.0191180000    0.0000000000
H        0.1314070000    0.0101260000    0.0000000000
H        0.1304430000   -0.0258930000    0.0000000000
H        0.1434840000    0.0086760000   -0.0000000000
C       -0.1688660000    0.5882060000   -0.0000000000
H        0.1451730000   -0.0036820000   -0.0000000000
13   
Frame  15 IRC: Energy =  -286.8424830000 ; +22.2283 kcal/mol (Transition State)
C       -0.1269420000   -0.1073790000    0.0000000000
C       -0.0063390000    0.3044000000    0.0000000000
C       -0.1724860000   -0.1943980000    0.0000000000
C        0.0661440000    0.4210320000    0.0000000000
C       -0.2556550000   -0.2560570000   -0.0000000000
N       -0.1343110000    0.0394670000   -0.0000000000
H        0.1454150000    0.0179430000    0.0000000000
H        0.1284230000   -0.0129790000    0.0000000000
H        0.1316810000    0.0086180000    0.0000000000
H        0.1290770000   -0.0190860000    0.0000000000
H        0.1436440000    0.0089650000   -0.0000000000
C       -0.1929680000    0.7936730000   -0.0000000000
H        0.1443180000   -0.0042010000   -0.0000000000
13   
Frame  16 IRC: Energy =  -286.8436130000 ; +21.5192 kcal/mol
C       -0.0999030000   -0.1104540000    0.0000000000
C       -0.0055530000    0.1852780000    0.0000000000
C       -0.1669740000   -0.1266300000    0.0000000000
C        0.0614920000    0.2727820000    0.0000000000
C       -0.2506400000   -0.1893720000   -0.0000000000
N       -0.1479790000    0.0338170000   -0.0000000000
H        0.1452830000    0.0210220000    0.0000000000
H        0.1281620000   -0.0075290000    0.0000000000
H        0.1317510000    0.0063600000    0.0000000000
H        0.1275750000   -0.0116250000    0.0000000000
H        0.1424890000    0.0062430000   -0.0000000000
C       -0.2098810000    0.9262200000   -0.0000000000
H        0.1441770000   -0.0061120000   -0.0000000000
13   
Frame  17 IRC: Energy =  -286.8456760000 ; +20.2246 kcal/mol
C       -0.0885320000   -0.1100570000    0.0000000000
C        0.0019150000    0.1120160000    0.0000000000
C       -0.1680810000   -0.0800130000    0.0000000000
C        0.0534600000    0.1712260000    0.0000000000
C       -0.2422080000   -0.1303160000   -0.0000000000
N       -0.1549420000    0.0334500000   -0.0000000000
H        0.1451870000    0.0218430000    0.0000000000
H        0.1281620000   -0.0042140000    0.0000000000
H        0.1317140000    0.0045220000    0.0000000000
H        0.1269040000   -0.0061710000    0.0000000000
H        0.1410700000    0.0034170000   -0.0000000000
C       -0.2192920000    0.9921410000   -0.0000000000
H        0.1446430000   -0.0078440000   -0.0000000000
13   
Frame  18 IRC: Energy =  -286.8474660000 ; +19.1014 kcal/mol
C       -0.0795340000   -0.1087100000   -0.0000000000
C        0.0044170000    0.0725090000    0.0000000000
C       -0.1683750000   -0.0534170000    0.0000000000
C        0.0501880000    0.1175810000    0.0000000000
C       -0.2363040000   -0.0955890000   -0.0000000000
N       -0.1624200000    0.0345200000   -0.0000000000
H        0.1446870000    0.0223580000    0.0000000000
H        0.1279810000   -0.0024100000    0.0000000000
H        0.1314790000    0.0033640000    0.0000000000
H        0.1265810000   -0.0030290000    0.0000000000
H        0.1399300000    0.0016080000   -0.0000000000
C       -0.2236870000    1.0200540000   -0.0000000000
H        0.1450570000   -0.0088390000   -0.0000000000
13   
Frame  19 IRC: Energy =  -286.8483420000 ; +18.5517 kcal/mol
C       -0.0853450000   -0.1081770000   -0.0000000000
C        0.0108980000    0.0621050000    0.0000000000
C       -0.1739760000   -0.0463150000    0.0000000000
C        0.0487060000    0.1025240000    0.0000000000
C       -0.2343220000   -0.0881960000   -0.0000000000
N       -0.1597990000    0.0379600000   -0.0000000000
H        0.1450040000    0.0215740000    0.0000000000
H        0.1279380000   -0.0019240000    0.0000000000
H        0.1314540000    0.0029450000    0.0000000000
H        0.1267920000   -0.0020660000    0.0000000000
H        0.1395570000    0.0010380000   -0.0000000000
C       -0.2221140000    1.0272560000   -0.0000000000
H        0.1452070000   -0.0087230000   -0.0000000000
13   
Frame  20 IRC: Energy =  -286.8499840000 ; +17.5213 kcal/mol
C       -0.0831750000   -0.1068800000   -0.0000000000
C        0.0136950000    0.0434110000    0.0000000000
C       -0.1767630000   -0.0332110000    0.0000000000
C        0.0496300000    0.0777120000    0.0000000000
C       -0.2308610000   -0.0728320000   -0.0000000000
N       -0.1638880000    0.0416330000   -0.0000000000
H        0.1445060000    0.0214480000    0.0000000000
H        0.1276780000   -0.0010360000    0.0000000000
H        0.1311360000    0.0022710000    0.0000000000
H        0.1265240000   -0.0003970000    0.0000000000
H        0.1388990000    0.0000980000   -0.0000000000
C       -0.2226670000    1.0366480000   -0.0000000000
H        0.1452860000   -0.0088660000   -0.0000000000
13   
Frame  21 IRC: Energy =  -286.8506430000 ; +17.1078 kcal/mol
C       -0.0883440000   -0.1064480000   -0.0000000000
C        0.0182090000    0.0390610000    0.0000000000
C       -0.1817330000   -0.0302400000    0.0000000000
C        0.0497010000    0.0716680000    0.0000000000
C       -0.2303810000   -0.0710160000   -0.0000000000
N       -0.1611420000    0.0449100000   -0.0000000000
H        0.1448350000    0.0206820000    0.0000000000
H        0.1276400000   -0.0008140000    0.0000000000
H        0.1311250000    0.0020290000    0.0000000000
H        0.1267510000    0.0000370000    0.0000000000
H        0.1387260000   -0.0001960000   -0.0000000000
C       -0.2207870000    1.0388420000   -0.0000000000
H        0.1454010000   -0.0085150000   -0.0000000000
13   
Frame  22 IRC: Energy =  -286.8521180000 ; +16.1822 kcal/mol
C       -0.0882000000   -0.1050860000   -0.0000000000
C        0.0205770000    0.0290640000    0.0000000000
C       -0.1849570000   -0.0230870000    0.0000000000
C        0.0528010000    0.0592990000    0.0000000000
C       -0.2282050000   -0.0640880000   -0.0000000000
N       -0.1638790000    0.0494000000   -0.0000000000
H        0.1443460000    0.0202070000    0.0000000000
H        0.1274610000   -0.0003170000    0.0000000000
H        0.1307910000    0.0016030000    0.0000000000
H        0.1264600000    0.0010130000    0.0000000000
H        0.1383500000   -0.0007230000   -0.0000000000
C       -0.2207520000    1.0409270000   -0.0000000000
H        0.1452070000   -0.0082120000   -0.0000000000
13   
Frame  23 IRC: Energy =  -286.8526310000 ; +15.8603 kcal/mol
C       -0.0920050000   -0.1047520000   -0.0000000000
C        0.0234640000    0.0270560000    0.0000000000
C       -0.1890730000   -0.0217390000    0.0000000000
C        0.0533640000    0.0566280000    0.0000000000
C       -0.2281710000   -0.0642530000   -0.0000000000
N       -0.1614470000    0.0523040000   -0.0000000000
H        0.1446430000    0.0195630000    0.0000000000
H        0.1274540000   -0.0002030000    0.0000000000
H        0.1307800000    0.0014440000    0.0000000000
H        0.1266380000    0.0012290000    0.0000000000
H        0.1382910000   -0.0009010000   -0.0000000000
C       -0.2192670000    1.0414160000   -0.0000000000
H        0.1453290000   -0.0077910000   -0.0000000000
13   
Frame  24 IRC: Energy =  -286.8540020000 ; +15.0000 kcal/mol
C       -0.0926410000   -0.1032720000   -0.0000000000
C        0.0254050000    0.0216730000    0.0000000000
C       -0.1927990000   -0.0178770000    0.0000000000
C        0.0576280000    0.0506460000    0.0000000000
C       -0.2264770000   -0.0619810000   -0.0000000000
N       -0.1632240000    0.0575500000   -0.0000000000
H        0.1441850000    0.0188020000    0.0000000000
H        0.1273990000    0.0000670000    0.0000000000
H        0.1304290000    0.0011660000    0.0000000000
H        0.1263950000    0.0018550000    0.0000000000
H        0.1380640000   -0.0012110000   -0.0000000000
C       -0.2193630000    1.0398100000   -0.0000000000
H        0.1449980000   -0.0072280000   -0.0000000000
13   
Frame  25 IRC: Energy =  -286.8545930000 ; +14.6291 kcal/mol
C       -0.0958790000   -0.1027640000   -0.0000000000
C        0.0279510000    0.0202110000    0.0000000000
C       -0.1964800000   -0.0168610000    0.0000000000
C        0.0582720000    0.0489830000    0.0000000000
C       -0.2262450000   -0.0629470000   -0.0000000000
N       -0.1611120000    0.0611530000   -0.0000000000
H        0.1444520000    0.0180530000    0.0000000000
H        0.1274320000    0.0001550000    0.0000000000
H        0.1303630000    0.0010240000    0.0000000000
H        0.1265010000    0.0020270000    0.0000000000
H        0.1379960000   -0.0013710000   -0.0000000000
C       -0.2183130000    1.0389450000   -0.0000000000
H        0.1450650000   -0.0066080000   -0.0000000000
13   
Frame  26 IRC: Energy =  -286.8557460000 ; +13.9056 kcal/mol
C       -0.0954080000   -0.1011160000   -0.0000000000
C        0.0286320000    0.0175890000    0.0000000000
C       -0.1990170000   -0.0147900000    0.0000000000
C        0.0627990000    0.0468870000    0.0000000000
C       -0.2246930000   -0.0626730000   -0.0000000000
N       -0.1633750000    0.0661240000   -0.0000000000
H        0.1439210000    0.0172700000    0.0000000000
H        0.1275270000    0.0002830000    0.0000000000
H        0.1299680000    0.0008570000    0.0000000000
H        0.1261970000    0.0024110000    0.0000000000
H        0.1378450000   -0.0015280000   -0.0000000000
C       -0.2190220000    1.0346840000   -0.0000000000
H        0.1446240000   -0.0059970000   -0.0000000000
13   
Frame  27 IRC: Energy =  -286.8560090000 ; +13.7406 kcal/mol
C       -0.0972590000   -0.1009900000   -0.0000000000
C        0.0295020000    0.0175290000    0.0000000000
C       -0.2015370000   -0.0147770000    0.0000000000
C        0.0632650000    0.0470340000    0.0000000000
C       -0.2248600000   -0.0641910000   -0.0000000000
N       -0.1615240000    0.0679730000   -0.0000000000
H        0.1441790000    0.0168450000    0.0000000000
H        0.1275410000    0.0002960000    0.0000000000
H        0.1299800000    0.0007960000    0.0000000000
H        0.1263570000    0.0024310000    0.0000000000
H        0.1378730000   -0.0015940000   -0.0000000000
C       -0.2182720000    1.0342290000   -0.0000000000
H        0.1447550000   -0.0055810000   -0.0000000000
13   
Frame  28 IRC: Energy =  -286.8573060000 ; +12.9267 kcal/mol
C       -0.0984320000   -0.0990720000   -0.0000000000
C        0.0305430000    0.0170010000    0.0000000000
C       -0.2056680000   -0.0142330000    0.0000000000
C        0.0684610000    0.0480400000    0.0000000000
C       -0.2232350000   -0.0675650000   -0.0000000000
N       -0.1616480000    0.0756660000   -0.0000000000
H        0.1438490000    0.0154390000    0.0000000000
H        0.1276990000    0.0002920000    0.0000000000
H        0.1295280000    0.0006620000    0.0000000000
H        0.1262600000    0.0027210000    0.0000000000
H        0.1376590000   -0.0017360000   -0.0000000000
C       -0.2192470000    1.0273020000   -0.0000000000
H        0.1442310000   -0.0045180000   -0.0000000000
13   
Frame  29 IRC: Energy =  -286.8577450000 ; +12.6512 kcal/mol
C       -0.0987430000   -0.0986530000    0.0000000000
C        0.0307410000    0.0173070000    0.0000000000
C       -0.2082670000   -0.0142460000    0.0000000000
C        0.0695130000    0.0485850000    0.0000000000
C       -0.2231300000   -0.0691930000   -0.0000000000
N       -0.1609550000    0.0782360000   -0.0000000000
H        0.1440210000    0.0149300000    0.0000000000
H        0.1278780000    0.0002950000    0.0000000000
H        0.1294420000    0.0006080000    0.0000000000
H        0.1262770000    0.0027290000    0.0000000000
H        0.1377060000   -0.0017790000   -0.0000000000
C       -0.2188220000    1.0250430000   -0.0000000000
H        0.1443400000   -0.0038610000   -0.0000000000
13   
Frame  30 IRC: Energy =  -286.8582840000 ; +12.3130 kcal/mol
C       -0.0987890000   -0.0976130000    0.0000000000
C        0.0301990000    0.0177590000    0.0000000000
C       -0.2091550000   -0.0144440000    0.0000000000
C        0.0727330000    0.0503270000    0.0000000000
C       -0.2223060000   -0.0713650000   -0.0000000000
N       -0.1614540000    0.0817770000   -0.0000000000
H        0.1437010000    0.0142450000    0.0000000000
H        0.1279200000    0.0002370000    0.0000000000
H        0.1291740000    0.0005840000    0.0000000000
H        0.1262470000    0.0028370000    0.0000000000
H        0.1375500000   -0.0017980000   -0.0000000000
C       -0.2197450000    1.0208590000   -0.0000000000
H        0.1439260000   -0.0034040000   -0.0000000000
13   
Frame  31 IRC: Energy =  -286.8585280000 ; +12.1599 kcal/mol
C       -0.0989210000   -0.0974140000    0.0000000000
C        0.0305330000    0.0181380000    0.0000000000
C       -0.2107880000   -0.0145240000    0.0000000000
C        0.0726000000    0.0506640000    0.0000000000
C       -0.2221570000   -0.0723970000   -0.0000000000
N       -0.1607700000    0.0833800000   -0.0000000000
H        0.1438950000    0.0139200000    0.0000000000
H        0.1280950000    0.0002320000    0.0000000000
H        0.1291460000    0.0005510000    0.0000000000
H        0.1262410000    0.0028040000    0.0000000000
H        0.1375890000   -0.0018230000   -0.0000000000
C       -0.2195180000    1.0194250000   -0.0000000000
H        0.1440550000   -0.0029550000   -0.0000000000
13   
Frame  32 IRC: Energy =  -286.8593770000 ; +11.6271 kcal/mol
C       -0.0982380000   -0.0958960000    0.0000000000
C        0.0289070000    0.0197950000    0.0000000000
C       -0.2127950000   -0.0153120000    0.0000000000
C        0.0774400000    0.0543000000    0.0000000000
C       -0.2210710000   -0.0765430000   -0.0000000000
N       -0.1611860000    0.0893410000   -0.0000000000
H        0.1435610000    0.0127900000    0.0000000000
H        0.1283040000    0.0000970000    0.0000000000
H        0.1287130000    0.0005280000    0.0000000000
H        0.1262540000    0.0028900000    0.0000000000
H        0.1374190000   -0.0018260000   -0.0000000000
C       -0.2208670000    1.0118560000   -0.0000000000
H        0.1435600000   -0.0020200000   -0.0000000000
13   
Frame  33 IRC: Energy =  -286.8595250000 ; +11.5343 kcal/mol
C       -0.0981220000   -0.0957510000    0.0000000000
C        0.0291690000    0.0202070000    0.0000000000
C       -0.2136960000   -0.0153990000    0.0000000000
C        0.0768980000    0.0546020000    0.0000000000
C       -0.2208240000   -0.0773060000   -0.0000000000
N       -0.1607260000    0.0904880000   -0.0000000000
H        0.1437170000    0.0125410000    0.0000000000
H        0.1284420000    0.0000840000    0.0000000000
H        0.1287170000    0.0005100000    0.0000000000
H        0.1262440000    0.0028490000    0.0000000000
H        0.1374180000   -0.0018390000   -0.0000000000
C       -0.2208770000    1.0107000000   -0.0000000000
H        0.1436410000   -0.0016860000   -0.0000000000
13   
Frame  34 IRC: Energy =  -286.8603180000 ; +11.0366 kcal/mol
C       -0.0966030000   -0.0942500000    0.0000000000
C        0.0271060000    0.0227450000    0.0000000000
C       -0.2148430000   -0.0165430000    0.0000000000
C        0.0811290000    0.0588720000    0.0000000000
C       -0.2198530000   -0.0816350000   -0.0000000000
N       -0.1613020000    0.0968650000   -0.0000000000
H        0.1434110000    0.0113500000    0.0000000000
H        0.1287480000   -0.0001080000    0.0000000000
H        0.1282030000    0.0005090000    0.0000000000
H        0.1261900000    0.0028650000    0.0000000000
H        0.1371370000   -0.0018070000   -0.0000000000
C       -0.2224570000    1.0018300000   -0.0000000000
H        0.1431340000   -0.0006920000   -0.0000000000
13   
Frame  35 IRC: Energy =  -286.8604100000 ; +10.9789 kcal/mol
C       -0.0962750000   -0.0941970000    0.0000000000
C        0.0266970000    0.0231980000    0.0000000000
C       -0.2161090000   -0.0167020000    0.0000000000
C        0.0813650000    0.0595880000    0.0000000000
C       -0.2197560000   -0.0827380000   -0.0000000000
N       -0.1607380000    0.0975820000   -0.0000000000
H        0.1435460000    0.0111790000    0.0000000000
H        0.1288410000   -0.0001230000    0.0000000000
H        0.1282530000    0.0004990000    0.0000000000
H        0.1262880000    0.0028400000    0.0000000000
H        0.1371820000   -0.0018110000   -0.0000000000
C       -0.2225070000    1.0010810000   -0.0000000000
H        0.1432150000   -0.0003950000   -0.0000000000
13   
Frame  36 IRC: Energy =  -286.8611790000 ; +10.4964 kcal/mol
C       -0.0929590000   -0.0927060000    0.0000000000
C        0.0228470000    0.0268140000    0.0000000000
C       -0.2175730000   -0.0181360000    0.0000000000
C        0.0851380000    0.0650190000    0.0000000000
C       -0.2185860000   -0.0881130000   -0.0000000000
N       -0.1608530000    0.1047450000   -0.0000000000
H        0.1433560000    0.0097980000    0.0000000000
H        0.1293600000   -0.0003820000    0.0000000000
H        0.1278120000    0.0005080000    0.0000000000
H        0.1263600000    0.0027940000    0.0000000000
H        0.1368940000   -0.0017500000   -0.0000000000
C       -0.2245510000    0.9904630000   -0.0000000000
H        0.1427540000    0.0009470000   -0.0000000000
13   
Frame  37 IRC: Energy =  -286.8613480000 ; +10.3903 kcal/mol
C       -0.0927220000   -0.0925140000    0.0000000000
C        0.0220260000    0.0281760000    0.0000000000
C       -0.2186810000   -0.0186480000    0.0000000000
C        0.0861300000    0.0667180000    0.0000000000
C       -0.2184450000   -0.0900970000   -0.0000000000
N       -0.1601910000    0.1065530000   -0.0000000000
H        0.1434850000    0.0093890000    0.0000000000
H        0.1294220000   -0.0004580000    0.0000000000
H        0.1277030000    0.0005080000    0.0000000000
H        0.1264980000    0.0027540000    0.0000000000
H        0.1368100000   -0.0017320000   -0.0000000000
C       -0.2248040000    0.9877670000   -0.0000000000
H        0.1427700000    0.0015840000   -0.0000000000
13   
Frame  38 IRC: Energy =  -286.8614200000 ; +10.3451 kcal/mol
C       -0.0918120000   -0.0922830000    0.0000000000
C        0.0213510000    0.0283380000    0.0000000000
C       -0.2183450000   -0.0186710000    0.0000000000
C        0.0867820000    0.0672050000    0.0000000000
C       -0.2183810000   -0.0902640000   -0.0000000000
N       -0.1607220000    0.1071920000   -0.0000000000
H        0.1433140000    0.0092980000    0.0000000000
H        0.1295230000   -0.0004830000    0.0000000000
H        0.1276470000    0.0005140000    0.0000000000
H        0.1264290000    0.0027740000    0.0000000000
H        0.1367640000   -0.0017220000   -0.0000000000
C       -0.2251730000    0.9866250000   -0.0000000000
H        0.1426220000    0.0014780000   -0.0000000000