
Running Job 1 of 1 irc_reactant.in
qchem irc_reactant.in_55874.0 ./irc_reactant.d/ 1
/home/leeping/opt/qchem/5.0.2-openmp/exe/qcprog.exe_s irc_reactant.in_55874.0 ./irc_reactant.d/
Check license passed

                  Welcome to Q-Chem
     A Quantum Leap Into The Future Of Chemistry


 Q-Chem 5.0, Q-Chem, Inc., Pleasanton, CA (2017)

 Yihan Shao,  Zhengting Gan,  E. Epifanovsky,  A. T. B. Gilbert,  M. Wormit,  
 J. Kussmann,  A. W. Lange,  A. Behn,  Jia Deng,  Xintian Feng,  D. Ghosh,  
 M. Goldey,  P. R. Horn,  L. D. Jacobson,  I. Kaliman,  T. Kus,  A. Landau,  
 Jie Liu,  E. I. Proynov,  R. M. Richard,  R. P. Steele,  E. J. Sundstrom,  
 H. L. Woodcock III,  P. M. Zimmerman,  D. Zuev,  B. Albrecht,  E. Alguire,  
 S. A. Baeppler,  D. Barton,  Z. Benda,  Y. A. Bernard,  E. J. Berquist,  
 K. B. Bravaya,  H. Burton,  D. Casanova,  Chun-Min Chang,  Yunqing Chen,  
 A. Chien,  K. D. Closser,  M. P. Coons,  S. Dasgupta,  A. L. Dempwolff,  
 M. Diedenhofen,  Hainam Do,  R. G. Edgar,  Po-Tung Fang,  S. Fatehi,  
 Qingguo Feng,  J. Fosso-Tande,  Qinghui Ge,  A. Ghysels,  G. Gidofalvi,  
 J. Gomes,  J. Gonthier,  A. Gunina,  M. W. D. Hanson-Heine,  
 P. H. P. Harbach,  A. W. Hauser,  J. E. Herr,  E. G. Hohenstein,  
 Z. C. Holden,  Kerwin Hui,  T.-C. Jagau,  Hyunjun Ji,  B. Kaduk,  
 K. Khistyaev,  Jaehoon Kim,  P. Klunzinger,  K. Koh,  D. Kosenkov,  
 L. Koulias,  T. Kowalczyk,  C. M. Krauter,  A. Kunitsa,  Ka Un Lao,  
 A. Laurent,  K. V. Lawler,  Joonho Lee,  D. Lefrancois,  S. Lehtola,  
 D. S. Levine,  Yi-Pei Li,  You-Sheng Lin,  Fenglai Liu,  E. Livshits,  
 A. Luenser,  P. Manohar,  E. Mansoor,  S. F. Manzer,  Shan-Ping Mao,  
 Yuezhi Mao,  N. Mardirossian,  A. V. Marenich,  T. Markovich,  
 L. A. Martinez-Martinez,  S. A. Maurer,  N. J. Mayhall,  S. C. McKenzie,  
 J.-M. Mewes,  A. F. Morrison,  J. W. Mullinax,  K. Nanda,  
 T. S. Nguyen-Beck,  R. Olivares-Amaya,  J. A. Parkhill,  T. M. Perrine,  
 F. Plasser,  S. Prager,  A. Prociuk,  E. Ramos,  D. R. Rehn,  F. Rob,  
 M. Schneider,  N. Sergueev,  S. M. Sharada,  S. Sharma,  D. W. Small,  
 T. Stauch,  T. Stein,  Yu-Chuan Su,  A. J. W. Thom,  A. Tkatchenko,  
 T. Tsuchimochi,  L. Vogt,  O. Vydrov,  M. A. Watson,  J. Wenzel,  
 M. de Wergifosse,  T. A. Wesolowski,  A. White,  J. Witte,  A. Yamada,  
 Jun Yang,  K. Yao,  S. Yeganeh,  S. R. Yost,  Zhi-Qiang You,  A. Zech,  
 Igor Ying Zhang,  Xing Zhang,  Yan Zhao,  Ying Zhu,  B. R. Brooks,  
 G. K. L. Chan,  C. J. Cramer,  M. S. Gordon,  W. J. Hehre,  A. Klamt,  
 M. W. Schmidt,  C. D. Sherrill,  D. G. Truhlar,  A. Aspuru-Guzik,  R. Baer,  
 A. T. Bell,  N. A. Besley,  Jeng-Da Chai,  R. A. DiStasio Jr.,  A. Dreuw,  
 B. D. Dunietz,  T. R. Furlani,  Chao-Ping Hsu,  Yousung Jung,  Jing Kong,  
 D. S. Lambrecht,  WanZhen Liang,  C. Ochsenfeld,  V. A. Rassolov,  
 L. V. Slipchenko,  J. E. Subotnik,  T. Van Voorhis,  J. M. Herbert,  
 A. I. Krylov,  P. M. W. Gill,  M. Head-Gordon

 Contributors to earlier versions of Q-Chem not listed above: 
 R. D. Adamson,  B. Austin,  J. Baker,  G. J. O. Beran,  K. Brandhorst,  
 S. T. Brown,  E. F. C. Byrd,  A. K. Chakraborty,  C.-L. Cheng,  
 Siu Hung Chien,  D. M. Chipman,  D. L. Crittenden,  H. Dachsel,  
 R. J. Doerksen,  A. D. Dutoi,  L. Fusti-Molnar,  W. A. Goddard III,  
 A. Golubeva-Zadorozhnaya,  S. R. Gwaltney,  G. Hawkins,  A. Heyden,  
 S. Hirata,  G. Kedziora,  F. J. Keil,  C. Kelley,  Jihan Kim,  R. A. King,  
 R. Z. Khaliullin,  P. P. Korambath,  W. Kurlancheek,  A. M. Lee,  M. S. Lee,  
 S. V. Levchenko,  Ching Yeh Lin,  D. Liotard,  R. C. Lochan,  I. Lotan,  
 P. E. Maslen,  N. Nair,  D. P. O'Neill,  D. Neuhauser,  E. Neuscamman,  
 C. M. Oana,  R. Olson,  B. Peters,  R. Peverati,  P. A. Pieniazek,  
 Y. M. Rhee,  J. Ritchie,  M. A. Rohrdanz,  E. Rosta,  N. J. Russ,  
 H. F. Schaefer III,  N. E. Schultz,  N. Shenvi,  A. C. Simmonett,  A. Sodt,  
 D. Stuck,  K. S. Thanthiriwatte,  V. Vanovschi,  Tao Wang,  A. Warshel,  
 C. F. Williams,  Q. Wu,  X. Xu,  W. Zhang

 Please cite Q-Chem as follows:
 Y. Shao et al., Mol. Phys. 113, 184-215 (2015)
 DOI: 10.1080/00268976.2014.952696

 Q-Chem 5.0.2 for Intel X86 EM64T Linux

 Parts of Q-Chem use Armadillo 5.200.1 (Boston Tea Smuggler).
 http://arma.sourceforge.net/

 Q-Chem begins on Wed Mar  2 16:23:01 2022  

Host: 
0

     Scratch files written to ./irc_reactant.d//
 Dec517 15110_ 26548  26544 5633   
Processing $rem in /home/leeping/opt/qchem/5.0.2-openmp/config/preferences.
 MEM_STATIC 2000
 MEM_TOTAL  8000
 SYMMETRY   OFF
 SYM_IGNORE TRUE 

Checking the input file for inconsistencies... 	...done.

--------------------------------------------------------------
User input:
--------------------------------------------------------------
$molecule
0 2
C        1.2772185908   -0.0116477471    0.0530294759
C        0.5676099322   -0.9802866635    0.9168976817
C       -0.8211106732   -0.9434253186    0.9447223926
C       -1.4497534792   -0.0014459898    0.1399493239
C       -0.6046727323    0.9133089610   -0.6590701187
N        0.7225684459    1.3998354864   -0.0929288259
H        2.3625149957   -0.0013900242    0.1228996299
H        1.1449432867   -1.6674583659    1.5260611799
H       -1.3915846171   -1.6216565236    1.5723928486
H       -2.5288623348    0.0949206640    0.0877033120
H       -1.1182178574    1.7133001153   -1.1873032643
C        0.6919274485    0.4617051209   -1.2286403946
H        1.1474189936    0.6442402853   -2.1957132412
$end

$rem
method                b3lyp
basis                 6-31+g(d,p)
unrestricted          true
symmetry              off
sym_ignore            true
incdft                false
incfock               0
scf_convergence       8
thresh                14
jobtype               sp
scf_guess             read
scf_algorithm         diis
max_scf_cycles        100
scf_final_print       1
$end

--------------------------------------------------------------
 ----------------------------------------------------------------
             Standard Nuclear Orientation (Angstroms)
    I     Atom           X                Y                Z
 ----------------------------------------------------------------
    1      C       1.2772185908    -0.0116477471     0.0530294759
    2      C       0.5676099322    -0.9802866635     0.9168976817
    3      C      -0.8211106732    -0.9434253186     0.9447223926
    4      C      -1.4497534792    -0.0014459898     0.1399493239
    5      C      -0.6046727323     0.9133089610    -0.6590701187
    6      N       0.7225684459     1.3998354864    -0.0929288259
    7      H       2.3625149957    -0.0013900242     0.1228996299
    8      H       1.1449432867    -1.6674583659     1.5260611799
    9      H      -1.3915846171    -1.6216565236     1.5723928486
   10      H      -2.5288623348     0.0949206640     0.0877033120
   11      H      -1.1182178574     1.7133001153    -1.1873032643
   12      C       0.6919274485     0.4617051209    -1.2286403946
   13      H       1.1474189936     0.6442402853    -2.1957132412
 ----------------------------------------------------------------
 Nuclear Repulsion Energy =   275.9739487114 hartrees
 There are       25 alpha and       24 beta electrons
 Requested basis set is 6-31+G(d,p)
 There are 53 shells and 163 basis functions

 Total QAlloc Memory Limit   8000 MB
 Mega-Array Size      1956 MB
 MEM_STATIC part      2000 MB

                       Distance Matrix (Angstroms)
             C (  1)   C (  2)   C (  3)   C (  4)   C (  5)   N (  6)
   C (  2)  1.479214
   C (  3)  2.462988  1.389488
   C (  4)  2.728376  2.373085  1.389308
   C (  5)  2.214531  2.728301  2.463018  1.479652
   N (  6)  1.523557  2.590124  2.991745  2.595536  1.522758
   H (  7)  1.087592  2.193252  3.420277  3.812307  3.201930  2.167819
   H (  8)  2.220141  1.084711  2.174292  3.380733  3.807403  3.493969
   H (  9)  3.467435  2.163209  1.086006  2.163414  3.467666  4.046276
   H ( 10)  3.807730  3.381091  2.174640  1.084662  2.220346  3.508167
   H ( 11)  3.201872  3.811179  3.419356  2.193597  1.087541  2.164350
   C ( 12)  1.486374  2.588074  2.997863  2.583475  1.486448  1.473387
   H ( 13)  2.346035  3.558597  4.032137  3.552117  2.345953  2.274450
             H (  7)   H (  8)   H (  9)   H ( 10)   H ( 11)   C ( 12)
   H (  8)  2.495421
   H (  9)  4.338151  2.537364
   H ( 10)  4.892452  4.321076  2.538571
   H ( 11)  4.095399  4.890171  4.337348  2.496940
   C ( 12)  2.198177  3.510974  4.065367  3.498682  2.201096
   H ( 13)  2.696157  4.381274  5.077347  4.362429  2.700535  1.084445

 
 A cutoff of  1.0D-14 yielded   1384 shell pairs
 There are     13454 function pairs
 
 -------------------------------------------------------
 OpenMP Integral Computing Module                       
 Release: version 1.0, May 2013, Q-Chem Inc. Pittsburgh 
 -------------------------------------------------------
 Integral Job Info:
 Integral job number is                      11
 Integral operator is                         1
 short-range coefficients                     0
 long-range coefficients              100000000
 Omega coefficients                           0
 if combine SR and LR in K                    0
 Integral screening is                        0
 Integral computing path is                   2
 max size of driver memory is            800000
 size of driver memory is                593474
 size of scratch memory is              2361544
 max col of scratch BK array               1296
 max len of scratch array in speh3          155
 max len of scratch index in speh4           18
 max int batch size is                      520
 min int batch size is                       52
 fixed nKL is                                52
 max L of basis functions is                  2
 order of int derivative is                   0
 number of shells is                         53
 number of basis is                         163
 number of cartesian basis is               163
 number of contracted shell pairs          1384
 number of primitive shell pairs           4722
 maxK2 (contraction) of shell pair           36
 max number of K2 of shell pair               1
 max number of CS2 of shell pair            128
 max number of PS2 of shell pair            654
 mem total for path MDJ                  535308
 -------------------------------------------------------
 Smallest overlap matrix eigenvalue = 1.35E-05

 Scale SEOQF with 1.000000e-01/1.000000e-01/1.000000e-01

 Standard Electronic Orientation quadrupole field applied
 Nucleus-field energy     =     0.0000000012 hartrees
 Guess MOs from SCF MO coefficient file
 Reading MOs from coefficient file
 Reading MOs from coefficient file
 An unrestricted hybrid HF-DFT SCF calculation will be
 performed using Pulay DIIS extrapolation
 Exchange:     0.2000 Hartree-Fock + 0.0800 Slater + 0.7200 B88
 Correlation:  0.1900 VWN1RPA + 0.8100 LYP
 Using SG-1 standard quadrature grid
 SCF converges when DIIS error is below 1.0E-08
Using Q-Chem read-in guess as SCF_GUESS READ specified.

 using 4 threads for integral computing
 -------------------------------------------------------
 OpenMP Integral computing Module                
 Release: version 1.0, May 2013, Q-Chem Inc. Pittsburgh 
 -------------------------------------------------------
 -------------------------------------------------------
 OpenMP BLAS3 based DFT computing Module                
 Release: version 1.0, May 2013, Q-Chem Inc. Pittsburgh 
 -------------------------------------------------------
 ---------------------------------------
  Cycle       Energy         DIIS Error
 ---------------------------------------
    1    -286.8779063321      4.00E-10
    2    -286.8779063321      6.77E-10 Convergence criterion met
 ---------------------------------------
 One-Electron    Energy =  -932.2344247133
 Total Coulomb   Energy =   411.0125768029
 Alpha Exchange  Energy =    -4.0216946308
 Beta  Exchange  Energy =    -3.9264029270
 DFT   Exchange  Energy =   -31.5713918598
 DFT Correlation Energy =    -2.1105177167
 Nuclear Repu.   Energy =   275.9739487126
 Nuclear Attr.   Energy = -1216.3723631147
 Kinetic         Energy =   284.1379384013
 <S^2> = 0.7757
 SCF time:  CPU 10.14 s  wall 3.19 s
 Final Alpha MO Eigenvalues
            1           2           3           4           5           6
    1 -14.3589292 -10.2398065 -10.2397535 -10.2380150 -10.2077534 -10.2076487
            7           8           9          10          11          12
    1 -10.1981219  -1.0244100  -0.8186418  -0.7607206  -0.6437114  -0.6365160
           13          14          15          16          17          18
    1  -0.6150780  -0.5417000  -0.4864196  -0.4683189  -0.4658024  -0.4199979
           19          20          21          22          23          24
    1  -0.3969653  -0.3656981  -0.3641217  -0.3476955  -0.2965930  -0.2528250
           25          26          27          28          29          30
    1  -0.1920235  -0.0061604   0.0060627   0.0214846   0.0227573   0.0351134
 Final Beta MO Eigenvalues
            1           2           3           4           5           6
    1 -14.3566315 -10.2405999 -10.2405604 -10.2364525 -10.2011788 -10.1996576
            7           8           9          10          11          12
    1 -10.1995110  -1.0208388  -0.8083994  -0.7506331  -0.6350464  -0.6292631
           13          14          15          16          17          18
    1  -0.6106542  -0.5391015  -0.4814129  -0.4657217  -0.4599595  -0.4163183
           19          20          21          22          23          24
    1  -0.3947381  -0.3621485  -0.3510362  -0.3241066  -0.2928005  -0.2486194
           25          26          27          28          29
    1  -0.0887035   0.0006263   0.0072114   0.0216671   0.0244544
 SCF   energy in the final basis set = -286.87790633
 Total energy in the final basis set = -286.87790633
 
 --------------------------------------------------------------
 
                    Orbital Energies (a.u.)
 --------------------------------------------------------------
 
 Alpha MOs
 -- Occupied --
-14.359 -10.240 -10.240 -10.238 -10.208 -10.208 -10.198  -1.024
 -0.819  -0.761  -0.644  -0.637  -0.615  -0.542  -0.486  -0.468
 -0.466  -0.420  -0.397  -0.366  -0.364  -0.348  -0.297  -0.253
 -0.192
 -- Virtual --
 -0.006   0.006   0.021   0.023   0.035   0.039   0.041   0.068
  0.076   0.078   0.087   0.095   0.095   0.118   0.126   0.131
  0.139   0.142   0.145   0.158   0.163   0.174   0.186   0.191
  0.196   0.201   0.208   0.210   0.226   0.235   0.238   0.247
  0.264   0.267   0.281   0.297   0.303   0.304   0.313   0.339
  0.348   0.369   0.446   0.498   0.585   0.615   0.678   0.682
  0.697   0.711   0.714   0.734   0.743   0.755   0.767   0.772
  0.814   0.857   0.892   0.906   0.926   0.935   0.964   0.982
  0.996   1.022   1.026   1.030   1.093   1.099   1.168   1.181
  1.203   1.249   1.286   1.337   1.357   1.385   1.400   1.456
  1.520   1.582   1.608   1.680   1.712   1.773   1.815   1.839
  1.860   1.945   1.949   1.963   1.971   2.029   2.041   2.056
  2.114   2.166   2.193   2.259   2.321   2.353   2.371   2.381
  2.402   2.421   2.449   2.488   2.496   2.511   2.522   2.544
  2.574   2.626   2.633   2.699   2.711   2.727   2.761   2.837
  2.849   2.997   3.004   3.007   3.235   3.278   3.291   3.334
  3.509   3.520   3.780   4.145   4.284   4.326   4.474   4.565
  4.617   4.784
 
 Beta MOs
 -- Occupied --
-14.357 -10.241 -10.241 -10.236 -10.201 -10.200 -10.200  -1.021
 -0.808  -0.751  -0.635  -0.629  -0.611  -0.539  -0.481  -0.466
 -0.460  -0.416  -0.395  -0.362  -0.351  -0.324  -0.293  -0.249
 -- Virtual --
 -0.089   0.001   0.007   0.022   0.024   0.037   0.040   0.041
  0.072   0.076   0.081   0.087   0.095   0.101   0.123   0.127
  0.133   0.139   0.142   0.146   0.164   0.166   0.174   0.190
  0.194   0.200   0.202   0.209   0.214   0.227   0.236   0.244
  0.249   0.265   0.271   0.284   0.299   0.305   0.308   0.316
  0.342   0.350   0.370   0.450   0.505   0.587   0.619   0.682
  0.688   0.702   0.716   0.734   0.751   0.752   0.758   0.767
  0.773   0.820   0.861   0.895   0.909   0.928   0.939   0.966
  0.983   0.996   1.025   1.031   1.033   1.100   1.108   1.172
  1.183   1.204   1.253   1.289   1.346   1.370   1.389   1.411
  1.464   1.526   1.590   1.616   1.688   1.717   1.780   1.819
  1.842   1.868   1.949   1.954   1.971   1.975   2.042   2.049
  2.062   2.122   2.168   2.199   2.263   2.322   2.355   2.374
  2.388   2.408   2.424   2.457   2.487   2.507   2.515   2.532
  2.552   2.578   2.631   2.636   2.701   2.716   2.727   2.768
  2.841   2.853   3.001   3.008   3.012   3.237   3.279   3.292
  3.335   3.511   3.521   3.783   4.149   4.297   4.331   4.475
  4.571   4.622   4.790
 --------------------------------------------------------------
 
          Ground-State Mulliken Net Atomic Charges

     Atom                 Charge (a.u.)    Spin (a.u.)
  --------------------------------------------------------
      1 C                    -0.183846      -0.073269
      2 C                    -0.090840       0.673586
      3 C                    -0.099302      -0.311108
      4 C                    -0.089050       0.672739
      5 C                    -0.185823      -0.072149
      6 N                    -0.184554       0.090809
      7 H                     0.135286       0.001380
      8 H                     0.129781      -0.031042
      9 H                     0.129411       0.009189
     10 H                     0.129789      -0.031090
     11 H                     0.135849       0.001386
     12 C                     0.030692       0.072156
     13 H                     0.142607      -0.002586
  --------------------------------------------------------
  Sum of atomic charges =    -0.000000
  Sum of spin   charges =     1.000000

 -----------------------------------------------------------------
                    Cartesian Multipole Moments
 -----------------------------------------------------------------
    Charge (ESU x 10^10)
                -0.0000
    Dipole Moment (Debye)
         X      -0.3510      Y      -1.3357      Z      -0.8160
       Tot       1.6041
    Quadrupole Moments (Debye-Ang)
        XX     -37.1809     XY      -2.9157     YY     -45.2502
        XZ      -0.4693     YZ      -4.2186     ZZ     -39.9844
    Octopole Moments (Debye-Ang^2)
       XXX      -5.3428    XXY      -6.0402    XYY      -7.9819
       YYY     -20.3385    XXZ      -0.2905    XYZ       0.8358
       YYZ       0.3858    XZZ       0.9100    YZZ      -4.3441
       ZZZ      -7.2258
    Hexadecapole Moments (Debye-Ang^3)
      XXXX    -286.2256   XXXY     -18.2124   XXYY     -96.1270
      XYYY     -28.6398   YYYY    -265.9254   XXXZ      17.5627
      XXYZ      14.6936   XYYZ       7.4604   YYYZ      57.0833
      XXZZ     -84.4767   XYZZ      -3.4235   YYZZ     -68.3725
      XZZZ      11.6714   YZZZ      56.7712   ZZZZ    -207.1221
 -----------------------------------------------------------------
 Mayer SCF Bond Order, atomic valence on the diagonal:

            1           2           3           4           5           6
    1   4.0461278   0.9422239  -0.0970651   0.0028376  -0.0922104   1.1628855
    2   0.9422239   3.5937863   1.6188778   0.1590203   0.0054837  -0.1224473
    3  -0.0970651   1.6188778   4.2737126   1.6186749  -0.0973994   0.1427372
    4   0.0028376   0.1590203   1.6186749   3.5897285   0.9360154  -0.1192045
    5  -0.0922104   0.0054837  -0.0973994   0.9360154   4.0420572   1.1624743
    6   1.1628855  -0.1224473   0.1427372  -0.1192045   1.1624743   2.5412541
    7   0.8744678   0.0098426   0.0163369  -0.0035010   0.0272308  -0.0154846
    8   0.0081111   0.8791171   0.0322812   0.0149508  -0.0027038   0.0027946
    9   0.0026383   0.0624289   0.8138324   0.0623489   0.0027301  -0.0002677
   10  -0.0032361   0.0156612   0.0308453   0.8820416   0.0058118   0.0031924
   11   0.0273953  -0.0037737   0.0173632   0.0076980   0.8781309  -0.0163056
   12   1.2002060   0.0123478   0.1759555   0.0137455   1.1992082   0.3308231
   13   0.0178740   0.0150039   0.0012725   0.0151010   0.0172856   0.0100567
            7           8           9          10          11          12
    1   0.8744678   0.0081111   0.0026383  -0.0032361   0.0273953   1.2002060
    2   0.0098426   0.8791171   0.0624289   0.0156612  -0.0037737   0.0123478
    3   0.0163369   0.0322812   0.8138324   0.0308453   0.0173632   0.1759555
    4  -0.0035010   0.0149508   0.0623489   0.8820416   0.0076980   0.0137455
    5   0.0272308  -0.0027038   0.0027301   0.0058118   0.8781309   1.1992082
    6  -0.0154846   0.0027946  -0.0002677   0.0031924  -0.0163056   0.3308231
    7   0.9481267   0.0003042   0.0015682   0.0000188   0.0034864   0.0336013
    8   0.0003042   0.9502329   0.0011524   0.0019411   0.0000201   0.0120173
    9   0.0015682   0.0011524   0.9501620   0.0011573   0.0015689   0.0008871
   10   0.0000188   0.0019411   0.0011573   0.9504329   0.0003039   0.0124649
   11   0.0034864   0.0000201   0.0015689   0.0003039   0.9481335   0.0319804
   12   0.0336013   0.0120173   0.0008871   0.0124649   0.0319804   3.9011265
   13   0.0002551   0.0002468   0.0001171   0.0002308   0.0002657   0.8778894
           13
    1   0.0178740
    2   0.0150039
    3   0.0012725
    4   0.0151010
    5   0.0172856
    6   0.0100567
    7   0.0002551
    8   0.0002468
    9   0.0001171
   10   0.0002308
   11   0.0002657
   12   0.8778894
   13   0.9555986


Archival summary:
1\1\c8-72\SP\ProcedureUnspecified\6-31+G**\166(2)\hpark21\WedMar216:23:072022WedMar216:23:072022\0\\#,ProcedureUnspecified,6-31+G**,\\0,2\N\C,1,1.47339\H,2,1.08445,1,124.854\C,2,1.48637,1,61.9606,3,122.44,0\H,4,1.08759,2,116.445,1,-99.6935,0\C,4,1.47921,2,121.548,1,107.223,0\H,6,1.08471,4,119.175,2,149.408,0\C,6,1.38949,4,118.28,2,-32.547,0\H,8,1.08601,6,121.333,4,-179.081,0\C,8,1.38931,6,117.298,4,0.746162,0\H,10,1.08466,8,122.569,6,179.341,0\C,10,1.47965,8,118.264,6,-1.50805,0\H,12,1.08754,10,116.574,8,-173.047,0\\\@

 Total job time:  5.98s(wall), 11.92s(cpu) 
 Wed Mar  2 16:23:07 2022

        *************************************************************
        *                                                           *
        *  Thank you very much for using Q-Chem.  Have a nice day.  *
        *                                                           *
        *************************************************************


