
Running Job 1 of 1 irc_transition.in
qchem irc_transition.in_56483.0 ./irc_transition.d/ 1
/home/leeping/opt/qchem/5.0.2-openmp/exe/qcprog.exe_s irc_transition.in_56483.0 ./irc_transition.d/
Check license passed

                  Welcome to Q-Chem
     A Quantum Leap Into The Future Of Chemistry


 Q-Chem 5.0, Q-Chem, Inc., Pleasanton, CA (2017)

 Yihan Shao,  Zhengting Gan,  E. Epifanovsky,  A. T. B. Gilbert,  M. Wormit,  
 J. Kussmann,  A. W. Lange,  A. Behn,  Jia Deng,  Xintian Feng,  D. Ghosh,  
 M. Goldey,  P. R. Horn,  L. D. Jacobson,  I. Kaliman,  T. Kus,  A. Landau,  
 Jie Liu,  E. I. Proynov,  R. M. Richard,  R. P. Steele,  E. J. Sundstrom,  
 H. L. Woodcock III,  P. M. Zimmerman,  D. Zuev,  B. Albrecht,  E. Alguire,  
 S. A. Baeppler,  D. Barton,  Z. Benda,  Y. A. Bernard,  E. J. Berquist,  
 K. B. Bravaya,  H. Burton,  D. Casanova,  Chun-Min Chang,  Yunqing Chen,  
 A. Chien,  K. D. Closser,  M. P. Coons,  S. Dasgupta,  A. L. Dempwolff,  
 M. Diedenhofen,  Hainam Do,  R. G. Edgar,  Po-Tung Fang,  S. Fatehi,  
 Qingguo Feng,  J. Fosso-Tande,  Qinghui Ge,  A. Ghysels,  G. Gidofalvi,  
 J. Gomes,  J. Gonthier,  A. Gunina,  M. W. D. Hanson-Heine,  
 P. H. P. Harbach,  A. W. Hauser,  J. E. Herr,  E. G. Hohenstein,  
 Z. C. Holden,  Kerwin Hui,  T.-C. Jagau,  Hyunjun Ji,  B. Kaduk,  
 K. Khistyaev,  Jaehoon Kim,  P. Klunzinger,  K. Koh,  D. Kosenkov,  
 L. Koulias,  T. Kowalczyk,  C. M. Krauter,  A. Kunitsa,  Ka Un Lao,  
 A. Laurent,  K. V. Lawler,  Joonho Lee,  D. Lefrancois,  S. Lehtola,  
 D. S. Levine,  Yi-Pei Li,  You-Sheng Lin,  Fenglai Liu,  E. Livshits,  
 A. Luenser,  P. Manohar,  E. Mansoor,  S. F. Manzer,  Shan-Ping Mao,  
 Yuezhi Mao,  N. Mardirossian,  A. V. Marenich,  T. Markovich,  
 L. A. Martinez-Martinez,  S. A. Maurer,  N. J. Mayhall,  S. C. McKenzie,  
 J.-M. Mewes,  A. F. Morrison,  J. W. Mullinax,  K. Nanda,  
 T. S. Nguyen-Beck,  R. Olivares-Amaya,  J. A. Parkhill,  T. M. Perrine,  
 F. Plasser,  S. Prager,  A. Prociuk,  E. Ramos,  D. R. Rehn,  F. Rob,  
 M. Schneider,  N. Sergueev,  S. M. Sharada,  S. Sharma,  D. W. Small,  
 T. Stauch,  T. Stein,  Yu-Chuan Su,  A. J. W. Thom,  A. Tkatchenko,  
 T. Tsuchimochi,  L. Vogt,  O. Vydrov,  M. A. Watson,  J. Wenzel,  
 M. de Wergifosse,  T. A. Wesolowski,  A. White,  J. Witte,  A. Yamada,  
 Jun Yang,  K. Yao,  S. Yeganeh,  S. R. Yost,  Zhi-Qiang You,  A. Zech,  
 Igor Ying Zhang,  Xing Zhang,  Yan Zhao,  Ying Zhu,  B. R. Brooks,  
 G. K. L. Chan,  C. J. Cramer,  M. S. Gordon,  W. J. Hehre,  A. Klamt,  
 M. W. Schmidt,  C. D. Sherrill,  D. G. Truhlar,  A. Aspuru-Guzik,  R. Baer,  
 A. T. Bell,  N. A. Besley,  Jeng-Da Chai,  R. A. DiStasio Jr.,  A. Dreuw,  
 B. D. Dunietz,  T. R. Furlani,  Chao-Ping Hsu,  Yousung Jung,  Jing Kong,  
 D. S. Lambrecht,  WanZhen Liang,  C. Ochsenfeld,  V. A. Rassolov,  
 L. V. Slipchenko,  J. E. Subotnik,  T. Van Voorhis,  J. M. Herbert,  
 A. I. Krylov,  P. M. W. Gill,  M. Head-Gordon

 Contributors to earlier versions of Q-Chem not listed above: 
 R. D. Adamson,  B. Austin,  J. Baker,  G. J. O. Beran,  K. Brandhorst,  
 S. T. Brown,  E. F. C. Byrd,  A. K. Chakraborty,  C.-L. Cheng,  
 Siu Hung Chien,  D. M. Chipman,  D. L. Crittenden,  H. Dachsel,  
 R. J. Doerksen,  A. D. Dutoi,  L. Fusti-Molnar,  W. A. Goddard III,  
 A. Golubeva-Zadorozhnaya,  S. R. Gwaltney,  G. Hawkins,  A. Heyden,  
 S. Hirata,  G. Kedziora,  F. J. Keil,  C. Kelley,  Jihan Kim,  R. A. King,  
 R. Z. Khaliullin,  P. P. Korambath,  W. Kurlancheek,  A. M. Lee,  M. S. Lee,  
 S. V. Levchenko,  Ching Yeh Lin,  D. Liotard,  R. C. Lochan,  I. Lotan,  
 P. E. Maslen,  N. Nair,  D. P. O'Neill,  D. Neuhauser,  E. Neuscamman,  
 C. M. Oana,  R. Olson,  B. Peters,  R. Peverati,  P. A. Pieniazek,  
 Y. M. Rhee,  J. Ritchie,  M. A. Rohrdanz,  E. Rosta,  N. J. Russ,  
 H. F. Schaefer III,  N. E. Schultz,  N. Shenvi,  A. C. Simmonett,  A. Sodt,  
 D. Stuck,  K. S. Thanthiriwatte,  V. Vanovschi,  Tao Wang,  A. Warshel,  
 C. F. Williams,  Q. Wu,  X. Xu,  W. Zhang

 Please cite Q-Chem as follows:
 Y. Shao et al., Mol. Phys. 113, 184-215 (2015)
 DOI: 10.1080/00268976.2014.952696

 Q-Chem 5.0.2 for Intel X86 EM64T Linux

 Parts of Q-Chem use Armadillo 5.200.1 (Boston Tea Smuggler).
 http://arma.sourceforge.net/

 Q-Chem begins on Wed Mar  2 16:30:18 2022  

Host: 
0

     Scratch files written to ./irc_transition.d//
 Dec517 15110_ 26548  26544 5633   
Processing $rem in /home/leeping/opt/qchem/5.0.2-openmp/config/preferences.
 MEM_STATIC 2000
 MEM_TOTAL  8000
 SYMMETRY   OFF
 SYM_IGNORE TRUE 

Checking the input file for inconsistencies... 	...done.

--------------------------------------------------------------
User input:
--------------------------------------------------------------
$molecule
0 2
C        1.2736732341   -0.0534242323    0.0027283585
C        0.5501548232   -0.9936974482    0.8981708969
C       -0.8009069568   -0.9377320547    0.9572166765
C       -1.4793165355    0.0525634484    0.1618388328
C       -0.7614180360    1.0566263169   -0.4528846233
N        0.6475351660    1.3126029528   -0.2875465920
H        2.3384218916    0.0591125103    0.2050441740
H        1.1341452864   -1.6663502848    1.5181221891
H       -1.3706767583   -1.6128637231    1.5886508741
H       -2.5553092139    0.0228541139    0.0284397844
H       -1.2640146615    1.8435008099   -1.0076328227
C        0.8544953604    0.3346238491   -1.3447408673
H        1.3831882603    0.5552380280   -2.2666198908
$end

$rem
method                b3lyp
basis                 6-31+g(d,p)
unrestricted          true
symmetry              off
sym_ignore            true
incdft                false
incfock               0
scf_convergence       6
thresh                14
jobtype               sp
scf_guess             read
scf_algorithm         diis
max_scf_cycles        100
stability_analysis    true
max_cis_cycles        100
cis_n_roots           4
$end

--------------------------------------------------------------
 ----------------------------------------------------------------
             Standard Nuclear Orientation (Angstroms)
    I     Atom           X                Y                Z
 ----------------------------------------------------------------
    1      C       1.2736732341    -0.0534242323     0.0027283585
    2      C       0.5501548232    -0.9936974482     0.8981708969
    3      C      -0.8009069568    -0.9377320547     0.9572166765
    4      C      -1.4793165355     0.0525634484     0.1618388328
    5      C      -0.7614180360     1.0566263169    -0.4528846233
    6      N       0.6475351660     1.3126029528    -0.2875465920
    7      H       2.3384218916     0.0591125103     0.2050441740
    8      H       1.1341452864    -1.6663502848     1.5181221891
    9      H      -1.3706767583    -1.6128637231     1.5886508741
   10      H      -2.5553092139     0.0228541139     0.0284397844
   11      H      -1.2640146615     1.8435008099    -1.0076328227
   12      C       0.8544953604     0.3346238491    -1.3447408673
   13      H       1.3831882603     0.5552380280    -2.2666198908
 ----------------------------------------------------------------
 Nuclear Repulsion Energy =   272.8721307805 hartrees
 There are       25 alpha and       24 beta electrons
 Requested basis set is 6-31+G(d,p)
 There are 53 shells and 163 basis functions

 Total QAlloc Memory Limit   8000 MB
 Mega-Array Size      1956 MB
 MEM_STATIC part      2000 MB

                       Distance Matrix (Angstroms)
             C (  1)   C (  2)   C (  3)   C (  4)   C (  5)   N (  6)
   C (  2)  1.486408
   C (  3)  2.448863  1.353509
   C (  4)  2.759620  2.399083  1.439983
   C (  5)  2.362497  2.783775  2.442828  1.378915
   N (  6)  1.530470  2.595078  2.951513  2.512597  1.441530
   H (  7)  1.089627  2.187860  3.378587  3.817989  3.322185  2.161708
   H (  8)  2.217525  1.085286  2.142411  3.409450  3.859097  3.517299
   H (  9)  3.455371  2.133008  1.085887  2.195733  3.415441  4.018912
   H ( 10)  3.829828  3.381378  2.205284  1.084637  2.125654  3.467205
   H ( 11)  3.325510  3.869495  3.436620  2.149762  1.086057  2.110545
   C ( 12)  1.463545  2.624445  3.107773  2.792135  1.981886  1.454969
   H ( 13)  2.352106  3.620642  4.170414  3.787351  2.853132  2.243105
             H (  7)   H (  8)   H (  9)   H ( 10)   H ( 11)   C ( 12)
   H (  8)  2.480258
   H (  9)  4.297358  2.506386
   H ( 10)  4.897051  4.322573  2.552094
   H ( 11)  4.199068  4.944660  4.324179  2.460822
   C ( 12)  2.163279  3.504010  4.165199  3.689118  2.622677
   H ( 13)  2.695874  4.395651  5.210331  4.589389  3.201930  1.085379

 
 A cutoff of  1.0D-14 yielded   1380 shell pairs
 There are     13440 function pairs
 Smallest overlap matrix eigenvalue = 1.70E-05

 Scale SEOQF with 1.000000e-01/1.000000e-01/1.000000e-01

 Standard Electronic Orientation quadrupole field applied
 Nucleus-field energy     =     0.0000000012 hartrees
 Guess MOs from SCF MO coefficient file
 Reading MOs from coefficient file
 Reading MOs from coefficient file
 An unrestricted hybrid HF-DFT SCF calculation will be
 performed using Pulay DIIS extrapolation
 Exchange:     0.2000 Hartree-Fock + 0.0800 Slater + 0.7200 B88
 Correlation:  0.1900 VWN1RPA + 0.8100 LYP
 Using SG-1 standard quadrature grid
 SCF converges when DIIS error is below 1.0E-06
Using Q-Chem read-in guess as SCF_GUESS READ specified.

 -------------------------------------------------------
 OpenMP BLAS3 based DFT computing Module                
 -------------------------------------------------------
 ---------------------------------------
  Cycle       Energy         DIIS Error
 ---------------------------------------
    1    -286.8424829065      7.85E-10
    2    -286.8424829065      1.02E-09 Convergence criterion met
 ---------------------------------------
 <S^2> = 0.7942
 SCF time:  CPU 6.72 s  wall 9.52 s
 SCF   energy in the final basis set = -286.84248291
 Total energy in the final basis set = -286.84248291
 
 Direct TDDFT/TDA calculation will be performed
 Exchange:     0.2000 Hartree-Fock + 0.0800 Slater + 0.7200 B88
 Correlation:  0.1900 VWN1RPA + 0.8100 LYP
 Using SG-1 standard quadrature grid
 CIS energy converged when residual is below 10e- 6
 ---------------------------------------------------
 Iter    Rts Conv    Rts Left    Ttl Dev     Max Dev
 ---------------------------------------------------
   1         0           4      0.004889    0.001758
   2         0           4      0.001368    0.000529
   3         0           4      0.000449    0.000237
   4         0           4      0.000386    0.000330
   5         0           4      0.000140    0.000121
   6         1           3      0.000032    0.000028
   7         3           1      0.000011    0.000009
   8         3           1      0.000004    0.000003
   9         3           1      0.000003    0.000001
  10         4           0      0.000002    0.000001    Roots Converged
 ---------------------------------------------------
 
 ---------------------------------------------------
         TDDFT/TDA Excitation Energies              
 ---------------------------------------------------

 Excited state   1: excitation energy (eV) =    2.1091
 Total energy for state  1:                  -286.76497616 au
    <S**2>     :  0.9245
    Trans. Mom.: -0.1644 X  -0.1249 Y   0.2669 Z
    Strength   :     0.0058844425
    S(  1) --> V(  1) amplitude = -0.4153 alpha
    D( 24) --> S(  1) amplitude =  0.8969 beta

 Excited state   2: excitation energy (eV) =    2.9438
 Total energy for state  2:                  -286.73430085 au
    <S**2>     :  1.1825
    Trans. Mom.: -0.1208 X  -0.3377 Y   0.4976 Z
    Strength   :     0.0271335861
    D( 24) --> V(  1) amplitude =  0.2031 alpha
    S(  1) --> V(  1) amplitude =  0.8192 alpha
    D( 24) --> S(  1) amplitude =  0.3943 beta
    D( 24) --> V(  1) amplitude = -0.2732 beta

 Excited state   3: excitation energy (eV) =    3.4276
 Total energy for state  3:                  -286.71652253 au
    <S**2>     :  2.1266
    Trans. Mom.:  0.0826 X  -0.2033 Y   0.1645 Z
    Strength   :     0.0063146169
    D( 24) --> V(  1) amplitude = -0.5892 alpha
    S(  1) --> V(  1) amplitude =  0.3339 alpha
    D( 24) --> V(  1) amplitude =  0.6990 beta

 Excited state   4: excitation energy (eV) =    4.1880
 Total energy for state  4:                  -286.68857698 au
    <S**2>     :  0.8983
    Trans. Mom.:  0.0461 X  -0.0750 Y   0.0770 Z
    Strength   :     0.0014031597
    D( 24) --> V(  1) amplitude =  0.3394 alpha
    D( 23) --> S(  1) amplitude =  0.8288 beta
    D( 24) --> V(  1) amplitude =  0.3441 beta
 
 ---------------------------------------------------

 Stability analysis will be performed
 ---------------------------------------------------
 Iter    Rts Conv    Rts Left    Ttl Dev     Max Dev
 ---------------------------------------------------
   1         0           8      0.004711    0.000668
   2         0           8      0.002127    0.000501
   3         0           8      0.001046    0.000507
   4         2           6      0.000410    0.000253
   5         2           6      0.000192    0.000141
   6         3           5      0.000062    0.000044
   7         5           3      0.000024    0.000018
   8         7           1      0.000010    0.000006
   9         7           1      0.000006    0.000002
  10         8           0      0.000004    0.000001    Roots Converged
 UKS-> UKS   stable,    smallest eigenvalue:      0.0598473
 UKS->CUKS   stable,    smallest eigenvalue:      0.0807494
 ---------------------------------------------------
  SETman timing summary (seconds)
  CPU time               178.68s
  System time              0.00s
  Wall time              199.46s
 
 --------------------------------------------------------------
 
                    Orbital Energies (a.u.)
 --------------------------------------------------------------
 
 Alpha MOs
 -- Occupied --
-14.363 -10.247 -10.244 -10.241 -10.206 -10.205 -10.202  -1.010
 -0.819  -0.774  -0.662  -0.643  -0.594  -0.534  -0.490  -0.486
 -0.464  -0.433  -0.398  -0.369  -0.363  -0.328  -0.305  -0.235
 -0.191
 -- Virtual --
 -0.042   0.006   0.020   0.023   0.037   0.039   0.040   0.061
  0.073   0.075   0.083   0.087   0.093   0.113   0.119   0.123
  0.133   0.137   0.144   0.149   0.160   0.176   0.181   0.189
  0.191   0.196   0.203   0.209   0.221   0.229   0.240   0.257
  0.262   0.270   0.276   0.289   0.301   0.310   0.328   0.344
  0.361   0.369   0.474   0.504   0.577   0.636   0.648   0.679
  0.695   0.716   0.720   0.734   0.747   0.754   0.773   0.785
  0.813   0.872   0.888   0.902   0.933   0.936   0.962   0.979
  0.996   1.024   1.039   1.056   1.088   1.109   1.143   1.175
  1.200   1.208   1.268   1.273   1.324   1.364   1.404   1.427
  1.497   1.564   1.592   1.616   1.721   1.789   1.832   1.858
  1.875   1.913   1.925   1.955   2.000   2.017   2.033   2.061
  2.113   2.135   2.176   2.241   2.285   2.323   2.374   2.386
  2.413   2.422   2.436   2.470   2.493   2.523   2.534   2.555
  2.573   2.597   2.630   2.665   2.693   2.713   2.776   2.818
  2.877   2.921   3.030   3.080   3.243   3.280   3.294   3.367
  3.439   3.541   3.780   4.217   4.309   4.321   4.466   4.495
  4.583   4.769
 
 Beta MOs
 -- Occupied --
-14.362 -10.250 -10.244 -10.230 -10.204 -10.202 -10.200  -1.004
 -0.814  -0.770  -0.652  -0.642  -0.578  -0.530  -0.487  -0.481
 -0.456  -0.431  -0.396  -0.365  -0.356  -0.318  -0.295  -0.217
 -- Virtual --
 -0.087  -0.032   0.007   0.020   0.023   0.037   0.040   0.041
  0.066   0.075   0.076   0.084   0.092   0.098   0.116   0.122
  0.124   0.135   0.137   0.144   0.151   0.162   0.177   0.182
  0.192   0.193   0.201   0.205   0.210   0.222   0.231   0.241
  0.259   0.265   0.273   0.279   0.292   0.305   0.311   0.332
  0.346   0.363   0.376   0.478   0.509   0.580   0.639   0.667
  0.685   0.703   0.726   0.731   0.741   0.748   0.756   0.774
  0.787   0.825   0.875   0.889   0.904   0.935   0.939   0.965
  0.983   0.996   1.027   1.041   1.060   1.093   1.117   1.146
  1.179   1.203   1.210   1.276   1.279   1.330   1.372   1.407
  1.434   1.505   1.572   1.599   1.626   1.726   1.799   1.842
  1.864   1.890   1.915   1.931   1.962   2.003   2.022   2.034
  2.071   2.121   2.144   2.180   2.252   2.290   2.328   2.375
  2.390   2.419   2.425   2.442   2.474   2.497   2.528   2.536
  2.561   2.580   2.607   2.634   2.669   2.696   2.720   2.780
  2.826   2.882   2.926   3.034   3.083   3.244   3.280   3.295
  3.371   3.445   3.545   3.781   4.220   4.314   4.328   4.466
  4.503   4.599   4.772
 --------------------------------------------------------------
 
          Ground-State Mulliken Net Atomic Charges

     Atom                 Charge (a.u.)    Spin (a.u.)
  --------------------------------------------------------
      1 C                    -0.126942      -0.107379
      2 C                    -0.006339       0.304401
      3 C                    -0.172486      -0.194399
      4 C                     0.066144       0.421033
      5 C                    -0.255655      -0.256057
      6 N                    -0.134311       0.039467
      7 H                     0.145415       0.017943
      8 H                     0.128423      -0.012979
      9 H                     0.131681       0.008618
     10 H                     0.129077      -0.019086
     11 H                     0.143644       0.008965
     12 C                    -0.192968       0.793673
     13 H                     0.144318      -0.004201
  --------------------------------------------------------
  Sum of atomic charges =    -0.000000
  Sum of spin   charges =     1.000000

 -----------------------------------------------------------------
                    Cartesian Multipole Moments
 -----------------------------------------------------------------
    Charge (ESU x 10^10)
                -0.0000
    Dipole Moment (Debye)
         X      -0.2130      Y      -0.9657      Z      -0.1848
       Tot       1.0060
    Quadrupole Moments (Debye-Ang)
        XX     -36.7039     XY      -2.3428     YY     -44.3838
        XZ      -0.4949     YZ      -4.0266     ZZ     -41.0957
    Octopole Moments (Debye-Ang^2)
       XXX      -3.7436    XXY      -6.0330    XYY      -7.5812
       YYY     -16.9313    XXZ       0.1655    XYZ       1.3867
       YYZ       1.9779    XZZ       2.6009    YZZ      -3.7777
       ZZZ      -2.7978
    Hexadecapole Moments (Debye-Ang^3)
      XXXX    -301.2399   XXXY      -4.4301   XXYY     -96.8677
      XYYY     -18.1068   YYYY    -259.8318   XXXZ      28.9511
      XXYZ      13.5352   XYYZ      12.7476   YYYZ      57.5267
      XXZZ     -86.7374   XYZZ       0.4935   YYZZ     -70.1384
      XZZZ      18.3178   YZZZ      56.0972   ZZZZ    -218.1383
 -----------------------------------------------------------------
Archival summary:
1\1\c8-72\SP\ProcedureUnspecified\6-31+G**\166(2)\hpark21\WedMar216:33:502022WedMar216:33:502022\0\\#,ProcedureUnspecified,6-31+G**,\\0,2\N\C,1,1.44153\H,2,1.08606,1,112.473\C,2,1.37891,1,125.946,3,-170.93,0\H,4,1.08464,2,118.789,1,174.204,0\C,4,1.43998,2,120.114,1,-6.17431,0\H,6,1.08589,4,120.103,2,168.556,0\C,6,1.35351,4,118.334,2,-11.1011,0\H,8,1.08529,6,122.536,4,175.751,0\C,1,1.45497,2,86.3496,3,-102.909,0\H,10,1.08538,1,123.354,2,122.654,0\C,10,1.46355,1,63.255,2,-110.342,0\H,12,1.08963,10,115.052,1,-98.904,0\\\@

 Total job time:  212.02s(wall), 185.65s(cpu) 
 Wed Mar  2 16:33:50 2022

        *************************************************************
        *                                                           *
        *  Thank you very much for using Q-Chem.  Have a nice day.  *
        *                                                           *
        *************************************************************


