
Running Job 1 of 1 irc_transition.in
qchem irc_transition.in_56879.0 ./irc_transition.d/ 1
/home/leeping/opt/qchem/5.0.2-openmp/exe/qcprog.exe_s irc_transition.in_56879.0 ./irc_transition.d/
Check license passed

                  Welcome to Q-Chem
     A Quantum Leap Into The Future Of Chemistry


 Q-Chem 5.0, Q-Chem, Inc., Pleasanton, CA (2017)

 Yihan Shao,  Zhengting Gan,  E. Epifanovsky,  A. T. B. Gilbert,  M. Wormit,  
 J. Kussmann,  A. W. Lange,  A. Behn,  Jia Deng,  Xintian Feng,  D. Ghosh,  
 M. Goldey,  P. R. Horn,  L. D. Jacobson,  I. Kaliman,  T. Kus,  A. Landau,  
 Jie Liu,  E. I. Proynov,  R. M. Richard,  R. P. Steele,  E. J. Sundstrom,  
 H. L. Woodcock III,  P. M. Zimmerman,  D. Zuev,  B. Albrecht,  E. Alguire,  
 S. A. Baeppler,  D. Barton,  Z. Benda,  Y. A. Bernard,  E. J. Berquist,  
 K. B. Bravaya,  H. Burton,  D. Casanova,  Chun-Min Chang,  Yunqing Chen,  
 A. Chien,  K. D. Closser,  M. P. Coons,  S. Dasgupta,  A. L. Dempwolff,  
 M. Diedenhofen,  Hainam Do,  R. G. Edgar,  Po-Tung Fang,  S. Fatehi,  
 Qingguo Feng,  J. Fosso-Tande,  Qinghui Ge,  A. Ghysels,  G. Gidofalvi,  
 J. Gomes,  J. Gonthier,  A. Gunina,  M. W. D. Hanson-Heine,  
 P. H. P. Harbach,  A. W. Hauser,  J. E. Herr,  E. G. Hohenstein,  
 Z. C. Holden,  Kerwin Hui,  T.-C. Jagau,  Hyunjun Ji,  B. Kaduk,  
 K. Khistyaev,  Jaehoon Kim,  P. Klunzinger,  K. Koh,  D. Kosenkov,  
 L. Koulias,  T. Kowalczyk,  C. M. Krauter,  A. Kunitsa,  Ka Un Lao,  
 A. Laurent,  K. V. Lawler,  Joonho Lee,  D. Lefrancois,  S. Lehtola,  
 D. S. Levine,  Yi-Pei Li,  You-Sheng Lin,  Fenglai Liu,  E. Livshits,  
 A. Luenser,  P. Manohar,  E. Mansoor,  S. F. Manzer,  Shan-Ping Mao,  
 Yuezhi Mao,  N. Mardirossian,  A. V. Marenich,  T. Markovich,  
 L. A. Martinez-Martinez,  S. A. Maurer,  N. J. Mayhall,  S. C. McKenzie,  
 J.-M. Mewes,  A. F. Morrison,  J. W. Mullinax,  K. Nanda,  
 T. S. Nguyen-Beck,  R. Olivares-Amaya,  J. A. Parkhill,  T. M. Perrine,  
 F. Plasser,  S. Prager,  A. Prociuk,  E. Ramos,  D. R. Rehn,  F. Rob,  
 M. Schneider,  N. Sergueev,  S. M. Sharada,  S. Sharma,  D. W. Small,  
 T. Stauch,  T. Stein,  Yu-Chuan Su,  A. J. W. Thom,  A. Tkatchenko,  
 T. Tsuchimochi,  L. Vogt,  O. Vydrov,  M. A. Watson,  J. Wenzel,  
 M. de Wergifosse,  T. A. Wesolowski,  A. White,  J. Witte,  A. Yamada,  
 Jun Yang,  K. Yao,  S. Yeganeh,  S. R. Yost,  Zhi-Qiang You,  A. Zech,  
 Igor Ying Zhang,  Xing Zhang,  Yan Zhao,  Ying Zhu,  B. R. Brooks,  
 G. K. L. Chan,  C. J. Cramer,  M. S. Gordon,  W. J. Hehre,  A. Klamt,  
 M. W. Schmidt,  C. D. Sherrill,  D. G. Truhlar,  A. Aspuru-Guzik,  R. Baer,  
 A. T. Bell,  N. A. Besley,  Jeng-Da Chai,  R. A. DiStasio Jr.,  A. Dreuw,  
 B. D. Dunietz,  T. R. Furlani,  Chao-Ping Hsu,  Yousung Jung,  Jing Kong,  
 D. S. Lambrecht,  WanZhen Liang,  C. Ochsenfeld,  V. A. Rassolov,  
 L. V. Slipchenko,  J. E. Subotnik,  T. Van Voorhis,  J. M. Herbert,  
 A. I. Krylov,  P. M. W. Gill,  M. Head-Gordon

 Contributors to earlier versions of Q-Chem not listed above: 
 R. D. Adamson,  B. Austin,  J. Baker,  G. J. O. Beran,  K. Brandhorst,  
 S. T. Brown,  E. F. C. Byrd,  A. K. Chakraborty,  C.-L. Cheng,  
 Siu Hung Chien,  D. M. Chipman,  D. L. Crittenden,  H. Dachsel,  
 R. J. Doerksen,  A. D. Dutoi,  L. Fusti-Molnar,  W. A. Goddard III,  
 A. Golubeva-Zadorozhnaya,  S. R. Gwaltney,  G. Hawkins,  A. Heyden,  
 S. Hirata,  G. Kedziora,  F. J. Keil,  C. Kelley,  Jihan Kim,  R. A. King,  
 R. Z. Khaliullin,  P. P. Korambath,  W. Kurlancheek,  A. M. Lee,  M. S. Lee,  
 S. V. Levchenko,  Ching Yeh Lin,  D. Liotard,  R. C. Lochan,  I. Lotan,  
 P. E. Maslen,  N. Nair,  D. P. O'Neill,  D. Neuhauser,  E. Neuscamman,  
 C. M. Oana,  R. Olson,  B. Peters,  R. Peverati,  P. A. Pieniazek,  
 Y. M. Rhee,  J. Ritchie,  M. A. Rohrdanz,  E. Rosta,  N. J. Russ,  
 H. F. Schaefer III,  N. E. Schultz,  N. Shenvi,  A. C. Simmonett,  A. Sodt,  
 D. Stuck,  K. S. Thanthiriwatte,  V. Vanovschi,  Tao Wang,  A. Warshel,  
 C. F. Williams,  Q. Wu,  X. Xu,  W. Zhang

 Please cite Q-Chem as follows:
 Y. Shao et al., Mol. Phys. 113, 184-215 (2015)
 DOI: 10.1080/00268976.2014.952696

 Q-Chem 5.0.2 for Intel X86 EM64T Linux

 Parts of Q-Chem use Armadillo 5.200.1 (Boston Tea Smuggler).
 http://arma.sourceforge.net/

 Q-Chem begins on Wed Mar  2 16:34:12 2022  

Host: 
0

     Scratch files written to ./irc_transition.d//
 Dec517 15110_ 26548  26544 5633   
Processing $rem in /home/leeping/opt/qchem/5.0.2-openmp/config/preferences.
 MEM_STATIC 2000
 MEM_TOTAL  8000
 SYMMETRY   OFF
 SYM_IGNORE TRUE 

Checking the input file for inconsistencies... 	...done.

--------------------------------------------------------------
User input:
--------------------------------------------------------------
$molecule
0 2
C        1.2736732341   -0.0534242323    0.0027283585
C        0.5501548232   -0.9936974482    0.8981708969
C       -0.8009069568   -0.9377320547    0.9572166765
C       -1.4793165355    0.0525634484    0.1618388328
C       -0.7614180360    1.0566263169   -0.4528846233
N        0.6475351660    1.3126029528   -0.2875465920
H        2.3384218916    0.0591125103    0.2050441740
H        1.1341452864   -1.6663502848    1.5181221891
H       -1.3706767583   -1.6128637231    1.5886508741
H       -2.5553092139    0.0228541139    0.0284397844
H       -1.2640146615    1.8435008099   -1.0076328227
C        0.8544953604    0.3346238491   -1.3447408673
H        1.3831882603    0.5552380280   -2.2666198908
$end

$rem
method                b3lyp
basis                 6-31+g(d,p)
unrestricted          true
symmetry              off
sym_ignore            true
incdft                false
incfock               0
scf_convergence       8
thresh                14
jobtype               sp
scf_guess             read
scf_algorithm         diis
max_scf_cycles        100
scf_final_print       1
$end

--------------------------------------------------------------
 ----------------------------------------------------------------
             Standard Nuclear Orientation (Angstroms)
    I     Atom           X                Y                Z
 ----------------------------------------------------------------
    1      C       1.2736732341    -0.0534242323     0.0027283585
    2      C       0.5501548232    -0.9936974482     0.8981708969
    3      C      -0.8009069568    -0.9377320547     0.9572166765
    4      C      -1.4793165355     0.0525634484     0.1618388328
    5      C      -0.7614180360     1.0566263169    -0.4528846233
    6      N       0.6475351660     1.3126029528    -0.2875465920
    7      H       2.3384218916     0.0591125103     0.2050441740
    8      H       1.1341452864    -1.6663502848     1.5181221891
    9      H      -1.3706767583    -1.6128637231     1.5886508741
   10      H      -2.5553092139     0.0228541139     0.0284397844
   11      H      -1.2640146615     1.8435008099    -1.0076328227
   12      C       0.8544953604     0.3346238491    -1.3447408673
   13      H       1.3831882603     0.5552380280    -2.2666198908
 ----------------------------------------------------------------
 Nuclear Repulsion Energy =   272.8721307805 hartrees
 There are       25 alpha and       24 beta electrons
 Requested basis set is 6-31+G(d,p)
 There are 53 shells and 163 basis functions

 Total QAlloc Memory Limit   8000 MB
 Mega-Array Size      1956 MB
 MEM_STATIC part      2000 MB

                       Distance Matrix (Angstroms)
             C (  1)   C (  2)   C (  3)   C (  4)   C (  5)   N (  6)
   C (  2)  1.486408
   C (  3)  2.448863  1.353509
   C (  4)  2.759620  2.399083  1.439983
   C (  5)  2.362497  2.783775  2.442828  1.378915
   N (  6)  1.530470  2.595078  2.951513  2.512597  1.441530
   H (  7)  1.089627  2.187860  3.378587  3.817989  3.322185  2.161708
   H (  8)  2.217525  1.085286  2.142411  3.409450  3.859097  3.517299
   H (  9)  3.455371  2.133008  1.085887  2.195733  3.415441  4.018912
   H ( 10)  3.829828  3.381378  2.205284  1.084637  2.125654  3.467205
   H ( 11)  3.325510  3.869495  3.436620  2.149762  1.086057  2.110545
   C ( 12)  1.463545  2.624445  3.107773  2.792135  1.981886  1.454969
   H ( 13)  2.352106  3.620642  4.170414  3.787351  2.853132  2.243105
             H (  7)   H (  8)   H (  9)   H ( 10)   H ( 11)   C ( 12)
   H (  8)  2.480258
   H (  9)  4.297358  2.506386
   H ( 10)  4.897051  4.322573  2.552094
   H ( 11)  4.199068  4.944660  4.324179  2.460822
   C ( 12)  2.163279  3.504010  4.165199  3.689118  2.622677
   H ( 13)  2.695874  4.395651  5.210331  4.589389  3.201930  1.085379

 
 A cutoff of  1.0D-14 yielded   1380 shell pairs
 There are     13440 function pairs
 
 -------------------------------------------------------
 OpenMP Integral Computing Module                       
 Release: version 1.0, May 2013, Q-Chem Inc. Pittsburgh 
 -------------------------------------------------------
 Integral Job Info:
 Integral job number is                      11
 Integral operator is                         1
 short-range coefficients                     0
 long-range coefficients              100000000
 Omega coefficients                           0
 if combine SR and LR in K                    0
 Integral screening is                        0
 Integral computing path is                   2
 max size of driver memory is            800000
 size of driver memory is                593474
 size of scratch memory is              2361544
 max col of scratch BK array               1296
 max len of scratch array in speh3          155
 max len of scratch index in speh4           18
 max int batch size is                      520
 min int batch size is                       52
 fixed nKL is                                52
 max L of basis functions is                  2
 order of int derivative is                   0
 number of shells is                         53
 number of basis is                         163
 number of cartesian basis is               163
 number of contracted shell pairs          1380
 number of primitive shell pairs           4690
 maxK2 (contraction) of shell pair           36
 max number of K2 of shell pair               1
 max number of CS2 of shell pair            128
 max number of PS2 of shell pair            690
 mem total for path MDJ                  535308
 -------------------------------------------------------
 Smallest overlap matrix eigenvalue = 1.70E-05

 Scale SEOQF with 1.000000e-01/1.000000e-01/1.000000e-01

 Standard Electronic Orientation quadrupole field applied
 Nucleus-field energy     =     0.0000000012 hartrees
 Guess MOs from SCF MO coefficient file
 Reading MOs from coefficient file
 Reading MOs from coefficient file
 An unrestricted hybrid HF-DFT SCF calculation will be
 performed using Pulay DIIS extrapolation
 Exchange:     0.2000 Hartree-Fock + 0.0800 Slater + 0.7200 B88
 Correlation:  0.1900 VWN1RPA + 0.8100 LYP
 Using SG-1 standard quadrature grid
 SCF converges when DIIS error is below 1.0E-08
Using Q-Chem read-in guess as SCF_GUESS READ specified.

 using 4 threads for integral computing
 -------------------------------------------------------
 OpenMP Integral computing Module                
 Release: version 1.0, May 2013, Q-Chem Inc. Pittsburgh 
 -------------------------------------------------------
 -------------------------------------------------------
 OpenMP BLAS3 based DFT computing Module                
 Release: version 1.0, May 2013, Q-Chem Inc. Pittsburgh 
 -------------------------------------------------------
 ---------------------------------------
  Cycle       Energy         DIIS Error
 ---------------------------------------
    1    -286.8424829065      2.54E-10
    2    -286.8424829065      4.23E-10 Convergence criterion met
 ---------------------------------------
 One-Electron    Energy =  -925.9415198508
 Total Coulomb   Energy =   407.8224296620
 Alpha Exchange  Energy =    -4.0185811761
 Beta  Exchange  Energy =    -3.9212416782
 DFT   Exchange  Energy =   -31.5490270494
 DFT Correlation Energy =    -2.1066735957
 Nuclear Repu.   Energy =   272.8721307817
 Nuclear Attr.   Energy = -1210.0385392557
 Kinetic         Energy =   284.0970194049
 <S^2> = 0.7942
 SCF time:  CPU 10.10 s  wall 3.39 s
 Final Alpha MO Eigenvalues
            1           2           3           4           5           6
    1 -14.3628512 -10.2474695 -10.2436076 -10.2410496 -10.2057025 -10.2045724
            7           8           9          10          11          12
    1 -10.2024617  -1.0097324  -0.8192864  -0.7739002  -0.6623383  -0.6429703
           13          14          15          16          17          18
    1  -0.5942090  -0.5339275  -0.4897810  -0.4855101  -0.4635233  -0.4332105
           19          20          21          22          23          24
    1  -0.3980149  -0.3694771  -0.3634214  -0.3279538  -0.3052546  -0.2345849
           25          26          27          28          29          30
    1  -0.1912605  -0.0418577   0.0063885   0.0198630   0.0229964   0.0365742
 Final Beta MO Eigenvalues
            1           2           3           4           5           6
    1 -14.3619457 -10.2496298 -10.2440398 -10.2296879 -10.2044068 -10.2021733
            7           8           9          10          11          12
    1 -10.1995187  -1.0039416  -0.8140458  -0.7700126  -0.6520484  -0.6419867
           13          14          15          16          17          18
    1  -0.5781178  -0.5295399  -0.4867010  -0.4805131  -0.4562466  -0.4307994
           19          20          21          22          23          24
    1  -0.3955950  -0.3649919  -0.3557547  -0.3176827  -0.2951812  -0.2166636
           25          26          27          28          29
    1  -0.0872434  -0.0321065   0.0070497   0.0202125   0.0234413
 SCF   energy in the final basis set = -286.84248291
 Total energy in the final basis set = -286.84248291
 
 --------------------------------------------------------------
 
                    Orbital Energies (a.u.)
 --------------------------------------------------------------
 
 Alpha MOs
 -- Occupied --
-14.363 -10.247 -10.244 -10.241 -10.206 -10.205 -10.202  -1.010
 -0.819  -0.774  -0.662  -0.643  -0.594  -0.534  -0.490  -0.486
 -0.464  -0.433  -0.398  -0.369  -0.363  -0.328  -0.305  -0.235
 -0.191
 -- Virtual --
 -0.042   0.006   0.020   0.023   0.037   0.039   0.040   0.061
  0.073   0.075   0.083   0.087   0.093   0.113   0.119   0.123
  0.133   0.137   0.144   0.149   0.160   0.176   0.181   0.189
  0.191   0.196   0.203   0.209   0.221   0.229   0.240   0.257
  0.262   0.270   0.276   0.289   0.301   0.310   0.328   0.344
  0.361   0.369   0.474   0.504   0.577   0.636   0.648   0.679
  0.695   0.716   0.720   0.734   0.747   0.754   0.773   0.785
  0.813   0.872   0.888   0.902   0.933   0.936   0.962   0.979
  0.996   1.024   1.039   1.056   1.088   1.109   1.143   1.175
  1.200   1.208   1.268   1.273   1.324   1.364   1.404   1.427
  1.497   1.564   1.592   1.616   1.721   1.789   1.832   1.858
  1.875   1.913   1.925   1.955   2.000   2.017   2.033   2.061
  2.113   2.135   2.176   2.241   2.285   2.323   2.374   2.386
  2.413   2.422   2.436   2.470   2.493   2.523   2.534   2.555
  2.573   2.597   2.630   2.665   2.693   2.713   2.776   2.818
  2.877   2.921   3.030   3.080   3.243   3.280   3.294   3.367
  3.439   3.541   3.780   4.217   4.309   4.321   4.466   4.495
  4.583   4.769
 
 Beta MOs
 -- Occupied --
-14.362 -10.250 -10.244 -10.230 -10.204 -10.202 -10.200  -1.004
 -0.814  -0.770  -0.652  -0.642  -0.578  -0.530  -0.487  -0.481
 -0.456  -0.431  -0.396  -0.365  -0.356  -0.318  -0.295  -0.217
 -- Virtual --
 -0.087  -0.032   0.007   0.020   0.023   0.037   0.040   0.041
  0.066   0.075   0.076   0.084   0.092   0.098   0.116   0.122
  0.124   0.135   0.137   0.144   0.151   0.162   0.177   0.182
  0.192   0.193   0.201   0.205   0.210   0.222   0.231   0.241
  0.259   0.265   0.273   0.279   0.292   0.305   0.311   0.332
  0.346   0.363   0.376   0.478   0.509   0.580   0.639   0.667
  0.685   0.703   0.726   0.731   0.741   0.748   0.756   0.774
  0.787   0.825   0.875   0.889   0.904   0.935   0.939   0.965
  0.983   0.996   1.027   1.041   1.060   1.093   1.117   1.146
  1.179   1.203   1.210   1.276   1.279   1.330   1.372   1.407
  1.434   1.505   1.572   1.599   1.626   1.726   1.799   1.842
  1.864   1.890   1.915   1.931   1.962   2.003   2.022   2.034
  2.071   2.121   2.144   2.180   2.252   2.290   2.328   2.375
  2.390   2.419   2.425   2.442   2.474   2.497   2.528   2.536
  2.561   2.580   2.607   2.634   2.669   2.696   2.720   2.780
  2.826   2.882   2.926   3.034   3.083   3.244   3.280   3.295
  3.371   3.445   3.545   3.781   4.220   4.314   4.328   4.466
  4.503   4.599   4.772
 --------------------------------------------------------------
 
          Ground-State Mulliken Net Atomic Charges

     Atom                 Charge (a.u.)    Spin (a.u.)
  --------------------------------------------------------
      1 C                    -0.126942      -0.107379
      2 C                    -0.006339       0.304402
      3 C                    -0.172486      -0.194399
      4 C                     0.066144       0.421033
      5 C                    -0.255655      -0.256058
      6 N                    -0.134311       0.039467
      7 H                     0.145415       0.017943
      8 H                     0.128423      -0.012979
      9 H                     0.131681       0.008618
     10 H                     0.129077      -0.019086
     11 H                     0.143644       0.008965
     12 C                    -0.192968       0.793673
     13 H                     0.144318      -0.004201
  --------------------------------------------------------
  Sum of atomic charges =    -0.000000
  Sum of spin   charges =     1.000000

 -----------------------------------------------------------------
                    Cartesian Multipole Moments
 -----------------------------------------------------------------
    Charge (ESU x 10^10)
                -0.0000
    Dipole Moment (Debye)
         X      -0.2130      Y      -0.9657      Z      -0.1848
       Tot       1.0060
    Quadrupole Moments (Debye-Ang)
        XX     -36.7039     XY      -2.3428     YY     -44.3838
        XZ      -0.4949     YZ      -4.0266     ZZ     -41.0957
    Octopole Moments (Debye-Ang^2)
       XXX      -3.7436    XXY      -6.0330    XYY      -7.5812
       YYY     -16.9313    XXZ       0.1655    XYZ       1.3867
       YYZ       1.9779    XZZ       2.6009    YZZ      -3.7777
       ZZZ      -2.7978
    Hexadecapole Moments (Debye-Ang^3)
      XXXX    -301.2399   XXXY      -4.4301   XXYY     -96.8677
      XYYY     -18.1068   YYYY    -259.8318   XXXZ      28.9511
      XXYZ      13.5352   XYYZ      12.7476   YYYZ      57.5267
      XXZZ     -86.7374   XYZZ       0.4935   YYZZ     -70.1384
      XZZZ      18.3178   YZZZ      56.0972   ZZZZ    -218.1383
 -----------------------------------------------------------------
 Mayer SCF Bond Order, atomic valence on the diagonal:

            1           2           3           4           5           6
    1   3.8216844   0.9063846  -0.0443204  -0.0408092  -0.0279736   0.9738240
    2   0.9063846   3.8015110   1.9508666   0.0008108   0.1006209  -0.1086215
    3  -0.0443204   1.9508666   4.3716985   1.2713134  -0.0178051   0.1324253
    4  -0.0408092   0.0008108   1.2713134   3.6606425   1.5184058  -0.1187226
    5  -0.0279736   0.1006209  -0.0178051   1.5184058   4.0783575   1.0984333
    6   0.9738240  -0.1086215   0.1324253  -0.1187226   1.0984333   2.4531656
    7   0.8725255  -0.0108896   0.0222225  -0.0051611   0.0228030  -0.0199336
    8   0.0197386   0.8457539   0.0553279   0.0087966   0.0034269   0.0038966
    9   0.0064837   0.0688030   0.8272671   0.0306503   0.0108684  -0.0002395
   10  -0.0038388   0.0181039   0.0278359   0.8677602   0.0267718   0.0085905
   11   0.0080592   0.0014407   0.0226959   0.0159690   0.9110051  -0.0325193
   12   1.1317713   0.0129772   0.1210610   0.0988808   0.4286759   0.5145509
   13   0.0198396   0.0152605   0.0028085   0.0127486   0.0031250   0.0014815
            7           8           9          10          11          12
    1   0.8725255   0.0197386   0.0064837  -0.0038388   0.0080592   1.1317713
    2  -0.0108896   0.8457539   0.0688030   0.0181039   0.0014407   0.0129772
    3   0.0222225   0.0553279   0.8272671   0.0278359   0.0226959   0.1210610
    4  -0.0051611   0.0087966   0.0306503   0.8677602   0.0159690   0.0988808
    5   0.0228030   0.0034269   0.0108684   0.0267718   0.9110051   0.4286759
    6  -0.0199336   0.0038966  -0.0002395   0.0085905  -0.0325193   0.5145509
    7   0.9447897   0.0003118   0.0016055   0.0000291   0.0023056   0.0586455
    8   0.0003118   0.9519229   0.0013391   0.0016687   0.0000620   0.0114594
    9   0.0016055   0.0013391   0.9497876   0.0008213   0.0016405   0.0004040
   10   0.0000291   0.0016687   0.0008213   0.9526039   0.0007715   0.0040671
   11   0.0023056   0.0000620   0.0016405   0.0007715   0.9445471   0.0130239
   12   0.0586455   0.0114594   0.0004040   0.0040671   0.0130239   3.2967777
   13   0.0003253   0.0001415   0.0001443   0.0000229   0.0000930   0.9012607
           13
    1   0.0198396
    2   0.0152605
    3   0.0028085
    4   0.0127486
    5   0.0031250
    6   0.0014815
    7   0.0003253
    8   0.0001415
    9   0.0001443
   10   0.0000229
   11   0.0000930
   12   0.9012607
   13   0.9572513


Archival summary:
1\1\c8-72\SP\ProcedureUnspecified\6-31+G**\166(2)\hpark21\WedMar216:34:192022WedMar216:34:192022\0\\#,ProcedureUnspecified,6-31+G**,\\0,2\N\C,1,1.44153\H,2,1.08606,1,112.473\C,2,1.37891,1,125.946,3,-170.93,0\H,4,1.08464,2,118.789,1,174.204,0\C,4,1.43998,2,120.114,1,-6.17431,0\H,6,1.08589,4,120.103,2,168.556,0\C,6,1.35351,4,118.334,2,-11.1011,0\H,8,1.08529,6,122.536,4,175.751,0\C,1,1.45497,2,86.3496,3,-102.909,0\H,10,1.08538,1,123.354,2,122.654,0\C,10,1.46355,1,63.255,2,-110.342,0\H,12,1.08963,10,115.052,1,-98.904,0\\\@

 Total job time:  6.44s(wall), 11.87s(cpu) 
 Wed Mar  2 16:34:19 2022

        *************************************************************
        *                                                           *
        *  Thank you very much for using Q-Chem.  Have a nice day.  *
        *                                                           *
        *************************************************************


