
Running Job 1 of 1 irc_product.in
qchem irc_product.in_55913.0 ./irc_product.d/ 1
/home/leeping/opt/qchem/5.0.2-openmp/exe/qcprog.exe_s irc_product.in_55913.0 ./irc_product.d/
Check license passed

                  Welcome to Q-Chem
     A Quantum Leap Into The Future Of Chemistry


 Q-Chem 5.0, Q-Chem, Inc., Pleasanton, CA (2017)

 Yihan Shao,  Zhengting Gan,  E. Epifanovsky,  A. T. B. Gilbert,  M. Wormit,  
 J. Kussmann,  A. W. Lange,  A. Behn,  Jia Deng,  Xintian Feng,  D. Ghosh,  
 M. Goldey,  P. R. Horn,  L. D. Jacobson,  I. Kaliman,  T. Kus,  A. Landau,  
 Jie Liu,  E. I. Proynov,  R. M. Richard,  R. P. Steele,  E. J. Sundstrom,  
 H. L. Woodcock III,  P. M. Zimmerman,  D. Zuev,  B. Albrecht,  E. Alguire,  
 S. A. Baeppler,  D. Barton,  Z. Benda,  Y. A. Bernard,  E. J. Berquist,  
 K. B. Bravaya,  H. Burton,  D. Casanova,  Chun-Min Chang,  Yunqing Chen,  
 A. Chien,  K. D. Closser,  M. P. Coons,  S. Dasgupta,  A. L. Dempwolff,  
 M. Diedenhofen,  Hainam Do,  R. G. Edgar,  Po-Tung Fang,  S. Fatehi,  
 Qingguo Feng,  J. Fosso-Tande,  Qinghui Ge,  A. Ghysels,  G. Gidofalvi,  
 J. Gomes,  J. Gonthier,  A. Gunina,  M. W. D. Hanson-Heine,  
 P. H. P. Harbach,  A. W. Hauser,  J. E. Herr,  E. G. Hohenstein,  
 Z. C. Holden,  Kerwin Hui,  T.-C. Jagau,  Hyunjun Ji,  B. Kaduk,  
 K. Khistyaev,  Jaehoon Kim,  P. Klunzinger,  K. Koh,  D. Kosenkov,  
 L. Koulias,  T. Kowalczyk,  C. M. Krauter,  A. Kunitsa,  Ka Un Lao,  
 A. Laurent,  K. V. Lawler,  Joonho Lee,  D. Lefrancois,  S. Lehtola,  
 D. S. Levine,  Yi-Pei Li,  You-Sheng Lin,  Fenglai Liu,  E. Livshits,  
 A. Luenser,  P. Manohar,  E. Mansoor,  S. F. Manzer,  Shan-Ping Mao,  
 Yuezhi Mao,  N. Mardirossian,  A. V. Marenich,  T. Markovich,  
 L. A. Martinez-Martinez,  S. A. Maurer,  N. J. Mayhall,  S. C. McKenzie,  
 J.-M. Mewes,  A. F. Morrison,  J. W. Mullinax,  K. Nanda,  
 T. S. Nguyen-Beck,  R. Olivares-Amaya,  J. A. Parkhill,  T. M. Perrine,  
 F. Plasser,  S. Prager,  A. Prociuk,  E. Ramos,  D. R. Rehn,  F. Rob,  
 M. Schneider,  N. Sergueev,  S. M. Sharada,  S. Sharma,  D. W. Small,  
 T. Stauch,  T. Stein,  Yu-Chuan Su,  A. J. W. Thom,  A. Tkatchenko,  
 T. Tsuchimochi,  L. Vogt,  O. Vydrov,  M. A. Watson,  J. Wenzel,  
 M. de Wergifosse,  T. A. Wesolowski,  A. White,  J. Witte,  A. Yamada,  
 Jun Yang,  K. Yao,  S. Yeganeh,  S. R. Yost,  Zhi-Qiang You,  A. Zech,  
 Igor Ying Zhang,  Xing Zhang,  Yan Zhao,  Ying Zhu,  B. R. Brooks,  
 G. K. L. Chan,  C. J. Cramer,  M. S. Gordon,  W. J. Hehre,  A. Klamt,  
 M. W. Schmidt,  C. D. Sherrill,  D. G. Truhlar,  A. Aspuru-Guzik,  R. Baer,  
 A. T. Bell,  N. A. Besley,  Jeng-Da Chai,  R. A. DiStasio Jr.,  A. Dreuw,  
 B. D. Dunietz,  T. R. Furlani,  Chao-Ping Hsu,  Yousung Jung,  Jing Kong,  
 D. S. Lambrecht,  WanZhen Liang,  C. Ochsenfeld,  V. A. Rassolov,  
 L. V. Slipchenko,  J. E. Subotnik,  T. Van Voorhis,  J. M. Herbert,  
 A. I. Krylov,  P. M. W. Gill,  M. Head-Gordon

 Contributors to earlier versions of Q-Chem not listed above: 
 R. D. Adamson,  B. Austin,  J. Baker,  G. J. O. Beran,  K. Brandhorst,  
 S. T. Brown,  E. F. C. Byrd,  A. K. Chakraborty,  C.-L. Cheng,  
 Siu Hung Chien,  D. M. Chipman,  D. L. Crittenden,  H. Dachsel,  
 R. J. Doerksen,  A. D. Dutoi,  L. Fusti-Molnar,  W. A. Goddard III,  
 A. Golubeva-Zadorozhnaya,  S. R. Gwaltney,  G. Hawkins,  A. Heyden,  
 S. Hirata,  G. Kedziora,  F. J. Keil,  C. Kelley,  Jihan Kim,  R. A. King,  
 R. Z. Khaliullin,  P. P. Korambath,  W. Kurlancheek,  A. M. Lee,  M. S. Lee,  
 S. V. Levchenko,  Ching Yeh Lin,  D. Liotard,  R. C. Lochan,  I. Lotan,  
 P. E. Maslen,  N. Nair,  D. P. O'Neill,  D. Neuhauser,  E. Neuscamman,  
 C. M. Oana,  R. Olson,  B. Peters,  R. Peverati,  P. A. Pieniazek,  
 Y. M. Rhee,  J. Ritchie,  M. A. Rohrdanz,  E. Rosta,  N. J. Russ,  
 H. F. Schaefer III,  N. E. Schultz,  N. Shenvi,  A. C. Simmonett,  A. Sodt,  
 D. Stuck,  K. S. Thanthiriwatte,  V. Vanovschi,  Tao Wang,  A. Warshel,  
 C. F. Williams,  Q. Wu,  X. Xu,  W. Zhang

 Please cite Q-Chem as follows:
 Y. Shao et al., Mol. Phys. 113, 184-215 (2015)
 DOI: 10.1080/00268976.2014.952696

 Q-Chem 5.0.2 for Intel X86 EM64T Linux

 Parts of Q-Chem use Armadillo 5.200.1 (Boston Tea Smuggler).
 http://arma.sourceforge.net/

 Q-Chem begins on Wed Mar  2 16:23:16 2022  

Host: 
0

     Scratch files written to ./irc_product.d//
 Dec517 15110_ 26548  26544 5633   
Processing $rem in /home/leeping/opt/qchem/5.0.2-openmp/config/preferences.
 MEM_STATIC 2000
 MEM_TOTAL  8000
 SYMMETRY   OFF
 SYM_IGNORE TRUE 

Checking the input file for inconsistencies... 	...done.

--------------------------------------------------------------
User input:
--------------------------------------------------------------
$molecule
0 2
C        1.3274956951    0.0140067812    0.0229865284
C        0.5619765909   -0.9763582015    0.8069854371
C       -0.7908486313   -0.9677433381    0.8238110636
C       -1.5457866721    0.1169311505    0.2164823651
C       -0.9249476557    1.1174589417   -0.4409778531
N        0.4677813203    1.1024524166   -0.7105698846
H        2.2422554878    0.4022316366    0.4762899542
H        1.1251655670   -1.6818633271    1.4146285797
H       -1.3290477846   -1.7094985946    1.4062270960
H       -2.6126900720    0.1855749833    0.4017185204
H       -1.4292314527    2.0342469995   -0.7309663062
C        1.1208330676    0.0991195199   -1.4232777699
H        1.7870445397    0.2634410319   -2.2633377306
$end

$rem
method                b3lyp
basis                 6-31+g(d,p)
unrestricted          true
symmetry              off
sym_ignore            true
incdft                false
incfock               0
scf_convergence       8
thresh                14
jobtype               sp
scf_guess             core
scf_guess_mix         5
scf_algorithm         diis
max_scf_cycles        100
$end

--------------------------------------------------------------
 ----------------------------------------------------------------
             Standard Nuclear Orientation (Angstroms)
    I     Atom           X                Y                Z
 ----------------------------------------------------------------
    1      C       1.3274956951     0.0140067812     0.0229865284
    2      C       0.5619765909    -0.9763582015     0.8069854371
    3      C      -0.7908486313    -0.9677433381     0.8238110636
    4      C      -1.5457866721     0.1169311505     0.2164823651
    5      C      -0.9249476557     1.1174589417    -0.4409778531
    6      N       0.4677813203     1.1024524166    -0.7105698846
    7      H       2.2422554878     0.4022316366     0.4762899542
    8      H       1.1251655670    -1.6818633271     1.4146285797
    9      H      -1.3290477846    -1.7094985946     1.4062270960
   10      H      -2.6126900720     0.1855749833     0.4017185204
   11      H      -1.4292314527     2.0342469995    -0.7309663062
   12      C       1.1208330676     0.0991195199    -1.4232777699
   13      H       1.7870445397     0.2634410319    -2.2633377306
 ----------------------------------------------------------------
 Nuclear Repulsion Energy =   269.8386609209 hartrees
 There are       25 alpha and       24 beta electrons
 Requested basis set is 6-31+G(d,p)
 There are 53 shells and 163 basis functions

 Total QAlloc Memory Limit   8000 MB
 Mega-Array Size      1956 MB
 MEM_STATIC part      2000 MB

                       Distance Matrix (Angstroms)
             C (  1)   C (  2)   C (  3)   C (  4)   C (  5)   N (  6)
   C (  2)  1.476989
   C (  3)  2.468306  1.352957
   C (  4)  2.881629  2.446761  1.454407
   C (  5)  2.550759  2.855245  2.442487  1.348611
   N (  6)  1.569053  2.575519  2.867784  2.425930  1.418661
   H (  7)  1.092240  2.198456  3.346240  3.807645  3.374034  2.246710
   H (  8)  2.203084  1.088186  2.128413  3.435870  3.934774  3.563851
   H (  9)  3.455582  2.114842  1.085849  2.190505  3.401052  3.951771
   H ( 10)  3.962062  3.404826  2.197137  1.085038  2.104048  3.401052
   H ( 11)  3.499909  3.923512  3.440467  2.141809  1.085770  2.113602
   C ( 12)  1.463432  2.538316  3.137217  3.130494  2.487398  1.393236
   H ( 13)  2.345353  3.530549  4.206166  4.156770  3.377165  2.203516
             H (  7)   H (  8)   H (  9)   H ( 10)   H ( 11)   C ( 12)
   H (  8)  2.543977
   H (  9)  4.251870  2.454383
   H ( 10)  4.860350  4.299404  2.499616
   H ( 11)  4.195326  4.993796  4.311991  2.470048
   C ( 12)  2.226617  3.350467  4.156815  4.156595  3.275186
   H ( 13)  2.780655  4.213043  5.202714  5.144536  3.978486  1.084684

 
 A cutoff of  1.0D-14 yielded   1373 shell pairs
 There are     13425 function pairs
 
 -------------------------------------------------------
 OpenMP Integral Computing Module                       
 Release: version 1.0, May 2013, Q-Chem Inc. Pittsburgh 
 -------------------------------------------------------
 Integral Job Info:
 Integral job number is                      11
 Integral operator is                         1
 short-range coefficients                     0
 long-range coefficients              100000000
 Omega coefficients                           0
 if combine SR and LR in K                    0
 Integral screening is                        0
 Integral computing path is                   2
 max size of driver memory is            800000
 size of driver memory is                593474
 size of scratch memory is              2361544
 max col of scratch BK array               1296
 max len of scratch array in speh3          155
 max len of scratch index in speh4           18
 max int batch size is                      520
 min int batch size is                       52
 fixed nKL is                                52
 max L of basis functions is                  2
 order of int derivative is                   0
 number of shells is                         53
 number of basis is                         163
 number of cartesian basis is               163
 number of contracted shell pairs          1373
 number of primitive shell pairs           4634
 maxK2 (contraction) of shell pair           36
 max number of K2 of shell pair               1
 max number of CS2 of shell pair            130
 max number of PS2 of shell pair            678
 mem total for path MDJ                  535308
 -------------------------------------------------------
 Smallest overlap matrix eigenvalue = 1.82E-05

 Scale SEOQF with 1.000000e-01/1.000000e-01/1.000000e-01

 Standard Electronic Orientation quadrupole field applied
 Nucleus-field energy     =     0.0000000012 hartrees
 Guess MOs from core Hamiltonian diagonalization
 Mixing HOMO and LUMO in initial guess
 Adding  50% of the LUMO to the HOMO
 An unrestricted hybrid HF-DFT SCF calculation will be
 performed using Pulay DIIS extrapolation
 Exchange:     0.2000 Hartree-Fock + 0.0800 Slater + 0.7200 B88
 Correlation:  0.1900 VWN1RPA + 0.8100 LYP
 Using SG-1 standard quadrature grid
 SCF converges when DIIS error is below 1.0E-08
 using 4 threads for integral computing
 -------------------------------------------------------
 OpenMP Integral computing Module                
 Release: version 1.0, May 2013, Q-Chem Inc. Pittsburgh 
 -------------------------------------------------------
 -------------------------------------------------------
 OpenMP BLAS3 based DFT computing Module                
 Release: version 1.0, May 2013, Q-Chem Inc. Pittsburgh 
 -------------------------------------------------------
 ---------------------------------------
  Cycle       Energy         DIIS Error
 ---------------------------------------
    1    -236.4347553937      9.71E-02
    2    -214.4744076006      7.27E-02
    3    -248.0890052621      8.03E-02
    4    -280.6991627126      3.64E-02
    5    -279.4286104574      3.95E-02
    6    -285.5129954733      1.62E-02
    7    -286.0084831191      1.42E-02
    8    -286.7828275781      4.66E-03
    9    -286.8343787043      2.86E-03
   10    -286.8611210615      5.91E-04
   11    -286.8621666032      2.25E-04
   12    -286.8623999844      1.02E-04
   13    -286.8624613726      4.17E-05
   14    -286.8624733151      1.85E-05
   15    -286.8624799091      4.63E-06
   16    -286.8624810502      1.76E-06
   17    -286.8624815061      7.83E-07
   18    -286.8624818166      2.61E-07
   19    -286.8624819722      1.08E-07
   20    -286.8624820296      6.58E-08
   21    -286.8624820661      3.57E-08
   22    -286.8624820771      6.21E-09 Convergence criterion met
 ---------------------------------------
 <S^2> = 0.7534
 SCF time:  CPU 110.87 s  wall 42.40 s
 SCF   energy in the final basis set = -286.86248208
 Total energy in the final basis set = -286.86248208
 
 --------------------------------------------------------------
 
                    Orbital Energies (a.u.)
 --------------------------------------------------------------
 
 Alpha MOs
 -- Occupied --
-14.372 -10.241 -10.234 -10.231 -10.207 -10.204 -10.200  -0.993
 -0.817  -0.784  -0.672  -0.648  -0.578  -0.529  -0.502  -0.487
 -0.460  -0.433  -0.399  -0.378  -0.366  -0.319  -0.286  -0.233
 -0.200
 -- Virtual --
 -0.045   0.006   0.019   0.023   0.035   0.037   0.046   0.048
  0.070   0.072   0.078   0.087   0.096   0.113   0.117   0.122
  0.133   0.138   0.143   0.146   0.158   0.177   0.184   0.188
  0.196   0.198   0.206   0.211   0.217   0.235   0.241   0.257
  0.269   0.280   0.282   0.300   0.306   0.320   0.340   0.351
  0.354   0.387   0.487   0.510   0.601   0.616   0.657   0.674
  0.690   0.713   0.728   0.738   0.748   0.760   0.776   0.783
  0.796   0.868   0.899   0.911   0.932   0.944   0.949   0.975
  0.999   1.021   1.038   1.055   1.096   1.121   1.130   1.152
  1.193   1.217   1.240   1.287   1.354   1.365   1.420   1.439
  1.520   1.557   1.571   1.673   1.696   1.747   1.822   1.850
  1.858   1.878   1.931   1.939   1.967   1.990   2.023   2.075
  2.114   2.162   2.178   2.217   2.296   2.339   2.376   2.382
  2.401   2.413   2.432   2.466   2.486   2.512   2.530   2.552
  2.594   2.600   2.619   2.676   2.693   2.706   2.760   2.850
  2.890   2.933   3.016   3.123   3.259   3.278   3.306   3.335
  3.445   3.561   3.788   4.196   4.313   4.356   4.430   4.510
  4.552   4.744
 
 Beta MOs
 -- Occupied --
-14.369 -10.242 -10.230 -10.221 -10.206 -10.204 -10.200  -0.984
 -0.815  -0.781  -0.665  -0.647  -0.564  -0.524  -0.496  -0.485
 -0.451  -0.427  -0.394  -0.375  -0.364  -0.308  -0.280  -0.219
 -- Virtual --
 -0.070  -0.043   0.007   0.019   0.024   0.036   0.038   0.047
  0.050   0.071   0.075   0.083   0.087   0.096   0.114   0.117
  0.123   0.133   0.139   0.144   0.147   0.158   0.178   0.186
  0.190   0.198   0.201   0.210   0.211   0.220   0.238   0.244
  0.260   0.272   0.281   0.285   0.304   0.309   0.323   0.346
  0.357   0.359   0.399   0.490   0.511   0.606   0.618   0.662
  0.686   0.695   0.717   0.736   0.740   0.752   0.767   0.779
  0.786   0.810   0.871   0.899   0.914   0.932   0.945   0.957
  0.976   1.003   1.027   1.043   1.060   1.098   1.124   1.137
  1.154   1.199   1.220   1.242   1.296   1.358   1.367   1.422
  1.442   1.532   1.565   1.575   1.685   1.706   1.752   1.827
  1.861   1.870   1.888   1.935   1.944   1.970   1.994   2.025
  2.077   2.124   2.173   2.186   2.227   2.303   2.345   2.376
  2.386   2.406   2.415   2.433   2.468   2.488   2.514   2.532
  2.557   2.598   2.604   2.637   2.679   2.696   2.711   2.771
  2.858   2.893   2.941   3.019   3.126   3.259   3.279   3.307
  3.339   3.449   3.570   3.789   4.202   4.314   4.356   4.434
  4.534   4.556   4.745
 --------------------------------------------------------------
 
          Ground-State Mulliken Net Atomic Charges

     Atom                 Charge (a.u.)    Spin (a.u.)
  --------------------------------------------------------
      1 C                    -0.075542      -0.090172
      2 C                     0.004767       0.039372
      3 C                    -0.220049      -0.020485
      4 C                     0.094200       0.081362
      5 C                    -0.215655      -0.101564
      6 N                    -0.161109       0.123999
      7 H                     0.142601       0.005727
      8 H                     0.130862      -0.001306
      9 H                     0.126706       0.000533
     10 H                     0.127143       0.002714
     11 H                     0.135520      -0.001416
     12 C                    -0.231011       0.956078
     13 H                     0.141566       0.005159
  --------------------------------------------------------
  Sum of atomic charges =    -0.000000
  Sum of spin   charges =     1.000000

 -----------------------------------------------------------------
                    Cartesian Multipole Moments
 -----------------------------------------------------------------
    Charge (ESU x 10^10)
                 0.0000
    Dipole Moment (Debye)
         X       0.0680      Y      -0.5019      Z       0.6504
       Tot       0.8243
    Quadrupole Moments (Debye-Ang)
        XX     -36.7099     XY      -1.4814     YY     -42.9413
        XZ      -0.8132     YZ      -2.6023     ZZ     -41.9077
    Octopole Moments (Debye-Ang^2)
       XXX      -3.6753    XXY      -1.7588    XYY      -6.0160
       YYY      -9.6038    XXZ       4.5990    XYZ       1.9345
       YYZ       7.5124    XZZ       4.1089    YZZ      -3.5017
       ZZZ       6.8719
    Hexadecapole Moments (Debye-Ang^3)
      XXXX    -342.3514   XXXY       9.2453   XXYY     -97.0907
      XYYY      -1.5343   YYYY    -238.6886   XXXZ      32.1089
      XXYZ      14.2883   XYYZ      18.4643   YYYZ      53.8787
      XXZZ     -90.8277   XYZZ       4.4523   YYZZ     -74.4036
      XZZZ      28.9165   YZZZ      54.6581   ZZZZ    -224.9451
 -----------------------------------------------------------------
Archival summary:
1\1\c8-72\SP\ProcedureUnspecified\6-31+G**\166(2)\hpark21\WedMar216:24:052022WedMar216:24:052022\0\\#,ProcedureUnspecified,6-31+G**,\\0,2\N\C,1,1.39324\H,2,1.08468,1,125.098\C,1,1.41866,2,124.402,3,128.875,0\H,4,1.08577,1,114.465,2,-127.305,0\C,4,1.34861,1,122.462,2,57.6657,0\H,6,1.08504,4,119.272,1,179.516,0\C,6,1.45441,4,121.192,1,7.19016,0\H,8,1.08585,6,118.435,4,175.435,0\C,8,1.35296,6,121.237,4,3.28232,0\H,10,1.08819,8,120.976,6,168.524,0\C,2,1.46343,1,66.5798,3,127.682,0\H,12,1.09224,2,120.514,1,-99.1794,0\\\@

 Total job time:  49.92s(wall), 112.62s(cpu) 
 Wed Mar  2 16:24:06 2022

        *************************************************************
        *                                                           *
        *  Thank you very much for using Q-Chem.  Have a nice day.  *
        *                                                           *
        *************************************************************


