
Running Job 1 of 1 qcopt_prd.in
qchem qcopt_prd.in_30003.0 ./qcopt_prd.d/ 1
/home/leeping/opt/qchem/5.0.2-openmp/exe/qcprog.exe_s qcopt_prd.in_30003.0 ./qcopt_prd.d/
Check license passed

                  Welcome to Q-Chem
     A Quantum Leap Into The Future Of Chemistry


 Q-Chem 5.0, Q-Chem, Inc., Pleasanton, CA (2017)

 Yihan Shao,  Zhengting Gan,  E. Epifanovsky,  A. T. B. Gilbert,  M. Wormit,  
 J. Kussmann,  A. W. Lange,  A. Behn,  Jia Deng,  Xintian Feng,  D. Ghosh,  
 M. Goldey,  P. R. Horn,  L. D. Jacobson,  I. Kaliman,  T. Kus,  A. Landau,  
 Jie Liu,  E. I. Proynov,  R. M. Richard,  R. P. Steele,  E. J. Sundstrom,  
 H. L. Woodcock III,  P. M. Zimmerman,  D. Zuev,  B. Albrecht,  E. Alguire,  
 S. A. Baeppler,  D. Barton,  Z. Benda,  Y. A. Bernard,  E. J. Berquist,  
 K. B. Bravaya,  H. Burton,  D. Casanova,  Chun-Min Chang,  Yunqing Chen,  
 A. Chien,  K. D. Closser,  M. P. Coons,  S. Dasgupta,  A. L. Dempwolff,  
 M. Diedenhofen,  Hainam Do,  R. G. Edgar,  Po-Tung Fang,  S. Fatehi,  
 Qingguo Feng,  J. Fosso-Tande,  Qinghui Ge,  A. Ghysels,  G. Gidofalvi,  
 J. Gomes,  J. Gonthier,  A. Gunina,  M. W. D. Hanson-Heine,  
 P. H. P. Harbach,  A. W. Hauser,  J. E. Herr,  E. G. Hohenstein,  
 Z. C. Holden,  Kerwin Hui,  T.-C. Jagau,  Hyunjun Ji,  B. Kaduk,  
 K. Khistyaev,  Jaehoon Kim,  P. Klunzinger,  K. Koh,  D. Kosenkov,  
 L. Koulias,  T. Kowalczyk,  C. M. Krauter,  A. Kunitsa,  Ka Un Lao,  
 A. Laurent,  K. V. Lawler,  Joonho Lee,  D. Lefrancois,  S. Lehtola,  
 D. S. Levine,  Yi-Pei Li,  You-Sheng Lin,  Fenglai Liu,  E. Livshits,  
 A. Luenser,  P. Manohar,  E. Mansoor,  S. F. Manzer,  Shan-Ping Mao,  
 Yuezhi Mao,  N. Mardirossian,  A. V. Marenich,  T. Markovich,  
 L. A. Martinez-Martinez,  S. A. Maurer,  N. J. Mayhall,  S. C. McKenzie,  
 J.-M. Mewes,  A. F. Morrison,  J. W. Mullinax,  K. Nanda,  
 T. S. Nguyen-Beck,  R. Olivares-Amaya,  J. A. Parkhill,  T. M. Perrine,  
 F. Plasser,  S. Prager,  A. Prociuk,  E. Ramos,  D. R. Rehn,  F. Rob,  
 M. Schneider,  N. Sergueev,  S. M. Sharada,  S. Sharma,  D. W. Small,  
 T. Stauch,  T. Stein,  Yu-Chuan Su,  A. J. W. Thom,  A. Tkatchenko,  
 T. Tsuchimochi,  L. Vogt,  O. Vydrov,  M. A. Watson,  J. Wenzel,  
 M. de Wergifosse,  T. A. Wesolowski,  A. White,  J. Witte,  A. Yamada,  
 Jun Yang,  K. Yao,  S. Yeganeh,  S. R. Yost,  Zhi-Qiang You,  A. Zech,  
 Igor Ying Zhang,  Xing Zhang,  Yan Zhao,  Ying Zhu,  B. R. Brooks,  
 G. K. L. Chan,  C. J. Cramer,  M. S. Gordon,  W. J. Hehre,  A. Klamt,  
 M. W. Schmidt,  C. D. Sherrill,  D. G. Truhlar,  A. Aspuru-Guzik,  R. Baer,  
 A. T. Bell,  N. A. Besley,  Jeng-Da Chai,  R. A. DiStasio Jr.,  A. Dreuw,  
 B. D. Dunietz,  T. R. Furlani,  Chao-Ping Hsu,  Yousung Jung,  Jing Kong,  
 D. S. Lambrecht,  WanZhen Liang,  C. Ochsenfeld,  V. A. Rassolov,  
 L. V. Slipchenko,  J. E. Subotnik,  T. Van Voorhis,  J. M. Herbert,  
 A. I. Krylov,  P. M. W. Gill,  M. Head-Gordon

 Contributors to earlier versions of Q-Chem not listed above: 
 R. D. Adamson,  B. Austin,  J. Baker,  G. J. O. Beran,  K. Brandhorst,  
 S. T. Brown,  E. F. C. Byrd,  A. K. Chakraborty,  C.-L. Cheng,  
 Siu Hung Chien,  D. M. Chipman,  D. L. Crittenden,  H. Dachsel,  
 R. J. Doerksen,  A. D. Dutoi,  L. Fusti-Molnar,  W. A. Goddard III,  
 A. Golubeva-Zadorozhnaya,  S. R. Gwaltney,  G. Hawkins,  A. Heyden,  
 S. Hirata,  G. Kedziora,  F. J. Keil,  C. Kelley,  Jihan Kim,  R. A. King,  
 R. Z. Khaliullin,  P. P. Korambath,  W. Kurlancheek,  A. M. Lee,  M. S. Lee,  
 S. V. Levchenko,  Ching Yeh Lin,  D. Liotard,  R. C. Lochan,  I. Lotan,  
 P. E. Maslen,  N. Nair,  D. P. O'Neill,  D. Neuhauser,  E. Neuscamman,  
 C. M. Oana,  R. Olson,  B. Peters,  R. Peverati,  P. A. Pieniazek,  
 Y. M. Rhee,  J. Ritchie,  M. A. Rohrdanz,  E. Rosta,  N. J. Russ,  
 H. F. Schaefer III,  N. E. Schultz,  N. Shenvi,  A. C. Simmonett,  A. Sodt,  
 D. Stuck,  K. S. Thanthiriwatte,  V. Vanovschi,  Tao Wang,  A. Warshel,  
 C. F. Williams,  Q. Wu,  X. Xu,  W. Zhang

 Please cite Q-Chem as follows:
 Y. Shao et al., Mol. Phys. 113, 184-215 (2015)
 DOI: 10.1080/00268976.2014.952696

 Q-Chem 5.0.2 for Intel X86 EM64T Linux

 Parts of Q-Chem use Armadillo 5.200.1 (Boston Tea Smuggler).
 http://arma.sourceforge.net/

 Q-Chem begins on Wed Mar  2 11:55:22 2022  

Host: 
0

     Scratch files written to ./qcopt_prd.d//
 Dec517 15110_ 26548  26544 5633   
Processing $rem in /home/leeping/opt/qchem/5.0.2-openmp/config/preferences.
 MEM_STATIC 2000
 MEM_TOTAL  8000
 SYMMETRY   OFF
 SYM_IGNORE TRUE 

Checking the input file for inconsistencies... 	...done.

--------------------------------------------------------------
User input:
--------------------------------------------------------------
$molecule
0 2
C        1.3039598563    0.7965268478   -0.7228682282
C        0.4951139294   -1.2759311870    0.5015500873
C       -0.8219571704   -0.9828837305    0.6939385684
C       -1.5121013535    0.2121170641    0.2815789290
C       -0.9986928380    1.3072033124   -0.3890205457
N        0.2333656991    1.6160727984   -0.8545094442
H        2.2045231627    1.2285811855   -1.1647175560
H        0.8540334735   -2.2313644080    0.8789290893
H       -1.4267849242   -1.7242806425    1.2122957954
H       -2.5704297854    0.2642518236    0.5255433424
H       -1.7231217941    2.0982751265   -0.5952876469
C        1.4775882790   -0.4509772900   -0.1549758542
H        2.4845034657   -0.8575909002   -0.2124565365
$end

$rem
method                b3lyp
basis                 6-31g(d)
unrestricted          true
symmetry              off
sym_ignore            true
incdft                false
incfock               0
scf_convergence       8
thresh                14
jobtype               opt
scf_guess             core
scf_guess_mix         5
scf_algorithm         diis
max_scf_cycles        100
geom_opt_max_cycles   300
$end

--------------------------------------------------------------
 ----------------------------------------------------------------
             Standard Nuclear Orientation (Angstroms)
    I     Atom           X                Y                Z
 ----------------------------------------------------------------
    1      C       1.3039598563     0.7965268478    -0.7228682282
    2      C       0.4951139294    -1.2759311870     0.5015500873
    3      C      -0.8219571704    -0.9828837305     0.6939385684
    4      C      -1.5121013535     0.2121170641     0.2815789290
    5      C      -0.9986928380     1.3072033124    -0.3890205457
    6      N       0.2333656991     1.6160727984    -0.8545094442
    7      H       2.2045231627     1.2285811855    -1.1647175560
    8      H       0.8540334735    -2.2313644080     0.8789290893
    9      H      -1.4267849242    -1.7242806425     1.2122957954
   10      H      -2.5704297854     0.2642518236     0.5255433424
   11      H      -1.7231217941     2.0982751265    -0.5952876469
   12      C       1.4775882790    -0.4509772900    -0.1549758542
   13      H       2.4845034657    -0.8575909002    -0.2124565365
 ----------------------------------------------------------------
 Nuclear Repulsion Energy =   260.7242766924 hartrees
 There are       25 alpha and       24 beta electrons
 Requested basis set is 6-31G(d)
 There are 40 shells and 117 basis functions

 Total QAlloc Memory Limit   8000 MB
 Mega-Array Size      1956 MB
 MEM_STATIC part      2000 MB
 A cutoff of  1.0D-14 yielded    791 shell pairs
 There are      7063 function pairs
 
 -------------------------------------------------------
 OpenMP Integral Computing Module                       
 Release: version 1.0, May 2013, Q-Chem Inc. Pittsburgh 
 -------------------------------------------------------
 Integral Job Info:
 Integral job number is                      11
 Integral operator is                         1
 short-range coefficients                     0
 long-range coefficients              100000000
 Omega coefficients                           0
 if combine SR and LR in K                    0
 Integral screening is                        0
 Integral computing path is                   2
 max size of driver memory is            800000
 size of driver memory is                593474
 size of scratch memory is              2361544
 max col of scratch BK array               1296
 max len of scratch array in speh3          155
 max len of scratch index in speh4           18
 max int batch size is                      520
 min int batch size is                       52
 fixed nKL is                                52
 max L of basis functions is                  2
 order of int derivative is                   0
 number of shells is                         40
 number of basis is                         117
 number of cartesian basis is               117
 number of contracted shell pairs           791
 number of primitive shell pairs           3395
 maxK2 (contraction) of shell pair           36
 max number of K2 of shell pair               1
 max number of CS2 of shell pair             94
 max number of PS2 of shell pair            402
 mem total for path MDJ                  535308
 -------------------------------------------------------
 Smallest overlap matrix eigenvalue = 1.33E-03

 Scale SEOQF with 1.000000e-01/1.000000e-01/1.000000e+00

 Standard Electronic Orientation quadrupole field applied
 Nucleus-field energy     =    -0.0000000126 hartrees
 Guess MOs from core Hamiltonian diagonalization
 Mixing HOMO and LUMO in initial guess
 Adding  50% of the LUMO to the HOMO
 An unrestricted hybrid HF-DFT SCF calculation will be
 performed using Pulay DIIS extrapolation
 Exchange:     0.2000 Hartree-Fock + 0.0800 Slater + 0.7200 B88
 Correlation:  0.1900 VWN1RPA + 0.8100 LYP
 Using SG-1 standard quadrature grid
 SCF converges when DIIS error is below 1.0E-08
 using 4 threads for integral computing
 -------------------------------------------------------
 OpenMP Integral computing Module                
 Release: version 1.0, May 2013, Q-Chem Inc. Pittsburgh 
 -------------------------------------------------------
 -------------------------------------------------------
 OpenMP BLAS3 based DFT computing Module                
 Release: version 1.0, May 2013, Q-Chem Inc. Pittsburgh 
 -------------------------------------------------------
 ---------------------------------------
  Cycle       Energy         DIIS Error
 ---------------------------------------
    1    -239.4927899457      1.26E-01
    2    -227.9040939332      1.03E-01
    3    -250.2599212133      1.03E-01
    4    -281.9135452644      4.85E-02
    5    -282.4517162406      4.74E-02
    6    -285.5299740276      2.31E-02
    7    -286.6136511147      1.25E-02
    8    -286.8607452076      4.94E-03
    9    -286.9210076353      8.97E-04
   10    -286.9229583432      7.34E-04
   11    -286.9239708272      1.82E-04
   12    -286.9241714028      8.31E-05
   13    -286.9242572597      4.88E-05
   14    -286.9243075731      1.20E-05
   15    -286.9243164345      4.80E-06
   16    -286.9243181240      2.94E-06
   17    -286.9243187094      6.79E-07
   18    -286.9243187442      2.88E-07
   19    -286.9243187482      9.53E-08
   20    -286.9243187487      3.13E-08
   21    -286.9243187487      1.11E-08
   22    -286.9243187487      5.54E-09 Convergence criterion met
 ---------------------------------------
 <S^2> = 0.7684
 SCF time:  CPU 55.85 s  wall 55.14 s
 SCF   energy in the final basis set = -286.92431875
 Total energy in the final basis set = -286.92431875
 
 --------------------------------------------------------------
 
                    Orbital Energies (a.u.)
 --------------------------------------------------------------
 
 Alpha MOs
 -- Occupied --
-14.322 -10.232 -10.232 -10.212 -10.211 -10.201 -10.200  -0.922
 -0.818  -0.784  -0.693  -0.667  -0.551  -0.537  -0.518  -0.449
 -0.439  -0.414  -0.394  -0.386  -0.349  -0.322  -0.299  -0.251
 -0.162
 -- Virtual --
 -0.072   0.077   0.097   0.101   0.117   0.142   0.181   0.184
  0.193   0.213   0.266   0.320   0.357   0.390   0.412   0.483
  0.496   0.521   0.547   0.576   0.584   0.587   0.591   0.610
  0.619   0.624   0.646   0.658   0.713   0.718   0.833   0.840
  0.847   0.854   0.868   0.872   0.885   0.922   0.965   0.975
  1.024   1.027   1.043   1.127   1.177   1.185   1.300   1.303
  1.326   1.401   1.429   1.480   1.482   1.546   1.574   1.586
  1.682   1.732   1.769   1.829   1.850   1.919   1.925   2.030
  2.046   2.048   2.100   2.141   2.142   2.191   2.247   2.391
  2.410   2.415   2.446   2.545   2.577   2.600   2.614   2.739
  2.748   2.807   3.052   3.249   3.251   4.018   4.046   4.102
  4.196   4.239   4.532   4.595
 
 Beta MOs
 -- Occupied --
-14.314 -10.234 -10.233 -10.210 -10.210 -10.196 -10.196  -0.911
 -0.809  -0.777  -0.681  -0.665  -0.546  -0.535  -0.514  -0.447
 -0.438  -0.411  -0.383  -0.373  -0.348  -0.295  -0.276  -0.242
 -- Virtual --
 -0.078  -0.070   0.078   0.118   0.124   0.125   0.142   0.182
  0.187   0.196   0.219   0.268   0.324   0.360   0.393   0.415
  0.486   0.505   0.525   0.551   0.587   0.588   0.592   0.596
  0.614   0.624   0.629   0.649   0.676   0.715   0.729   0.834
  0.843   0.846   0.869   0.875   0.880   0.887   0.925   0.967
  0.979   1.026   1.030   1.045   1.133   1.180   1.189   1.311
  1.315   1.333   1.411   1.429   1.489   1.492   1.560   1.582
  1.597   1.685   1.737   1.781   1.831   1.854   1.922   1.933
  2.036   2.058   2.061   2.110   2.141   2.147   2.203   2.259
  2.399   2.422   2.426   2.448   2.558   2.579   2.611   2.624
  2.742   2.761   2.810   3.054   3.252   3.254   4.030   4.053
  4.109   4.200   4.239   4.537   4.601
 --------------------------------------------------------------
 
          Ground-State Mulliken Net Atomic Charges

     Atom                 Charge (a.u.)    Spin (a.u.)
  --------------------------------------------------------
      1 C                     0.035056      -0.110059
      2 C                    -0.111825       0.099124
      3 C                    -0.110728       0.088401
      4 C                    -0.132060       0.351100
      5 C                     0.036134      -0.115089
      6 N                    -0.423429       0.386993
      7 H                     0.142639       0.003278
      8 H                     0.141927      -0.006895
      9 H                     0.141968      -0.006381
     10 H                     0.134339      -0.018523
     11 H                     0.142581       0.003525
     12 C                    -0.131045       0.342661
     13 H                     0.134443      -0.018134
  --------------------------------------------------------
  Sum of atomic charges =    -0.000000
  Sum of spin   charges =     1.000000

 -----------------------------------------------------------------
                    Cartesian Multipole Moments
 -----------------------------------------------------------------
    Charge (ESU x 10^10)
                -0.0000
    Dipole Moment (Debye)
         X      -0.2854      Y      -1.9683      Z       1.0400
       Tot       2.2444
    Quadrupole Moments (Debye-Ang)
        XX     -34.8630     XY      -1.7704     YY     -42.1711
        XZ      -1.2937     YZ      -0.1321     ZZ     -42.9679
    Octopole Moments (Debye-Ang^2)
       XXX      -1.5994    XXY      -4.0120    XYY      -3.6846
       YYY     -30.6862    XXZ       1.9734    XYZ       1.1175
       YYZ      10.8061    XZZ      -1.1162    YZZ      -9.5225
       ZZZ      10.5433
    Hexadecapole Moments (Debye-Ang^3)
      XXXX    -359.0788   XXXY      13.9458   XXYY    -111.2898
      XYYY       5.5328   YYYY    -362.3435   XXXZ      24.9442
      XXYZ      16.0673   XYYZ      14.4239   YYYZ      75.1839
      XXZZ     -85.7016   XYZZ       8.0523   YYZZ     -84.8479
      XZZZ      36.2529   YZZZ      75.0656   ZZZZ    -136.7401
 -----------------------------------------------------------------
 Calculating analytic gradient of the SCF energy
 Gradient of SCF Energy
            1           2           3           4           5           6
    1   0.0002681   0.0000183   0.0000189  -0.0000765   0.0001685  -0.0002898
    2  -0.0002343  -0.0000427   0.0001205  -0.0001039   0.0000485   0.0001517
    3   0.0002352   0.0000460  -0.0000417   0.0000442   0.0000152  -0.0001453
            7           8           9          10          11          12
    1  -0.0000353  -0.0000211  -0.0000138   0.0000152   0.0000119  -0.0000661
    2   0.0000063  -0.0000062  -0.0000126   0.0000091   0.0000031   0.0000577
    3  -0.0000242   0.0000060  -0.0000109   0.0000053  -0.0000353  -0.0000716
           13
    1   0.0000016
    2   0.0000027
    3  -0.0000230
 Max gradient component =       2.898E-04
 RMS gradient           =       1.011E-04
 Gradient time:  CPU 7.30 s  wall 2.34 s
 Geometry Optimization Parameters
   NAtoms,    NIC,     NZ,  NCons,   NDum,   NFix, NCnnct, MaxDiis
       13      82       0       0       0       0       0       0


** GEOMETRY OPTIMIZATION IN DELOCALIZED INTERNAL COORDINATES **
   Searching for a Minimum

   Optimization Cycle:   1

                       Coordinates (Angstroms)
     ATOM                X               Y               Z
      1  C         1.3039598563    0.7965268478   -0.7228682282
      2  C         0.4951139294   -1.2759311870    0.5015500873
      3  C        -0.8219571704   -0.9828837305    0.6939385684
      4  C        -1.5121013535    0.2121170641    0.2815789290
      5  C        -0.9986928380    1.3072033124   -0.3890205457
      6  N         0.2333656991    1.6160727984   -0.8545094442
      7  H         2.2045231627    1.2285811855   -1.1647175560
      8  H         0.8540334735   -2.2313644080    0.8789290893
      9  H        -1.4267849242   -1.7242806425    1.2122957954
     10  H        -2.5704297854    0.2642518236    0.5255433424
     11  H        -1.7231217941    2.0982751265   -0.5952876469
     12  C         1.4775882790   -0.4509772900   -0.1549758542
     13  H         2.4845034657   -0.8575909002   -0.2124565365
   Point Group: c1    Number of degrees of freedom:    33


   Energy is   -286.924318749


 Attempting to Generate Delocalized Internal Coordinates

 33 Hessian modes will be used to form the next step
  Hessian Eigenvalues:
     0.018560    0.019889    0.020882    0.021848    0.022019    0.022696
     0.023100    0.023779    0.024007    0.025342    0.160000    0.160000
     0.160000    0.160000    0.160000    0.160000    0.220000    0.220000
     0.220000    0.233944    0.345472    0.345588    0.350214    0.350262
     0.351106    0.351225    0.382615    0.389796    0.466966    0.484535
     0.507046    0.533512    0.538787

 Minimum Search - Taking Simple RFO Step
 Searching for Lamda that Minimizes Along All modes
 Value Taken    Lamda =   0.00000000
 Step Taken.  Stepsize is  0.004076

                             Maximum     Tolerance    Cnvgd?
         Gradient           0.000158      0.000300     YES
         Displacement       0.002564      0.001200      NO
         Energy change     *********      0.000001      NO


 New Cartesian Coordinates Obtained by Inverse Iteration

 Displacement from previous Coordinates is:  0.002781
 ----------------------------------------------------------------
             Standard Nuclear Orientation (Angstroms)
    I     Atom           X                Y                Z
 ----------------------------------------------------------------
    1      C       1.3037862433     0.7963403226    -0.7235793355
    2      C       0.4950568881    -1.2759114272     0.5013976081
    3      C      -0.8220657155    -0.9830644847     0.6937771954
    4      C      -1.5121576069     0.2120058749     0.2812764614
    5      C      -0.9987761215     1.3071326290    -0.3891130854
    6      N       0.2335113074     1.6160616896    -0.8542268235
    7      H       2.2046724849     1.2286071951    -1.1646275069
    8      H       0.8542293750    -2.2310758640     0.8792139363
    9      H      -1.4267605472    -1.7241905972     1.2126411201
   10      H      -2.5705188659     0.2641755927     0.5251757819
   11      H      -1.7230536602     2.0985482700    -0.5945782512
   12      C       1.4775470865    -0.4510524894    -0.1552250289
   13      H       2.4845291321    -0.8575767114    -0.2121320717
 ----------------------------------------------------------------
 Nuclear Repulsion Energy =   260.7251637540 hartrees
 There are       25 alpha and       24 beta electrons
 Applying Cartesian multipole field
    Component          Value
    ---------          -----
     (2,0,0)        1.00000E-11
     (0,2,0)        2.00000E-11
     (0,0,2)       -3.00000E-10
 Nucleus-field energy     =    -0.0000000126 hartrees
 Requested basis set is 6-31G(d)
 There are 40 shells and 117 basis functions
 A cutoff of  1.0D-14 yielded    791 shell pairs
 There are      7063 function pairs
 Smallest overlap matrix eigenvalue = 1.33E-03
 Guess MOs from SCF MO coefficient file
 Reading MOs from coefficient file
 Mixing HOMO and LUMO in initial guess
 Adding  50% of the LUMO to the HOMO
 Reading MOs from coefficient file
 An unrestricted hybrid HF-DFT SCF calculation will be
 performed using Pulay DIIS extrapolation
 Exchange:     0.2000 Hartree-Fock + 0.0800 Slater + 0.7200 B88
 Correlation:  0.1900 VWN1RPA + 0.8100 LYP
 Using SG-1 standard quadrature grid
 SCF converges when DIIS error is below 1.0E-08
 Geometry optimization detected.  Setting ReadMinima to 0
 Setting SaveMinima to 0
 using 4 threads for integral computing
 -------------------------------------------------------
 OpenMP Integral computing Module                
 Release: version 1.0, May 2013, Q-Chem Inc. Pittsburgh 
 -------------------------------------------------------
 -------------------------------------------------------
 OpenMP BLAS3 based DFT computing Module                
 Release: version 1.0, May 2013, Q-Chem Inc. Pittsburgh 
 -------------------------------------------------------
 ---------------------------------------
  Cycle       Energy         DIIS Error
 ---------------------------------------
    1    -286.9144208437      1.13E-03
    2    -286.9158997777      2.08E-03
    3    -286.9226816935      3.75E-04
    4    -286.9231365829      3.02E-04
    5    -286.9235687618      2.03E-04
    6    -286.9240381095      7.98E-05
    7    -286.9241415963      4.03E-05
    8    -286.9242639124      2.13E-05
    9    -286.9242928042      1.31E-05
   10    -286.9243162581      3.45E-06
   11    -286.9243186093      2.09E-06
   12    -286.9243190457      1.13E-06
   13    -286.9243191012      4.44E-07
   14    -286.9243191209      1.93E-07
   15    -286.9243191250      7.04E-08
   16    -286.9243191253      3.70E-08
   17    -286.9243191254      1.75E-08
   18    -286.9243191254      2.94E-09 Convergence criterion met
 ---------------------------------------
 <S^2> = 0.7684
 SCF time:  CPU 45.57 s  wall 41.17 s
 SCF   energy in the final basis set = -286.92431913
 Total energy in the final basis set = -286.92431913
 
 --------------------------------------------------------------
 
                    Orbital Energies (a.u.)
 --------------------------------------------------------------
 
 Alpha MOs
 -- Occupied --
-14.322 -10.232 -10.232 -10.212 -10.211 -10.201 -10.200  -0.922
 -0.818  -0.784  -0.693  -0.667  -0.551  -0.537  -0.518  -0.449
 -0.439  -0.414  -0.394  -0.386  -0.349  -0.322  -0.299  -0.251
 -0.162
 -- Virtual --
 -0.072   0.077   0.097   0.101   0.117   0.142   0.181   0.184
  0.193   0.213   0.266   0.320   0.356   0.390   0.412   0.483
  0.496   0.521   0.547   0.576   0.584   0.587   0.591   0.610
  0.619   0.624   0.646   0.658   0.713   0.718   0.833   0.840
  0.847   0.854   0.868   0.872   0.885   0.922   0.965   0.975
  1.024   1.027   1.043   1.127   1.177   1.185   1.300   1.303
  1.326   1.401   1.429   1.480   1.482   1.546   1.574   1.586
  1.682   1.732   1.769   1.829   1.850   1.919   1.925   2.030
  2.046   2.048   2.100   2.141   2.142   2.191   2.247   2.391
  2.410   2.415   2.446   2.545   2.577   2.600   2.614   2.739
  2.748   2.808   3.052   3.249   3.250   4.018   4.046   4.102
  4.196   4.239   4.532   4.595
 
 Beta MOs
 -- Occupied --
-14.314 -10.234 -10.233 -10.210 -10.210 -10.196 -10.196  -0.911
 -0.809  -0.777  -0.681  -0.665  -0.546  -0.535  -0.514  -0.447
 -0.438  -0.411  -0.383  -0.373  -0.348  -0.295  -0.276  -0.242
 -- Virtual --
 -0.078  -0.070   0.078   0.118   0.124   0.125   0.142   0.182
  0.187   0.196   0.219   0.268   0.324   0.360   0.393   0.415
  0.486   0.505   0.525   0.551   0.587   0.588   0.592   0.596
  0.614   0.624   0.629   0.649   0.676   0.716   0.729   0.834
  0.843   0.846   0.869   0.875   0.880   0.887   0.925   0.967
  0.979   1.026   1.030   1.045   1.133   1.180   1.189   1.311
  1.315   1.333   1.411   1.429   1.489   1.492   1.560   1.582
  1.597   1.685   1.737   1.781   1.831   1.854   1.922   1.933
  2.036   2.058   2.061   2.110   2.141   2.147   2.203   2.259
  2.399   2.422   2.426   2.448   2.558   2.579   2.611   2.624
  2.742   2.761   2.810   3.054   3.252   3.254   4.030   4.053
  4.109   4.200   4.239   4.537   4.601
 --------------------------------------------------------------
 
          Ground-State Mulliken Net Atomic Charges

     Atom                 Charge (a.u.)    Spin (a.u.)
  --------------------------------------------------------
      1 C                     0.035194      -0.110512
      2 C                    -0.111750       0.098226
      3 C                    -0.110807       0.089286
      4 C                    -0.131987       0.350451
      5 C                     0.036051      -0.114688
      6 N                    -0.423417       0.386931
      7 H                     0.142635       0.003299
      8 H                     0.141926      -0.006852
      9 H                     0.141973      -0.006423
     10 H                     0.134328      -0.018494
     11 H                     0.142590       0.003504
     12 C                    -0.131160       0.343442
     13 H                     0.134424      -0.018170
  --------------------------------------------------------
  Sum of atomic charges =    -0.000000
  Sum of spin   charges =     1.000000

 -----------------------------------------------------------------
                    Cartesian Multipole Moments
 -----------------------------------------------------------------
    Charge (ESU x 10^10)
                -0.0000
    Dipole Moment (Debye)
         X      -0.2852      Y      -1.9679      Z       1.0401
       Tot       2.2441
    Quadrupole Moments (Debye-Ang)
        XX     -34.8628     XY      -1.7708     YY     -42.1730
        XZ      -1.2932     YZ      -0.1342     ZZ     -42.9654
    Octopole Moments (Debye-Ang^2)
       XXX      -1.5920    XXY      -4.0070    XYY      -3.6848
       YYY     -30.6734    XXZ       1.9848    XYZ       1.1150
       YYZ      10.8131    XZZ      -1.1139    YZZ      -9.5188
       ZZZ      10.5621
    Hexadecapole Moments (Debye-Ang^3)
      XXXX    -359.0772   XXXY      13.9486   XXYY    -111.2892
      XYYY       5.5211   YYYY    -362.3478   XXXZ      24.9605
      XXYZ      16.0655   XYYZ      14.4274   YYYZ      75.1766
      XXZZ     -85.7074   XYZZ       8.0539   YYZZ     -84.8404
      XZZZ      36.2627   YZZZ      75.0526   ZZZZ    -136.7333
 -----------------------------------------------------------------
 Calculating analytic gradient of the SCF energy
 Gradient of SCF Energy
            1           2           3           4           5           6
    1   0.0001688   0.0000010  -0.0000141  -0.0000372   0.0001476  -0.0002271
    2  -0.0002298  -0.0000516   0.0000763  -0.0000891   0.0000640   0.0000924
    3   0.0000302   0.0000383  -0.0000372   0.0000705  -0.0000816  -0.0000136
            7           8           9          10          11          12
    1   0.0000003  -0.0000126  -0.0000096   0.0000064  -0.0000009  -0.0000254
    2   0.0000153   0.0000041  -0.0000003   0.0000133   0.0000082   0.0000998
    3   0.0000334   0.0000069   0.0000018   0.0000006  -0.0000017  -0.0000523
           13
    1   0.0000029
    2  -0.0000026
    3   0.0000048
 Max gradient component =       2.298E-04
 RMS gradient           =       7.445E-05
 Gradient time:  CPU 7.72 s  wall 7.43 s
 Geometry Optimization Parameters
   NAtoms,    NIC,     NZ,  NCons,   NDum,   NFix, NCnnct, MaxDiis
       13      82       0       0       0       0       0       0

 Cartesian Hessian Update
 Hessian Updated using BFGS Update


** GEOMETRY OPTIMIZATION IN DELOCALIZED INTERNAL COORDINATES **
   Searching for a Minimum

   Optimization Cycle:   2

                       Coordinates (Angstroms)
     ATOM                X               Y               Z
      1  C         1.3037862433    0.7963403226   -0.7235793355
      2  C         0.4950568881   -1.2759114272    0.5013976081
      3  C        -0.8220657155   -0.9830644847    0.6937771954
      4  C        -1.5121576069    0.2120058749    0.2812764614
      5  C        -0.9987761215    1.3071326290   -0.3891130854
      6  N         0.2335113074    1.6160616896   -0.8542268235
      7  H         2.2046724849    1.2286071951   -1.1646275069
      8  H         0.8542293750   -2.2310758640    0.8792139363
      9  H        -1.4267605472   -1.7241905972    1.2126411201
     10  H        -2.5705188659    0.2641755927    0.5251757819
     11  H        -1.7230536602    2.0985482700   -0.5945782512
     12  C         1.4775470865   -0.4510524894   -0.1552250289
     13  H         2.4845291321   -0.8575767114   -0.2121320717
   Point Group: c1    Number of degrees of freedom:    33


   Energy is   -286.924319125

 Hessian Updated using BFGS Update

 28 Hessian modes will be used to form the next step
  Hessian Eigenvalues:
     0.015246    0.019954    0.020070    0.020958    0.021864    0.022512
     0.022943    0.023724    0.025173    0.038155    0.151028    0.161052
     0.204124    0.220467    0.231679    0.344261    0.345586    0.349622
     0.350338    0.350906    0.351128    0.372798    0.386799    0.419900
     0.481726    0.484931    0.510460    0.536441

 Minimum Search - Taking Simple RFO Step
 Searching for Lamda that Minimizes Along All modes
 Value Taken    Lamda =   0.00000000
 Step Taken.  Stepsize is  0.003353

                             Maximum     Tolerance    Cnvgd?
         Gradient           0.000127      0.000300     YES
         Displacement       0.001646      0.001200      NO
         Energy change     -0.000000      0.000001     YES


                       Distance Matrix (Angstroms)
             C (  1)   C (  2)   C (  3)   C (  4)   C (  5)   N (  6)
   C (  2)  2.539456
   C (  3)  3.113588  1.362931
   C (  4)  3.046428  2.508239  1.440339
   C (  5)  2.382136  3.113947  2.539465  1.382854
   N (  6)  1.354437  3.204627  3.204062  2.511593  1.352886
   H (  7)  1.092234  3.459919  4.184054  4.115695  3.296919  2.032719
   H (  8)  3.454895  1.088159  2.098067  3.453399  4.190609  4.265041
   H (  9)  4.190216  2.097666  1.088184  2.150253  3.455099  4.264473
   H ( 10)  4.105220  3.430771  2.154326  1.087353  2.096201  3.404840
   H ( 11)  3.297597  4.184275  3.459476  2.090608  1.092306  2.031836
   C ( 12)  1.381741  1.441122  2.508398  3.093301  3.045997  2.511810
   H ( 13)  2.095513  2.154560  3.430742  4.166649  4.104961  3.405621
             H (  7)   H (  8)   H (  9)   H ( 10)   H ( 11)   C ( 12)
   H (  8)  4.239150
   H (  9)  5.249545  2.360301
   H ( 10)  5.156357  4.252120  2.394659
   H ( 11)  4.063101  5.249771  4.238769  2.310188
   C ( 12)  2.090182  2.151063  3.453540  4.166693  4.115500
   H ( 13)  2.310353  2.394872  4.251963  5.230245  5.156422  1.087434

 
 Final energy is   -286.924319125380     


 ******************************
 **  OPTIMIZATION CONVERGED  **
 ******************************

                       Coordinates (Angstroms)
     ATOM                X               Y               Z
      1  C         1.3037862433    0.7963403226   -0.7235793355
      2  C         0.4950568881   -1.2759114272    0.5013976081
      3  C        -0.8220657155   -0.9830644847    0.6937771954
      4  C        -1.5121576069    0.2120058749    0.2812764614
      5  C        -0.9987761215    1.3071326290   -0.3891130854
      6  N         0.2335113074    1.6160616896   -0.8542268235
      7  H         2.2046724849    1.2286071951   -1.1646275069
      8  H         0.8542293750   -2.2310758640    0.8792139363
      9  H        -1.4267605472   -1.7241905972    1.2126411201
     10  H        -2.5705188659    0.2641755927    0.5251757819
     11  H        -1.7230536602    2.0985482700   -0.5945782512
     12  C         1.4775470865   -0.4510524894   -0.1552250289
     13  H         2.4845291321   -0.8575767114   -0.2121320717

Z-matrix Print:
$molecule
0 2
N 
C  1 1.352886
H  2 1.092306 1 111.953233
C  1 1.354437 2 123.257203 3 -179.962738 0
H  4 1.092234 1 111.918862 2 -179.979884 0
C  4 1.381741 1 133.268209 2 0.018850 0
H  6 1.087434 4 115.620913 1 179.961921 0
C  2 1.382854 1 133.287312 3 -179.949520 0
H  8 1.087353 2 115.600510 1 179.948172 0
C  8 1.440339 2 128.173524 1 -0.076780 0
H  10 1.088184 8 115.811112 2 -179.975818 0
C  10 1.362931 8 126.932010 2 -0.022943 0
H  12 1.088159 10 117.295247 8 -179.945351 0
$end

 
 --------------------------------------------------------------
 
                    Orbital Energies (a.u.)
 --------------------------------------------------------------
 
 Alpha MOs
 -- Occupied --
-14.322 -10.232 -10.232 -10.212 -10.211 -10.201 -10.200  -0.922
 -0.818  -0.784  -0.693  -0.667  -0.551  -0.537  -0.518  -0.449
 -0.439  -0.414  -0.394  -0.386  -0.349  -0.322  -0.299  -0.251
 -0.162
 -- Virtual --
 -0.072   0.077   0.097   0.101   0.117   0.142   0.181   0.184
  0.193   0.213   0.266   0.320   0.356   0.390   0.412   0.483
  0.496   0.521   0.547   0.576   0.584   0.587   0.591   0.610
  0.619   0.624   0.646   0.658   0.713   0.718   0.833   0.840
  0.847   0.854   0.868   0.872   0.885   0.922   0.965   0.975
  1.024   1.027   1.043   1.127   1.177   1.185   1.300   1.303
  1.326   1.401   1.429   1.480   1.482   1.546   1.574   1.586
  1.682   1.732   1.769   1.829   1.850   1.919   1.925   2.030
  2.046   2.048   2.100   2.141   2.142   2.191   2.247   2.391
  2.410   2.415   2.446   2.545   2.577   2.600   2.614   2.739
  2.748   2.808   3.052   3.249   3.250   4.018   4.046   4.102
  4.196   4.239   4.532   4.595
 
 Beta MOs
 -- Occupied --
-14.314 -10.234 -10.233 -10.210 -10.210 -10.196 -10.196  -0.911
 -0.809  -0.777  -0.681  -0.665  -0.546  -0.535  -0.514  -0.447
 -0.438  -0.411  -0.383  -0.373  -0.348  -0.295  -0.276  -0.242
 -- Virtual --
 -0.078  -0.070   0.078   0.118   0.124   0.125   0.142   0.182
  0.187   0.196   0.219   0.268   0.324   0.360   0.393   0.415
  0.486   0.505   0.525   0.551   0.587   0.588   0.592   0.596
  0.614   0.624   0.629   0.649   0.676   0.716   0.729   0.834
  0.843   0.846   0.869   0.875   0.880   0.887   0.925   0.967
  0.979   1.026   1.030   1.045   1.133   1.180   1.189   1.311
  1.315   1.333   1.411   1.429   1.489   1.492   1.560   1.582
  1.597   1.685   1.737   1.781   1.831   1.854   1.922   1.933
  2.036   2.058   2.061   2.110   2.141   2.147   2.203   2.259
  2.399   2.422   2.426   2.448   2.558   2.579   2.611   2.624
  2.742   2.761   2.810   3.054   3.252   3.254   4.030   4.053
  4.109   4.200   4.239   4.537   4.601
 --------------------------------------------------------------
 
          Ground-State Mulliken Net Atomic Charges

     Atom                 Charge (a.u.)    Spin (a.u.)
  --------------------------------------------------------
      1 C                     0.035194      -0.110512
      2 C                    -0.111750       0.098226
      3 C                    -0.110807       0.089286
      4 C                    -0.131987       0.350451
      5 C                     0.036051      -0.114688
      6 N                    -0.423417       0.386931
      7 H                     0.142635       0.003299
      8 H                     0.141926      -0.006852
      9 H                     0.141973      -0.006423
     10 H                     0.134328      -0.018494
     11 H                     0.142590       0.003504
     12 C                    -0.131160       0.343442
     13 H                     0.134424      -0.018170
  --------------------------------------------------------
  Sum of atomic charges =    -0.000000
  Sum of spin   charges =     1.000000

 -----------------------------------------------------------------
                    Cartesian Multipole Moments
 -----------------------------------------------------------------
    Charge (ESU x 10^10)
                -0.0000
    Dipole Moment (Debye)
         X      -0.2852      Y      -1.9679      Z       1.0401
       Tot       2.2441
    Quadrupole Moments (Debye-Ang)
        XX     -34.8628     XY      -1.7708     YY     -42.1730
        XZ      -1.2932     YZ      -0.1342     ZZ     -42.9654
    Octopole Moments (Debye-Ang^2)
       XXX      -1.5920    XXY      -4.0070    XYY      -3.6848
       YYY     -30.6734    XXZ       1.9848    XYZ       1.1150
       YYZ      10.8131    XZZ      -1.1139    YZZ      -9.5188
       ZZZ      10.5621
    Hexadecapole Moments (Debye-Ang^3)
      XXXX    -359.0772   XXXY      13.9486   XXYY    -111.2892
      XYYY       5.5211   YYYY    -362.3478   XXXZ      24.9605
      XXYZ      16.0655   XYYZ      14.4274   YYYZ      75.1766
      XXZZ     -85.7074   XYZZ       8.0539   YYZZ     -84.8404
      XZZZ      36.2627   YZZZ      75.0526   ZZZZ    -136.7333
 -----------------------------------------------------------------
Archival summary:
1\1\c8-72\OPT\ProcedureUnspecified\6-31G*\166(2)\hpark21\WedMar211:57:292022WedMar211:57:292022\0\\#,OPT,ProcedureUnspecified,6-31G*,\\0,2\N\C,1,1.35289\H,2,1.09231,1,111.953\C,1,1.35444,2,123.257,3,-179.963,0\H,4,1.09223,1,111.919,2,-179.98,0\C,4,1.38174,1,133.268,2,0.0188497,0\H,6,1.08743,4,115.621,1,179.962,0\C,2,1.38285,1,133.287,3,-179.95,0\H,8,1.08735,2,115.601,1,179.948,0\C,8,1.44034,2,128.174,1,-0.0767796,0\H,10,1.08818,8,115.811,2,-179.976,0\C,10,1.36293,8,126.932,2,-0.0229428,0\H,12,1.08816,10,117.295,8,-179.945,0\\\@

 Total job time:  126.75s(wall), 119.78s(cpu) 
 Wed Mar  2 11:57:29 2022

        *************************************************************
        *                                                           *
        *  Thank you very much for using Q-Chem.  Have a nice day.  *
        *                                                           *
        *************************************************************


