
Running Job 1 of 1 qcopt_rct.in
qchem qcopt_rct.in_29623.0 ./qcopt_rct.d/ 1
/home/leeping/opt/qchem/5.0.2-openmp/exe/qcprog.exe_s qcopt_rct.in_29623.0 ./qcopt_rct.d/
Check license passed

                  Welcome to Q-Chem
     A Quantum Leap Into The Future Of Chemistry


 Q-Chem 5.0, Q-Chem, Inc., Pleasanton, CA (2017)

 Yihan Shao,  Zhengting Gan,  E. Epifanovsky,  A. T. B. Gilbert,  M. Wormit,  
 J. Kussmann,  A. W. Lange,  A. Behn,  Jia Deng,  Xintian Feng,  D. Ghosh,  
 M. Goldey,  P. R. Horn,  L. D. Jacobson,  I. Kaliman,  T. Kus,  A. Landau,  
 Jie Liu,  E. I. Proynov,  R. M. Richard,  R. P. Steele,  E. J. Sundstrom,  
 H. L. Woodcock III,  P. M. Zimmerman,  D. Zuev,  B. Albrecht,  E. Alguire,  
 S. A. Baeppler,  D. Barton,  Z. Benda,  Y. A. Bernard,  E. J. Berquist,  
 K. B. Bravaya,  H. Burton,  D. Casanova,  Chun-Min Chang,  Yunqing Chen,  
 A. Chien,  K. D. Closser,  M. P. Coons,  S. Dasgupta,  A. L. Dempwolff,  
 M. Diedenhofen,  Hainam Do,  R. G. Edgar,  Po-Tung Fang,  S. Fatehi,  
 Qingguo Feng,  J. Fosso-Tande,  Qinghui Ge,  A. Ghysels,  G. Gidofalvi,  
 J. Gomes,  J. Gonthier,  A. Gunina,  M. W. D. Hanson-Heine,  
 P. H. P. Harbach,  A. W. Hauser,  J. E. Herr,  E. G. Hohenstein,  
 Z. C. Holden,  Kerwin Hui,  T.-C. Jagau,  Hyunjun Ji,  B. Kaduk,  
 K. Khistyaev,  Jaehoon Kim,  P. Klunzinger,  K. Koh,  D. Kosenkov,  
 L. Koulias,  T. Kowalczyk,  C. M. Krauter,  A. Kunitsa,  Ka Un Lao,  
 A. Laurent,  K. V. Lawler,  Joonho Lee,  D. Lefrancois,  S. Lehtola,  
 D. S. Levine,  Yi-Pei Li,  You-Sheng Lin,  Fenglai Liu,  E. Livshits,  
 A. Luenser,  P. Manohar,  E. Mansoor,  S. F. Manzer,  Shan-Ping Mao,  
 Yuezhi Mao,  N. Mardirossian,  A. V. Marenich,  T. Markovich,  
 L. A. Martinez-Martinez,  S. A. Maurer,  N. J. Mayhall,  S. C. McKenzie,  
 J.-M. Mewes,  A. F. Morrison,  J. W. Mullinax,  K. Nanda,  
 T. S. Nguyen-Beck,  R. Olivares-Amaya,  J. A. Parkhill,  T. M. Perrine,  
 F. Plasser,  S. Prager,  A. Prociuk,  E. Ramos,  D. R. Rehn,  F. Rob,  
 M. Schneider,  N. Sergueev,  S. M. Sharada,  S. Sharma,  D. W. Small,  
 T. Stauch,  T. Stein,  Yu-Chuan Su,  A. J. W. Thom,  A. Tkatchenko,  
 T. Tsuchimochi,  L. Vogt,  O. Vydrov,  M. A. Watson,  J. Wenzel,  
 M. de Wergifosse,  T. A. Wesolowski,  A. White,  J. Witte,  A. Yamada,  
 Jun Yang,  K. Yao,  S. Yeganeh,  S. R. Yost,  Zhi-Qiang You,  A. Zech,  
 Igor Ying Zhang,  Xing Zhang,  Yan Zhao,  Ying Zhu,  B. R. Brooks,  
 G. K. L. Chan,  C. J. Cramer,  M. S. Gordon,  W. J. Hehre,  A. Klamt,  
 M. W. Schmidt,  C. D. Sherrill,  D. G. Truhlar,  A. Aspuru-Guzik,  R. Baer,  
 A. T. Bell,  N. A. Besley,  Jeng-Da Chai,  R. A. DiStasio Jr.,  A. Dreuw,  
 B. D. Dunietz,  T. R. Furlani,  Chao-Ping Hsu,  Yousung Jung,  Jing Kong,  
 D. S. Lambrecht,  WanZhen Liang,  C. Ochsenfeld,  V. A. Rassolov,  
 L. V. Slipchenko,  J. E. Subotnik,  T. Van Voorhis,  J. M. Herbert,  
 A. I. Krylov,  P. M. W. Gill,  M. Head-Gordon

 Contributors to earlier versions of Q-Chem not listed above: 
 R. D. Adamson,  B. Austin,  J. Baker,  G. J. O. Beran,  K. Brandhorst,  
 S. T. Brown,  E. F. C. Byrd,  A. K. Chakraborty,  C.-L. Cheng,  
 Siu Hung Chien,  D. M. Chipman,  D. L. Crittenden,  H. Dachsel,  
 R. J. Doerksen,  A. D. Dutoi,  L. Fusti-Molnar,  W. A. Goddard III,  
 A. Golubeva-Zadorozhnaya,  S. R. Gwaltney,  G. Hawkins,  A. Heyden,  
 S. Hirata,  G. Kedziora,  F. J. Keil,  C. Kelley,  Jihan Kim,  R. A. King,  
 R. Z. Khaliullin,  P. P. Korambath,  W. Kurlancheek,  A. M. Lee,  M. S. Lee,  
 S. V. Levchenko,  Ching Yeh Lin,  D. Liotard,  R. C. Lochan,  I. Lotan,  
 P. E. Maslen,  N. Nair,  D. P. O'Neill,  D. Neuhauser,  E. Neuscamman,  
 C. M. Oana,  R. Olson,  B. Peters,  R. Peverati,  P. A. Pieniazek,  
 Y. M. Rhee,  J. Ritchie,  M. A. Rohrdanz,  E. Rosta,  N. J. Russ,  
 H. F. Schaefer III,  N. E. Schultz,  N. Shenvi,  A. C. Simmonett,  A. Sodt,  
 D. Stuck,  K. S. Thanthiriwatte,  V. Vanovschi,  Tao Wang,  A. Warshel,  
 C. F. Williams,  Q. Wu,  X. Xu,  W. Zhang

 Please cite Q-Chem as follows:
 Y. Shao et al., Mol. Phys. 113, 184-215 (2015)
 DOI: 10.1080/00268976.2014.952696

 Q-Chem 5.0.2 for Intel X86 EM64T Linux

 Parts of Q-Chem use Armadillo 5.200.1 (Boston Tea Smuggler).
 http://arma.sourceforge.net/

 Q-Chem begins on Wed Mar  2 11:52:50 2022  

Host: 
0

     Scratch files written to ./qcopt_rct.d//
 Dec517 15110_ 26548  26544 5633   
Processing $rem in /home/leeping/opt/qchem/5.0.2-openmp/config/preferences.
 MEM_STATIC 2000
 MEM_TOTAL  8000
 SYMMETRY   OFF
 SYM_IGNORE TRUE 

Checking the input file for inconsistencies... 	...done.

--------------------------------------------------------------
User input:
--------------------------------------------------------------
$molecule
0 2
C        1.2762323032   -0.0344161555    0.0311421112
C        0.5639265049   -1.0674673373    0.8147103130
C       -0.8212684279   -1.0082271577    0.8734651133
C       -1.4462738638    0.0128801417    0.1709790399
C       -0.5997817113    0.9720388691   -0.5713043746
N        0.7461510193    1.3939038696    0.0092692356
H        2.3629562781   -0.0438134166    0.0861051046
H        1.1395610226   -1.8206073240    1.3425101071
H       -1.3935218229   -1.7291016916    1.4510486186
H       -2.5231111663    0.1454006781    0.1677329326
H       -1.1080484569    1.8196118488   -1.0267283693
C        0.6792492842    0.5509776372   -1.1963526825
H        1.1239290367    0.8088200381   -2.1525771491
$end

$rem
method                b3lyp
basis                 6-31g(d)
unrestricted          true
symmetry              off
sym_ignore            true
incdft                false
incfock               0
scf_convergence       8
thresh                14
jobtype               opt
scf_guess             core
scf_guess_mix         5
scf_algorithm         diis
max_scf_cycles        100
geom_opt_max_cycles   300
$end

--------------------------------------------------------------
 ----------------------------------------------------------------
             Standard Nuclear Orientation (Angstroms)
    I     Atom           X                Y                Z
 ----------------------------------------------------------------
    1      C       1.2762323032    -0.0344161555     0.0311421112
    2      C       0.5639265049    -1.0674673373     0.8147103130
    3      C      -0.8212684279    -1.0082271577     0.8734651133
    4      C      -1.4462738638     0.0128801417     0.1709790399
    5      C      -0.5997817113     0.9720388691    -0.5713043746
    6      N       0.7461510193     1.3939038696     0.0092692356
    7      H       2.3629562781    -0.0438134166     0.0861051046
    8      H       1.1395610226    -1.8206073240     1.3425101071
    9      H      -1.3935218229    -1.7291016916     1.4510486186
   10      H      -2.5231111663     0.1454006781     0.1677329326
   11      H      -1.1080484569     1.8196118488    -1.0267283693
   12      C       0.6792492842     0.5509776372    -1.1963526825
   13      H       1.1239290367     0.8088200381    -2.1525771491
 ----------------------------------------------------------------
 Nuclear Repulsion Energy =   276.0381330461 hartrees
 There are       25 alpha and       24 beta electrons
 Requested basis set is 6-31G(d)
 There are 40 shells and 117 basis functions

 Total QAlloc Memory Limit   8000 MB
 Mega-Array Size      1956 MB
 MEM_STATIC part      2000 MB
 A cutoff of  1.0D-14 yielded    806 shell pairs
 There are      7078 function pairs
 
 -------------------------------------------------------
 OpenMP Integral Computing Module                       
 Release: version 1.0, May 2013, Q-Chem Inc. Pittsburgh 
 -------------------------------------------------------
 Integral Job Info:
 Integral job number is                      11
 Integral operator is                         1
 short-range coefficients                     0
 long-range coefficients              100000000
 Omega coefficients                           0
 if combine SR and LR in K                    0
 Integral screening is                        0
 Integral computing path is                   2
 max size of driver memory is            800000
 size of driver memory is                593474
 size of scratch memory is              2361544
 max col of scratch BK array               1296
 max len of scratch array in speh3          155
 max len of scratch index in speh4           18
 max int batch size is                      520
 min int batch size is                       52
 fixed nKL is                                52
 max L of basis functions is                  2
 order of int derivative is                   0
 number of shells is                         40
 number of basis is                         117
 number of cartesian basis is               117
 number of contracted shell pairs           806
 number of primitive shell pairs           3522
 maxK2 (contraction) of shell pair           36
 max number of K2 of shell pair               1
 max number of CS2 of shell pair             86
 max number of PS2 of shell pair            360
 mem total for path MDJ                  535308
 -------------------------------------------------------
 Smallest overlap matrix eigenvalue = 9.83E-04

 Scale SEOQF with 1.000000e-01/1.000000e-01/1.000000e-01

 Standard Electronic Orientation quadrupole field applied
 Nucleus-field energy     =     0.0000000020 hartrees
 Guess MOs from core Hamiltonian diagonalization
 Mixing HOMO and LUMO in initial guess
 Adding  50% of the LUMO to the HOMO
 An unrestricted hybrid HF-DFT SCF calculation will be
 performed using Pulay DIIS extrapolation
 Exchange:     0.2000 Hartree-Fock + 0.0800 Slater + 0.7200 B88
 Correlation:  0.1900 VWN1RPA + 0.8100 LYP
 Using SG-1 standard quadrature grid
 SCF converges when DIIS error is below 1.0E-08
 using 4 threads for integral computing
 -------------------------------------------------------
 OpenMP Integral computing Module                
 Release: version 1.0, May 2013, Q-Chem Inc. Pittsburgh 
 -------------------------------------------------------
 -------------------------------------------------------
 OpenMP BLAS3 based DFT computing Module                
 Release: version 1.0, May 2013, Q-Chem Inc. Pittsburgh 
 -------------------------------------------------------
 ---------------------------------------
  Cycle       Energy         DIIS Error
 ---------------------------------------
    1    -228.3918955688      1.42E-01
    2    -189.3576232169      1.22E-01
    3    -237.8628302571      1.05E-01
    4    -277.4766014010      6.83E-02
    5    -284.7347536301      3.22E-02
    6    -286.3376914301      1.75E-02
    7    -286.7443488902      8.28E-03
    8    -286.8285635280      3.99E-03
    9    -286.8531264832      1.33E-03
   10    -286.8563555123      4.36E-04
   11    -286.8565985107      2.85E-04
   12    -286.8567731812      3.50E-05
   13    -286.8567762390      6.34E-06
   14    -286.8567765669      2.03E-06
   15    -286.8567766447      8.24E-07
   16    -286.8567766814      2.24E-07
   17    -286.8567767017      9.04E-08
   18    -286.8567767055      3.78E-08
   19    -286.8567767057      1.90E-08
   20    -286.8567767057      2.26E-09 Convergence criterion met
 ---------------------------------------
 <S^2> = 0.7773
 SCF time:  CPU 51.91 s  wall 48.08 s
 SCF   energy in the final basis set = -286.85677671
 Total energy in the final basis set = -286.85677671
 
 --------------------------------------------------------------
 
                    Orbital Energies (a.u.)
 --------------------------------------------------------------
 
 Alpha MOs
 -- Occupied --
-14.345 -10.230 -10.230 -10.227 -10.197 -10.197 -10.187  -1.013
 -0.808  -0.751  -0.634  -0.627  -0.606  -0.533  -0.479  -0.459
 -0.455  -0.412  -0.388  -0.357  -0.353  -0.338  -0.286  -0.241
 -0.181
 -- Virtual --
  0.018   0.088   0.111   0.137   0.142   0.156   0.158   0.175
  0.182   0.184   0.243   0.276   0.277   0.293   0.418   0.432
  0.476   0.523   0.549   0.549   0.558   0.582   0.592   0.607
  0.615   0.626   0.639   0.660   0.684   0.765   0.795   0.799
  0.813   0.818   0.842   0.856   0.864   0.870   0.912   0.939
  0.979   1.035   1.036   1.119   1.182   1.251   1.262   1.366
  1.388   1.410   1.496   1.505   1.555   1.608   1.651   1.698
  1.718   1.759   1.841   1.850   1.922   1.963   1.998   2.013
  2.059   2.136   2.156   2.157   2.248   2.258   2.276   2.414
  2.453   2.457   2.470   2.542   2.575   2.599   2.651   2.721
  2.749   2.805   2.866   2.909   3.163   3.897   4.114   4.158
  4.268   4.409   4.449   4.593
 
 Beta MOs
 -- Occupied --
-14.342 -10.231 -10.231 -10.226 -10.191 -10.189 -10.189  -1.009
 -0.798  -0.741  -0.626  -0.620  -0.601  -0.531  -0.474  -0.457
 -0.449  -0.408  -0.385  -0.354  -0.340  -0.313  -0.282  -0.237
 -- Virtual --
 -0.073   0.030   0.090   0.117   0.139   0.144   0.159   0.163
  0.182   0.186   0.197   0.246   0.279   0.283   0.297   0.421
  0.441   0.478   0.529   0.554   0.558   0.563   0.592   0.598
  0.609   0.626   0.642   0.644   0.672   0.693   0.766   0.802
  0.804   0.815   0.819   0.842   0.861   0.867   0.874   0.916
  0.939   0.992   1.038   1.040   1.123   1.184   1.253   1.264
  1.376   1.400   1.416   1.510   1.512   1.567   1.615   1.659
  1.706   1.724   1.768   1.845   1.860   1.934   1.970   2.002
  2.012   2.071   2.136   2.159   2.183   2.260   2.267   2.285
  2.416   2.458   2.472   2.479   2.548   2.587   2.602   2.664
  2.725   2.752   2.809   2.870   2.912   3.167   3.902   4.129
  4.163   4.269   4.415   4.454   4.597
 --------------------------------------------------------------
 
          Ground-State Mulliken Net Atomic Charges

     Atom                 Charge (a.u.)    Spin (a.u.)
  --------------------------------------------------------
      1 C                    -0.121398      -0.064627
      2 C                    -0.051552       0.626101
      3 C                    -0.179853      -0.258854
      4 C                    -0.051636       0.626881
      5 C                    -0.121616      -0.064872
      6 N                    -0.309541       0.100959
      7 H                     0.151018       0.001186
      8 H                     0.136446      -0.030650
      9 H                     0.133650       0.009281
     10 H                     0.136496      -0.030707
     11 H                     0.151064       0.001212
     12 C                    -0.030066       0.086830
     13 H                     0.156989      -0.002739
  --------------------------------------------------------
  Sum of atomic charges =     0.000000
  Sum of spin   charges =     1.000000

 -----------------------------------------------------------------
                    Cartesian Multipole Moments
 -----------------------------------------------------------------
    Charge (ESU x 10^10)
                -0.0000
    Dipole Moment (Debye)
         X      -0.4069      Y      -1.2440      Z      -0.8176
       Tot       1.5432
    Quadrupole Moments (Debye-Ang)
        XX     -36.4358     XY      -2.8224     YY     -42.8861
        XZ      -0.8109     YZ      -4.0909     ZZ     -39.4881
    Octopole Moments (Debye-Ang^2)
       XXX      -6.0625    XXY      -5.8594    XYY      -7.4798
       YYY     -19.4934    XXZ      -0.3847    XYZ      -0.0451
       YYZ      -0.3856    XZZ       0.3902    YZZ      -3.5924
       ZZZ      -6.7368
    Hexadecapole Moments (Debye-Ang^3)
      XXXX    -275.4341   XXXY     -17.5804   XXYY     -93.2994
      XYYY     -26.3051   YYYY    -264.2008   XXXZ      17.0135
      XXYZ      14.5959   XYYZ       6.5040   YYYZ      52.3590
      XXZZ     -77.6463   XYZZ      -2.4963   YYZZ     -65.2480
      XZZZ      12.9502   YZZZ      55.9910   ZZZZ    -174.7300
 -----------------------------------------------------------------
 Calculating analytic gradient of the SCF energy
 Gradient of SCF Energy
            1           2           3           4           5           6
    1  -0.0000414  -0.0001114   0.0001116  -0.0000003  -0.0002699   0.0002194
    2   0.0001531  -0.0000257  -0.0000277   0.0001233  -0.0001718  -0.0003036
    3   0.0002882  -0.0000351   0.0000214  -0.0000067  -0.0000489  -0.0001418
            7           8           9          10          11          12
    1  -0.0000068   0.0000196   0.0000204   0.0000066   0.0000360   0.0000702
    2   0.0000595   0.0000390  -0.0000071  -0.0000422   0.0000149   0.0002108
    3  -0.0000128   0.0000281   0.0000115  -0.0000485   0.0000008  -0.0000172
           13
    1  -0.0000539
    2  -0.0000225
    3  -0.0000390
 Max gradient component =       3.036E-04
 RMS gradient           =       1.114E-04
 Gradient time:  CPU 8.04 s  wall 6.61 s
 Geometry Optimization Parameters
   NAtoms,    NIC,     NZ,  NCons,   NDum,   NFix, NCnnct, MaxDiis
       13     121       0       0       0       0       0       0


** GEOMETRY OPTIMIZATION IN DELOCALIZED INTERNAL COORDINATES **
   Searching for a Minimum

   Optimization Cycle:   1

                       Coordinates (Angstroms)
     ATOM                X               Y               Z
      1  C         1.2762323032   -0.0344161555    0.0311421112
      2  C         0.5639265049   -1.0674673373    0.8147103130
      3  C        -0.8212684279   -1.0082271577    0.8734651133
      4  C        -1.4462738638    0.0128801417    0.1709790399
      5  C        -0.5997817113    0.9720388691   -0.5713043746
      6  N         0.7461510193    1.3939038696    0.0092692356
      7  H         2.3629562781   -0.0438134166    0.0861051046
      8  H         1.1395610226   -1.8206073240    1.3425101071
      9  H        -1.3935218229   -1.7291016916    1.4510486186
     10  H        -2.5231111663    0.1454006781    0.1677329326
     11  H        -1.1080484569    1.8196118488   -1.0267283693
     12  C         0.6792492842    0.5509776372   -1.1963526825
     13  H         1.1239290367    0.8088200381   -2.1525771491
   Point Group: c1    Number of degrees of freedom:    33


   Energy is   -286.856776706


 Attempting to Generate Delocalized Internal Coordinates

 33 Hessian modes will be used to form the next step
  Hessian Eigenvalues:
     0.015976    0.016260    0.018905    0.020321    0.021355    0.021727
     0.024009    0.024631    0.037602    0.064416    0.078113    0.093533
     0.102367    0.124478    0.142630    0.159886    0.159920    0.159997
     0.195490    0.199704    0.225202    0.273539    0.321928    0.322658
     0.346516    0.350243    0.350269    0.352065    0.353228    0.354009
     0.354011    0.435053    0.466325

 Minimum Search - Taking Simple RFO Step
 Searching for Lamda that Minimizes Along All modes
 Value Taken    Lamda =   0.00000000
 Step Taken.  Stepsize is  0.003596

                             Maximum     Tolerance    Cnvgd?
         Gradient           0.000134      0.000300     YES
         Displacement       0.002488      0.001200      NO
         Energy change     *********      0.000001      NO


 New Cartesian Coordinates Obtained by Inverse Iteration

 Displacement from previous Coordinates is:  0.001996
 ----------------------------------------------------------------
             Standard Nuclear Orientation (Angstroms)
    I     Atom           X                Y                Z
 ----------------------------------------------------------------
    1      C       1.2762168731    -0.0345091358     0.0308777796
    2      C       0.5640206778    -1.0674329586     0.8147314180
    3      C      -0.8212809828    -1.0082333104     0.8734540096
    4      C      -1.4462579644     0.0127037076     0.1708127980
    5      C      -0.5997189955     0.9721359415    -0.5712834224
    6      N       0.7458582198     1.3941060175     0.0094843319
    7      H       2.3629473639    -0.0440276529     0.0859408862
    8      H       1.1396109545    -1.8206862799     1.3424277946
    9      H      -1.3936152337    -1.7289444646     1.4511603407
   10      H      -2.5230739528     0.1455464369     0.1680659076
   11      H      -1.1082535901     1.8193499802    -1.0270940241
   12      C       0.6792342969     0.5509959340    -1.1962958251
   13      H       1.1243123334     0.8089957843    -2.1522819943
 ----------------------------------------------------------------
 Nuclear Repulsion Energy =   276.0352877931 hartrees
 There are       25 alpha and       24 beta electrons
 Applying Cartesian multipole field
    Component          Value
    ---------          -----
     (2,0,0)        1.00000E-11
     (0,2,0)        2.00000E-11
     (0,0,2)       -3.00000E-11
 Nucleus-field energy     =     0.0000000020 hartrees
 Requested basis set is 6-31G(d)
 There are 40 shells and 117 basis functions
 A cutoff of  1.0D-14 yielded    806 shell pairs
 There are      7078 function pairs
 Smallest overlap matrix eigenvalue = 9.83E-04
 Guess MOs from SCF MO coefficient file
 Reading MOs from coefficient file
 Mixing HOMO and LUMO in initial guess
 Adding  50% of the LUMO to the HOMO
 Reading MOs from coefficient file
 An unrestricted hybrid HF-DFT SCF calculation will be
 performed using Pulay DIIS extrapolation
 Exchange:     0.2000 Hartree-Fock + 0.0800 Slater + 0.7200 B88
 Correlation:  0.1900 VWN1RPA + 0.8100 LYP
 Using SG-1 standard quadrature grid
 SCF converges when DIIS error is below 1.0E-08
 Geometry optimization detected.  Setting ReadMinima to 0
 Setting SaveMinima to 0
 using 4 threads for integral computing
 -------------------------------------------------------
 OpenMP Integral computing Module                
 Release: version 1.0, May 2013, Q-Chem Inc. Pittsburgh 
 -------------------------------------------------------
 -------------------------------------------------------
 OpenMP BLAS3 based DFT computing Module                
 Release: version 1.0, May 2013, Q-Chem Inc. Pittsburgh 
 -------------------------------------------------------
 ---------------------------------------
  Cycle       Energy         DIIS Error
 ---------------------------------------
    1    -286.8204060381      1.88E-03
    2    -286.8143118922      4.49E-03
    3    -286.8542616580      7.66E-04
    4    -286.8560511387      3.55E-04
    5    -286.8566158780      1.20E-04
    6    -286.8567482157      3.33E-05
    7    -286.8567706493      2.01E-05
    8    -286.8567759576      9.83E-06
    9    -286.8567770973      6.03E-06
   10    -286.8567772675      1.32E-06
   11    -286.8567772824      5.73E-07
   12    -286.8567772844      9.14E-08
   13    -286.8567772847      4.46E-08
   14    -286.8567772848      1.27E-08
   15    -286.8567772848      3.15E-09 Convergence criterion met
 ---------------------------------------
 <S^2> = 0.7773
 SCF time:  CPU 38.91 s  wall 53.23 s
 SCF   energy in the final basis set = -286.85677728
 Total energy in the final basis set = -286.85677728
 
 --------------------------------------------------------------
 
                    Orbital Energies (a.u.)
 --------------------------------------------------------------
 
 Alpha MOs
 -- Occupied --
-14.345 -10.230 -10.230 -10.227 -10.197 -10.197 -10.187  -1.013
 -0.808  -0.751  -0.634  -0.627  -0.606  -0.533  -0.479  -0.459
 -0.455  -0.412  -0.388  -0.357  -0.353  -0.338  -0.286  -0.241
 -0.181
 -- Virtual --
  0.018   0.088   0.111   0.137   0.142   0.156   0.158   0.175
  0.182   0.184   0.243   0.276   0.277   0.293   0.418   0.432
  0.476   0.523   0.549   0.549   0.558   0.582   0.592   0.607
  0.615   0.626   0.639   0.660   0.684   0.764   0.795   0.799
  0.813   0.818   0.842   0.856   0.864   0.870   0.912   0.938
  0.979   1.035   1.036   1.119   1.182   1.251   1.262   1.366
  1.388   1.410   1.496   1.505   1.555   1.608   1.651   1.698
  1.718   1.759   1.842   1.850   1.922   1.963   1.998   2.013
  2.059   2.136   2.156   2.157   2.248   2.258   2.276   2.414
  2.453   2.457   2.470   2.542   2.575   2.599   2.651   2.721
  2.749   2.805   2.866   2.909   3.163   3.896   4.114   4.158
  4.268   4.409   4.449   4.593
 
 Beta MOs
 -- Occupied --
-14.342 -10.231 -10.231 -10.226 -10.191 -10.189 -10.189  -1.009
 -0.798  -0.741  -0.626  -0.620  -0.601  -0.531  -0.474  -0.457
 -0.449  -0.408  -0.385  -0.354  -0.340  -0.313  -0.282  -0.237
 -- Virtual --
 -0.073   0.030   0.090   0.117   0.139   0.144   0.159   0.163
  0.182   0.186   0.197   0.246   0.279   0.283   0.297   0.421
  0.441   0.478   0.529   0.554   0.558   0.563   0.592   0.598
  0.609   0.626   0.642   0.644   0.672   0.693   0.766   0.802
  0.804   0.815   0.819   0.842   0.861   0.867   0.874   0.916
  0.939   0.992   1.038   1.040   1.123   1.184   1.253   1.264
  1.376   1.400   1.416   1.510   1.512   1.567   1.615   1.659
  1.706   1.724   1.768   1.845   1.860   1.934   1.970   2.002
  2.012   2.071   2.136   2.159   2.183   2.260   2.267   2.285
  2.416   2.458   2.472   2.479   2.548   2.587   2.602   2.664
  2.725   2.751   2.808   2.870   2.912   3.167   3.902   4.129
  4.163   4.269   4.415   4.454   4.597
 --------------------------------------------------------------
 
          Ground-State Mulliken Net Atomic Charges

     Atom                 Charge (a.u.)    Spin (a.u.)
  --------------------------------------------------------
      1 C                    -0.121430      -0.064665
      2 C                    -0.051573       0.626324
      3 C                    -0.179823      -0.258878
      4 C                    -0.051670       0.626743
      5 C                    -0.121528      -0.064816
      6 N                    -0.309577       0.100994
      7 H                     0.151016       0.001191
      8 H                     0.136451      -0.030663
      9 H                     0.133651       0.009281
     10 H                     0.136486      -0.030698
     11 H                     0.151040       0.001207
     12 C                    -0.030052       0.086714
     13 H                     0.157010      -0.002735
  --------------------------------------------------------
  Sum of atomic charges =     0.000000
  Sum of spin   charges =     1.000000

 -----------------------------------------------------------------
                    Cartesian Multipole Moments
 -----------------------------------------------------------------
    Charge (ESU x 10^10)
                 0.0000
    Dipole Moment (Debye)
         X      -0.4065      Y      -1.2443      Z      -0.8179
       Tot       1.5436
    Quadrupole Moments (Debye-Ang)
        XX     -36.4351     XY      -2.8236     YY     -42.8870
        XZ      -0.8128     YZ      -4.0913     ZZ     -39.4884
    Octopole Moments (Debye-Ang^2)
       XXX      -6.0573    XXY      -5.8588    XYY      -7.4777
       YYY     -19.4972    XXZ      -0.3847    XYZ      -0.0452
       YYZ      -0.3859    XZZ       0.3895    YZZ      -3.5931
       ZZZ      -6.7336
    Hexadecapole Moments (Debye-Ang^3)
      XXXX    -275.4279   XXXY     -17.5819   XXYY     -93.2995
      XYYY     -26.3023   YYYY    -264.2298   XXXZ      17.0037
      XXYZ      14.5924   XYYZ       6.5032   YYYZ      52.3564
      XXZZ     -77.6381   XYZZ      -2.4957   YYZZ     -65.2493
      XZZZ      12.9482   YZZZ      55.9873   ZZZZ    -174.7297
 -----------------------------------------------------------------
 Calculating analytic gradient of the SCF energy
 Gradient of SCF Energy
            1           2           3           4           5           6
    1  -0.0000323  -0.0000312   0.0000476   0.0000079  -0.0001687   0.0001314
    2   0.0001295  -0.0000050  -0.0000187   0.0000522  -0.0000953  -0.0001980
    3   0.0001507  -0.0000031   0.0000245  -0.0000205  -0.0000369  -0.0000730
            7           8           9          10          11          12
    1   0.0000010   0.0000142   0.0000086  -0.0000015   0.0000184   0.0000317
    2   0.0000290   0.0000241   0.0000015  -0.0000308  -0.0000047   0.0001428
    3  -0.0000014   0.0000233   0.0000101  -0.0000299  -0.0000207  -0.0000005
           13
    1  -0.0000271
    2  -0.0000266
    3  -0.0000227
 Max gradient component =       1.980E-04
 RMS gradient           =       6.737E-05
 Gradient time:  CPU 7.71 s  wall 5.59 s
 Geometry Optimization Parameters
   NAtoms,    NIC,     NZ,  NCons,   NDum,   NFix, NCnnct, MaxDiis
       13     121       0       0       0       0       0       0

 Cartesian Hessian Update
 Hessian Updated using BFGS Update


** GEOMETRY OPTIMIZATION IN DELOCALIZED INTERNAL COORDINATES **
   Searching for a Minimum

   Optimization Cycle:   2

                       Coordinates (Angstroms)
     ATOM                X               Y               Z
      1  C         1.2762168731   -0.0345091358    0.0308777796
      2  C         0.5640206778   -1.0674329586    0.8147314180
      3  C        -0.8212809828   -1.0082333104    0.8734540096
      4  C        -1.4462579644    0.0127037076    0.1708127980
      5  C        -0.5997189955    0.9721359415   -0.5712834224
      6  N         0.7458582198    1.3941060175    0.0094843319
      7  H         2.3629473639   -0.0440276529    0.0859408862
      8  H         1.1396109545   -1.8206862799    1.3424277946
      9  H        -1.3936152337   -1.7289444646    1.4511603407
     10  H        -2.5230739528    0.1455464369    0.1680659076
     11  H        -1.1082535901    1.8193499802   -1.0270940241
     12  C         0.6792342969    0.5509959340   -1.1962958251
     13  H         1.1243123334    0.8089957843   -2.1522819943
   Point Group: c1    Number of degrees of freedom:    33


   Energy is   -286.856777285

 Hessian Updated using BFGS Update

 32 Hessian modes will be used to form the next step
  Hessian Eigenvalues:
     0.014310    0.016151    0.018504    0.019767    0.020828    0.021631
     0.024009    0.024358    0.038283    0.061811    0.076790    0.089656
     0.095618    0.120117    0.129172    0.153473    0.159913    0.160098
     0.161153    0.196651    0.223996    0.272735    0.319283    0.322236
     0.345753    0.350233    0.350391    0.353236    0.354001    0.354188
     0.435562    0.463869

 Minimum Search - Taking Simple RFO Step
 Searching for Lamda that Minimizes Along All modes
 Value Taken    Lamda =   0.00000000
 Step Taken.  Stepsize is  0.004242

                             Maximum     Tolerance    Cnvgd?
         Gradient           0.000083      0.000300     YES
         Displacement       0.002684      0.001200      NO
         Energy change     -0.000001      0.000001     YES


                       Distance Matrix (Angstroms)
             C (  1)   C (  2)   C (  3)   C (  4)   C (  5)   N (  6)
   C (  2)  1.479386
   C (  3)  2.461213  1.387809
   C (  4)  2.726478  2.371191  1.388025
   C (  5)  2.212480  2.726751  2.461345  1.479137
   N (  6)  1.524034  2.596278  2.995597  2.596088  1.525099
   H (  7)  1.088166  2.194227  3.418944  3.810573  3.200301  2.165422
   H (  8)  2.220192  1.084969  2.173733  3.379455  3.806234  3.502380
   H (  9)  3.466456  2.162170  1.086617  2.162267  3.466466  4.050830
   H ( 10)  3.806028  3.379297  2.173679  1.084983  2.220176  3.502851
   H ( 11)  3.200281  3.810819  3.419015  2.193900  1.088183  2.166347
   C ( 12)  1.484978  2.583954  2.994429  2.583885  1.484493  1.472813
   H ( 13)  2.345370  3.555008  4.030227  3.555092  2.344879  2.271303
             H (  7)   H (  8)   H (  9)   H ( 10)   H ( 11)   C ( 12)
   H (  8)  2.496363
   H (  9)  4.337572  2.537218
   H ( 10)  4.890387  4.319775  2.536873
   H ( 11)  4.093930  4.890541  4.337461  2.496346
   C ( 12)  2.198425  3.504560  4.062494  3.504376  2.198287
   H ( 13)  2.696573  4.373609  5.076012  4.373512  2.696519  1.085619

 
 Final energy is   -286.856777284779     


 ******************************
 **  OPTIMIZATION CONVERGED  **
 ******************************

                       Coordinates (Angstroms)
     ATOM                X               Y               Z
      1  C         1.2762168731   -0.0345091358    0.0308777796
      2  C         0.5640206778   -1.0674329586    0.8147314180
      3  C        -0.8212809828   -1.0082333104    0.8734540096
      4  C        -1.4462579644    0.0127037076    0.1708127980
      5  C        -0.5997189955    0.9721359415   -0.5712834224
      6  N         0.7458582198    1.3941060175    0.0094843319
      7  H         2.3629473639   -0.0440276529    0.0859408862
      8  H         1.1396109545   -1.8206862799    1.3424277946
      9  H        -1.3936152337   -1.7289444646    1.4511603407
     10  H        -2.5230739528    0.1455464369    0.1680659076
     11  H        -1.1082535901    1.8193499802   -1.0270940241
     12  C         0.6792342969    0.5509959340   -1.1962958251
     13  H         1.1243123334    0.8089957843   -2.1522819943

Z-matrix Print:
$molecule
0 2
N 
C  1 1.472813
H  2 1.085619 1 124.495624
C  2 1.484493 1 62.087758 3 -122.511069 0
H  4 1.088183 2 116.559948 1 99.297172 0
C  4 1.479137 2 121.352052 1 -107.746562 0
H  6 1.084983 4 119.164796 2 -148.403585 0
C  6 1.388025 4 118.253720 2 33.158118 0
H  8 1.086617 6 121.320455 4 178.806768 0
C  8 1.387809 6 117.348781 4 -0.847250 0
H  10 1.084969 8 122.587692 6 179.105747 0
C  10 1.479386 8 118.240909 6 0.926066 0
H  12 1.088166 10 116.606435 8 173.882970 0
$end

 
 --------------------------------------------------------------
 
                    Orbital Energies (a.u.)
 --------------------------------------------------------------
 
 Alpha MOs
 -- Occupied --
-14.345 -10.230 -10.230 -10.227 -10.197 -10.197 -10.187  -1.013
 -0.808  -0.751  -0.634  -0.627  -0.606  -0.533  -0.479  -0.459
 -0.455  -0.412  -0.388  -0.357  -0.353  -0.338  -0.286  -0.241
 -0.181
 -- Virtual --
  0.018   0.088   0.111   0.137   0.142   0.156   0.158   0.175
  0.182   0.184   0.243   0.276   0.277   0.293   0.418   0.432
  0.476   0.523   0.549   0.549   0.558   0.582   0.592   0.607
  0.615   0.626   0.639   0.660   0.684   0.764   0.795   0.799
  0.813   0.818   0.842   0.856   0.864   0.870   0.912   0.938
  0.979   1.035   1.036   1.119   1.182   1.251   1.262   1.366
  1.388   1.410   1.496   1.505   1.555   1.608   1.651   1.698
  1.718   1.759   1.842   1.850   1.922   1.963   1.998   2.013
  2.059   2.136   2.156   2.157   2.248   2.258   2.276   2.414
  2.453   2.457   2.470   2.542   2.575   2.599   2.651   2.721
  2.749   2.805   2.866   2.909   3.163   3.896   4.114   4.158
  4.268   4.409   4.449   4.593
 
 Beta MOs
 -- Occupied --
-14.342 -10.231 -10.231 -10.226 -10.191 -10.189 -10.189  -1.009
 -0.798  -0.741  -0.626  -0.620  -0.601  -0.531  -0.474  -0.457
 -0.449  -0.408  -0.385  -0.354  -0.340  -0.313  -0.282  -0.237
 -- Virtual --
 -0.073   0.030   0.090   0.117   0.139   0.144   0.159   0.163
  0.182   0.186   0.197   0.246   0.279   0.283   0.297   0.421
  0.441   0.478   0.529   0.554   0.558   0.563   0.592   0.598
  0.609   0.626   0.642   0.644   0.672   0.693   0.766   0.802
  0.804   0.815   0.819   0.842   0.861   0.867   0.874   0.916
  0.939   0.992   1.038   1.040   1.123   1.184   1.253   1.264
  1.376   1.400   1.416   1.510   1.512   1.567   1.615   1.659
  1.706   1.724   1.768   1.845   1.860   1.934   1.970   2.002
  2.012   2.071   2.136   2.159   2.183   2.260   2.267   2.285
  2.416   2.458   2.472   2.479   2.548   2.587   2.602   2.664
  2.725   2.751   2.808   2.870   2.912   3.167   3.902   4.129
  4.163   4.269   4.415   4.454   4.597
 --------------------------------------------------------------
 
          Ground-State Mulliken Net Atomic Charges

     Atom                 Charge (a.u.)    Spin (a.u.)
  --------------------------------------------------------
      1 C                    -0.121430      -0.064665
      2 C                    -0.051573       0.626324
      3 C                    -0.179823      -0.258878
      4 C                    -0.051670       0.626743
      5 C                    -0.121528      -0.064816
      6 N                    -0.309577       0.100994
      7 H                     0.151016       0.001191
      8 H                     0.136451      -0.030663
      9 H                     0.133651       0.009281
     10 H                     0.136486      -0.030698
     11 H                     0.151040       0.001207
     12 C                    -0.030052       0.086714
     13 H                     0.157010      -0.002735
  --------------------------------------------------------
  Sum of atomic charges =     0.000000
  Sum of spin   charges =     1.000000

 -----------------------------------------------------------------
                    Cartesian Multipole Moments
 -----------------------------------------------------------------
    Charge (ESU x 10^10)
                 0.0000
    Dipole Moment (Debye)
         X      -0.4065      Y      -1.2443      Z      -0.8179
       Tot       1.5436
    Quadrupole Moments (Debye-Ang)
        XX     -36.4351     XY      -2.8236     YY     -42.8870
        XZ      -0.8128     YZ      -4.0913     ZZ     -39.4884
    Octopole Moments (Debye-Ang^2)
       XXX      -6.0573    XXY      -5.8588    XYY      -7.4777
       YYY     -19.4972    XXZ      -0.3847    XYZ      -0.0452
       YYZ      -0.3859    XZZ       0.3895    YZZ      -3.5931
       ZZZ      -6.7336
    Hexadecapole Moments (Debye-Ang^3)
      XXXX    -275.4279   XXXY     -17.5819   XXYY     -93.2995
      XYYY     -26.3023   YYYY    -264.2298   XXXZ      17.0037
      XXYZ      14.5924   XYYZ       6.5032   YYYZ      52.3564
      XXZZ     -77.6381   XYZZ      -2.4957   YYZZ     -65.2493
      XZZZ      12.9482   YZZZ      55.9873   ZZZZ    -174.7297
 -----------------------------------------------------------------
Archival summary:
1\1\c8-72\OPT\ProcedureUnspecified\6-31G*\166(2)\hpark21\WedMar211:54:582022WedMar211:54:582022\0\\#,OPT,ProcedureUnspecified,6-31G*,\\0,2\N\C,1,1.47281\H,2,1.08562,1,124.496\C,2,1.48449,1,62.0878,3,-122.511,0\H,4,1.08818,2,116.56,1,99.2972,0\C,4,1.47914,2,121.352,1,-107.747,0\H,6,1.08498,4,119.165,2,-148.404,0\C,6,1.38802,4,118.254,2,33.1581,0\H,8,1.08662,6,121.32,4,178.807,0\C,8,1.38781,6,117.349,4,-0.84725,0\H,10,1.08497,8,122.588,6,179.106,0\C,10,1.47939,8,118.241,6,0.926066,0\H,12,1.08817,10,116.606,8,173.883,0\\\@

 Total job time:  128.22s(wall), 109.81s(cpu) 
 Wed Mar  2 11:54:58 2022

        *************************************************************
        *                                                           *
        *  Thank you very much for using Q-Chem.  Have a nice day.  *
        *                                                           *
        *************************************************************


