
Running Job 1 of 1 qcts1.in
qchem qcts1.in_36129.0 ./qcts1.d/ 1
/home/leeping/opt/qchem/5.0.2-openmp/exe/qcprog.exe_s qcts1.in_36129.0 ./qcts1.d/
Check license passed

                  Welcome to Q-Chem
     A Quantum Leap Into The Future Of Chemistry


 Q-Chem 5.0, Q-Chem, Inc., Pleasanton, CA (2017)

 Yihan Shao,  Zhengting Gan,  E. Epifanovsky,  A. T. B. Gilbert,  M. Wormit,  
 J. Kussmann,  A. W. Lange,  A. Behn,  Jia Deng,  Xintian Feng,  D. Ghosh,  
 M. Goldey,  P. R. Horn,  L. D. Jacobson,  I. Kaliman,  T. Kus,  A. Landau,  
 Jie Liu,  E. I. Proynov,  R. M. Richard,  R. P. Steele,  E. J. Sundstrom,  
 H. L. Woodcock III,  P. M. Zimmerman,  D. Zuev,  B. Albrecht,  E. Alguire,  
 S. A. Baeppler,  D. Barton,  Z. Benda,  Y. A. Bernard,  E. J. Berquist,  
 K. B. Bravaya,  H. Burton,  D. Casanova,  Chun-Min Chang,  Yunqing Chen,  
 A. Chien,  K. D. Closser,  M. P. Coons,  S. Dasgupta,  A. L. Dempwolff,  
 M. Diedenhofen,  Hainam Do,  R. G. Edgar,  Po-Tung Fang,  S. Fatehi,  
 Qingguo Feng,  J. Fosso-Tande,  Qinghui Ge,  A. Ghysels,  G. Gidofalvi,  
 J. Gomes,  J. Gonthier,  A. Gunina,  M. W. D. Hanson-Heine,  
 P. H. P. Harbach,  A. W. Hauser,  J. E. Herr,  E. G. Hohenstein,  
 Z. C. Holden,  Kerwin Hui,  T.-C. Jagau,  Hyunjun Ji,  B. Kaduk,  
 K. Khistyaev,  Jaehoon Kim,  P. Klunzinger,  K. Koh,  D. Kosenkov,  
 L. Koulias,  T. Kowalczyk,  C. M. Krauter,  A. Kunitsa,  Ka Un Lao,  
 A. Laurent,  K. V. Lawler,  Joonho Lee,  D. Lefrancois,  S. Lehtola,  
 D. S. Levine,  Yi-Pei Li,  You-Sheng Lin,  Fenglai Liu,  E. Livshits,  
 A. Luenser,  P. Manohar,  E. Mansoor,  S. F. Manzer,  Shan-Ping Mao,  
 Yuezhi Mao,  N. Mardirossian,  A. V. Marenich,  T. Markovich,  
 L. A. Martinez-Martinez,  S. A. Maurer,  N. J. Mayhall,  S. C. McKenzie,  
 J.-M. Mewes,  A. F. Morrison,  J. W. Mullinax,  K. Nanda,  
 T. S. Nguyen-Beck,  R. Olivares-Amaya,  J. A. Parkhill,  T. M. Perrine,  
 F. Plasser,  S. Prager,  A. Prociuk,  E. Ramos,  D. R. Rehn,  F. Rob,  
 M. Schneider,  N. Sergueev,  S. M. Sharada,  S. Sharma,  D. W. Small,  
 T. Stauch,  T. Stein,  Yu-Chuan Su,  A. J. W. Thom,  A. Tkatchenko,  
 T. Tsuchimochi,  L. Vogt,  O. Vydrov,  M. A. Watson,  J. Wenzel,  
 M. de Wergifosse,  T. A. Wesolowski,  A. White,  J. Witte,  A. Yamada,  
 Jun Yang,  K. Yao,  S. Yeganeh,  S. R. Yost,  Zhi-Qiang You,  A. Zech,  
 Igor Ying Zhang,  Xing Zhang,  Yan Zhao,  Ying Zhu,  B. R. Brooks,  
 G. K. L. Chan,  C. J. Cramer,  M. S. Gordon,  W. J. Hehre,  A. Klamt,  
 M. W. Schmidt,  C. D. Sherrill,  D. G. Truhlar,  A. Aspuru-Guzik,  R. Baer,  
 A. T. Bell,  N. A. Besley,  Jeng-Da Chai,  R. A. DiStasio Jr.,  A. Dreuw,  
 B. D. Dunietz,  T. R. Furlani,  Chao-Ping Hsu,  Yousung Jung,  Jing Kong,  
 D. S. Lambrecht,  WanZhen Liang,  C. Ochsenfeld,  V. A. Rassolov,  
 L. V. Slipchenko,  J. E. Subotnik,  T. Van Voorhis,  J. M. Herbert,  
 A. I. Krylov,  P. M. W. Gill,  M. Head-Gordon

 Contributors to earlier versions of Q-Chem not listed above: 
 R. D. Adamson,  B. Austin,  J. Baker,  G. J. O. Beran,  K. Brandhorst,  
 S. T. Brown,  E. F. C. Byrd,  A. K. Chakraborty,  C.-L. Cheng,  
 Siu Hung Chien,  D. M. Chipman,  D. L. Crittenden,  H. Dachsel,  
 R. J. Doerksen,  A. D. Dutoi,  L. Fusti-Molnar,  W. A. Goddard III,  
 A. Golubeva-Zadorozhnaya,  S. R. Gwaltney,  G. Hawkins,  A. Heyden,  
 S. Hirata,  G. Kedziora,  F. J. Keil,  C. Kelley,  Jihan Kim,  R. A. King,  
 R. Z. Khaliullin,  P. P. Korambath,  W. Kurlancheek,  A. M. Lee,  M. S. Lee,  
 S. V. Levchenko,  Ching Yeh Lin,  D. Liotard,  R. C. Lochan,  I. Lotan,  
 P. E. Maslen,  N. Nair,  D. P. O'Neill,  D. Neuhauser,  E. Neuscamman,  
 C. M. Oana,  R. Olson,  B. Peters,  R. Peverati,  P. A. Pieniazek,  
 Y. M. Rhee,  J. Ritchie,  M. A. Rohrdanz,  E. Rosta,  N. J. Russ,  
 H. F. Schaefer III,  N. E. Schultz,  N. Shenvi,  A. C. Simmonett,  A. Sodt,  
 D. Stuck,  K. S. Thanthiriwatte,  V. Vanovschi,  Tao Wang,  A. Warshel,  
 C. F. Williams,  Q. Wu,  X. Xu,  W. Zhang

 Please cite Q-Chem as follows:
 Y. Shao et al., Mol. Phys. 113, 184-215 (2015)
 DOI: 10.1080/00268976.2014.952696

 Q-Chem 5.0.2 for Intel X86 EM64T Linux

 Parts of Q-Chem use Armadillo 5.200.1 (Boston Tea Smuggler).
 http://arma.sourceforge.net/

 Q-Chem begins on Wed Mar  2 12:53:11 2022  

Host: 
0

     Scratch files written to ./qcts1.d//
 Dec517 15110_ 26548  26544 5633   
Processing $rem in /home/leeping/opt/qchem/5.0.2-openmp/config/preferences.
 MEM_STATIC 2000
 MEM_TOTAL  8000
 SYMMETRY   OFF
 SYM_IGNORE TRUE 

Checking the input file for inconsistencies... 	...done.

--------------------------------------------------------------
User input:
--------------------------------------------------------------
$molecule
0 2
C        1.2905283460    0.2925145518    0.2322179982
C        0.5843643540   -0.9405500205    0.7767208684
C       -0.8129838428   -0.9359837358    0.8701676080
C       -1.4738120552    0.1258475996    0.2961946391
C       -0.7014850826    0.9989361257   -0.5993071227
N        0.6287728206    1.4935101414   -0.3226449842
H        2.3294102039    0.6674707620    0.2838752871
H        1.0845957191   -1.9176712039    0.8824582508
H       -1.3601990595   -1.7889170671    1.2741348451
H       -2.5459127439    0.2609897131    0.3748182401
H       -1.3120980779    1.8127054557   -1.0194981861
C        0.7696962707    0.2027536176   -1.1656138614
H        1.4690950076   -0.2985516535   -1.8827365923
$end

$rem
method                b3lyp
basis                 6-31g(d)
unrestricted          true
symmetry              off
sym_ignore            true
incdft                false
incfock               0
scf_convergence       6
thresh                14
jobtype               sp
scf_guess             read
scf_algorithm         diis
max_scf_cycles        100
stability_analysis    true
max_cis_cycles        100
cis_n_roots           4
$end

--------------------------------------------------------------
 ----------------------------------------------------------------
             Standard Nuclear Orientation (Angstroms)
    I     Atom           X                Y                Z
 ----------------------------------------------------------------
    1      C       1.2905283460     0.2925145518     0.2322179982
    2      C       0.5843643540    -0.9405500205     0.7767208684
    3      C      -0.8129838428    -0.9359837358     0.8701676080
    4      C      -1.4738120552     0.1258475996     0.2961946391
    5      C      -0.7014850826     0.9989361257    -0.5993071227
    6      N       0.6287728206     1.4935101414    -0.3226449842
    7      H       2.3294102039     0.6674707620     0.2838752871
    8      H       1.0845957191    -1.9176712039     0.8824582508
    9      H      -1.3601990595    -1.7889170671     1.2741348451
   10      H      -2.5459127439     0.2609897131     0.3748182401
   11      H      -1.3120980779     1.8127054557    -1.0194981861
   12      C       0.7696962707     0.2027536176    -1.1656138614
   13      H       1.4690950076    -0.2985516535    -1.8827365923
 ----------------------------------------------------------------
 Nuclear Repulsion Energy =   274.3013134436 hartrees
 There are       25 alpha and       24 beta electrons
 Requested basis set is 6-31G(d)
 There are 40 shells and 117 basis functions

 Total QAlloc Memory Limit   8000 MB
 Mega-Array Size      1956 MB
 MEM_STATIC part      2000 MB

                       Distance Matrix (Angstroms)
             C (  1)   C (  2)   C (  3)   C (  4)   C (  5)   N (  6)
   C (  2)  1.521709
   C (  3)  2.518125  1.400477
   C (  4)  2.770099  2.367319  1.376090
   C (  5)  2.271251  2.703418  2.432222  1.469931
   N (  6)  1.479251  2.671184  3.066579  2.583472  1.445936
   H (  7)  1.105684  2.423595  3.576233  3.841615  3.174304  1.985542
   H (  8)  2.313037  1.102804  2.136509  3.326428  3.727239  3.646396
   H (  9)  3.527649  2.179099  1.090930  2.153044  3.422837  4.156927
   H ( 10)  3.839220  3.376960  2.163599  1.083441  2.212555  3.476232
   H ( 11)  3.263654  3.795180  3.372721  2.145388  1.100740  2.086737
   C ( 12)  1.494409  2.261450  2.818866  2.678830  1.766065  1.548066
   H ( 13)  2.203243  2.875348  3.632174  3.686266  2.835857  2.520221
             H (  7)   H (  8)   H (  9)   H ( 10)   H ( 11)   C ( 12)
   H (  8)  2.931011
   H (  9)  4.541770  2.479316
   H ( 10)  4.893084  4.264370  2.533141
   H ( 11)  4.033724  4.824654  4.270217  2.423683
   C ( 12)  2.179378  2.964787  3.802049  3.656444  2.635747
   H ( 13)  2.523400  3.227335  4.493543  4.640035  3.596891  1.120148

 
 A cutoff of  1.0D-14 yielded    809 shell pairs
 There are      7081 function pairs
 Smallest overlap matrix eigenvalue = 1.25E-03

 Scale SEOQF with 1.000000e-01/1.000000e-01/1.000000e-01

 Standard Electronic Orientation quadrupole field applied
 Nucleus-field energy     =     0.0000000022 hartrees
 Guess MOs from SCF MO coefficient file
 Reading MOs from coefficient file
 Reading MOs from coefficient file
 An unrestricted hybrid HF-DFT SCF calculation will be
 performed using Pulay DIIS extrapolation
 Exchange:     0.2000 Hartree-Fock + 0.0800 Slater + 0.7200 B88
 Correlation:  0.1900 VWN1RPA + 0.8100 LYP
 Using SG-1 standard quadrature grid
 SCF converges when DIIS error is below 1.0E-06
Using Q-Chem read-in guess as SCF_GUESS READ specified.

 -------------------------------------------------------
 OpenMP BLAS3 based DFT computing Module                
 -------------------------------------------------------
 ---------------------------------------
  Cycle       Energy         DIIS Error
 ---------------------------------------
    1    -286.7526137988      2.96E-09
    2    -286.7526137988      4.01E-09 Convergence criterion met
 ---------------------------------------
 <S^2> = 0.7720
 SCF time:  CPU 3.49 s  wall 8.89 s
 SCF   energy in the final basis set = -286.75261380
 Total energy in the final basis set = -286.75261380
 
 Direct TDDFT/TDA calculation will be performed
 Exchange:     0.2000 Hartree-Fock + 0.0800 Slater + 0.7200 B88
 Correlation:  0.1900 VWN1RPA + 0.8100 LYP
 Using SG-1 standard quadrature grid
 CIS energy converged when residual is below 10e- 6
 ---------------------------------------------------
 Iter    Rts Conv    Rts Left    Ttl Dev     Max Dev
 ---------------------------------------------------
   1         0           4      0.006013    0.002023
   2         0           4      0.001915    0.000803
   3         0           4      0.000748    0.000304
   4         0           4      0.000263    0.000091
   5         0           4      0.000156    0.000063
   6         1           3      0.000060    0.000032
   7         1           3      0.000018    0.000011
   8         2           2      0.000006    0.000003
   9         4           0      0.000002    0.000001    Roots Converged
 ---------------------------------------------------
 
 ---------------------------------------------------
         TDDFT/TDA Excitation Energies              
 ---------------------------------------------------

 Excited state   1: excitation energy (eV) =    1.8014
 Total energy for state  1:                  -286.68641324 au
    <S**2>     :  0.8478
    Trans. Mom.:  0.1554 X   0.0203 Y   0.0484 Z
    Strength   :     0.0011872834
    D( 24) --> S(  1) amplitude =  0.9890 beta

 Excited state   2: excitation energy (eV) =    3.4223
 Total energy for state  2:                  -286.62684636 au
    <S**2>     :  1.2924
    Trans. Mom.:  0.1609 X  -0.1268 Y   0.1196 Z
    Strength   :     0.0047172847
    D( 24) --> V(  1) amplitude = -0.2271 alpha
    S(  1) --> V(  1) amplitude =  0.8699 alpha
    D( 22) --> S(  1) amplitude =  0.2409 beta
    D( 24) --> V(  1) amplitude = -0.2887 beta

 Excited state   3: excitation energy (eV) =    3.8018
 Total energy for state  3:                  -286.61290160 au
    <S**2>     :  2.1089
    Trans. Mom.:  0.0746 X  -0.0889 Y   0.1383 Z
    Strength   :     0.0030361990
    D( 24) --> V(  1) amplitude =  0.7170 alpha
    S(  1) --> V(  1) amplitude =  0.3342 alpha
    D( 22) --> S(  1) amplitude =  0.1634 beta
    D( 24) --> V(  1) amplitude =  0.5321 beta

 Excited state   4: excitation energy (eV) =    4.3687
 Total energy for state  4:                  -286.59206777 au
    <S**2>     :  0.8636
    Trans. Mom.: -0.1239 X   0.1156 Y  -0.0848 Z
    Strength   :     0.0038422784
    D( 23) --> S(  1) amplitude =  0.9610 beta
 
 ---------------------------------------------------

 Stability analysis will be performed
 ---------------------------------------------------
 Iter    Rts Conv    Rts Left    Ttl Dev     Max Dev
 ---------------------------------------------------
   1         0           8      0.005361    0.000753
   2         0           8      0.002257    0.000549
   3         0           8      0.001198    0.000492
   4         1           7      0.000787    0.000420
   5         2           6      0.001090    0.000892
   6         3           5      0.000400    0.000335
   7         4           4      0.000139    0.000118
   8         5           3      0.000037    0.000031
   9         7           1      0.000013    0.000010
  10         7           1      0.000006    0.000004
  11         7           1      0.000004    0.000002
  12         8           0      0.000003    0.000001    Roots Converged
 UKS-> UKS   stable,    smallest eigenvalue:      0.0564029
 UKS->CUKS   stable,    smallest eigenvalue:      0.0668821
 ---------------------------------------------------
  SETman timing summary (seconds)
  CPU time                85.47s
  System time              0.00s
  Wall time              107.58s
 
 --------------------------------------------------------------
 
                    Orbital Energies (a.u.)
 --------------------------------------------------------------
 
 Alpha MOs
 -- Occupied --
-14.363 -10.248 -10.236 -10.233 -10.216 -10.188 -10.178  -1.004
 -0.805  -0.758  -0.644  -0.621  -0.594  -0.529  -0.480  -0.456
 -0.445  -0.414  -0.398  -0.367  -0.331  -0.324  -0.296  -0.203
 -0.174
 -- Virtual --
  0.004   0.054   0.078   0.093   0.107   0.136   0.154   0.159
  0.184   0.199   0.234   0.245   0.278   0.295   0.417   0.447
  0.468   0.509   0.527   0.566   0.583   0.589   0.597   0.602
  0.615   0.642   0.650   0.667   0.705   0.713   0.774   0.786
  0.802   0.807   0.830   0.849   0.855   0.908   0.916   0.935
  0.983   0.987   1.058   1.105   1.148   1.202   1.262   1.270
  1.378   1.455   1.467   1.522   1.548   1.573   1.630   1.686
  1.730   1.783   1.811   1.890   1.927   1.955   1.962   1.998
  2.054   2.096   2.145   2.192   2.221   2.262   2.287   2.347
  2.427   2.460   2.478   2.523   2.562   2.571   2.626   2.654
  2.716   2.783   2.869   2.926   3.106   3.929   4.130   4.166
  4.247   4.356   4.450   4.567
 
 Beta MOs
 -- Occupied --
-14.362 -10.249 -10.234 -10.233 -10.208 -10.182 -10.181  -1.000
 -0.795  -0.748  -0.630  -0.618  -0.589  -0.526  -0.474  -0.452
 -0.441  -0.410  -0.395  -0.360  -0.318  -0.303  -0.292  -0.198
 -- Virtual --
 -0.079   0.020   0.060   0.094   0.098   0.115   0.138   0.156
  0.164   0.188   0.202   0.236   0.249   0.284   0.299   0.424
  0.453   0.471   0.513   0.541   0.571   0.587   0.595   0.604
  0.618   0.622   0.643   0.661   0.672   0.717   0.720   0.777
  0.789   0.804   0.811   0.833   0.853   0.859   0.912   0.919
  0.936   0.988   0.993   1.061   1.111   1.153   1.211   1.265
  1.276   1.389   1.463   1.474   1.529   1.555   1.585   1.642
  1.694   1.736   1.787   1.816   1.900   1.932   1.959   1.970
  2.010   2.061   2.101   2.151   2.205   2.238   2.269   2.301
  2.357   2.433   2.464   2.485   2.529   2.568   2.577   2.634
  2.664   2.721   2.789   2.873   2.928   3.110   3.932   4.137
  4.174   4.254   4.361   4.456   4.573
 --------------------------------------------------------------
 
          Ground-State Mulliken Net Atomic Charges

     Atom                 Charge (a.u.)    Spin (a.u.)
  --------------------------------------------------------
      1 C                    -0.088724      -0.006765
      2 C                    -0.093934       0.572426
      3 C                    -0.145607      -0.202630
      4 C                    -0.071299       0.525370
      5 C                    -0.054794      -0.036535
      6 N                    -0.313803       0.047396
      7 H                     0.171478       0.000528
      8 H                     0.146100      -0.028992
      9 H                     0.131661       0.015263
     10 H                     0.133129      -0.026169
     11 H                     0.152506       0.003559
     12 C                    -0.135026       0.143481
     13 H                     0.168314      -0.006932
  --------------------------------------------------------
  Sum of atomic charges =    -0.000000
  Sum of spin   charges =     1.000000

 -----------------------------------------------------------------
                    Cartesian Multipole Moments
 -----------------------------------------------------------------
    Charge (ESU x 10^10)
                 0.0000
    Dipole Moment (Debye)
         X       0.0605      Y      -1.3723      Z      -0.2314
       Tot       1.3930
    Quadrupole Moments (Debye-Ang)
        XX     -36.0384     XY      -3.2236     YY     -41.9548
        XZ      -0.5992     YZ      -0.8741     ZZ     -42.3018
    Octopole Moments (Debye-Ang^2)
       XXX      -3.6193    XXY      -5.3657    XYY      -6.7860
       YYY     -28.1431    XXZ      -0.7263    XYZ       3.9512
       YYZ       2.5580    XZZ       0.5340    YZZ      -7.3619
       ZZZ      -3.9599
    Hexadecapole Moments (Debye-Ang^3)
      XXXX    -287.2529   XXXY     -10.2536   XXYY     -90.5387
      XYYY     -24.9121   YYYY    -256.0810   XXXZ      18.2676
      XXYZ      16.9038   XYYZ      10.8238   YYYZ      48.7617
      XXZZ     -80.3324   XYZZ      -5.6498   YYZZ     -69.1613
      XZZZ      18.5983   YZZZ      57.5203   ZZZZ    -185.2121
 -----------------------------------------------------------------
Archival summary:
1\1\c8-72\SP\ProcedureUnspecified\6-31G*\166(2)\hpark21\WedMar212:55:102022WedMar212:55:102022\0\\#,ProcedureUnspecified,6-31G*,\\0,2\N\C,1,1.44594\H,2,1.10074,1,109.3\C,2,1.46993,1,124.749,3,-137.157,0\H,4,1.08344,2,119.343,1,143.332,0\C,4,1.37609,2,117.394,1,-44.5445,0\H,6,1.09093,4,121.122,2,-160.329,0\C,6,1.40048,4,116.99,2,12.7117,0\H,8,1.1028,6,116.685,4,-157.904,0\C,1,1.47925,2,101.867,3,179.65,0\H,10,1.10568,1,99.3536,2,171.876,0\C,10,1.49441,1,62.7416,2,60.6823,0\H,12,1.12015,10,114.086,1,136.579,0\\\@

 Total job time:  118.96s(wall), 89.16s(cpu) 
 Wed Mar  2 12:55:10 2022

        *************************************************************
        *                                                           *
        *  Thank you very much for using Q-Chem.  Have a nice day.  *
        *                                                           *
        *************************************************************


