
Running Job 1 of 1 qcts2.in
qchem qcts2.in_40888.0 ./qcts2.d/ 1
/home/leeping/opt/qchem/5.0.2-openmp/exe/qcprog.exe_s qcts2.in_40888.0 ./qcts2.d/
Check license passed

                  Welcome to Q-Chem
     A Quantum Leap Into The Future Of Chemistry


 Q-Chem 5.0, Q-Chem, Inc., Pleasanton, CA (2017)

 Yihan Shao,  Zhengting Gan,  E. Epifanovsky,  A. T. B. Gilbert,  M. Wormit,  
 J. Kussmann,  A. W. Lange,  A. Behn,  Jia Deng,  Xintian Feng,  D. Ghosh,  
 M. Goldey,  P. R. Horn,  L. D. Jacobson,  I. Kaliman,  T. Kus,  A. Landau,  
 Jie Liu,  E. I. Proynov,  R. M. Richard,  R. P. Steele,  E. J. Sundstrom,  
 H. L. Woodcock III,  P. M. Zimmerman,  D. Zuev,  B. Albrecht,  E. Alguire,  
 S. A. Baeppler,  D. Barton,  Z. Benda,  Y. A. Bernard,  E. J. Berquist,  
 K. B. Bravaya,  H. Burton,  D. Casanova,  Chun-Min Chang,  Yunqing Chen,  
 A. Chien,  K. D. Closser,  M. P. Coons,  S. Dasgupta,  A. L. Dempwolff,  
 M. Diedenhofen,  Hainam Do,  R. G. Edgar,  Po-Tung Fang,  S. Fatehi,  
 Qingguo Feng,  J. Fosso-Tande,  Qinghui Ge,  A. Ghysels,  G. Gidofalvi,  
 J. Gomes,  J. Gonthier,  A. Gunina,  M. W. D. Hanson-Heine,  
 P. H. P. Harbach,  A. W. Hauser,  J. E. Herr,  E. G. Hohenstein,  
 Z. C. Holden,  Kerwin Hui,  T.-C. Jagau,  Hyunjun Ji,  B. Kaduk,  
 K. Khistyaev,  Jaehoon Kim,  P. Klunzinger,  K. Koh,  D. Kosenkov,  
 L. Koulias,  T. Kowalczyk,  C. M. Krauter,  A. Kunitsa,  Ka Un Lao,  
 A. Laurent,  K. V. Lawler,  Joonho Lee,  D. Lefrancois,  S. Lehtola,  
 D. S. Levine,  Yi-Pei Li,  You-Sheng Lin,  Fenglai Liu,  E. Livshits,  
 A. Luenser,  P. Manohar,  E. Mansoor,  S. F. Manzer,  Shan-Ping Mao,  
 Yuezhi Mao,  N. Mardirossian,  A. V. Marenich,  T. Markovich,  
 L. A. Martinez-Martinez,  S. A. Maurer,  N. J. Mayhall,  S. C. McKenzie,  
 J.-M. Mewes,  A. F. Morrison,  J. W. Mullinax,  K. Nanda,  
 T. S. Nguyen-Beck,  R. Olivares-Amaya,  J. A. Parkhill,  T. M. Perrine,  
 F. Plasser,  S. Prager,  A. Prociuk,  E. Ramos,  D. R. Rehn,  F. Rob,  
 M. Schneider,  N. Sergueev,  S. M. Sharada,  S. Sharma,  D. W. Small,  
 T. Stauch,  T. Stein,  Yu-Chuan Su,  A. J. W. Thom,  A. Tkatchenko,  
 T. Tsuchimochi,  L. Vogt,  O. Vydrov,  M. A. Watson,  J. Wenzel,  
 M. de Wergifosse,  T. A. Wesolowski,  A. White,  J. Witte,  A. Yamada,  
 Jun Yang,  K. Yao,  S. Yeganeh,  S. R. Yost,  Zhi-Qiang You,  A. Zech,  
 Igor Ying Zhang,  Xing Zhang,  Yan Zhao,  Ying Zhu,  B. R. Brooks,  
 G. K. L. Chan,  C. J. Cramer,  M. S. Gordon,  W. J. Hehre,  A. Klamt,  
 M. W. Schmidt,  C. D. Sherrill,  D. G. Truhlar,  A. Aspuru-Guzik,  R. Baer,  
 A. T. Bell,  N. A. Besley,  Jeng-Da Chai,  R. A. DiStasio Jr.,  A. Dreuw,  
 B. D. Dunietz,  T. R. Furlani,  Chao-Ping Hsu,  Yousung Jung,  Jing Kong,  
 D. S. Lambrecht,  WanZhen Liang,  C. Ochsenfeld,  V. A. Rassolov,  
 L. V. Slipchenko,  J. E. Subotnik,  T. Van Voorhis,  J. M. Herbert,  
 A. I. Krylov,  P. M. W. Gill,  M. Head-Gordon

 Contributors to earlier versions of Q-Chem not listed above: 
 R. D. Adamson,  B. Austin,  J. Baker,  G. J. O. Beran,  K. Brandhorst,  
 S. T. Brown,  E. F. C. Byrd,  A. K. Chakraborty,  C.-L. Cheng,  
 Siu Hung Chien,  D. M. Chipman,  D. L. Crittenden,  H. Dachsel,  
 R. J. Doerksen,  A. D. Dutoi,  L. Fusti-Molnar,  W. A. Goddard III,  
 A. Golubeva-Zadorozhnaya,  S. R. Gwaltney,  G. Hawkins,  A. Heyden,  
 S. Hirata,  G. Kedziora,  F. J. Keil,  C. Kelley,  Jihan Kim,  R. A. King,  
 R. Z. Khaliullin,  P. P. Korambath,  W. Kurlancheek,  A. M. Lee,  M. S. Lee,  
 S. V. Levchenko,  Ching Yeh Lin,  D. Liotard,  R. C. Lochan,  I. Lotan,  
 P. E. Maslen,  N. Nair,  D. P. O'Neill,  D. Neuhauser,  E. Neuscamman,  
 C. M. Oana,  R. Olson,  B. Peters,  R. Peverati,  P. A. Pieniazek,  
 Y. M. Rhee,  J. Ritchie,  M. A. Rohrdanz,  E. Rosta,  N. J. Russ,  
 H. F. Schaefer III,  N. E. Schultz,  N. Shenvi,  A. C. Simmonett,  A. Sodt,  
 D. Stuck,  K. S. Thanthiriwatte,  V. Vanovschi,  Tao Wang,  A. Warshel,  
 C. F. Williams,  Q. Wu,  X. Xu,  W. Zhang

 Please cite Q-Chem as follows:
 Y. Shao et al., Mol. Phys. 113, 184-215 (2015)
 DOI: 10.1080/00268976.2014.952696

 Q-Chem 5.0.2 for Intel X86 EM64T Linux

 Parts of Q-Chem use Armadillo 5.200.1 (Boston Tea Smuggler).
 http://arma.sourceforge.net/

 Q-Chem begins on Wed Mar  2 13:46:51 2022  

Host: 
0

     Scratch files written to ./qcts2.d//
 Dec517 15110_ 26548  26544 5633   
Processing $rem in /home/leeping/opt/qchem/5.0.2-openmp/config/preferences.
 MEM_STATIC 2000
 MEM_TOTAL  8000
 SYMMETRY   OFF
 SYM_IGNORE TRUE 

Checking the input file for inconsistencies... 	...done.

--------------------------------------------------------------
User input:
--------------------------------------------------------------
$molecule
0 2
C        1.2736732341   -0.0534242323    0.0027283585
C        0.5501548232   -0.9936974482    0.8981708969
C       -0.8009069568   -0.9377320547    0.9572166765
C       -1.4793165355    0.0525634484    0.1618388328
C       -0.7614180360    1.0566263169   -0.4528846233
N        0.6475351660    1.3126029528   -0.2875465920
H        2.3384218916    0.0591125103    0.2050441740
H        1.1341452864   -1.6663502848    1.5181221891
H       -1.3706767583   -1.6128637231    1.5886508741
H       -2.5553092139    0.0228541139    0.0284397844
H       -1.2640146615    1.8435008099   -1.0076328227
C        0.8544953604    0.3346238491   -1.3447408673
H        1.3831882603    0.5552380280   -2.2666198908
$end

$rem
method                b3lyp
basis                 6-31+g(d,p)
unrestricted          true
symmetry              off
sym_ignore            true
incdft                false
incfock               0
scf_convergence       8
thresh                14
jobtype               freq
scf_guess             read
scf_algorithm         diis
max_scf_cycles        100
$end

--------------------------------------------------------------
 ----------------------------------------------------------------
             Standard Nuclear Orientation (Angstroms)
    I     Atom           X                Y                Z
 ----------------------------------------------------------------
    1      C       1.2736732341    -0.0534242323     0.0027283585
    2      C       0.5501548232    -0.9936974482     0.8981708969
    3      C      -0.8009069568    -0.9377320547     0.9572166765
    4      C      -1.4793165355     0.0525634484     0.1618388328
    5      C      -0.7614180360     1.0566263169    -0.4528846233
    6      N       0.6475351660     1.3126029528    -0.2875465920
    7      H       2.3384218916     0.0591125103     0.2050441740
    8      H       1.1341452864    -1.6663502848     1.5181221891
    9      H      -1.3706767583    -1.6128637231     1.5886508741
   10      H      -2.5553092139     0.0228541139     0.0284397844
   11      H      -1.2640146615     1.8435008099    -1.0076328227
   12      C       0.8544953604     0.3346238491    -1.3447408673
   13      H       1.3831882603     0.5552380280    -2.2666198908
 ----------------------------------------------------------------
 Nuclear Repulsion Energy =   272.8721307805 hartrees
 There are       25 alpha and       24 beta electrons
 Requested basis set is 6-31+G(d,p)
 There are 53 shells and 163 basis functions

 Total QAlloc Memory Limit   8000 MB
 Mega-Array Size      1956 MB
 MEM_STATIC part      2000 MB

                       Distance Matrix (Angstroms)
             C (  1)   C (  2)   C (  3)   C (  4)   C (  5)   N (  6)
   C (  2)  1.486408
   C (  3)  2.448863  1.353509
   C (  4)  2.759620  2.399083  1.439983
   C (  5)  2.362497  2.783775  2.442828  1.378915
   N (  6)  1.530470  2.595078  2.951513  2.512597  1.441530
   H (  7)  1.089627  2.187860  3.378587  3.817989  3.322185  2.161708
   H (  8)  2.217525  1.085286  2.142411  3.409450  3.859097  3.517299
   H (  9)  3.455371  2.133008  1.085887  2.195733  3.415441  4.018912
   H ( 10)  3.829828  3.381378  2.205284  1.084637  2.125654  3.467205
   H ( 11)  3.325510  3.869495  3.436620  2.149762  1.086057  2.110545
   C ( 12)  1.463545  2.624445  3.107773  2.792135  1.981886  1.454969
   H ( 13)  2.352106  3.620642  4.170414  3.787351  2.853132  2.243105
             H (  7)   H (  8)   H (  9)   H ( 10)   H ( 11)   C ( 12)
   H (  8)  2.480258
   H (  9)  4.297358  2.506386
   H ( 10)  4.897051  4.322573  2.552094
   H ( 11)  4.199068  4.944660  4.324179  2.460822
   C ( 12)  2.163279  3.504010  4.165199  3.689118  2.622677
   H ( 13)  2.695874  4.395651  5.210331  4.589389  3.201930  1.085379

 
 A cutoff of  1.0D-14 yielded   1380 shell pairs
 There are     13440 function pairs
 Smallest overlap matrix eigenvalue = 1.70E-05
 Guess MOs from SCF MO coefficient file
 Reading MOs from coefficient file
 Reading MOs from coefficient file
 An unrestricted hybrid HF-DFT SCF calculation will be
 performed using Pulay DIIS extrapolation
 Exchange:     0.2000 Hartree-Fock + 0.0800 Slater + 0.7200 B88
 Correlation:  0.1900 VWN1RPA + 0.8100 LYP
 Using SG-1 standard quadrature grid
 SCF converges when DIIS error is below 1.0E-08
Using Q-Chem read-in guess as SCF_GUESS READ specified.

 -------------------------------------------------------
 OpenMP BLAS3 based DFT computing Module                
 -------------------------------------------------------
 ---------------------------------------
  Cycle       Energy         DIIS Error
 ---------------------------------------
    1    -286.8424829065      2.61E-10
    2    -286.8424829065      3.72E-10 Convergence criterion met
 ---------------------------------------
 <S^2> = 0.7942
 SCF time:  CPU 7.22 s  wall 9.93 s
 SCF   energy in the final basis set = -286.84248291
 Total energy in the final basis set = -286.84248291
 
 --------------------------------------------------------------
 
                    Orbital Energies (a.u.)
 --------------------------------------------------------------
 
 Alpha MOs
 -- Occupied --
-14.363 -10.247 -10.244 -10.241 -10.206 -10.205 -10.202  -1.010
 -0.819  -0.774  -0.662  -0.643  -0.594  -0.534  -0.490  -0.486
 -0.464  -0.433  -0.398  -0.369  -0.363  -0.328  -0.305  -0.235
 -0.191
 -- Virtual --
 -0.042   0.006   0.020   0.023   0.037   0.039   0.040   0.061
  0.073   0.075   0.083   0.087   0.093   0.113   0.119   0.123
  0.133   0.137   0.144   0.149   0.160   0.176   0.181   0.189
  0.191   0.196   0.203   0.209   0.221   0.229   0.240   0.257
  0.262   0.270   0.276   0.289   0.301   0.310   0.328   0.344
  0.361   0.369   0.474   0.504   0.577   0.636   0.648   0.679
  0.695   0.716   0.720   0.734   0.747   0.754   0.773   0.785
  0.813   0.872   0.888   0.902   0.933   0.936   0.962   0.979
  0.996   1.024   1.039   1.056   1.088   1.109   1.143   1.175
  1.200   1.208   1.268   1.273   1.324   1.364   1.404   1.427
  1.497   1.564   1.592   1.616   1.721   1.789   1.832   1.858
  1.875   1.913   1.925   1.955   2.000   2.017   2.033   2.061
  2.113   2.135   2.176   2.241   2.285   2.323   2.374   2.386
  2.413   2.422   2.436   2.470   2.493   2.523   2.534   2.555
  2.573   2.597   2.630   2.665   2.693   2.713   2.776   2.818
  2.877   2.921   3.030   3.080   3.243   3.280   3.294   3.367
  3.439   3.541   3.780   4.217   4.309   4.321   4.466   4.495
  4.583   4.769
 
 Beta MOs
 -- Occupied --
-14.362 -10.250 -10.244 -10.230 -10.204 -10.202 -10.200  -1.004
 -0.814  -0.770  -0.652  -0.642  -0.578  -0.530  -0.487  -0.481
 -0.456  -0.431  -0.396  -0.365  -0.356  -0.318  -0.295  -0.217
 -- Virtual --
 -0.087  -0.032   0.007   0.020   0.023   0.037   0.040   0.041
  0.066   0.075   0.076   0.084   0.092   0.098   0.116   0.122
  0.124   0.135   0.137   0.144   0.151   0.162   0.177   0.182
  0.192   0.193   0.201   0.205   0.210   0.222   0.231   0.241
  0.259   0.265   0.273   0.279   0.292   0.305   0.311   0.332
  0.346   0.363   0.376   0.478   0.509   0.580   0.639   0.667
  0.685   0.703   0.726   0.731   0.741   0.748   0.756   0.774
  0.787   0.825   0.875   0.889   0.904   0.935   0.939   0.965
  0.983   0.996   1.027   1.041   1.060   1.093   1.117   1.146
  1.179   1.203   1.210   1.276   1.279   1.330   1.372   1.407
  1.434   1.505   1.572   1.599   1.626   1.726   1.799   1.842
  1.864   1.890   1.915   1.931   1.962   2.003   2.022   2.034
  2.071   2.121   2.144   2.180   2.252   2.290   2.328   2.375
  2.390   2.419   2.425   2.442   2.474   2.497   2.528   2.536
  2.561   2.580   2.607   2.634   2.669   2.696   2.720   2.780
  2.826   2.882   2.926   3.034   3.083   3.244   3.280   3.295
  3.371   3.445   3.545   3.781   4.220   4.314   4.328   4.466
  4.503   4.599   4.772
 --------------------------------------------------------------
 
          Ground-State Mulliken Net Atomic Charges

     Atom                 Charge (a.u.)    Spin (a.u.)
  --------------------------------------------------------
      1 C                    -0.126942      -0.107379
      2 C                    -0.006339       0.304403
      3 C                    -0.172486      -0.194400
      4 C                     0.066144       0.421033
      5 C                    -0.255655      -0.256058
      6 N                    -0.134311       0.039467
      7 H                     0.145415       0.017943
      8 H                     0.128423      -0.012979
      9 H                     0.131681       0.008618
     10 H                     0.129077      -0.019086
     11 H                     0.143644       0.008965
     12 C                    -0.192968       0.793673
     13 H                     0.144318      -0.004201
  --------------------------------------------------------
  Sum of atomic charges =    -0.000000
  Sum of spin   charges =     1.000000

 -----------------------------------------------------------------
                    Cartesian Multipole Moments
 -----------------------------------------------------------------
    Charge (ESU x 10^10)
                -0.0000
    Dipole Moment (Debye)
         X      -0.2130      Y      -0.9657      Z      -0.1848
       Tot       1.0060
    Quadrupole Moments (Debye-Ang)
        XX     -36.7039     XY      -2.3428     YY     -44.3838
        XZ      -0.4949     YZ      -4.0266     ZZ     -41.0957
    Octopole Moments (Debye-Ang^2)
       XXX      -3.7436    XXY      -6.0330    XYY      -7.5812
       YYY     -16.9313    XXZ       0.1655    XYZ       1.3867
       YYZ       1.9779    XZZ       2.6009    YZZ      -3.7777
       ZZZ      -2.7978
    Hexadecapole Moments (Debye-Ang^3)
      XXXX    -301.2399   XXXY      -4.4301   XXYY     -96.8677
      XYYY     -18.1068   YYYY    -259.8318   XXXZ      28.9511
      XXYZ      13.5352   XYYZ      12.7476   YYYZ      57.5267
      XXZZ     -86.7374   XYZZ       0.4935   YYZZ     -70.1384
      XZZZ      18.3178   YZZZ      56.0972   ZZZZ    -218.1383
 -----------------------------------------------------------------
 Calculating MO derivatives via CPSCF
   1         3          39      0.304185    0.059915
   2         3          39      0.039489    0.007127
   3         3          39      0.005646    0.001011
   4         3          39      0.000709    0.000114
   5        23          19      0.000065    0.000011
   6        41           1      0.000001    0.000001
   7        42           0      0.000000    0.000000    Roots Converged
 Time for AOints: 20.3 s (CPU) 22.1 s (wall)
 ------------------------------------------------------------------------------
                     AOints        : Timing summary (seconds)
 ------------------------------------------------------------------------------
     job step          cpu (% of tot)      sys (% of tot)     wall (% of tot)
 ------------------------------------------------------------------------------
  cpscf_lag         0.1185E+03 (28.2)   0.5100E-04 (25.1)   0.1262E+03 (28.3)
  iterzp            0.2814E+03 (66.9)   0.1450E-03 (71.4)   0.2965E+03 (66.6)
  make_fx           0.0000E+00 ( 0.0)   0.0000E+00 ( 0.0)   0.0000E+00 ( 0.0)
  AOints            0.2033E+02 ( 4.8)   0.3000E-05 ( 1.5)   0.2208E+02 ( 5.0)
 ------------------------------------------------------------------------------
   Grand Totals     0.4206E+03          0.2030E-03          0.4451E+03
 ------------------------------------------------------------------------------
 Calculating analytic Hessian of the SCF energy
 Polarizability Matrix (a.u.)
            1           2           3
    1 -83.8158006   1.4362122   7.8550467
    2   1.4362122 -67.5571799  15.1344112
    3   7.8550467  15.1344112 -71.6585854
 
 Direct stationary perturbation theory relativistic correction:
 
 rels  =       0.069373349246
 relv  =      -0.338939688099
 rel2e =       0.156590496341
 E_rel =      -0.112975842512
 
 Hessian of the SCF Energy
            1           2           3           4           5           6
    1   0.6261865   0.0510971   0.0625623  -0.1283873  -0.0491189   0.0454724
    2   0.0510971   0.3019767  -0.1661999  -0.0322876  -0.1163486   0.0637004
    3   0.0625623  -0.1661999   0.4319633   0.0326897   0.0570877  -0.1176061
    4  -0.1283873  -0.0322876   0.0326897   0.7702372  -0.0777661   0.0316419
    5  -0.0491189  -0.1163486   0.0570877  -0.0777661   0.3785131  -0.2398103
    6   0.0454724   0.0637004  -0.1176061   0.0316419  -0.2398103   0.3447331
    7  -0.0266248  -0.0243894   0.0173353  -0.4467893   0.0240739   0.0137514
    8  -0.0168533   0.0087814   0.0039763  -0.0080586  -0.0875160   0.0273199
    9   0.0210225  -0.0058365  -0.0011629   0.0349754   0.0285098  -0.0806019
   10  -0.0008735  -0.0010271  -0.0002066  -0.0278859   0.0280785  -0.0215027
   11  -0.0095877  -0.0140914   0.0016552   0.0598893   0.0077931   0.0009394
   12   0.0087166  -0.0004301  -0.0056211  -0.0413720   0.0010304   0.0074697
   13  -0.0093170   0.0082340  -0.0046312  -0.0347737  -0.0027404  -0.0011784
   14   0.0416770  -0.0006173   0.0053027  -0.0061269   0.0016828   0.0004601
   15  -0.0367149   0.0044912   0.0043047   0.0298522   0.0036734  -0.0055279
   16  -0.0750735   0.0277113  -0.0224573   0.0068853  -0.0081267  -0.0017437
   17   0.0151335  -0.1125250   0.0321892  -0.0117115  -0.0291074   0.0075101
   18   0.0337866  -0.0129679  -0.0180554  -0.0136800   0.0244799  -0.0067431
   19  -0.3123410  -0.0328337  -0.0450945  -0.0121091  -0.0006862  -0.0031438
   20  -0.0427466  -0.0505160  -0.0032208  -0.0189547   0.0020687  -0.0046572
   21  -0.0552466  -0.0008459  -0.0523239   0.0215881   0.0017760   0.0042469
   22   0.0095978  -0.0089188   0.0096309  -0.1389224   0.0944249  -0.0870776
   23   0.0098726  -0.0044431   0.0093305   0.0941542  -0.1548163   0.1146509
   24  -0.0108723   0.0097722  -0.0050784  -0.0899277   0.1167881  -0.1357588
   25  -0.0051283   0.0021895  -0.0012535  -0.0109278  -0.0211127   0.0204509
   26   0.0010694   0.0050546   0.0034367   0.0036981   0.0051781  -0.0003755
   27   0.0001480   0.0043764   0.0061414   0.0018949   0.0013927   0.0037510
   28   0.0007223  -0.0001111  -0.0002173   0.0008851   0.0016471  -0.0020284
   29   0.0000052  -0.0002543  -0.0001079   0.0004613  -0.0024260   0.0043900
   30   0.0001642   0.0006227  -0.0006104  -0.0029139   0.0036465  -0.0007263
   31  -0.0064298  -0.0040532  -0.0009828   0.0003778  -0.0003572   0.0000360
   32  -0.0012187   0.0046910  -0.0000305  -0.0020866  -0.0009064   0.0004499
   33   0.0013322   0.0037783  -0.0000517  -0.0021729  -0.0018948   0.0014114
   34  -0.0793624   0.0086068  -0.0340967   0.0219315   0.0151349   0.0053278
   35   0.0103565  -0.0147787   0.0581946   0.0007247  -0.0051511   0.0222879
   36  -0.0794431   0.0979165  -0.2359210  -0.0013307   0.0068316  -0.0155075
   37   0.0070311   0.0057821  -0.0132783  -0.0005213  -0.0034510  -0.0000057
   38  -0.0096861  -0.0069292  -0.0016139  -0.0019354   0.0010361   0.0031343
   39   0.0090721   0.0016225  -0.0059784  -0.0012449  -0.0035110   0.0008594
            7           8           9          10          11          12
    1  -0.0266248  -0.0168533   0.0210225  -0.0008735  -0.0095877   0.0087166
    2  -0.0243894   0.0087814  -0.0058365  -0.0010271  -0.0140914  -0.0004301
    3   0.0173353   0.0039763  -0.0011629  -0.0002066   0.0016552  -0.0056211
    4  -0.4467893  -0.0080586   0.0349754  -0.0278859   0.0598893  -0.0413720
    5   0.0240739  -0.0875160   0.0285098   0.0280785   0.0077931   0.0010304
    6   0.0137514   0.0273199  -0.0806019  -0.0215027   0.0009394   0.0074697
    7   0.7414710   0.0442730  -0.0761336  -0.1452795   0.0030783  -0.0087405
    8   0.0442730   0.4163752  -0.2591512   0.0617423  -0.1478640   0.0774263
    9  -0.0761336  -0.2591512   0.3533174  -0.0549054   0.0792551  -0.1236998
   10  -0.1452795   0.0617423  -0.0549054   0.7108484   0.0578918   0.0355864
   11   0.0030783  -0.1478640   0.0792551   0.0578918   0.4300394  -0.2197878
   12  -0.0087405   0.0774263  -0.1236998   0.0355864  -0.2197878   0.2704534
   13   0.0589935  -0.0197199   0.0153044  -0.1616865  -0.0381549   0.0066014
   14  -0.0012553  -0.0272037   0.0225460  -0.1234795  -0.2568269   0.1361105
   15  -0.0387116   0.0459531  -0.0239986   0.0409931   0.0590150  -0.0748240
   16   0.0053771   0.0032508  -0.0033129  -0.0242425  -0.0006214  -0.0210057
   17   0.0214638  -0.0096790   0.0095381  -0.0131422   0.0319470  -0.0284522
   18   0.0106141  -0.0127294   0.0023014   0.0290748   0.0316906  -0.0125965
   19   0.0007970  -0.0033118   0.0017389   0.0006276   0.0004404  -0.0003994
   20  -0.0024467  -0.0018293   0.0028789   0.0008971  -0.0003030   0.0006082
   21  -0.0004966   0.0043056  -0.0027835  -0.0007734  -0.0014576   0.0016394
   22  -0.0106031   0.0213618  -0.0191208  -0.0051907  -0.0011132   0.0015975
   23   0.0001870   0.0032810   0.0026980   0.0004889   0.0066951   0.0036090
   24   0.0038877  -0.0015420   0.0062866   0.0011659   0.0050393   0.0048120
   25  -0.1358560  -0.0907218   0.0854600   0.0119442   0.0094393  -0.0088562
   26  -0.0948232  -0.1562064   0.1124850  -0.0118739  -0.0116246   0.0124115
   27   0.0825973   0.1157876  -0.1426017   0.0109709   0.0057277  -0.0032180
   28  -0.0090402  -0.0021818   0.0003868  -0.3395110  -0.0105284  -0.0365219
   29   0.0235111   0.0037422   0.0008913  -0.0090501  -0.0445161   0.0133585
   30  -0.0138967  -0.0040563   0.0026685  -0.0382398   0.0158578  -0.0455753
   31  -0.0019151  -0.0025625   0.0003188   0.0115236  -0.0136828   0.0083407
   32  -0.0030178  -0.0000454   0.0049549   0.0121168  -0.0091155   0.0103797
   33   0.0030203   0.0032955   0.0058442  -0.0077757   0.0117072  -0.0027092
   34  -0.0293672   0.0112363  -0.0044308  -0.0283244  -0.0538575   0.0528114
   35   0.0070469   0.0007252  -0.0008264  -0.0050801   0.0025208  -0.0042110
   36   0.0048638  -0.0002152   0.0044813   0.0056600   0.0072239  -0.0153979
   37  -0.0011633   0.0015456  -0.0013033  -0.0019499  -0.0031931   0.0032418
   38   0.0022983  -0.0025613   0.0020569   0.0024376   0.0053463  -0.0020530
   39   0.0019091  -0.0003702  -0.0000510  -0.0000474   0.0031341  -0.0007328
           13          14          15          16          17          18
    1  -0.0093170   0.0416770  -0.0367149  -0.0750735   0.0151335   0.0337866
    2   0.0082340  -0.0006173   0.0044912   0.0277113  -0.1125250  -0.0129679
    3  -0.0046312   0.0053027   0.0043047  -0.0224573   0.0321892  -0.0180554
    4  -0.0347737  -0.0061269   0.0298522   0.0068853  -0.0117115  -0.0136800
    5  -0.0027404   0.0016828   0.0036734  -0.0081267  -0.0291074   0.0244799
    6  -0.0011784   0.0004601  -0.0055279  -0.0017437   0.0075101  -0.0067431
    7   0.0589935  -0.0012553  -0.0387116   0.0053771   0.0214638   0.0106141
    8  -0.0197199  -0.0272037   0.0459531   0.0032508  -0.0096790  -0.0127294
    9   0.0153044   0.0225460  -0.0239986  -0.0033129   0.0095381   0.0023014
   10  -0.1616865  -0.1234795   0.0409931  -0.0242425  -0.0131422   0.0290748
   11  -0.0381549  -0.2568269   0.0590150  -0.0006214   0.0319470   0.0316906
   12   0.0066014   0.1361105  -0.0748240  -0.0210057  -0.0284522  -0.0125965
   13   0.4443116   0.0410956   0.1314299  -0.2442443  -0.0734285  -0.0952141
   14   0.0410956   0.5807076  -0.3018760  -0.0459749  -0.0835378   0.0241261
   15   0.1314299  -0.3018760   0.2199549   0.0197561   0.0539466  -0.0030443
   16  -0.2442443  -0.0459749   0.0197561   0.3461574  -0.0081711  -0.0154575
   17  -0.0734285  -0.0835378   0.0539466  -0.0081711   0.3138739   0.0506520
   18  -0.0952141   0.0241261  -0.0030443  -0.0154575   0.0506520   0.1770843
   19   0.0002950   0.0016184  -0.0016944  -0.0069691  -0.0012736  -0.0041132
   20   0.0004200  -0.0062042   0.0054206   0.0300920   0.0043502   0.0063767
   21   0.0038607  -0.0009485  -0.0022619   0.0063507   0.0039166   0.0007677
   22  -0.0009621  -0.0004562  -0.0000051   0.0003868  -0.0021577   0.0024219
   23  -0.0020947  -0.0004982  -0.0014078   0.0014039  -0.0032423   0.0039511
   24  -0.0009051  -0.0010693  -0.0007102   0.0026726  -0.0013375  -0.0003445
   25  -0.0011021   0.0024627  -0.0026971   0.0008568   0.0003412   0.0001415
   26   0.0040916  -0.0010580   0.0017609   0.0013617   0.0010779   0.0000477
   27  -0.0012942   0.0015277  -0.0025879   0.0021873   0.0010154   0.0005727
   28  -0.0126217   0.0018645  -0.0040994   0.0010100  -0.0013063   0.0015747
   29  -0.0244303   0.0015750  -0.0039599  -0.0025282  -0.0001872   0.0055132
   30   0.0126815   0.0000633   0.0068194   0.0001177   0.0034191   0.0018064
   31  -0.1064749   0.0943332  -0.0652989  -0.0244694   0.0237654  -0.0148374
   32   0.0907918  -0.2084428   0.1166214   0.0001994   0.0071011  -0.0048866
   33  -0.0705828   0.1123023  -0.1187342   0.0011616   0.0025287  -0.0013435
   34   0.0632670  -0.0046368  -0.0687994   0.0128494   0.0502131   0.0639494
   35   0.0274565   0.0041602   0.0156522  -0.0152000  -0.1262906  -0.0902650
   36   0.0088563   0.0031118   0.0008994   0.0242722  -0.1313783  -0.1279731
   37   0.0043151  -0.0011218  -0.0040104   0.0014760   0.0002739   0.0017392
   38  -0.0115206  -0.0037366   0.0007093   0.0166031   0.0062192  -0.0259884
   39  -0.0049283  -0.0016569  -0.0002893   0.0074589  -0.0035478  -0.0124321
           19          20          21          22          23          24
    1  -0.3123410  -0.0427466  -0.0552466   0.0095978   0.0098726  -0.0108723
    2  -0.0328337  -0.0505160  -0.0008459  -0.0089188  -0.0044431   0.0097722
    3  -0.0450945  -0.0032208  -0.0523239   0.0096309   0.0093305  -0.0050784
    4  -0.0121091  -0.0189547   0.0215881  -0.1389224   0.0941542  -0.0899277
    5  -0.0006862   0.0020687   0.0017760   0.0944249  -0.1548163   0.1167881
    6  -0.0031438  -0.0046572   0.0042469  -0.0870776   0.1146509  -0.1357588
    7   0.0007970  -0.0024467  -0.0004966  -0.0106031   0.0001870   0.0038877
    8  -0.0033118  -0.0018293   0.0043056   0.0213618   0.0032810  -0.0015420
    9   0.0017389   0.0028789  -0.0027835  -0.0191208   0.0026980   0.0062866
   10   0.0006276   0.0008971  -0.0007734  -0.0051907   0.0004889   0.0011659
   11   0.0004404  -0.0003030  -0.0014576  -0.0011132   0.0066951   0.0050393
   12  -0.0003994   0.0006082   0.0016394   0.0015975   0.0036090   0.0048120
   13   0.0002950   0.0004200   0.0038607  -0.0009621  -0.0020947  -0.0009051
   14   0.0016184  -0.0062042  -0.0009485  -0.0004562  -0.0004982  -0.0010693
   15  -0.0016944   0.0054206  -0.0022619  -0.0000051  -0.0014078  -0.0007102
   16  -0.0069691   0.0300920   0.0063507   0.0003868   0.0014039   0.0026726
   17  -0.0012736   0.0043502   0.0039166  -0.0021577  -0.0032423  -0.0013375
   18  -0.0041132   0.0063767   0.0007677   0.0024219   0.0039511  -0.0003445
   19   0.3340415   0.0322841   0.0548956   0.0007157   0.0001194   0.0005927
   20   0.0322841   0.0536430  -0.0061811   0.0003332   0.0004300  -0.0004399
   21   0.0548956  -0.0061811   0.0583385  -0.0004124  -0.0003844   0.0003783
   22   0.0007157   0.0003332  -0.0004124   0.1446691  -0.1029335   0.0933210
   23   0.0001194   0.0004300  -0.0003844  -0.1029335   0.1563884  -0.1264592
   24   0.0005927  -0.0004399   0.0003783   0.0933210  -0.1264592   0.1360821
   25  -0.0006643  -0.0010750   0.0009455   0.0011243   0.0001279  -0.0003896
   26   0.0003157   0.0001942  -0.0004358  -0.0002817  -0.0023324  -0.0032394
   27   0.0001219   0.0002416  -0.0003957   0.0000597  -0.0037238  -0.0030593
   28  -0.0000092  -0.0000040   0.0000099  -0.0004994  -0.0000269   0.0002930
   29   0.0000029  -0.0000151  -0.0001598   0.0012553  -0.0001638  -0.0001061
   30  -0.0000663  -0.0002375   0.0000570  -0.0008132   0.0001864   0.0005997
   31  -0.0005910   0.0022240   0.0003351   0.0001894   0.0001980   0.0000601
   32  -0.0001905   0.0000635   0.0003564   0.0000303  -0.0004615  -0.0005163
   33   0.0002591  -0.0003189   0.0007616  -0.0001711  -0.0007628  -0.0008265
   34  -0.0042789  -0.0018093  -0.0323745  -0.0007583  -0.0016354   0.0004240
   35   0.0031270  -0.0022070   0.0004374  -0.0013657  -0.0006181   0.0028094
   36  -0.0031081  -0.0011374  -0.0092046   0.0004635  -0.0017902  -0.0022192
   37   0.0004859   0.0007858   0.0013178   0.0002530   0.0001388  -0.0003224
   38   0.0003878   0.0003249  -0.0003789  -0.0001788  -0.0002187   0.0003007
   39   0.0000115   0.0006670   0.0007801   0.0001056   0.0001023  -0.0001620
           25          26          27          28          29          30
    1  -0.0051283   0.0010694   0.0001480   0.0007223   0.0000052   0.0001642
    2   0.0021895   0.0050546   0.0043764  -0.0001111  -0.0002543   0.0006227
    3  -0.0012535   0.0034367   0.0061414  -0.0002173  -0.0001079  -0.0006104
    4  -0.0109278   0.0036981   0.0018949   0.0008851   0.0004613  -0.0029139
    5  -0.0211127   0.0051781   0.0013927   0.0016471  -0.0024260   0.0036465
    6   0.0204509  -0.0003755   0.0037510  -0.0020284   0.0043900  -0.0007263
    7  -0.1358560  -0.0948232   0.0825973  -0.0090402   0.0235111  -0.0138967
    8  -0.0907218  -0.1562064   0.1157876  -0.0021818   0.0037422  -0.0040563
    9   0.0854600   0.1124850  -0.1426017   0.0003868   0.0008913   0.0026685
   10   0.0119442  -0.0118739   0.0109709  -0.3395110  -0.0090501  -0.0382398
   11   0.0094393  -0.0116246   0.0057277  -0.0105284  -0.0445161   0.0158578
   12  -0.0088562   0.0124115  -0.0032180  -0.0365219   0.0133585  -0.0455753
   13  -0.0011021   0.0040916  -0.0012942  -0.0126217  -0.0244303   0.0126815
   14   0.0024627  -0.0010580   0.0015277   0.0018645   0.0015750   0.0000633
   15  -0.0026971   0.0017609  -0.0025879  -0.0040994  -0.0039599   0.0068194
   16   0.0008568   0.0013617   0.0021873   0.0010100  -0.0025282   0.0001177
   17   0.0003412   0.0010779   0.0010154  -0.0013063  -0.0001872   0.0034191
   18   0.0001415   0.0000477   0.0005727   0.0015747   0.0055132   0.0018064
   19  -0.0006643   0.0003157   0.0001219  -0.0000092   0.0000029  -0.0000663
   20  -0.0010750   0.0001942   0.0002416  -0.0000040  -0.0000151  -0.0002375
   21   0.0009455  -0.0004358  -0.0003957   0.0000099  -0.0001598   0.0000570
   22   0.0011243  -0.0002817   0.0000597  -0.0004994   0.0012553  -0.0008132
   23   0.0001279  -0.0023324  -0.0037238  -0.0000269  -0.0001638   0.0001864
   24  -0.0003896  -0.0032394  -0.0030593   0.0002930  -0.0001061   0.0005997
   25   0.1397202   0.0979476  -0.0942786   0.0005736  -0.0006403   0.0004097
   26   0.0979476   0.1607251  -0.1258447   0.0003748  -0.0001988  -0.0012382
   27  -0.0942786  -0.1258447   0.1403361   0.0000199  -0.0010177  -0.0000828
   28   0.0005736   0.0003748   0.0000199   0.3581067   0.0108340   0.0403775
   29  -0.0006403  -0.0001988  -0.0010177   0.0108340   0.0439701  -0.0162763
   30   0.0004097  -0.0012382  -0.0000828   0.0403775  -0.0162763   0.0371544
   31   0.0004658  -0.0005450   0.0006145   0.0006834   0.0005522   0.0004136
   32   0.0008661  -0.0006420   0.0007369   0.0000221  -0.0008436  -0.0021035
   33  -0.0001497   0.0000730  -0.0002830   0.0005472  -0.0023084  -0.0025623
   34  -0.0010675  -0.0012889  -0.0031476  -0.0003259  -0.0000711   0.0016400
   35   0.0002357  -0.0000617  -0.0000961  -0.0006067  -0.0009711   0.0002205
   36   0.0000893   0.0008206   0.0011655  -0.0004654  -0.0003474   0.0004542
   37   0.0000611  -0.0000464   0.0001059   0.0000263   0.0000979   0.0001256
   38  -0.0000601  -0.0001060  -0.0001236   0.0000227   0.0002887  -0.0001045
   39   0.0001278   0.0000983   0.0002618   0.0001234   0.0001305  -0.0000024
           31          32          33          34          35          36
    1  -0.0064298  -0.0012187   0.0013322  -0.0793624   0.0103565  -0.0794431
    2  -0.0040532   0.0046910   0.0037783   0.0086068  -0.0147787   0.0979165
    3  -0.0009828  -0.0000305  -0.0000517  -0.0340967   0.0581946  -0.2359210
    4   0.0003778  -0.0020866  -0.0021729   0.0219315   0.0007247  -0.0013307
    5  -0.0003572  -0.0009064  -0.0018948   0.0151349  -0.0051511   0.0068316
    6   0.0000360   0.0004499   0.0014114   0.0053278   0.0222879  -0.0155075
    7  -0.0019151  -0.0030178   0.0030203  -0.0293672   0.0070469   0.0048638
    8  -0.0025625  -0.0000454   0.0032955   0.0112363   0.0007252  -0.0002152
    9   0.0003188   0.0049549   0.0058442  -0.0044308  -0.0008264   0.0044813
   10   0.0115236   0.0121168  -0.0077757  -0.0283244  -0.0050801   0.0056600
   11  -0.0136828  -0.0091155   0.0117072  -0.0538575   0.0025208   0.0072239
   12   0.0083407   0.0103797  -0.0027092   0.0528114  -0.0042110  -0.0153979
   13  -0.1064749   0.0907918  -0.0705828   0.0632670   0.0274565   0.0088563
   14   0.0943332  -0.2084428   0.1123023  -0.0046368   0.0041602   0.0031118
   15  -0.0652989   0.1166214  -0.1187342  -0.0687994   0.0156522   0.0008994
   16  -0.0244694   0.0001994   0.0011616   0.0128494  -0.0152000   0.0242722
   17   0.0237654   0.0071011   0.0025287   0.0502131  -0.1262906  -0.1313783
   18  -0.0148374  -0.0048866  -0.0013435   0.0639494  -0.0902650  -0.1279731
   19  -0.0005910  -0.0001905   0.0002591  -0.0042789   0.0031270  -0.0031081
   20   0.0022240   0.0000635  -0.0003189  -0.0018093  -0.0022070  -0.0011374
   21   0.0003351   0.0003564   0.0007616  -0.0323745   0.0004374  -0.0092046
   22   0.0001894   0.0000303  -0.0001711  -0.0007583  -0.0013657   0.0004635
   23   0.0001980  -0.0004615  -0.0007628  -0.0016354  -0.0006181  -0.0017902
   24   0.0000601  -0.0005163  -0.0008265   0.0004240   0.0028094  -0.0022192
   25   0.0004658   0.0008661  -0.0001497  -0.0010675   0.0002357   0.0000893
   26  -0.0005450  -0.0006420   0.0000730  -0.0012889  -0.0000617   0.0008206
   27   0.0006145   0.0007369  -0.0002830  -0.0031476  -0.0000961   0.0011655
   28   0.0006834   0.0000221   0.0005472  -0.0003259  -0.0006067  -0.0004654
   29   0.0005522  -0.0008436  -0.0023084  -0.0000711  -0.0009711  -0.0003474
   30   0.0004136  -0.0021035  -0.0025623   0.0016400   0.0002205   0.0004542
   31   0.1244238  -0.0976691   0.0744348   0.0024978  -0.0023211  -0.0036173
   32  -0.0976691   0.2088997  -0.1270254  -0.0004184  -0.0002022   0.0012234
   33   0.0744348  -0.1270254   0.1147106  -0.0002793  -0.0013329   0.0040531
   34   0.0024978  -0.0004184  -0.0002793   0.1469011   0.0040267  -0.1056502
   35  -0.0023211  -0.0002022  -0.0013329   0.0040267   0.1879029  -0.0637827
   36  -0.0036173   0.0012234   0.0040531  -0.1056502  -0.0637827   0.6453933
   37  -0.0002815   0.0005746   0.0003764  -0.1039622  -0.0284005   0.1494099
   38   0.0001181  -0.0000960  -0.0000418  -0.0255005  -0.0450287   0.0815236
   39   0.0001827  -0.0001603  -0.0002705   0.1246259   0.0609122  -0.2502234
           37          38          39
    1   0.0070311  -0.0096861   0.0090721
    2   0.0057821  -0.0069292   0.0016225
    3  -0.0132783  -0.0016139  -0.0059784
    4  -0.0005213  -0.0019354  -0.0012449
    5  -0.0034510   0.0010361  -0.0035110
    6  -0.0000057   0.0031343   0.0008594
    7  -0.0011633   0.0022983   0.0019091
    8   0.0015456  -0.0025613  -0.0003702
    9  -0.0013033   0.0020569  -0.0000510
   10  -0.0019499   0.0024376  -0.0000474
   11  -0.0031931   0.0053463   0.0031341
   12   0.0032418  -0.0020530  -0.0007328
   13   0.0043151  -0.0115206  -0.0049283
   14  -0.0011218  -0.0037366  -0.0016569
   15  -0.0040104   0.0007093  -0.0002893
   16   0.0014760   0.0166031   0.0074589
   17   0.0002739   0.0062192  -0.0035478
   18   0.0017392  -0.0259884  -0.0124321
   19   0.0004859   0.0003878   0.0000115
   20   0.0007858   0.0003249   0.0006670
   21   0.0013178  -0.0003789   0.0007801
   22   0.0002530  -0.0001788   0.0001056
   23   0.0001388  -0.0002187   0.0001023
   24  -0.0003224   0.0003007  -0.0001620
   25   0.0000611  -0.0000601   0.0001278
   26  -0.0000464  -0.0001060   0.0000983
   27   0.0001059  -0.0001236   0.0002618
   28   0.0000263   0.0000227   0.0001234
   29   0.0000979   0.0002887   0.0001305
   30   0.0001256  -0.0001045  -0.0000024
   31  -0.0002815   0.0001181   0.0001827
   32   0.0005746  -0.0000960  -0.0001603
   33   0.0003764  -0.0000418  -0.0002705
   34  -0.1039622  -0.0255005   0.1246259
   35  -0.0284005  -0.0450287   0.0609122
   36   0.1494099   0.0815236  -0.2502234
   37   0.0942297   0.0270140  -0.1373965
   38   0.0270140   0.0454614  -0.0574208
   39  -0.1373965  -0.0574208   0.2682405
 Gradient time:  CPU 551.78 s  wall 582.16 s
 **********************************************************************
 **                                                                  **
 **                       VIBRATIONAL ANALYSIS                       **
 **                       --------------------                       **
 **                                                                  **
 **        VIBRATIONAL FREQUENCIES (CM**-1) AND NORMAL MODES         **
 **     FORCE CONSTANTS (mDYN/ANGSTROM) AND REDUCED MASSES (AMU)     **
 **                  INFRARED INTENSITIES (KM/MOL)                   **
 **                                                                  **
 **********************************************************************
 

 Mode:                 1                      2                      3
 Frequency:      -622.33                 298.36                 349.91
 Force Cnst:      1.4475                 0.1718                 0.1960
 Red. Mass:       6.3433                 3.2759                 2.7164
 IR Active:          YES                    YES                    YES
 IR Intens:        3.832                  1.413                  3.867
 Raman Active:       YES                    YES                    YES
               X      Y      Z        X      Y      Z        X      Y      Z
 C          0.041 -0.019  0.009   -0.009  0.009 -0.007    0.020  0.143  0.152
 C         -0.016 -0.023 -0.014   -0.037 -0.115 -0.138    0.008 -0.049 -0.051
 C          0.046 -0.022 -0.012   -0.014  0.090  0.159    0.002 -0.098 -0.111
 C         -0.026  0.065 -0.042   -0.049  0.064  0.149    0.007  0.112  0.148
 C         -0.272  0.197  0.326   -0.034 -0.143 -0.159   -0.000  0.005 -0.058
 N         -0.148 -0.113 -0.209   -0.059 -0.030  0.034    0.002  0.064 -0.115
 H         -0.022  0.141  0.272   -0.045  0.057  0.171    0.001  0.223  0.199
 H         -0.010  0.018  0.028   -0.028 -0.314 -0.361   -0.009 -0.316 -0.324
 H          0.035  0.054  0.060    0.026  0.115  0.220   -0.019 -0.339 -0.389
 H         -0.031 -0.019  0.006   -0.057  0.055  0.212   -0.011  0.198  0.271
 H         -0.242  0.197  0.305   -0.001 -0.277 -0.376   -0.033 -0.060 -0.122
 C          0.384 -0.090 -0.076    0.191  0.137 -0.040   -0.019 -0.134  0.089
 H          0.468 -0.120 -0.027    0.350  0.265  0.079   -0.190 -0.340 -0.054
 TransDip   0.061  0.004  0.014    0.023 -0.030  0.005    0.012 -0.046 -0.041

 Mode:                 4                      5                      6
 Frequency:       519.71                 550.59                 590.66
 Force Cnst:      0.5964                 0.9355                 0.5759
 Red. Mass:       3.7476                 5.2375                 2.8018
 IR Active:          YES                    YES                    YES
 IR Intens:       12.450                  7.628                 17.949
 Raman Active:       YES                    YES                    YES
               X      Y      Z        X      Y      Z        X      Y      Z
 C          0.078 -0.038  0.060   -0.163 -0.080  0.018    0.187 -0.170 -0.051
 C          0.110 -0.166 -0.103   -0.068 -0.234  0.035   -0.010  0.023 -0.015
 C          0.143  0.217  0.020   -0.034 -0.092  0.199   -0.034 -0.013 -0.078
 C          0.004  0.037 -0.157    0.232 -0.088 -0.059   -0.118 -0.002  0.047
 C         -0.102  0.109 -0.054    0.015  0.111 -0.008   -0.067 -0.073 -0.022
 N         -0.107 -0.043  0.099    0.034  0.279 -0.203    0.016  0.089 -0.066
 H          0.054  0.164  0.082   -0.168 -0.148  0.068    0.165 -0.125  0.046
 H          0.002 -0.316 -0.164    0.070 -0.165 -0.015   -0.108  0.273  0.350
 H          0.098  0.352  0.124   -0.207  0.097  0.245    0.057  0.098  0.125
 H          0.026 -0.257 -0.259    0.266 -0.224 -0.321   -0.146  0.137  0.237
 H          0.009  0.105 -0.164   -0.226 -0.081 -0.066   -0.070 -0.061 -0.007
 C         -0.084 -0.099  0.158    0.007  0.132  0.068    0.077  0.128  0.157
 H         -0.485 -0.170 -0.079   -0.088 -0.367 -0.099   -0.544 -0.278 -0.280
 TransDip   0.022  0.022 -0.109   -0.005 -0.073 -0.049    0.049  0.014 -0.126

 Mode:                 7                      8                      9
 Frequency:       634.58                 702.04                 738.84
 Force Cnst:      0.6807                 0.4274                 0.5515
 Red. Mass:       2.8690                 1.4717                 1.7146
 IR Active:          YES                    YES                    YES
 IR Intens:       14.878                 92.268                 23.380
 Raman Active:       YES                    YES                    YES
               X      Y      Z        X      Y      Z        X      Y      Z
 C          0.096  0.137  0.014   -0.028  0.090  0.043    0.012 -0.045 -0.016
 C         -0.101  0.083 -0.151   -0.023 -0.061 -0.118    0.010  0.032 -0.124
 C         -0.093  0.046  0.126   -0.018 -0.020 -0.001    0.013  0.029 -0.025
 C         -0.085 -0.103 -0.039    0.026 -0.053 -0.051   -0.055 -0.021  0.027
 C          0.054 -0.071  0.169    0.057 -0.023 -0.005   -0.006 -0.013  0.031
 N          0.115  0.011 -0.025   -0.006  0.001  0.007    0.003  0.126 -0.004
 H          0.091  0.024  0.104   -0.058  0.156  0.158    0.063 -0.217 -0.199
 H         -0.098 -0.151 -0.407    0.020  0.338  0.274   -0.003  0.139  0.003
 H          0.049 -0.080  0.118    0.020  0.336  0.414    0.135  0.051  0.104
 H         -0.023 -0.256 -0.505   -0.042  0.375  0.418   -0.041 -0.102 -0.073
 H          0.091 -0.171  0.002   -0.018  0.143  0.297   -0.048 -0.083 -0.032
 C          0.018 -0.039 -0.011    0.004 -0.049 -0.007   -0.046 -0.099  0.087
 H         -0.385 -0.140 -0.256   -0.063  0.023 -0.024    0.707 -0.158  0.494
 TransDip   0.009 -0.062 -0.107   -0.018  0.220  0.214    0.004 -0.089  0.127

 Mode:                10                     11                     12
 Frequency:       779.65                 879.59                 909.39
 Force Cnst:      0.5126                 1.0960                 1.0716
 Red. Mass:       1.4313                 2.4044                 2.1994
 IR Active:          YES                    YES                    YES
 IR Intens:        3.908                 47.753                  2.321
 Raman Active:       YES                    YES                    YES
               X      Y      Z        X      Y      Z        X      Y      Z
 C          0.027 -0.037  0.010    0.181  0.027  0.088   -0.076  0.068  0.051
 C          0.004  0.050  0.048    0.010 -0.144  0.064    0.053 -0.043  0.057
 C         -0.005  0.073  0.047   -0.036  0.025 -0.007    0.060 -0.059 -0.025
 C         -0.004 -0.101 -0.101   -0.055  0.000 -0.010   -0.141 -0.022 -0.076
 C         -0.013 -0.022 -0.013    0.017 -0.012  0.053   -0.094  0.061  0.038
 N          0.006  0.024 -0.031    0.016 -0.011 -0.153    0.165 -0.030  0.007
 H          0.045 -0.067 -0.064    0.177  0.161  0.012   -0.015 -0.158 -0.148
 H         -0.046 -0.421 -0.418   -0.207 -0.148  0.277    0.115 -0.104 -0.066
 H         -0.030 -0.117 -0.183   -0.124  0.118  0.018    0.142  0.178  0.308
 H         -0.089  0.308  0.510   -0.047  0.013 -0.086   -0.200  0.115  0.312
 H         -0.086  0.188  0.350    0.045 -0.080 -0.068    0.181 -0.201 -0.576
 C         -0.008  0.021  0.023   -0.141  0.051 -0.046   -0.023  0.070 -0.032
 H          0.115 -0.027  0.081    0.207  0.708  0.286    0.119 -0.320 -0.053
 TransDip  -0.039 -0.018  0.046   -0.047  0.115  0.183   -0.047 -0.004 -0.012

 Mode:                13                     14                     15
 Frequency:       934.50                 953.90                 978.53
 Force Cnst:      0.8352                 0.7195                 2.6013
 Red. Mass:       1.6233                 1.3421                 4.6109
 IR Active:          YES                    YES                    YES
 IR Intens:        1.260                  2.454                 11.015
 Raman Active:       YES                    YES                    YES
               X      Y      Z        X      Y      Z        X      Y      Z
 C         -0.053  0.028  0.061    0.024 -0.021  0.005    0.046  0.107 -0.156
 C          0.040 -0.063 -0.002   -0.005  0.076  0.050    0.061 -0.182  0.187
 C          0.034  0.041  0.008   -0.009 -0.108 -0.067   -0.043  0.003 -0.024
 C         -0.116  0.011  0.049    0.005  0.037  0.026   -0.152  0.023 -0.008
 C         -0.025 -0.036 -0.086    0.010 -0.002 -0.042    0.061 -0.055  0.024
 N          0.090 -0.020 -0.034   -0.018 -0.007 -0.012   -0.066  0.257  0.144
 H         -0.037 -0.009 -0.014    0.010  0.033  0.049    0.131  0.087 -0.517
 H          0.039  0.062  0.138   -0.004 -0.333 -0.395   -0.075 -0.376  0.123
 H          0.066 -0.075 -0.083    0.088  0.441  0.610   -0.218  0.185  0.034
 H         -0.075 -0.370 -0.237    0.037 -0.070 -0.219   -0.151  0.101 -0.076
 H         -0.028  0.480  0.646   -0.026  0.149  0.202   -0.053 -0.027  0.152
 C          0.009  0.053 -0.025   -0.013  0.002  0.016    0.145 -0.188 -0.145
 H          0.099 -0.210 -0.041    0.014  0.070  0.048   -0.115 -0.066 -0.263
 TransDip  -0.029  0.009  0.020    0.034  0.007  0.037    0.023 -0.081 -0.065

 Mode:                16                     17                     18
 Frequency:       989.19                1044.23                1050.20
 Force Cnst:      2.4523                 0.9529                 1.2714
 Red. Mass:       4.2537                 1.4832                 1.9565
 IR Active:          YES                    YES                    YES
 IR Intens:        1.617                  4.523                  4.454
 Raman Active:       YES                    YES                    YES
               X      Y      Z        X      Y      Z        X      Y      Z
 C          0.197  0.031 -0.059   -0.068 -0.020  0.061    0.096  0.090 -0.000
 C         -0.021  0.010 -0.043   -0.019  0.027 -0.015   -0.077 -0.001 -0.005
 C         -0.096 -0.224  0.245    0.029  0.035 -0.047   -0.047  0.034 -0.060
 C         -0.034  0.016 -0.043    0.003 -0.048  0.037    0.152 -0.048  0.062
 C         -0.142  0.216 -0.202   -0.048  0.031 -0.024   -0.121  0.003 -0.027
 N          0.054  0.003  0.077    0.065  0.056 -0.011    0.045 -0.039  0.061
 H          0.221 -0.016 -0.120   -0.011 -0.437 -0.020    0.175 -0.106 -0.277
 H          0.219  0.242  0.004   -0.025  0.012 -0.034   -0.336 -0.094  0.135
 H          0.012 -0.479  0.092    0.053  0.070  0.006   -0.343  0.309 -0.041
 H         -0.061  0.045  0.040   -0.013 -0.317  0.223    0.142 -0.385  0.256
 H          0.038  0.451 -0.059   -0.102 -0.006 -0.033   -0.215 -0.030  0.023
 C         -0.005 -0.094  0.006    0.064 -0.091 -0.007   -0.021  0.024 -0.045
 H          0.030  0.262  0.110   -0.331  0.696 -0.039    0.157 -0.365 -0.045
 TransDip   0.018  0.021  0.030   -0.062  0.000  0.029   -0.054 -0.039  0.009

 Mode:                19                     20                     21
 Frequency:      1092.21                1170.15                1221.27
 Force Cnst:      0.9768                 0.9127                 1.2104
 Red. Mass:       1.3898                 1.1313                 1.3774
 IR Active:          YES                    YES                    YES
 IR Intens:       20.116                  2.667                  7.821
 Raman Active:       YES                    YES                    YES
               X      Y      Z        X      Y      Z        X      Y      Z
 C          0.009 -0.074 -0.069   -0.001 -0.004  0.030   -0.019  0.020 -0.036
 C         -0.013  0.012  0.014   -0.050  0.009 -0.004   -0.029  0.002  0.000
 C          0.005  0.019 -0.021    0.054 -0.004  0.005   -0.012 -0.008  0.001
 C         -0.023 -0.048  0.027    0.022  0.004 -0.007   -0.024 -0.047  0.020
 C         -0.010  0.045 -0.005    0.001  0.015 -0.018    0.100  0.055  0.006
 N          0.073  0.055  0.038   -0.016  0.017  0.019   -0.074 -0.020 -0.047
 H         -0.200  0.561  0.683    0.016 -0.064 -0.031    0.007  0.158 -0.260
 H         -0.102 -0.065  0.014   -0.590 -0.215  0.255   -0.178 -0.077  0.051
 H          0.019  0.012 -0.018    0.601 -0.304  0.170    0.062 -0.028  0.049
 H         -0.040 -0.266  0.199    0.028  0.147 -0.076   -0.052 -0.478  0.341
 H         -0.046 -0.016 -0.069   -0.070 -0.010  0.009    0.615  0.277 -0.153
 C         -0.032 -0.035 -0.059   -0.006  0.004 -0.050    0.034  0.015  0.060
 H          0.104 -0.024  0.015    0.001 -0.056 -0.067   -0.018 -0.034  0.028
 TransDip  -0.106 -0.005  0.097    0.022 -0.042  0.023    0.080  0.030 -0.026

 Mode:                22                     23                     24
 Frequency:      1262.64                1364.18                1409.52
 Force Cnst:      1.5903                 1.6255                 2.6512
 Red. Mass:       1.6930                 1.4825                 2.2649
 IR Active:          YES                    YES                    YES
 IR Intens:        3.619                  3.778                  4.514
 Raman Active:       YES                    YES                    YES
               X      Y      Z        X      Y      Z        X      Y      Z
 C         -0.077  0.028 -0.101   -0.034  0.064 -0.106   -0.031 -0.132  0.167
 C         -0.007 -0.008  0.009    0.026  0.021 -0.009    0.110  0.080 -0.090
 C         -0.015  0.012 -0.007    0.083 -0.036  0.030   -0.023 -0.012  0.015
 C          0.010 -0.008  0.005    0.011 -0.017  0.017   -0.020 -0.124  0.089
 C         -0.036 -0.004 -0.007   -0.084 -0.056  0.003   -0.017  0.067 -0.017
 N          0.105 -0.057 -0.026    0.026  0.009 -0.014   -0.008  0.032  0.017
 H         -0.075  0.638 -0.488   -0.085 -0.253  0.329    0.012  0.415 -0.399
 H         -0.148 -0.075  0.065   -0.388 -0.171  0.171   -0.236 -0.072  0.060
 H          0.077 -0.034  0.027   -0.338  0.163 -0.141   -0.375  0.186 -0.092
 H          0.019  0.124 -0.101    0.030  0.303 -0.212    0.006  0.364 -0.284
 H         -0.325 -0.143  0.060    0.436  0.245 -0.029    0.178  0.118 -0.146
 C          0.046 -0.017  0.153   -0.004 -0.018  0.064    0.027 -0.001 -0.097
 H         -0.080  0.243  0.169   -0.014  0.093  0.099   -0.032 -0.021 -0.159
 TransDip  -0.034  0.033 -0.038   -0.060  0.015  0.008   -0.042  0.050 -0.020

 Mode:                25                     26                     27
 Frequency:      1448.28                1484.58                1638.02
 Force Cnst:      2.1453                 4.6705                 7.6415
 Red. Mass:       1.7360                 3.5967                 4.8338
 IR Active:          YES                    YES                    YES
 IR Intens:        0.569                  6.719                  3.264
 Raman Active:       YES                    YES                    YES
               X      Y      Z        X      Y      Z        X      Y      Z
 C          0.019 -0.006  0.001   -0.008 -0.103  0.099   -0.067 -0.004  0.000
 C         -0.080 -0.059  0.055   -0.111  0.048 -0.042    0.376  0.032 -0.054
 C         -0.053  0.091 -0.078    0.140 -0.100  0.078   -0.371  0.020  0.001
 C          0.086 -0.063  0.055    0.050  0.238 -0.161    0.110  0.125 -0.083
 C         -0.124 -0.054  0.010   -0.103 -0.213  0.067   -0.099 -0.107  0.055
 N          0.025  0.036  0.008    0.044  0.094  0.026    0.028  0.016 -0.001
 H          0.019  0.153 -0.067    0.007  0.482 -0.365   -0.092 -0.107  0.171
 H          0.410  0.161 -0.171   -0.060  0.111 -0.042   -0.211 -0.270  0.247
 H          0.409 -0.118  0.095   -0.186  0.035 -0.083    0.240 -0.296  0.281
 H          0.121  0.272 -0.185    0.021 -0.320  0.284    0.098 -0.302  0.221
 H          0.529  0.284 -0.085    0.355  0.058  0.092    0.217  0.030  0.016
 C         -0.003 -0.016 -0.019   -0.028 -0.019 -0.057   -0.000 -0.008  0.003
 H          0.015  0.036 -0.002   -0.039  0.122 -0.047   -0.027  0.035  0.000
 TransDip   0.018  0.014  0.007    0.009 -0.077  0.029   -0.055 -0.013  0.013

 Mode:                28                     29                     30
 Frequency:      3137.22                3188.29                3190.57
 Force Cnst:      6.3006                 6.5462                 6.5132
 Red. Mass:       1.0865                 1.0930                 1.0859
 IR Active:          YES                    YES                    YES
 IR Intens:       14.030                  7.699                  5.562
 Raman Active:       YES                    YES                    YES
               X      Y      Z        X      Y      Z        X      Y      Z
 C         -0.082 -0.009 -0.014    0.008 -0.001  0.006   -0.006 -0.001 -0.002
 C          0.005 -0.004  0.004   -0.007  0.008 -0.007   -0.018  0.022 -0.020
 C          0.001  0.000 -0.000   -0.008 -0.009  0.009   -0.033 -0.039  0.036
 C         -0.000  0.000 -0.000    0.005  0.001  0.001    0.029  0.001  0.003
 C          0.000 -0.001  0.000    0.002 -0.004  0.002   -0.011  0.020 -0.014
 N          0.001 -0.000 -0.001    0.000  0.001  0.001   -0.001 -0.000 -0.000
 H          0.965  0.106  0.182   -0.066 -0.006 -0.015    0.069  0.008  0.012
 H         -0.055  0.059 -0.052    0.088 -0.100  0.093    0.225 -0.261  0.241
 H         -0.007 -0.007  0.007    0.094  0.112 -0.105    0.385  0.457 -0.427
 H          0.007 -0.000  0.001   -0.060 -0.002 -0.007   -0.351 -0.011 -0.043
 H          0.000  0.001 -0.000   -0.023  0.038 -0.030    0.148 -0.234  0.166
 C          0.003  0.002 -0.006    0.036  0.017 -0.075   -0.008 -0.004  0.016
 H         -0.043 -0.016  0.079   -0.456 -0.197  0.822    0.097  0.043 -0.177
 TransDip  -0.118 -0.003 -0.021    0.033 -0.024 -0.079   -0.058 -0.015  0.046

 Mode:                31                     32                     33
 Frequency:      3197.65                3210.74                3219.11
 Force Cnst:      6.5558                 6.6517                 6.7005
 Red. Mass:       1.0882                 1.0951                 1.0975
 IR Active:          YES                    YES                    YES
 IR Intens:        3.700                 20.977                  7.610
 Raman Active:       YES                    YES                    YES
               X      Y      Z        X      Y      Z        X      Y      Z
 C         -0.004  0.000 -0.001    0.006  0.002 -0.000    0.004  0.000  0.000
 C         -0.012  0.015 -0.014    0.040 -0.041  0.038    0.018 -0.018  0.016
 C         -0.015 -0.018  0.016   -0.023 -0.021  0.020   -0.020 -0.023  0.022
 C         -0.030  0.001 -0.005    0.034  0.004  0.002   -0.067 -0.002 -0.008
 C          0.030 -0.052  0.036    0.010 -0.020  0.014   -0.013  0.027 -0.018
 N          0.001 -0.001 -0.000   -0.000  0.000 -0.000   -0.000  0.000  0.000
 H          0.038  0.004  0.006   -0.067 -0.010 -0.010   -0.034 -0.005 -0.005
 H          0.153 -0.178  0.164   -0.416  0.478 -0.439   -0.176  0.200 -0.184
 H          0.170  0.204 -0.190    0.208  0.242 -0.225    0.208  0.250 -0.233
 H          0.360  0.007  0.046   -0.390 -0.014 -0.047    0.756  0.020  0.093
 H         -0.372  0.587 -0.414   -0.134  0.214 -0.151    0.171 -0.276  0.194
 C         -0.005 -0.002  0.010    0.000  0.000 -0.001    0.002  0.001 -0.004
 H          0.061  0.026 -0.110   -0.004 -0.003  0.009   -0.022 -0.010  0.039
 TransDip  -0.018 -0.048  0.035    0.071 -0.099  0.082   -0.086 -0.014  0.014

 STANDARD THERMODYNAMIC QUANTITIES AT   298.15 K  AND     1.00 ATM

   This Molecule has  1 Imaginary Frequencies
   Zero point vibrational energy:       63.099 kcal/mol

   Atom    1 Element C  Has Mass   12.00000
   Atom    2 Element C  Has Mass   12.00000
   Atom    3 Element C  Has Mass   12.00000
   Atom    4 Element C  Has Mass   12.00000
   Atom    5 Element C  Has Mass   12.00000
   Atom    6 Element N  Has Mass   14.00307
   Atom    7 Element H  Has Mass    1.00783
   Atom    8 Element H  Has Mass    1.00783
   Atom    9 Element H  Has Mass    1.00783
   Atom   10 Element H  Has Mass    1.00783
   Atom   11 Element H  Has Mass    1.00783
   Atom   12 Element C  Has Mass   12.00000
   Atom   13 Element H  Has Mass    1.00783
   Molecular Mass:    92.050050 amu
   Principal axes and moments of inertia in amu*Bohr^2:
                             1           2           3
    Eigenvalues --      364.15545   489.22346   745.19535
          X               0.58700     0.79538     0.15100
          Y               0.56091    -0.53405     0.63259
          Z              -0.58379     0.28663     0.75963
   Rotational Symmetry Number is   1
   The Molecule is an Asymmetric Top
   Translational Enthalpy:        0.889 kcal/mol
   Rotational Enthalpy:           0.889 kcal/mol
   Vibrational Enthalpy:         64.497 kcal/mol
   gas constant (RT):             0.592 kcal/mol
   Translational Entropy:        39.471  cal/mol.K
   Rotational Entropy:           26.387  cal/mol.K
   Vibrational Entropy:           6.525  cal/mol.K

   Total Enthalpy:               66.867 kcal/mol
   Total Entropy:                72.383  cal/mol.K
Archival summary:
1\1\c8-72\FREQ\ProcedureUnspecified\6-31+G**\166(2)\hpark21\WedMar213:56:462022WedMar213:56:462022\0\\#,FREQ,ProcedureUnspecified,6-31+G**,\\0,2\N\C,1,1.44153\H,2,1.08606,1,112.473\C,2,1.37891,1,125.946,3,-170.93,0\H,4,1.08464,2,118.789,1,174.204,0\C,4,1.43998,2,120.114,1,-6.17431,0\H,6,1.08589,4,120.103,2,168.556,0\C,6,1.35351,4,118.334,2,-11.1011,0\H,8,1.08529,6,122.536,4,175.751,0\C,1,1.45497,2,86.3496,3,-102.909,0\H,10,1.08538,1,123.354,2,122.654,0\C,10,1.46355,1,63.255,2,-110.342,0\H,12,1.08963,10,115.052,1,-98.904,0\\\@

 Total job time:  595.64s(wall), 559.27s(cpu) 
 Wed Mar  2 13:56:46 2022

        *************************************************************
        *                                                           *
        *  Thank you very much for using Q-Chem.  Have a nice day.  *
        *                                                           *
        *************************************************************


