
Running Job 1 of 1 qcts2.in
qchem qcts2.in_38936.0 ./qcts2.d/ 1
/home/leeping/opt/qchem/5.0.2-openmp/exe/qcprog.exe_s qcts2.in_38936.0 ./qcts2.d/
Check license passed

                  Welcome to Q-Chem
     A Quantum Leap Into The Future Of Chemistry


 Q-Chem 5.0, Q-Chem, Inc., Pleasanton, CA (2017)

 Yihan Shao,  Zhengting Gan,  E. Epifanovsky,  A. T. B. Gilbert,  M. Wormit,  
 J. Kussmann,  A. W. Lange,  A. Behn,  Jia Deng,  Xintian Feng,  D. Ghosh,  
 M. Goldey,  P. R. Horn,  L. D. Jacobson,  I. Kaliman,  T. Kus,  A. Landau,  
 Jie Liu,  E. I. Proynov,  R. M. Richard,  R. P. Steele,  E. J. Sundstrom,  
 H. L. Woodcock III,  P. M. Zimmerman,  D. Zuev,  B. Albrecht,  E. Alguire,  
 S. A. Baeppler,  D. Barton,  Z. Benda,  Y. A. Bernard,  E. J. Berquist,  
 K. B. Bravaya,  H. Burton,  D. Casanova,  Chun-Min Chang,  Yunqing Chen,  
 A. Chien,  K. D. Closser,  M. P. Coons,  S. Dasgupta,  A. L. Dempwolff,  
 M. Diedenhofen,  Hainam Do,  R. G. Edgar,  Po-Tung Fang,  S. Fatehi,  
 Qingguo Feng,  J. Fosso-Tande,  Qinghui Ge,  A. Ghysels,  G. Gidofalvi,  
 J. Gomes,  J. Gonthier,  A. Gunina,  M. W. D. Hanson-Heine,  
 P. H. P. Harbach,  A. W. Hauser,  J. E. Herr,  E. G. Hohenstein,  
 Z. C. Holden,  Kerwin Hui,  T.-C. Jagau,  Hyunjun Ji,  B. Kaduk,  
 K. Khistyaev,  Jaehoon Kim,  P. Klunzinger,  K. Koh,  D. Kosenkov,  
 L. Koulias,  T. Kowalczyk,  C. M. Krauter,  A. Kunitsa,  Ka Un Lao,  
 A. Laurent,  K. V. Lawler,  Joonho Lee,  D. Lefrancois,  S. Lehtola,  
 D. S. Levine,  Yi-Pei Li,  You-Sheng Lin,  Fenglai Liu,  E. Livshits,  
 A. Luenser,  P. Manohar,  E. Mansoor,  S. F. Manzer,  Shan-Ping Mao,  
 Yuezhi Mao,  N. Mardirossian,  A. V. Marenich,  T. Markovich,  
 L. A. Martinez-Martinez,  S. A. Maurer,  N. J. Mayhall,  S. C. McKenzie,  
 J.-M. Mewes,  A. F. Morrison,  J. W. Mullinax,  K. Nanda,  
 T. S. Nguyen-Beck,  R. Olivares-Amaya,  J. A. Parkhill,  T. M. Perrine,  
 F. Plasser,  S. Prager,  A. Prociuk,  E. Ramos,  D. R. Rehn,  F. Rob,  
 M. Schneider,  N. Sergueev,  S. M. Sharada,  S. Sharma,  D. W. Small,  
 T. Stauch,  T. Stein,  Yu-Chuan Su,  A. J. W. Thom,  A. Tkatchenko,  
 T. Tsuchimochi,  L. Vogt,  O. Vydrov,  M. A. Watson,  J. Wenzel,  
 M. de Wergifosse,  T. A. Wesolowski,  A. White,  J. Witte,  A. Yamada,  
 Jun Yang,  K. Yao,  S. Yeganeh,  S. R. Yost,  Zhi-Qiang You,  A. Zech,  
 Igor Ying Zhang,  Xing Zhang,  Yan Zhao,  Ying Zhu,  B. R. Brooks,  
 G. K. L. Chan,  C. J. Cramer,  M. S. Gordon,  W. J. Hehre,  A. Klamt,  
 M. W. Schmidt,  C. D. Sherrill,  D. G. Truhlar,  A. Aspuru-Guzik,  R. Baer,  
 A. T. Bell,  N. A. Besley,  Jeng-Da Chai,  R. A. DiStasio Jr.,  A. Dreuw,  
 B. D. Dunietz,  T. R. Furlani,  Chao-Ping Hsu,  Yousung Jung,  Jing Kong,  
 D. S. Lambrecht,  WanZhen Liang,  C. Ochsenfeld,  V. A. Rassolov,  
 L. V. Slipchenko,  J. E. Subotnik,  T. Van Voorhis,  J. M. Herbert,  
 A. I. Krylov,  P. M. W. Gill,  M. Head-Gordon

 Contributors to earlier versions of Q-Chem not listed above: 
 R. D. Adamson,  B. Austin,  J. Baker,  G. J. O. Beran,  K. Brandhorst,  
 S. T. Brown,  E. F. C. Byrd,  A. K. Chakraborty,  C.-L. Cheng,  
 Siu Hung Chien,  D. M. Chipman,  D. L. Crittenden,  H. Dachsel,  
 R. J. Doerksen,  A. D. Dutoi,  L. Fusti-Molnar,  W. A. Goddard III,  
 A. Golubeva-Zadorozhnaya,  S. R. Gwaltney,  G. Hawkins,  A. Heyden,  
 S. Hirata,  G. Kedziora,  F. J. Keil,  C. Kelley,  Jihan Kim,  R. A. King,  
 R. Z. Khaliullin,  P. P. Korambath,  W. Kurlancheek,  A. M. Lee,  M. S. Lee,  
 S. V. Levchenko,  Ching Yeh Lin,  D. Liotard,  R. C. Lochan,  I. Lotan,  
 P. E. Maslen,  N. Nair,  D. P. O'Neill,  D. Neuhauser,  E. Neuscamman,  
 C. M. Oana,  R. Olson,  B. Peters,  R. Peverati,  P. A. Pieniazek,  
 Y. M. Rhee,  J. Ritchie,  M. A. Rohrdanz,  E. Rosta,  N. J. Russ,  
 H. F. Schaefer III,  N. E. Schultz,  N. Shenvi,  A. C. Simmonett,  A. Sodt,  
 D. Stuck,  K. S. Thanthiriwatte,  V. Vanovschi,  Tao Wang,  A. Warshel,  
 C. F. Williams,  Q. Wu,  X. Xu,  W. Zhang

 Please cite Q-Chem as follows:
 Y. Shao et al., Mol. Phys. 113, 184-215 (2015)
 DOI: 10.1080/00268976.2014.952696

 Q-Chem 5.0.2 for Intel X86 EM64T Linux

 Parts of Q-Chem use Armadillo 5.200.1 (Boston Tea Smuggler).
 http://arma.sourceforge.net/

 Q-Chem begins on Wed Mar  2 13:23:56 2022  

Host: 
0

     Scratch files written to ./qcts2.d//
 Dec517 15110_ 26548  26544 5633   
Processing $rem in /home/leeping/opt/qchem/5.0.2-openmp/config/preferences.
 MEM_STATIC 2000
 MEM_TOTAL  8000
 SYMMETRY   OFF
 SYM_IGNORE TRUE 

Checking the input file for inconsistencies... 	...done.

--------------------------------------------------------------
User input:
--------------------------------------------------------------
$molecule
0 2
C        1.2725553019   -0.0531773476    0.0014667590
C        0.5492902231   -0.9929708636    0.8980845249
C       -0.7995677563   -0.9381843530    0.9552754992
C       -1.4783302433    0.0528452432    0.1612886339
C       -0.7611222793    1.0568683939   -0.4493902637
N        0.6494875936    1.3137527056   -0.2900699010
H        2.3377983611    0.0597208230    0.2032139133
H        1.1341628921   -1.6641441752    1.5196038878
H       -1.3709404347   -1.6133275932    1.5864085091
H       -2.5548752319    0.0219903262    0.0288267120
H       -1.2628308306    1.8435374036   -1.0065175951
C        0.8483086396    0.3311155715   -1.3450481605
H        1.3860356248    0.5550281518   -2.2623555287
$end

$rem
method                b3lyp
basis                 6-31+g(d,p)
unrestricted          true
symmetry              off
sym_ignore            true
incdft                false
incfock               0
scf_convergence       6
thresh                14
jobtype               sp
scf_guess             read
scf_algorithm         diis
max_scf_cycles        100
stability_analysis    true
max_cis_cycles        100
cis_n_roots           4
$end

--------------------------------------------------------------
 ----------------------------------------------------------------
             Standard Nuclear Orientation (Angstroms)
    I     Atom           X                Y                Z
 ----------------------------------------------------------------
    1      C       1.2725553019    -0.0531773476     0.0014667590
    2      C       0.5492902231    -0.9929708636     0.8980845249
    3      C      -0.7995677563    -0.9381843530     0.9552754992
    4      C      -1.4783302433     0.0528452432     0.1612886339
    5      C      -0.7611222793     1.0568683939    -0.4493902637
    6      N       0.6494875936     1.3137527056    -0.2900699010
    7      H       2.3377983611     0.0597208230     0.2032139133
    8      H       1.1341628921    -1.6641441752     1.5196038878
    9      H      -1.3709404347    -1.6133275932     1.5864085091
   10      H      -2.5548752319     0.0219903262     0.0288267120
   11      H      -1.2628308306     1.8435374036    -1.0065175951
   12      C       0.8483086396     0.3311155715    -1.3450481605
   13      H       1.3860356248     0.5550281518    -2.2623555287
 ----------------------------------------------------------------
 Nuclear Repulsion Energy =   272.9865797116 hartrees
 There are       25 alpha and       24 beta electrons
 Requested basis set is 6-31+G(d,p)
 There are 53 shells and 163 basis functions

 Total QAlloc Memory Limit   8000 MB
 Mega-Array Size      1956 MB
 MEM_STATIC part      2000 MB

                       Distance Matrix (Angstroms)
             C (  1)   C (  2)   C (  3)   C (  4)   C (  5)   N (  6)
   C (  2)  1.486690
   C (  3)  2.446770  1.351181
   C (  4)  2.757563  2.397466  1.439887
   C (  5)  2.360364  2.781135  2.440246  1.376727
   N (  6)  1.530263  2.596676  2.953281  2.514204  1.442634
   H (  7)  1.090042  2.188553  3.377052  3.816365  3.320166  2.160166
   H (  8)  2.217906  1.085742  2.141214  3.408547  3.856547  3.518195
   H (  9)  3.454588  2.132116  1.086561  2.195138  3.412668  4.021331
   H ( 10)  3.828266  3.379586  2.204846  1.085102  2.125374  3.469623
   H ( 11)  3.322912  3.867437  3.435290  2.148672  1.086715  2.109723
   C ( 12)  1.463137  2.621881  3.101307  2.785630  1.979694  1.455364
   H ( 13)  2.346845  3.617295  4.166497  3.785608  2.854641  2.237873
             H (  7)   H (  8)   H (  9)   H ( 10)   H ( 11)   C ( 12)
   H (  8)  2.480591
   H (  9)  4.297332  2.506509
   H ( 10)  4.895926  4.321397  2.549907
   H ( 11)  4.196425  4.942742  4.322600  2.461575
   C ( 12)  2.165491  3.502714  4.159250  3.683036  2.618956
   H ( 13)  2.688906  4.392196  5.207271  4.589600  3.202168  1.086619

 
 A cutoff of  1.0D-14 yielded   1381 shell pairs
 There are     13443 function pairs
 Smallest overlap matrix eigenvalue = 1.69E-05

 Scale SEOQF with 1.000000e-01/1.000000e-01/1.000000e-01

 Standard Electronic Orientation quadrupole field applied
 Nucleus-field energy     =     0.0000000013 hartrees
 Guess MOs from SCF MO coefficient file
 Reading MOs from coefficient file
 Reading MOs from coefficient file
 An unrestricted hybrid HF-DFT SCF calculation will be
 performed using Pulay DIIS extrapolation
 Exchange:     0.2000 Hartree-Fock + 0.0800 Slater + 0.7200 B88
 Correlation:  0.1900 VWN1RPA + 0.8100 LYP
 Using SG-1 standard quadrature grid
 SCF converges when DIIS error is below 1.0E-06
Using Q-Chem read-in guess as SCF_GUESS READ specified.

 -------------------------------------------------------
 OpenMP BLAS3 based DFT computing Module                
 -------------------------------------------------------
 ---------------------------------------
  Cycle       Energy         DIIS Error
 ---------------------------------------
    1    -286.8424492415      9.97E-10
    2    -286.8424492415      1.27E-09 Convergence criterion met
 ---------------------------------------
 <S^2> = 0.7933
 SCF time:  CPU 6.99 s  wall 13.20 s
 SCF   energy in the final basis set = -286.84244924
 Total energy in the final basis set = -286.84244924
 
 Direct TDDFT/TDA calculation will be performed
 Exchange:     0.2000 Hartree-Fock + 0.0800 Slater + 0.7200 B88
 Correlation:  0.1900 VWN1RPA + 0.8100 LYP
 Using SG-1 standard quadrature grid
 CIS energy converged when residual is below 10e- 6
 ---------------------------------------------------
 Iter    Rts Conv    Rts Left    Ttl Dev     Max Dev
 ---------------------------------------------------
   1         0           4      0.004886    0.001755
   2         0           4      0.001379    0.000535
   3         0           4      0.000470    0.000258
   4         0           4      0.000392    0.000336
   5         0           4      0.000134    0.000114
   6         1           3      0.000031    0.000026
   7         3           1      0.000010    0.000009
   8         3           1      0.000004    0.000003
   9         3           1      0.000003    0.000001
  10         4           0      0.000002    0.000001    Roots Converged
 ---------------------------------------------------
 
 ---------------------------------------------------
         TDDFT/TDA Excitation Energies              
 ---------------------------------------------------

 Excited state   1: excitation energy (eV) =    2.1205
 Total energy for state  1:                  -286.76452396 au
    <S**2>     :  0.9203
    Trans. Mom.: -0.1664 X  -0.1227 Y   0.2707 Z
    Strength   :     0.0060276711
    S(  1) --> V(  1) amplitude = -0.4142 alpha
    D( 24) --> S(  1) amplitude =  0.8974 beta

 Excited state   2: excitation energy (eV) =    2.9531
 Total energy for state  2:                  -286.73392649 au
    <S**2>     :  1.1852
    Trans. Mom.: -0.1200 X  -0.3345 Y   0.4963 Z
    Strength   :     0.0269570901
    D( 24) --> V(  1) amplitude =  0.2014 alpha
    S(  1) --> V(  1) amplitude =  0.8202 alpha
    D( 24) --> S(  1) amplitude =  0.3930 beta
    D( 24) --> V(  1) amplitude = -0.2731 beta

 Excited state   3: excitation energy (eV) =    3.4507
 Total energy for state  3:                  -286.71564016 au
    <S**2>     :  2.1278
    Trans. Mom.:  0.0853 X  -0.2045 Y   0.1631 Z
    Strength   :     0.0064015132
    D( 24) --> V(  1) amplitude = -0.5864 alpha
    S(  1) --> V(  1) amplitude =  0.3325 alpha
    D( 24) --> V(  1) amplitude =  0.7015 beta

 Excited state   4: excitation energy (eV) =    4.1879
 Total energy for state  4:                  -286.68854698 au
    <S**2>     :  0.8943
    Trans. Mom.:  0.0246 X  -0.0725 Y   0.0891 Z
    Strength   :     0.0014164091
    D( 24) --> V(  1) amplitude =  0.3170 alpha
    D( 23) --> S(  1) amplitude =  0.8447 beta
    D( 24) --> V(  1) amplitude =  0.3265 beta
 
 ---------------------------------------------------

 Stability analysis will be performed
 ---------------------------------------------------
 Iter    Rts Conv    Rts Left    Ttl Dev     Max Dev
 ---------------------------------------------------
   1         0           8      0.004703    0.000667
   2         0           8      0.002124    0.000500
   3         0           8      0.001043    0.000498
   4         2           6      0.000410    0.000251
   5         2           6      0.000186    0.000133
   6         3           5      0.000062    0.000044
   7         4           4      0.000023    0.000017
   8         7           1      0.000009    0.000006
   9         7           1      0.000005    0.000002
  10         8           0      0.000004    0.000001    Roots Converged
 UKS-> UKS   stable,    smallest eigenvalue:      0.0603323
 UKS->CUKS   stable,    smallest eigenvalue:      0.0810964
 ---------------------------------------------------
  SETman timing summary (seconds)
  CPU time               178.90s
  System time              0.00s
  Wall time              220.56s
 
 --------------------------------------------------------------
 
                    Orbital Energies (a.u.)
 --------------------------------------------------------------
 
 Alpha MOs
 -- Occupied --
-14.363 -10.248 -10.243 -10.241 -10.206 -10.205 -10.202  -1.010
 -0.820  -0.774  -0.662  -0.643  -0.594  -0.534  -0.490  -0.485
 -0.464  -0.433  -0.398  -0.369  -0.363  -0.328  -0.305  -0.235
 -0.192
 -- Virtual --
 -0.042   0.006   0.020   0.023   0.037   0.039   0.040   0.061
  0.073   0.075   0.083   0.087   0.093   0.113   0.119   0.123
  0.133   0.137   0.144   0.149   0.160   0.176   0.181   0.189
  0.191   0.196   0.203   0.209   0.221   0.228   0.240   0.257
  0.262   0.270   0.276   0.289   0.301   0.310   0.328   0.344
  0.361   0.369   0.474   0.505   0.577   0.637   0.649   0.679
  0.695   0.716   0.720   0.735   0.746   0.753   0.774   0.785
  0.813   0.872   0.887   0.902   0.933   0.936   0.962   0.979
  0.995   1.025   1.039   1.055   1.088   1.109   1.143   1.176
  1.200   1.209   1.268   1.274   1.325   1.364   1.405   1.426
  1.498   1.563   1.592   1.617   1.722   1.787   1.832   1.859
  1.873   1.913   1.926   1.956   2.001   2.018   2.033   2.062
  2.115   2.137   2.175   2.240   2.285   2.323   2.373   2.387
  2.412   2.422   2.437   2.469   2.494   2.523   2.534   2.556
  2.574   2.598   2.629   2.664   2.694   2.711   2.776   2.820
  2.876   2.920   3.031   3.081   3.244   3.278   3.292   3.363
  3.436   3.542   3.780   4.218   4.309   4.321   4.466   4.495
  4.579   4.770
 
 Beta MOs
 -- Occupied --
-14.362 -10.250 -10.244 -10.229 -10.204 -10.202 -10.200  -1.004
 -0.815  -0.770  -0.652  -0.642  -0.578  -0.530  -0.486  -0.480
 -0.457  -0.431  -0.395  -0.365  -0.356  -0.318  -0.295  -0.217
 -- Virtual --
 -0.088  -0.032   0.007   0.020   0.023   0.037   0.040   0.042
  0.067   0.075   0.076   0.084   0.092   0.098   0.116   0.122
  0.124   0.135   0.137   0.144   0.151   0.162   0.177   0.182
  0.192   0.194   0.201   0.205   0.210   0.222   0.230   0.240
  0.259   0.265   0.273   0.279   0.292   0.305   0.311   0.332
  0.347   0.364   0.376   0.478   0.510   0.580   0.640   0.667
  0.685   0.702   0.726   0.730   0.741   0.747   0.756   0.775
  0.787   0.825   0.875   0.889   0.904   0.936   0.939   0.966
  0.983   0.996   1.028   1.041   1.059   1.093   1.117   1.146
  1.181   1.203   1.211   1.276   1.280   1.330   1.372   1.408
  1.433   1.506   1.571   1.599   1.627   1.728   1.798   1.843
  1.865   1.889   1.915   1.931   1.962   2.004   2.023   2.035
  2.072   2.122   2.146   2.179   2.251   2.290   2.327   2.375
  2.391   2.418   2.425   2.442   2.473   2.498   2.529   2.536
  2.562   2.581   2.608   2.633   2.667   2.697   2.719   2.780
  2.827   2.881   2.926   3.035   3.084   3.245   3.279   3.294
  3.368   3.442   3.546   3.782   4.220   4.315   4.328   4.466
  4.503   4.595   4.773
 --------------------------------------------------------------
 
          Ground-State Mulliken Net Atomic Charges

     Atom                 Charge (a.u.)    Spin (a.u.)
  --------------------------------------------------------
      1 C                    -0.127686      -0.105714
      2 C                    -0.006002       0.301252
      3 C                    -0.172357      -0.193013
      4 C                     0.067988       0.421337
      5 C                    -0.256059      -0.253890
      6 N                    -0.134625       0.039398
      7 H                     0.145341       0.017661
      8 H                     0.128489      -0.012851
      9 H                     0.131648       0.008573
     10 H                     0.129340      -0.019136
     11 H                     0.143604       0.008870
     12 C                    -0.193994       0.790762
     13 H                     0.144315      -0.003249
  --------------------------------------------------------
  Sum of atomic charges =     0.000000
  Sum of spin   charges =     1.000000

 -----------------------------------------------------------------
                    Cartesian Multipole Moments
 -----------------------------------------------------------------
    Charge (ESU x 10^10)
                -0.0000
    Dipole Moment (Debye)
         X      -0.2241      Y      -0.9672      Z      -0.1631
       Tot       1.0061
    Quadrupole Moments (Debye-Ang)
        XX     -36.6951     XY      -2.3380     YY     -44.3822
        XZ      -0.4798     YZ      -4.0036     ZZ     -41.1321
    Octopole Moments (Debye-Ang^2)
       XXX      -3.7423    XXY      -6.0372    XYY      -7.5740
       YYY     -16.9286    XXZ       0.1901    XYZ       1.3781
       YYZ       2.0189    XZZ       2.5929    YZZ      -3.7829
       ZZZ      -2.5830
    Hexadecapole Moments (Debye-Ang^3)
      XXXX    -300.6097   XXXY      -4.3733   XXYY     -96.7927
      XYYY     -18.1032   YYYY    -259.8273   XXXZ      28.8511
      XXYZ      13.5183   XYYZ      12.7412   YYYZ      57.5029
      XXZZ     -86.6022   XYZZ       0.4689   YYZZ     -70.1312
      XZZZ      18.4351   YZZZ      56.0453   ZZZZ    -218.2400
 -----------------------------------------------------------------
Archival summary:
1\1\c8-72\SP\ProcedureUnspecified\6-31+G**\166(2)\hpark21\WedMar213:27:552022WedMar213:27:552022\0\\#,ProcedureUnspecified,6-31+G**,\\0,2\N\C,1,1.44263\H,2,1.08672,1,112.281\C,2,1.37673,1,126.176,3,-171.435,0\H,4,1.0851,2,118.91,1,174.431,0\C,4,1.43989,2,120.064,1,-5.85395,0\H,6,1.08656,4,120.005,2,168.419,0\C,6,1.35118,4,118.37,2,-11.094,0\H,8,1.08574,6,122.588,4,175.553,0\C,1,1.45536,2,86.1754,3,-102.86,0\H,10,1.08662,1,122.712,2,123.502,0\C,10,1.46314,1,63.2459,2,-110.249,0\H,12,1.09004,10,115.245,1,-98.6448,0\\\@

 Total job time:  239.45s(wall), 186.13s(cpu) 
 Wed Mar  2 13:27:55 2022

        *************************************************************
        *                                                           *
        *  Thank you very much for using Q-Chem.  Have a nice day.  *
        *                                                           *
        *************************************************************


