13
image # 1 Energy = -286.85678
C 1.27622   -0.03451  0.03088   
C 0.56402   -1.06743  0.81473   
C -0.82128  -1.00823  0.87345   
C -1.44626  0.01270   0.17081   
C -0.59972  0.97214   -0.57128  
N 0.74586   1.39411   0.00948   
H 2.36295   -0.04403  0.08594   
H 1.13961   -1.82069  1.34243   
H -1.39362  -1.72894  1.45116   
H -2.52307  0.14555   0.16807   
H -1.10825  1.81935   -1.02709  
C 0.67923   0.55100   -1.19630  
H 1.12431   0.80900   -2.15228  
13
image # 2 Energy = -286.85179
C 1.28509   0.01462   0.06399   
C 0.56827   -1.07874  0.78131   
C -0.82489  -1.01172  0.85968   
C -1.45783  0.02695   0.18643   
C -0.59573  0.99004   -0.55142  
N 0.71936   1.41513   -0.01418  
H 2.39440   0.05430   0.09455   
H 1.11374   -1.86463  1.30832   
H -1.40195  -1.73357  1.43467   
H -2.53351  0.15438   0.19420   
H -1.15059  1.84431   -0.99253  
C 0.67975   0.49672   -1.19763  
H 1.19448   0.69361   -2.15610  
13
image # 3 Energy = -286.84194
C 1.30555   0.05639   0.09069   
C 0.56896   -1.08481  0.76477   
C -0.82535  -1.00863  0.84358   
C -1.45736  0.03829   0.20602   
C -0.61805  1.00850   -0.54890  
N 0.70390   1.43510   -0.03915  
H 2.40296   0.15651   0.10707   
H 1.08918   -1.89888  1.26781   
H -1.40678  -1.73876  1.41612   
H -2.54471  0.16507   0.22012   
H -1.17969  1.85306   -0.95961  
C 0.69033   0.45205   -1.21169  
H 1.25312   0.56819   -2.13906  
13
image # 4 Energy = -286.83080
C 1.30259   0.09304   0.09602   
C 0.57272   -1.07472  0.76714   
C -0.81948  -1.01322  0.83675   
C -1.46834  0.06730   0.22019   
C -0.63679  0.99757   -0.55566  
N 0.70278   1.44599   -0.07784  
H 2.39406   0.26988   0.13356   
H 1.06819   -1.93038  1.21071   
H -1.40168  -1.74127  1.38288   
H -2.54142  0.17878   0.25227   
H -1.20371  1.85948   -0.93536  
C 0.69777   0.42643   -1.19159  
H 1.30788   0.42283   -2.11417  
13
image # 5 Energy = -286.81321
C 1.30520   0.13588   0.12470   
C 0.56291   -1.05790  0.76378   
C -0.81504  -0.99028  0.82358   
C -1.46393  0.06980   0.24223   
C -0.64424  0.99734   -0.55692  
N 0.68379   1.46953   -0.12290  
H 2.38493   0.38407   0.15635   
H 1.05861   -1.96331  1.15365   
H -1.39867  -1.75240  1.35195   
H -2.54500  0.19653   0.28632   
H -1.23218  1.86836   -0.92511  
C 0.71244   0.38219   -1.19011  
H 1.35874   0.25968   -2.08164  
13
image # 6 Energy = -286.79353
C 1.30753   0.17884   0.15729   
C 0.58173   -1.04606  0.76328   
C -0.82660  -0.99115  0.83041   
C -1.46913  0.08868   0.25210   
C -0.65703  1.01000   -0.56628  
N 0.66417   1.48981   -0.16611  
H 2.37388   0.48431   0.17372   
H 1.04769   -1.97831  1.09550   
H -1.39014  -1.75744  1.31982   
H -2.54475  0.21177   0.31719   
H -1.25470  1.86522   -0.92055  
C 0.72565   0.33655   -1.19210  
H 1.40359   0.10310   -2.04063  
13
image # 7 Energy = -286.76845
C 1.30779   0.23592   0.17463   
C 0.58100   -1.03254  0.75917   
C -0.81283  -0.97656  0.82712   
C -1.47217  0.10533   0.26148   
C -0.67651  1.01796   -0.57177  
N 0.64828   1.50399   -0.20900  
H 2.36560   0.58118   0.18309   
H 1.04256   -1.98673  1.04158   
H -1.39018  -1.77100  1.30018   
H -2.54728  0.22581   0.34298   
H -1.28217  1.86359   -0.92321  
C 0.74213   0.27715   -1.17836  
H 1.45114   -0.05506  -1.98931  
13
image # 8 Energy = -286.74359
C 1.31074   0.28834   0.18839   
C 0.57994   -1.01417  0.75321   
C -0.81506  -0.96762  0.82981   
C -1.46963  0.11582   0.27224   
C -0.69212  1.01740   -0.57026  
N 0.63153   1.51746   -0.25065  
H 2.35839   0.66212   0.18539   
H 1.04354   -1.98846  0.99281   
H -1.38282  -1.77422  1.27966   
H -2.55082  0.23752   0.36290   
H -1.31165  1.86675   -0.93509  
C 0.76335   0.21351   -1.17029  
H 1.48831   -0.19300  -1.92744  
13
image # 9 Energy = -286.72579
C 1.30705   0.33506   0.21270   
C 0.58634   -0.97093  0.74946   
C -0.81226  -0.94453  0.83687   
C -1.48040  0.12929   0.29750   
C -0.71236  1.02433   -0.57995  
N 0.61455   1.51732   -0.31647  
H 2.34309   0.74888   0.20849   
H 1.05484   -1.96520  0.89936   
H -1.37137  -1.78713  1.24655   
H -2.54663  0.25765   0.38855   
H -1.33732  1.84843   -0.96550  
C 0.78287   0.14352   -1.14208  
H 1.52160   -0.36364  -1.83450  
13
image # 10 Energy = -286.73262
C 1.33270   0.37661   0.22111   
C 0.59300   -0.92364  0.67899   
C -0.82412  -0.92179  0.84418   
C -1.49055  0.14688   0.29978   
C -0.77872  1.06192   -0.51564  
N 0.57967   1.46880   -0.37089  
H 2.36058   0.78781   0.19838   
H 1.07151   -1.91699  0.86901   
H -1.36482  -1.77479  1.26328   
H -2.56555  0.25055   0.37629   
H -1.37944  1.84814   -0.98377  
C 0.82795   -0.01318  -1.11824  
H 1.58481   -0.42710  -1.77256  
13
image # 11 Energy = -286.75639
C 1.39595   0.40695   0.21596   
C 0.59650   -0.85182  0.53779   
C -0.84648  -0.89945  0.85628   
C -1.51696  0.15982   0.29406   
C -0.87924  1.14433   -0.39369  
N 0.51820   1.37181   -0.41336  
H 2.39110   0.78512   0.18605   
H 1.10264   -1.82967  0.87190   
H -1.35301  -1.73006  1.31903   
H -2.59594  0.22194   0.32883   
H -1.43156  1.85238   -1.00000  
C 0.89066   -0.26070  -1.06791  
H 1.67304   -0.41131  -1.74816  
13
image # 12 Energy = -286.78134
C 1.37959   0.45652   0.19309   
C 0.61203   -0.85790  0.47060   
C -0.84761  -0.86447  0.86027   
C -1.53102  0.15656   0.31304   
C -0.89579  1.18234   -0.37417  
N 0.48334   1.34697   -0.45425  
H 2.39280   0.82483   0.21252   
H 1.12547   -1.76642  0.81062   
H -1.32499  -1.70839  1.33875   
H -2.61851  0.21806   0.32310   
H -1.45856  1.84279   -1.03393  
C 0.93158   -0.36251  -0.99073  
H 1.69406   -0.51511  -1.69001  
13
image # 13 Energy = -286.79296
C 1.36550   0.50613   0.13990   
C 0.59660   -0.89824  0.43729   
C -0.82313  -0.85996  0.85323   
C -1.54540  0.16931   0.30474   
C -0.89054  1.20333   -0.38798  
N 0.43427   1.39609   -0.45391  
H 2.38844   0.86847   0.21456   
H 1.14227   -1.77060  0.81068   
H -1.30263  -1.68267  1.37275   
H -2.62741  0.20754   0.32315   
H -1.47438  1.84450   -1.04017  
C 0.97479   -0.41505  -0.93658  
H 1.70226   -0.61985  -1.66268  
13
image # 14 Energy = -286.81480
C 1.33648   0.55858   0.06476   
C 0.58790   -0.95107  0.40650   
C -0.81900  -0.84543  0.83238   
C -1.54236  0.16606   0.29641   
C -0.88878  1.21745   -0.41115  
N 0.39914   1.46944   -0.41707  
H 2.36938   0.88279   0.24564   
H 1.16489   -1.76761  0.82314   
H -1.27163  -1.64369  1.42172   
H -2.63902  0.19665   0.32608   
H -1.48466  1.85174   -1.04898  
C 1.01842   -0.47629  -0.88358  
H 1.70892   -0.71218  -1.68115  
13
image # 15 Energy = -286.82944
C 1.34538   0.62991   -0.01811  
C 0.55674   -1.03122  0.40633   
C -0.79560  -0.85444  0.83266   
C -1.53018  0.15617   0.26149   
C -0.88904  1.21147   -0.42554  
N 0.39672   1.53347   -0.36156  
H 2.37266   0.93710   0.22011   
H 1.14858   -1.82270  0.85785   
H -1.26341  -1.60357  1.47749   
H -2.62079  0.18326   0.30460   
H -1.49625  1.86682   -1.04664  
C 1.03374   -0.49335  -0.86481  
H 1.68090   -0.76819  -1.66653  
13
image # 16 Energy = -286.84484
C 1.35502   0.69744   -0.09773  
C 0.54215   -1.08690  0.40670   
C -0.78234  -0.86604  0.83900   
C -1.51754  0.16101   0.23817   
C -0.91364  1.21268   -0.42673  
N 0.40210   1.57092   -0.32695  
H 2.37867   1.00360   0.17163   
H 1.13114   -1.86849  0.88261   
H -1.25520  -1.57377  1.51496   
H -2.61060  0.16372   0.27868   
H -1.51337  1.87600   -1.04081  
C 1.04574   -0.50641  -0.82196  
H 1.67740   -0.84024  -1.63784  
13
image # 17 Energy = -286.85330
C 1.36413   0.73702   -0.14567  
C 0.53780   -1.12059  0.44728   
C -0.78075  -0.88089  0.83379   
C -1.51538  0.15706   0.23231   
C -0.91124  1.21475   -0.43621  
N 0.38906   1.61165   -0.33817  
H 2.38903   1.09113   0.02932   
H 1.09252   -1.92323  0.93526   
H -1.28150  -1.59363  1.49795   
H -2.59811  0.16151   0.28274   
H -1.54382  1.89486   -1.00168  
C 1.06487   -0.50218  -0.80370  
H 1.73381   -0.90378  -1.55143  
13
image # 18 Energy = -286.86900
C 1.35587   0.78317   -0.21987  
C 0.53073   -1.15806  0.45631   
C -0.77605  -0.89026  0.82891   
C -1.50870  0.15877   0.22398   
C -0.92261  1.22017   -0.44236  
N 0.38246   1.64595   -0.34086  
H 2.38336   1.15756   -0.06341  
H 1.07262   -1.95380  0.96452   
H -1.28542  -1.59122  1.49556   
H -2.59650  0.15820   0.28527   
H -1.56952  1.90915   -0.97947  
C 1.10022   -0.51723  -0.75077  
H 1.77576   -0.97710  -1.47440  
13
image # 19 Energy = -286.87457
C 1.35727   0.81104   -0.27672  
C 0.52512   -1.18188  0.49195   
C -0.78097  -0.90845  0.81845   
C -1.50727  0.17103   0.21527   
C -0.93274  1.21306   -0.44331  
N 0.36560   1.67585   -0.37760  
H 2.37791   1.22093   -0.22353  
H 1.03593   -1.98806  1.01576   
H -1.31431  -1.61807  1.45717   
H -2.59432  0.16685   0.30954   
H -1.60120  1.93138   -0.92978  
C 1.14162   -0.52982  -0.71416  
H 1.87290   -1.01607  -1.35836  
13
image # 20 Energy = -286.88008
C 1.34690   0.82832   -0.33313  
C 0.52101   -1.19456  0.51738   
C -0.79764  -0.92293  0.80186   
C -1.51401  0.15616   0.22211   
C -0.94795  1.23101   -0.44322  
N 0.36755   1.67703   -0.42262  
H 2.36594   1.26005   -0.39370  
H 0.99811   -2.01575  1.07004   
H -1.34697  -1.63989  1.41471   
H -2.59564  0.17782   0.33466   
H -1.63227  1.95496   -0.87209  
C 1.19453   -0.53831  -0.66530  
H 1.99006   -1.02167  -1.24448  
13
image # 21 Energy = -286.89044
C 1.35157   0.83898   -0.39517  
C 0.51563   -1.21192  0.52261   
C -0.79704  -0.93366  0.79190   
C -1.51551  0.16483   0.21786   
C -0.96137  1.23648   -0.43185  
N 0.34843   1.68546   -0.46163  
H 2.34675   1.28490   -0.50834  
H 0.97341   -2.02743  1.08600   
H -1.36308  -1.65009  1.39058   
H -2.59943  0.18549   0.35286   
H -1.65752  1.97200   -0.84040  
C 1.24321   -0.55306  -0.59896  
H 2.06865   -1.03491  -1.13775  
13
image # 22 Energy = -286.89890
C 1.33467   0.85092   -0.45316  
C 0.51109   -1.22451  0.52644   
C -0.79982  -0.93948  0.77852   
C -1.52112  0.17055   0.21826   
C -0.97575  1.24951   -0.42609  
N 0.33543   1.68413   -0.50650  
H 2.33467   1.30518   -0.62585  
H 0.94860   -2.04627  1.09243   
H -1.38068  -1.66361  1.36614   
H -2.59699  0.19480   0.37395   
H -1.67216  1.98284   -0.80369  
C 1.29486   -0.57006  -0.53540  
H 2.14452   -1.03382  -1.01836  
13
image # 23 Energy = -286.90507
C 1.33166   0.83706   -0.51073  
C 0.51079   -1.23274  0.52473   
C -0.81583  -0.94214  0.76777   
C -1.51852  0.17235   0.22143   
C -0.98592  1.25260   -0.41671  
N 0.31749   1.68258   -0.55792  
H 2.31321   1.31494   -0.73675  
H 0.92484   -2.07665  1.09194   
H -1.39411  -1.67358  1.33649   
H -2.59424  0.20582   0.39783   
H -1.68699  2.00045   -0.76879  
C 1.32765   -0.54972  -0.46370  
H 2.23022   -1.02512  -0.89756  
13
image # 24 Energy = -286.91175
C 1.33504   0.84497   -0.57307  
C 0.48874   -1.23731  0.52282   
C -0.80523  -0.95630  0.75691   
C -1.52638  0.17183   0.22973   
C -0.98696  1.26349   -0.40760  
N 0.30344   1.66822   -0.61825  
H 2.27669   1.30942   -0.85220  
H 0.89795   -2.11353  1.07595   
H -1.41070  -1.68373  1.30307   
H -2.58886  0.22005   0.42545   
H -1.70261  2.02288   -0.73096  
C 1.37306   -0.54248  -0.38923  
H 2.31016   -0.99336  -0.75078  
13
image # 25 Energy = -286.91592
C 1.32735   0.83967   -0.61065  
C 0.50998   -1.25818  0.53074   
C -0.82108  -0.96745  0.74982   
C -1.52107  0.17935   0.23526   
C -0.99491  1.27155   -0.39977  
N 0.29557   1.65253   -0.68149  
H 2.25308   1.29974   -0.95949  
H 0.86476   -2.13665  1.03825   
H -1.42761  -1.69620  1.27321   
H -2.59134  0.23444   0.45528   
H -1.70867  2.04114   -0.69300  
C 1.41490   -0.53407  -0.33833  
H 2.36852   -0.94612  -0.60562  
13
image # 26 Energy = -286.91894
C 1.31954   0.81708   -0.64811  
C 0.50570   -1.25053  0.53516   
C -0.81352  -0.97746  0.72646   
C -1.52242  0.19168   0.25354   
C -0.99641  1.28094   -0.40207  
N 0.26893   1.64887   -0.74574  
H 2.23769   1.28457   -1.05864  
H 0.84532   -2.18436  0.99098   
H -1.44690  -1.71571  1.25381   
H -2.58776  0.24713   0.48304   
H -1.70887  2.05924   -0.65218  
C 1.43169   -0.51374  -0.28382  
H 2.44200   -0.90147  -0.45454  
13
image # 27 Energy = -286.92190
C 1.31910   0.81658   -0.69631  
C 0.50334   -1.26060  0.52869   
C -0.83335  -0.98349  0.71124   
C -1.51942  0.19911   0.27281   
C -0.99202  1.29370   -0.40252  
N 0.24337   1.63707   -0.79917  
H 2.21454   1.25602   -1.12022  
H 0.84181   -2.21822  0.93811   
H -1.44226  -1.72029  1.23268   
H -2.57935  0.25567   0.50494   
H -1.71353  2.07928   -0.62013  
C 1.45748   -0.48992  -0.22376  
H 2.48293   -0.87013  -0.32564  
13
image # 28 Energy = -286.92432
C 1.30375   0.79631   -0.72368  
C 0.49511   -1.27584  0.50154   
C -0.82202  -0.98302  0.69389   
C -1.51216  0.21198   0.28126   
C -0.99883  1.30705   -0.38926  
N 0.23345   1.61597   -0.85441  
H 2.20462   1.22856   -1.16478  
H 0.85432   -2.23094  0.87946   
H -1.42669  -1.72411  1.21285   
H -2.57053  0.26414   0.52516   
H -1.72314  2.09842   -0.59481  
C 1.47756   -0.45101  -0.15518  
H 2.48456   -0.85751  -0.21205  
