
Running Job 1 of 1 optimize.in
qchem optimize.in_9154.0 ./optimize.d/ 1
/home/leeping/opt/qchem/5.0.2-openmp/exe/qcprog.exe_s optimize.in_9154.0 ./optimize.d/
Check license passed

                  Welcome to Q-Chem
     A Quantum Leap Into The Future Of Chemistry


 Q-Chem 5.0, Q-Chem, Inc., Pleasanton, CA (2017)

 Yihan Shao,  Zhengting Gan,  E. Epifanovsky,  A. T. B. Gilbert,  M. Wormit,  
 J. Kussmann,  A. W. Lange,  A. Behn,  Jia Deng,  Xintian Feng,  D. Ghosh,  
 M. Goldey,  P. R. Horn,  L. D. Jacobson,  I. Kaliman,  T. Kus,  A. Landau,  
 Jie Liu,  E. I. Proynov,  R. M. Richard,  R. P. Steele,  E. J. Sundstrom,  
 H. L. Woodcock III,  P. M. Zimmerman,  D. Zuev,  B. Albrecht,  E. Alguire,  
 S. A. Baeppler,  D. Barton,  Z. Benda,  Y. A. Bernard,  E. J. Berquist,  
 K. B. Bravaya,  H. Burton,  D. Casanova,  Chun-Min Chang,  Yunqing Chen,  
 A. Chien,  K. D. Closser,  M. P. Coons,  S. Dasgupta,  A. L. Dempwolff,  
 M. Diedenhofen,  Hainam Do,  R. G. Edgar,  Po-Tung Fang,  S. Fatehi,  
 Qingguo Feng,  J. Fosso-Tande,  Qinghui Ge,  A. Ghysels,  G. Gidofalvi,  
 J. Gomes,  J. Gonthier,  A. Gunina,  M. W. D. Hanson-Heine,  
 P. H. P. Harbach,  A. W. Hauser,  J. E. Herr,  E. G. Hohenstein,  
 Z. C. Holden,  Kerwin Hui,  T.-C. Jagau,  Hyunjun Ji,  B. Kaduk,  
 K. Khistyaev,  Jaehoon Kim,  P. Klunzinger,  K. Koh,  D. Kosenkov,  
 L. Koulias,  T. Kowalczyk,  C. M. Krauter,  A. Kunitsa,  Ka Un Lao,  
 A. Laurent,  K. V. Lawler,  Joonho Lee,  D. Lefrancois,  S. Lehtola,  
 D. S. Levine,  Yi-Pei Li,  You-Sheng Lin,  Fenglai Liu,  E. Livshits,  
 A. Luenser,  P. Manohar,  E. Mansoor,  S. F. Manzer,  Shan-Ping Mao,  
 Yuezhi Mao,  N. Mardirossian,  A. V. Marenich,  T. Markovich,  
 L. A. Martinez-Martinez,  S. A. Maurer,  N. J. Mayhall,  S. C. McKenzie,  
 J.-M. Mewes,  A. F. Morrison,  J. W. Mullinax,  K. Nanda,  
 T. S. Nguyen-Beck,  R. Olivares-Amaya,  J. A. Parkhill,  T. M. Perrine,  
 F. Plasser,  S. Prager,  A. Prociuk,  E. Ramos,  D. R. Rehn,  F. Rob,  
 M. Schneider,  N. Sergueev,  S. M. Sharada,  S. Sharma,  D. W. Small,  
 T. Stauch,  T. Stein,  Yu-Chuan Su,  A. J. W. Thom,  A. Tkatchenko,  
 T. Tsuchimochi,  L. Vogt,  O. Vydrov,  M. A. Watson,  J. Wenzel,  
 M. de Wergifosse,  T. A. Wesolowski,  A. White,  J. Witte,  A. Yamada,  
 Jun Yang,  K. Yao,  S. Yeganeh,  S. R. Yost,  Zhi-Qiang You,  A. Zech,  
 Igor Ying Zhang,  Xing Zhang,  Yan Zhao,  Ying Zhu,  B. R. Brooks,  
 G. K. L. Chan,  C. J. Cramer,  M. S. Gordon,  W. J. Hehre,  A. Klamt,  
 M. W. Schmidt,  C. D. Sherrill,  D. G. Truhlar,  A. Aspuru-Guzik,  R. Baer,  
 A. T. Bell,  N. A. Besley,  Jeng-Da Chai,  R. A. DiStasio Jr.,  A. Dreuw,  
 B. D. Dunietz,  T. R. Furlani,  Chao-Ping Hsu,  Yousung Jung,  Jing Kong,  
 D. S. Lambrecht,  WanZhen Liang,  C. Ochsenfeld,  V. A. Rassolov,  
 L. V. Slipchenko,  J. E. Subotnik,  T. Van Voorhis,  J. M. Herbert,  
 A. I. Krylov,  P. M. W. Gill,  M. Head-Gordon

 Contributors to earlier versions of Q-Chem not listed above: 
 R. D. Adamson,  B. Austin,  J. Baker,  G. J. O. Beran,  K. Brandhorst,  
 S. T. Brown,  E. F. C. Byrd,  A. K. Chakraborty,  C.-L. Cheng,  
 Siu Hung Chien,  D. M. Chipman,  D. L. Crittenden,  H. Dachsel,  
 R. J. Doerksen,  A. D. Dutoi,  L. Fusti-Molnar,  W. A. Goddard III,  
 A. Golubeva-Zadorozhnaya,  S. R. Gwaltney,  G. Hawkins,  A. Heyden,  
 S. Hirata,  G. Kedziora,  F. J. Keil,  C. Kelley,  Jihan Kim,  R. A. King,  
 R. Z. Khaliullin,  P. P. Korambath,  W. Kurlancheek,  A. M. Lee,  M. S. Lee,  
 S. V. Levchenko,  Ching Yeh Lin,  D. Liotard,  R. C. Lochan,  I. Lotan,  
 P. E. Maslen,  N. Nair,  D. P. O'Neill,  D. Neuhauser,  E. Neuscamman,  
 C. M. Oana,  R. Olson,  B. Peters,  R. Peverati,  P. A. Pieniazek,  
 Y. M. Rhee,  J. Ritchie,  M. A. Rohrdanz,  E. Rosta,  N. J. Russ,  
 H. F. Schaefer III,  N. E. Schultz,  N. Shenvi,  A. C. Simmonett,  A. Sodt,  
 D. Stuck,  K. S. Thanthiriwatte,  V. Vanovschi,  Tao Wang,  A. Warshel,  
 C. F. Williams,  Q. Wu,  X. Xu,  W. Zhang

 Please cite Q-Chem as follows:
 Y. Shao et al., Mol. Phys. 113, 184-215 (2015)
 DOI: 10.1080/00268976.2014.952696

 Q-Chem 5.0.2 for Intel X86 EM64T Linux

 Parts of Q-Chem use Armadillo 5.200.1 (Boston Tea Smuggler).
 http://arma.sourceforge.net/

 Q-Chem begins on Thu Mar  3 14:26:50 2022  

Host: 
0

     Scratch files written to ./optimize.d//
 Dec517 15110_ 26548  26544 5633   
Processing $rem in /home/leeping/opt/qchem/5.0.2-openmp/config/preferences.
 MEM_STATIC 2000
 MEM_TOTAL  8000
 SYMMETRY   OFF
 SYM_IGNORE TRUE 

Checking the input file for inconsistencies... 	...done.

--------------------------------------------------------------
User input:
--------------------------------------------------------------
$molecule
0 2
C        1.5347172290    0.3454639589   -0.6183732222
C        1.1735731804   -0.9593315632   -0.3365047952
C       -0.0772104441   -1.4426443751    0.1894066043
C       -1.3051828010    0.7329737107    0.4116508386
C       -0.3746910561    1.6477457784   -0.0419429535
N        0.8918913162    1.5300991777   -0.5072437733
H        2.5461612253    0.4645600824   -1.0131766898
H        1.9325769451   -1.7111748747   -0.5388862410
H       -0.1452158814   -2.5187605063    0.3364218789
H       -2.2588357145    1.1501332227    0.7262513208
H       -0.7104166550    2.6869346095   -0.0314645072
C       -1.1698170241   -0.6976319825    0.5187254273
H       -2.0375503197   -1.2283672386    0.9051361124
$end

$rem
method                b3lyp
basis                 6-31g(d)
unrestricted          true
symmetry              off
sym_ignore            true
incdft                false
incfock               0
scf_convergence       8
thresh                14
jobtype               opt
scf_guess             read
scf_algorithm         diis
max_scf_cycles        100
geom_opt_tol_gradient 600
geom_opt_tol_displacement 2400
geom_opt_tol_energy   200
geom_opt_max_cycles   100
$end

--------------------------------------------------------------
 ----------------------------------------------------------------
             Standard Nuclear Orientation (Angstroms)
    I     Atom           X                Y                Z
 ----------------------------------------------------------------
    1      C       1.5347172290     0.3454639589    -0.6183732222
    2      C       1.1735731804    -0.9593315632    -0.3365047952
    3      C      -0.0772104441    -1.4426443751     0.1894066043
    4      C      -1.3051828010     0.7329737107     0.4116508386
    5      C      -0.3746910561     1.6477457784    -0.0419429535
    6      N       0.8918913162     1.5300991777    -0.5072437733
    7      H       2.5461612253     0.4645600824    -1.0131766898
    8      H       1.9325769451    -1.7111748747    -0.5388862410
    9      H      -0.1452158814    -2.5187605063     0.3364218789
   10      H      -2.2588357145     1.1501332227     0.7262513208
   11      H      -0.7104166550     2.6869346095    -0.0314645072
   12      C      -1.1698170241    -0.6976319825     0.5187254273
   13      H      -2.0375503197    -1.2283672386     0.9051361124
 ----------------------------------------------------------------
 Nuclear Repulsion Energy =   260.7491041533 hartrees
 There are       25 alpha and       24 beta electrons
 Requested basis set is 6-31G(d)
 There are 40 shells and 117 basis functions

 Total QAlloc Memory Limit   8000 MB
 Mega-Array Size      1956 MB
 MEM_STATIC part      2000 MB
 A cutoff of  1.0D-14 yielded    791 shell pairs
 There are      7063 function pairs
 
 -------------------------------------------------------
 OpenMP Integral Computing Module                       
 Release: version 1.0, May 2013, Q-Chem Inc. Pittsburgh 
 -------------------------------------------------------
 Integral Job Info:
 Integral job number is                      11
 Integral operator is                         1
 short-range coefficients                     0
 long-range coefficients              100000000
 Omega coefficients                           0
 if combine SR and LR in K                    0
 Integral screening is                        0
 Integral computing path is                   2
 max size of driver memory is            800000
 size of driver memory is                593474
 size of scratch memory is              2361544
 max col of scratch BK array               1296
 max len of scratch array in speh3          155
 max len of scratch index in speh4           18
 max int batch size is                      520
 min int batch size is                       52
 fixed nKL is                                52
 max L of basis functions is                  2
 order of int derivative is                   0
 number of shells is                         40
 number of basis is                         117
 number of cartesian basis is               117
 number of contracted shell pairs           791
 number of primitive shell pairs           3395
 maxK2 (contraction) of shell pair           36
 max number of K2 of shell pair               1
 max number of CS2 of shell pair             94
 max number of PS2 of shell pair            402
 mem total for path MDJ                  535308
 -------------------------------------------------------
 Smallest overlap matrix eigenvalue = 1.33E-03

 Scale SEOQF with 1.000000e-01/1.000000e-01/1.000000e+00

 Standard Electronic Orientation quadrupole field applied
 Nucleus-field energy     =    -0.0000000032 hartrees
 Guess MOs from SCF MO coefficient file
 Reading MOs from coefficient file
 Reading MOs from coefficient file
 An unrestricted hybrid HF-DFT SCF calculation will be
 performed using Pulay DIIS extrapolation
 Exchange:     0.2000 Hartree-Fock + 0.0800 Slater + 0.7200 B88
 Correlation:  0.1900 VWN1RPA + 0.8100 LYP
 Using SG-1 standard quadrature grid
 SCF converges when DIIS error is below 1.0E-08
Using Q-Chem read-in guess as SCF_GUESS READ specified.

 using 4 threads for integral computing
 -------------------------------------------------------
 OpenMP Integral computing Module                
 Release: version 1.0, May 2013, Q-Chem Inc. Pittsburgh 
 -------------------------------------------------------
 -------------------------------------------------------
 OpenMP BLAS3 based DFT computing Module                
 Release: version 1.0, May 2013, Q-Chem Inc. Pittsburgh 
 -------------------------------------------------------
 ---------------------------------------
  Cycle       Energy         DIIS Error
 ---------------------------------------
    1    -286.9243518580      4.68E-10
    2    -286.9243518580      8.20E-10 Convergence criterion met
 ---------------------------------------
 <S^2> = 0.7684
 SCF time:  CPU 4.63 s  wall 1.18 s
 SCF   energy in the final basis set = -286.92435186
 Total energy in the final basis set = -286.92435186
 
 --------------------------------------------------------------
 
                    Orbital Energies (a.u.)
 --------------------------------------------------------------
 
 Alpha MOs
 -- Occupied --
-14.322 -10.232 -10.232 -10.212 -10.211 -10.201 -10.200  -0.922
 -0.818  -0.784  -0.693  -0.667  -0.551  -0.537  -0.518  -0.449
 -0.439  -0.414  -0.394  -0.386  -0.349  -0.322  -0.299  -0.251
 -0.162
 -- Virtual --
 -0.072   0.077   0.097   0.101   0.117   0.142   0.181   0.184
  0.193   0.214   0.266   0.320   0.357   0.390   0.412   0.483
  0.496   0.521   0.547   0.576   0.584   0.587   0.591   0.610
  0.619   0.624   0.646   0.658   0.714   0.718   0.833   0.840
  0.847   0.854   0.868   0.872   0.885   0.922   0.965   0.975
  1.024   1.027   1.043   1.127   1.177   1.185   1.300   1.303
  1.326   1.401   1.429   1.480   1.482   1.546   1.574   1.586
  1.682   1.732   1.769   1.829   1.850   1.919   1.925   2.030
  2.046   2.048   2.100   2.141   2.142   2.191   2.247   2.391
  2.410   2.415   2.446   2.546   2.577   2.601   2.614   2.739
  2.749   2.808   3.052   3.250   3.251   4.018   4.046   4.102
  4.196   4.239   4.532   4.595
 
 Beta MOs
 -- Occupied --
-14.314 -10.233 -10.233 -10.210 -10.210 -10.196 -10.196  -0.911
 -0.809  -0.777  -0.681  -0.665  -0.546  -0.535  -0.514  -0.447
 -0.438  -0.411  -0.383  -0.373  -0.348  -0.295  -0.276  -0.241
 -- Virtual --
 -0.078  -0.070   0.078   0.118   0.124   0.125   0.142   0.182
  0.187   0.196   0.219   0.268   0.324   0.360   0.393   0.415
  0.486   0.504   0.525   0.551   0.587   0.588   0.592   0.596
  0.614   0.624   0.629   0.649   0.676   0.716   0.729   0.834
  0.843   0.846   0.869   0.875   0.880   0.887   0.925   0.967
  0.979   1.026   1.030   1.045   1.133   1.180   1.189   1.311
  1.315   1.333   1.411   1.429   1.489   1.492   1.560   1.582
  1.597   1.685   1.737   1.782   1.831   1.853   1.922   1.933
  2.036   2.058   2.061   2.110   2.142   2.147   2.203   2.259
  2.399   2.422   2.426   2.448   2.558   2.579   2.611   2.624
  2.743   2.761   2.810   3.054   3.253   3.254   4.030   4.053
  4.109   4.201   4.239   4.537   4.601
 --------------------------------------------------------------
 
          Ground-State Mulliken Net Atomic Charges

     Atom                 Charge (a.u.)    Spin (a.u.)
  --------------------------------------------------------
      1 C                     0.036319      -0.115310
      2 C                    -0.132142       0.351671
      3 C                    -0.110619       0.088012
      4 C                    -0.130709       0.342334
      5 C                     0.034658      -0.109803
      6 N                    -0.423272       0.386777
      7 H                     0.142527       0.003533
      8 H                     0.134284      -0.018552
      9 H                     0.141978      -0.006363
     10 H                     0.134372      -0.018120
     11 H                     0.142653       0.003263
     12 C                    -0.111967       0.099469
     13 H                     0.141917      -0.006910
  --------------------------------------------------------
  Sum of atomic charges =    -0.000000
  Sum of spin   charges =     1.000000

 -----------------------------------------------------------------
                    Cartesian Multipole Moments
 -----------------------------------------------------------------
    Charge (ESU x 10^10)
                -0.0000
    Dipole Moment (Debye)
         X      -1.0849      Y      -1.8636      Z       0.6179
       Tot       2.2432
    Quadrupole Moments (Debye-Ang)
        XX     -37.2939     XY      -3.5766     YY     -39.9521
        XZ      -1.8918     YZ       0.9683     ZZ     -42.7522
    Octopole Moments (Debye-Ang^2)
       XXX      -9.3313    XXY      -9.1168    XYY     -11.5861
       YYY     -26.2538    XXZ       2.3468    XYZ       2.5121
       YYZ       6.1937    XZZ      -3.4534    YZZ      -6.4648
       ZZZ       5.3595
    Hexadecapole Moments (Debye-Ang^3)
      XXXX    -339.1188   XXXY       0.7021   XXYY    -130.3882
      XYYY     -17.1054   YYYY    -396.6898   XXXZ      45.1794
      XXYZ       8.0105   XYYZ      21.2861   YYYZ      23.6766
      XXZZ     -74.5506   XYZZ       1.9615   YYZZ     -89.8060
      XZZZ      62.7637   YZZZ      19.4379   ZZZZ     -96.2897
 -----------------------------------------------------------------
 Calculating analytic gradient of the SCF energy
 Gradient of SCF Energy
            1           2           3           4           5           6
    1  -0.0001154   0.0000184  -0.0001855   0.0001886  -0.0000963   0.0000111
    2   0.0003668  -0.0000857   0.0001393  -0.0000530  -0.0000487  -0.0002378
    3  -0.0000632  -0.0000318  -0.0000347   0.0000321   0.0000958   0.0000799
            7           8           9          10          11          12
    1  -0.0000283   0.0000527   0.0000371   0.0000361   0.0000209   0.0000524
    2  -0.0000844   0.0000323  -0.0000099   0.0000574  -0.0000726  -0.0000079
    3   0.0000256   0.0000112   0.0000840  -0.0000111  -0.0000516  -0.0000972
           13
    1   0.0000083
    2   0.0000041
    3  -0.0000390
 Max gradient component =       3.668E-04
 RMS gradient           =       9.959E-05
 Gradient time:  CPU 7.39 s  wall 1.94 s
 Geometry Optimization Parameters
   NAtoms,    NIC,     NZ,  NCons,   NDum,   NFix, NCnnct, MaxDiis
       13      82       0       0       0       0       0       0


** GEOMETRY OPTIMIZATION IN DELOCALIZED INTERNAL COORDINATES **
   Searching for a Minimum

   Optimization Cycle:   1

                       Coordinates (Angstroms)
     ATOM                X               Y               Z
      1  C         1.5347172290    0.3454639589   -0.6183732222
      2  C         1.1735731804   -0.9593315632   -0.3365047952
      3  C        -0.0772104441   -1.4426443751    0.1894066043
      4  C        -1.3051828010    0.7329737107    0.4116508386
      5  C        -0.3746910561    1.6477457784   -0.0419429535
      6  N         0.8918913162    1.5300991777   -0.5072437733
      7  H         2.5461612253    0.4645600824   -1.0131766898
      8  H         1.9325769451   -1.7111748747   -0.5388862410
      9  H        -0.1452158814   -2.5187605063    0.3364218789
     10  H        -2.2588357145    1.1501332227    0.7262513208
     11  H        -0.7104166550    2.6869346095   -0.0314645072
     12  C        -1.1698170241   -0.6976319825    0.5187254273
     13  H        -2.0375503197   -1.2283672386    0.9051361124
   Point Group: c1    Number of degrees of freedom:    33


   Energy is   -286.924351858


 Attempting to Generate Delocalized Internal Coordinates

 33 Hessian modes will be used to form the next step
  Hessian Eigenvalues:
     0.018570    0.019896    0.020891    0.021858    0.022043    0.022709
     0.023120    0.023802    0.024030    0.025359    0.160000    0.160000
     0.160000    0.160000    0.160000    0.160000    0.220000    0.220000
     0.220000    0.233948    0.345506    0.345683    0.350169    0.350335
     0.351143    0.351216    0.382669    0.389809    0.467159    0.484774
     0.507326    0.533933    0.539532

 Minimum Search - Taking Simple RFO Step
 Searching for Lamda that Minimizes Along All modes
 Value Taken    Lamda =  -0.00000132
 Step Taken.  Stepsize is  0.005774

                             Maximum     Tolerance    Cnvgd?
         Gradient           0.000215      0.000600     YES
         Displacement       0.003120      0.002400      NO
         Energy change     *********      0.000002      NO


 New Cartesian Coordinates Obtained by Inverse Iteration

 Displacement from previous Coordinates is:  0.004608
 ----------------------------------------------------------------
             Standard Nuclear Orientation (Angstroms)
    I     Atom           X                Y                Z
 ----------------------------------------------------------------
    1      C       1.5350837666     0.3453606518    -0.6178982683
    2      C       1.1737664592    -0.9593789333    -0.3360804907
    3      C      -0.0769351772    -1.4427068395     0.1898896818
    4      C      -1.3054679703     0.7330690516     0.4112849400
    5      C      -0.3748410444     1.6479235217    -0.0425780071
    6      N       0.8920125193     1.5302305521    -0.5074504573
    7      H       2.5464038247     0.4648867546    -1.0130775654
    8      H       1.9321410119    -1.7116003511    -0.5393123970
    9      H      -0.1456013314    -2.5189781604     0.3352420439
   10      H      -2.2593367894     1.1497660310     0.7259115992
   11      H      -0.7103779670     2.6872875489    -0.0313133891
   12      C      -1.1695801811    -0.6975572387     0.5193928207
   13      H      -2.0372671208    -1.2283025888     0.9059894893
 ----------------------------------------------------------------
 Nuclear Repulsion Energy =   260.7278062036 hartrees
 There are       25 alpha and       24 beta electrons
 Applying Cartesian multipole field
    Component          Value
    ---------          -----
     (2,0,0)        1.00000E-11
     (0,2,0)        2.00000E-11
     (0,0,2)       -3.00000E-10
 Nucleus-field energy     =    -0.0000000032 hartrees
 Requested basis set is 6-31G(d)
 There are 40 shells and 117 basis functions
 A cutoff of  1.0D-14 yielded    791 shell pairs
 There are      7063 function pairs
 Smallest overlap matrix eigenvalue = 1.33E-03
 Guess MOs from SCF MO coefficient file
 Reading MOs from coefficient file
 Reading MOs from coefficient file
 An unrestricted hybrid HF-DFT SCF calculation will be
 performed using Pulay DIIS extrapolation
 Exchange:     0.2000 Hartree-Fock + 0.0800 Slater + 0.7200 B88
 Correlation:  0.1900 VWN1RPA + 0.8100 LYP
 Using SG-1 standard quadrature grid
 SCF converges when DIIS error is below 1.0E-08
 Geometry optimization detected.  Setting ReadMinima to 0
 Setting SaveMinima to 0
Using Q-Chem read-in guess as SCF_GUESS READ specified.

 using 4 threads for integral computing
 -------------------------------------------------------
 OpenMP Integral computing Module                
 Release: version 1.0, May 2013, Q-Chem Inc. Pittsburgh 
 -------------------------------------------------------
 -------------------------------------------------------
 OpenMP BLAS3 based DFT computing Module                
 Release: version 1.0, May 2013, Q-Chem Inc. Pittsburgh 
 -------------------------------------------------------
 ---------------------------------------
  Cycle       Energy         DIIS Error
 ---------------------------------------
    1    -286.9238472324      2.75E-05
    2    -286.9243523859      6.52E-06
    3    -286.9243522743      1.03E-05
    4    -286.9243524867      1.76E-06
    5    -286.9243524933      4.76E-07
    6    -286.9243524947      2.20E-07
    7    -286.9243524953      1.43E-07
    8    -286.9243524959      1.07E-07
    9    -286.9243524962      5.99E-08
   10    -286.9243524967      3.15E-08
   11    -286.9243524967      1.57E-08
   12    -286.9243524967      3.80E-09 Convergence criterion met
 ---------------------------------------
 <S^2> = 0.7684
 SCF time:  CPU 28.77 s  wall 9.44 s
 SCF   energy in the final basis set = -286.92435250
 Total energy in the final basis set = -286.92435250
 
 --------------------------------------------------------------
 
                    Orbital Energies (a.u.)
 --------------------------------------------------------------
 
 Alpha MOs
 -- Occupied --
-14.322 -10.232 -10.232 -10.212 -10.211 -10.201 -10.200  -0.922
 -0.818  -0.784  -0.693  -0.667  -0.551  -0.537  -0.518  -0.449
 -0.439  -0.414  -0.394  -0.386  -0.349  -0.322  -0.299  -0.251
 -0.162
 -- Virtual --
 -0.072   0.077   0.097   0.101   0.117   0.142   0.181   0.184
  0.193   0.213   0.266   0.320   0.356   0.390   0.412   0.483
  0.496   0.521   0.547   0.576   0.584   0.587   0.591   0.610
  0.619   0.624   0.646   0.658   0.714   0.718   0.833   0.840
  0.847   0.854   0.868   0.872   0.885   0.922   0.965   0.975
  1.024   1.027   1.043   1.127   1.177   1.185   1.300   1.303
  1.326   1.401   1.429   1.480   1.482   1.546   1.574   1.586
  1.682   1.732   1.769   1.829   1.850   1.919   1.925   2.030
  2.046   2.048   2.100   2.141   2.142   2.191   2.247   2.391
  2.410   2.414   2.446   2.545   2.577   2.601   2.614   2.739
  2.749   2.808   3.052   3.249   3.250   4.018   4.046   4.102
  4.196   4.239   4.532   4.595
 
 Beta MOs
 -- Occupied --
-14.314 -10.234 -10.233 -10.210 -10.210 -10.196 -10.196  -0.911
 -0.809  -0.777  -0.681  -0.665  -0.546  -0.535  -0.514  -0.447
 -0.438  -0.411  -0.383  -0.373  -0.348  -0.295  -0.276  -0.241
 -- Virtual --
 -0.078  -0.070   0.078   0.118   0.124   0.125   0.142   0.182
  0.187   0.196   0.219   0.268   0.324   0.360   0.393   0.415
  0.486   0.504   0.525   0.551   0.587   0.588   0.592   0.596
  0.614   0.624   0.629   0.649   0.676   0.716   0.729   0.834
  0.843   0.846   0.869   0.875   0.880   0.887   0.925   0.967
  0.979   1.026   1.030   1.045   1.133   1.180   1.189   1.311
  1.315   1.333   1.411   1.429   1.489   1.492   1.560   1.582
  1.597   1.685   1.737   1.781   1.831   1.853   1.922   1.933
  2.036   2.058   2.061   2.110   2.141   2.147   2.203   2.259
  2.399   2.422   2.426   2.448   2.558   2.578   2.611   2.624
  2.743   2.761   2.810   3.054   3.252   3.254   4.030   4.053
  4.109   4.200   4.239   4.537   4.601
 --------------------------------------------------------------
 
          Ground-State Mulliken Net Atomic Charges

     Atom                 Charge (a.u.)    Spin (a.u.)
  --------------------------------------------------------
      1 C                     0.036231      -0.115089
      2 C                    -0.132051       0.351160
      3 C                    -0.110659       0.088441
      4 C                    -0.130807       0.342750
      5 C                     0.034752      -0.110080
      6 N                    -0.423331       0.386893
      7 H                     0.142567       0.003524
      8 H                     0.134300      -0.018527
      9 H                     0.141988      -0.006383
     10 H                     0.134390      -0.018138
     11 H                     0.142674       0.003276
     12 C                    -0.111970       0.099065
     13 H                     0.141916      -0.006892
  --------------------------------------------------------
  Sum of atomic charges =    -0.000000
  Sum of spin   charges =     1.000000

 -----------------------------------------------------------------
                    Cartesian Multipole Moments
 -----------------------------------------------------------------
    Charge (ESU x 10^10)
                 0.0000
    Dipole Moment (Debye)
         X      -1.0855      Y      -1.8639      Z       0.6173
       Tot       2.2435
    Quadrupole Moments (Debye-Ang)
        XX     -37.2950     XY      -3.5756     YY     -39.9499
        XZ      -1.8939     YZ       0.9728     ZZ     -42.7539
    Octopole Moments (Debye-Ang^2)
       XXX      -9.3448    XXY      -9.1155    XYY     -11.5912
       YYY     -26.2635    XXZ       2.3431    XYZ       2.5148
       YYZ       6.1832    XZZ      -3.4575    YZZ      -6.4686
       ZZZ       5.3476
    Hexadecapole Moments (Debye-Ang^3)
      XXXX    -339.1891   XXXY       0.7278   XXYY    -130.4131
      XYYY     -17.0922   YYYY    -396.7165   XXXZ      45.1596
      XXYZ       8.0257   XYYZ      21.2801   YYYZ      23.7525
      XXZZ     -74.5587   XYZZ       1.9674   YYZZ     -89.8219
      XZZZ      62.7543   YZZZ      19.4872   ZZZZ     -96.2945
 -----------------------------------------------------------------
 Calculating analytic gradient of the SCF energy
 Gradient of SCF Energy
            1           2           3           4           5           6
    1  -0.0000336  -0.0000165   0.0000167   0.0000346  -0.0001133   0.0001149
    2   0.0002310  -0.0001122   0.0000214   0.0000007   0.0000120  -0.0001343
    3   0.0000382   0.0000120   0.0000156   0.0000047  -0.0000519  -0.0000075
            7           8           9          10          11          12
    1   0.0000078  -0.0000034   0.0000043   0.0000016   0.0000079  -0.0000153
    2  -0.0000157   0.0000077  -0.0000060   0.0000113   0.0000071  -0.0000169
    3  -0.0000209  -0.0000122  -0.0000086   0.0000120   0.0000325   0.0000067
           13
    1  -0.0000057
    2  -0.0000061
    3  -0.0000205
 Max gradient component =       2.310E-04
 RMS gradient           =       5.586E-05
 Gradient time:  CPU 7.09 s  wall 1.87 s
 Geometry Optimization Parameters
   NAtoms,    NIC,     NZ,  NCons,   NDum,   NFix, NCnnct, MaxDiis
       13      82       0       0       0       0       0       0

 Cartesian Hessian Update
 Hessian Updated using BFGS Update


** GEOMETRY OPTIMIZATION IN DELOCALIZED INTERNAL COORDINATES **
   Searching for a Minimum

   Optimization Cycle:   2

                       Coordinates (Angstroms)
     ATOM                X               Y               Z
      1  C         1.5350837666    0.3453606518   -0.6178982683
      2  C         1.1737664592   -0.9593789333   -0.3360804907
      3  C        -0.0769351772   -1.4427068395    0.1898896818
      4  C        -1.3054679703    0.7330690516    0.4112849400
      5  C        -0.3748410444    1.6479235217   -0.0425780071
      6  N         0.8920125193    1.5302305521   -0.5074504573
      7  H         2.5464038247    0.4648867546   -1.0130775654
      8  H         1.9321410119   -1.7116003511   -0.5393123970
      9  H        -0.1456013314   -2.5189781604    0.3352420439
     10  H        -2.2593367894    1.1497660310    0.7259115992
     11  H        -0.7103779670    2.6872875489   -0.0313133891
     12  C        -1.1695801811   -0.6975572387    0.5193928207
     13  H        -2.0372671208   -1.2283025888    0.9059894893
   Point Group: c1    Number of degrees of freedom:    33


   Energy is   -286.924352497

 Hessian Updated using BFGS Update

 28 Hessian modes will be used to form the next step
  Hessian Eigenvalues:
     0.018470    0.018920    0.020885    0.021068    0.022111    0.022227
     0.023035    0.023869    0.024672    0.032059    0.149762    0.160254
     0.218351    0.220142    0.234075    0.345185    0.346419    0.349979
     0.350324    0.351179    0.351443    0.382472    0.390122    0.449653
     0.489436    0.504441    0.509619    0.559589

 Minimum Search - Taking Simple RFO Step
 Searching for Lamda that Minimizes Along All modes
 Value Taken    Lamda =   0.00000000
 Step Taken.  Stepsize is  0.002305

                             Maximum     Tolerance    Cnvgd?
         Gradient           0.000093      0.000600     YES
         Displacement       0.001374      0.002400     YES
         Energy change     -0.000001      0.000002     YES


                       Distance Matrix (Angstroms)
             C (  1)   C (  2)   C (  3)   C (  4)   C (  5)   N (  6)
   C (  2)  1.382865
   C (  3)  2.539353  1.440314
   C (  4)  3.046025  3.093467  2.508448
   C (  5)  2.382326  3.046696  3.113645  1.381672
   N (  6)  1.352648  2.511356  3.203670  2.511665  1.354576
   H (  7)  1.092347  2.090692  3.459473  4.115537  3.297744  2.031656
   H (  8)  2.096406  1.087323  2.154165  4.166792  4.105522  3.404754
   H (  9)  3.455085  2.150292  1.088211  3.453532  4.190271  4.264137
   H ( 10)  4.104939  4.166835  3.430905  1.087424  2.095247  3.405428
   H ( 11)  3.297090  4.115952  4.184141  2.090214  1.092241  2.033013
   C ( 12)  3.113891  2.508318  1.362972  1.441126  2.539429  3.204311
   H ( 13)  4.190506  3.453374  2.098016  2.151102  3.454869  4.264739
             H (  7)   H (  8)   H (  9)   H ( 10)   H ( 11)   C ( 12)
   H (  8)  2.310599
   H (  9)  4.238904  2.394518
   H ( 10)  5.156383  5.230363  4.252080
   H ( 11)  4.063195  5.156664  5.249623  2.310116
   C ( 12)  4.184290  3.430716  2.097622  2.154721  3.459959
   H ( 13)  5.249738  4.251903  2.360084  2.395194  4.239224  1.088131

 
 Final energy is   -286.924352496724     


 ******************************
 **  OPTIMIZATION CONVERGED  **
 ******************************

                       Coordinates (Angstroms)
     ATOM                X               Y               Z
      1  C         1.5350837666    0.3453606518   -0.6178982683
      2  C         1.1737664592   -0.9593789333   -0.3360804907
      3  C        -0.0769351772   -1.4427068395    0.1898896818
      4  C        -1.3054679703    0.7330690516    0.4112849400
      5  C        -0.3748410444    1.6479235217   -0.0425780071
      6  N         0.8920125193    1.5302305521   -0.5074504573
      7  H         2.5464038247    0.4648867546   -1.0130775654
      8  H         1.9321410119   -1.7116003511   -0.5393123970
      9  H        -0.1456013314   -2.5189781604    0.3352420439
     10  H        -2.2593367894    1.1497660310    0.7259115992
     11  H        -0.7103779670    2.6872875489   -0.0313133891
     12  C        -1.1695801811   -0.6975572387    0.5193928207
     13  H        -2.0372671208   -1.2283025888    0.9059894893

Z-matrix Print:
$molecule
0 2
N 
C  1 1.352648
H  2 1.092347 1 111.952781
C  1 1.354576 2 123.281942 3 179.986442 0
H  4 1.092241 1 111.933171 2 179.967348 0
C  4 1.381672 1 133.246226 2 0.034719 0
H  6 1.087424 4 115.603516 1 179.922697 0
C  2 1.382865 1 133.284177 3 -179.982255 0
H  8 1.087323 2 115.619912 1 179.943721 0
C  8 1.440314 2 128.164259 1 -0.011753 0
H  10 1.088211 8 115.814527 2 179.970958 0
C  10 1.362972 8 126.937973 2 -0.006187 0
H  12 1.088131 10 117.289328 8 179.996518 0
$end

 
 --------------------------------------------------------------
 
                    Orbital Energies (a.u.)
 --------------------------------------------------------------
 
 Alpha MOs
 -- Occupied --
-14.322 -10.232 -10.232 -10.212 -10.211 -10.201 -10.200  -0.922
 -0.818  -0.784  -0.693  -0.667  -0.551  -0.537  -0.518  -0.449
 -0.439  -0.414  -0.394  -0.386  -0.349  -0.322  -0.299  -0.251
 -0.162
 -- Virtual --
 -0.072   0.077   0.097   0.101   0.117   0.142   0.181   0.184
  0.193   0.213   0.266   0.320   0.356   0.390   0.412   0.483
  0.496   0.521   0.547   0.576   0.584   0.587   0.591   0.610
  0.619   0.624   0.646   0.658   0.714   0.718   0.833   0.840
  0.847   0.854   0.868   0.872   0.885   0.922   0.965   0.975
  1.024   1.027   1.043   1.127   1.177   1.185   1.300   1.303
  1.326   1.401   1.429   1.480   1.482   1.546   1.574   1.586
  1.682   1.732   1.769   1.829   1.850   1.919   1.925   2.030
  2.046   2.048   2.100   2.141   2.142   2.191   2.247   2.391
  2.410   2.414   2.446   2.545   2.577   2.601   2.614   2.739
  2.749   2.808   3.052   3.249   3.250   4.018   4.046   4.102
  4.196   4.239   4.532   4.595
 
 Beta MOs
 -- Occupied --
-14.314 -10.234 -10.233 -10.210 -10.210 -10.196 -10.196  -0.911
 -0.809  -0.777  -0.681  -0.665  -0.546  -0.535  -0.514  -0.447
 -0.438  -0.411  -0.383  -0.373  -0.348  -0.295  -0.276  -0.241
 -- Virtual --
 -0.078  -0.070   0.078   0.118   0.124   0.125   0.142   0.182
  0.187   0.196   0.219   0.268   0.324   0.360   0.393   0.415
  0.486   0.504   0.525   0.551   0.587   0.588   0.592   0.596
  0.614   0.624   0.629   0.649   0.676   0.716   0.729   0.834
  0.843   0.846   0.869   0.875   0.880   0.887   0.925   0.967
  0.979   1.026   1.030   1.045   1.133   1.180   1.189   1.311
  1.315   1.333   1.411   1.429   1.489   1.492   1.560   1.582
  1.597   1.685   1.737   1.781   1.831   1.853   1.922   1.933
  2.036   2.058   2.061   2.110   2.141   2.147   2.203   2.259
  2.399   2.422   2.426   2.448   2.558   2.578   2.611   2.624
  2.743   2.761   2.810   3.054   3.252   3.254   4.030   4.053
  4.109   4.200   4.239   4.537   4.601
 --------------------------------------------------------------
 
          Ground-State Mulliken Net Atomic Charges

     Atom                 Charge (a.u.)    Spin (a.u.)
  --------------------------------------------------------
      1 C                     0.036231      -0.115089
      2 C                    -0.132051       0.351160
      3 C                    -0.110659       0.088441
      4 C                    -0.130807       0.342750
      5 C                     0.034752      -0.110080
      6 N                    -0.423331       0.386893
      7 H                     0.142567       0.003524
      8 H                     0.134300      -0.018527
      9 H                     0.141988      -0.006383
     10 H                     0.134390      -0.018138
     11 H                     0.142674       0.003276
     12 C                    -0.111970       0.099065
     13 H                     0.141916      -0.006892
  --------------------------------------------------------
  Sum of atomic charges =    -0.000000
  Sum of spin   charges =     1.000000

 -----------------------------------------------------------------
                    Cartesian Multipole Moments
 -----------------------------------------------------------------
    Charge (ESU x 10^10)
                 0.0000
    Dipole Moment (Debye)
         X      -1.0855      Y      -1.8639      Z       0.6173
       Tot       2.2435
    Quadrupole Moments (Debye-Ang)
        XX     -37.2950     XY      -3.5756     YY     -39.9499
        XZ      -1.8939     YZ       0.9728     ZZ     -42.7539
    Octopole Moments (Debye-Ang^2)
       XXX      -9.3448    XXY      -9.1155    XYY     -11.5912
       YYY     -26.2635    XXZ       2.3431    XYZ       2.5148
       YYZ       6.1832    XZZ      -3.4575    YZZ      -6.4686
       ZZZ       5.3476
    Hexadecapole Moments (Debye-Ang^3)
      XXXX    -339.1891   XXXY       0.7278   XXYY    -130.4131
      XYYY     -17.0922   YYYY    -396.7165   XXXZ      45.1596
      XXYZ       8.0257   XYYZ      21.2801   YYYZ      23.7525
      XXZZ     -74.5587   XYZZ       1.9674   YYZZ     -89.8219
      XZZZ      62.7543   YZZZ      19.4872   ZZZZ     -96.2945
 -----------------------------------------------------------------
Archival summary:
1\1\c8-66\OPT\ProcedureUnspecified\6-31G*\166(2)\hpark21\ThuMar314:27:052022ThuMar314:27:052022\0\\#,OPT,ProcedureUnspecified,6-31G*,\\0,2\N\C,1,1.35265\H,2,1.09235,1,111.953\C,1,1.35458,2,123.282,3,179.986,0\H,4,1.09224,1,111.933,2,179.967,0\C,4,1.38167,1,133.246,2,0.0347193,0\H,6,1.08742,4,115.604,1,179.923,0\C,2,1.38287,1,133.284,3,-179.982,0\H,8,1.08732,2,115.62,1,179.944,0\C,8,1.44031,2,128.164,1,-0.0117535,0\H,10,1.08821,8,115.815,2,179.971,0\C,10,1.36297,8,126.938,2,-0.00618656,0\H,12,1.08813,10,117.289,8,179.997,0\\\@

 Total job time:  15.48s(wall), 50.36s(cpu) 
 Thu Mar  3 14:27:05 2022

        *************************************************************
        *                                                           *
        *  Thank you very much for using Q-Chem.  Have a nice day.  *
        *                                                           *
        *************************************************************


