13   
From optimize.out: Frame 1 / 2, Energy=    -286.9243518580
C        0.0363190000   -0.1153100000   -0.0000000000
C       -0.1321420000    0.3516710000   -0.0000000000
C       -0.1106190000    0.0880120000    0.0000000000
C       -0.1307090000    0.3423340000    0.0000000000
C        0.0346580000   -0.1098030000   -0.0000000000
N       -0.4232720000    0.3867770000   -0.0000000000
H        0.1425270000    0.0035330000   -0.0000000000
H        0.1342840000   -0.0185520000   -0.0000000000
H        0.1419780000   -0.0063630000    0.0000000000
H        0.1343720000   -0.0181200000    0.0000000000
H        0.1426530000    0.0032630000   -0.0000000000
C       -0.1119670000    0.0994690000    0.0000000000
H        0.1419170000   -0.0069100000    0.0000000000
