13   
Frame  71 IRC: Energy =  -286.8793650000 ; -1.8010 kcal/mol
C        1.5779469684    0.4187592301   -0.1637269914
C        0.8150283981   -0.8257173397    0.0989648667
C       -0.5607284438   -0.9747999929   -0.5291910636
C       -1.1156385907    0.3342952092    0.0132378223
C       -0.3603678040    1.5755786040   -0.2795527659
N        0.9707663675    1.5897774397   -0.3545177004
H        2.6647564820    0.3997771833   -0.1973506900
H        1.3917362961   -1.7400176595    0.2254794554
H       -1.0068983984   -1.7610263481   -1.1204013096
H       -2.1990878065    0.4174228136    0.0709183894
H       -0.8880146071    2.5101957788   -0.4561617909
C       -0.4691753240   -0.7121072545    0.9065177435
H       -0.8203235374   -1.2321376639    1.7857840344
