13   
Frame 118 IRC: Energy =  -286.7509003232 ; +70.0676 kcal/mol
C        1.7586962830    0.1245848535   -0.5129239105
C       -0.7170330843   -1.7673416386   -0.7884281540
C       -1.3380479511   -1.2246155184    0.2518547221
C       -1.2176795828    0.1283741198    0.7919235104
C       -0.3658656956    1.0986763871    0.3911426563
N        0.5341954163    0.9973424915   -0.6911639165
H        1.9955334523   -0.9228140475   -0.5669767957
H       -0.7553349461   -2.7217179804   -1.2981827401
H       -2.0636447873   -1.8609441089    0.7764109448
H       -1.9089929749    0.3822470876    1.5905757302
H       -0.4227819120    2.0856950885    0.8501801565
C        1.9595214288    1.3886705773   -0.4337777935
H        2.5414343537    2.2918426884   -0.3606344099
