13   
Frame 121 IRC: Energy =  -286.8952002735 ; -90.3681 kcal/mol
C        1.5566951844    0.2295030540   -0.8595926314
C        0.2200800137   -1.1162758618    0.7237054912
C       -1.0485258141   -1.0682352368    1.2511152320
C       -1.6967302477    0.0778924506    0.6933545607
C       -0.8013313182    0.6892429444   -0.1539085386
N        0.3746595445   -0.0402301527   -0.1379842001
H        2.3386394099   -0.5037196199   -0.6678929320
H        1.0304746364   -1.8130215077    0.8804631373
H       -1.4675523283   -1.7722942163    1.9561652617
H       -2.7051592550    0.4129497668    0.8926463800
H       -0.8954213889    1.5738004108   -0.7646344843
C        1.7786557373    1.2290523353   -1.6903474081
H        1.3155158260    2.1013356334   -2.1230898684
