
Running Job 1 of 1 optimize.in
qchem optimize.in_5457.0 ./optimize.d/ 1
/home/leeping/opt/qchem/5.0.2-openmp/exe/qcprog.exe_s optimize.in_5457.0 ./optimize.d/
Check license passed

                  Welcome to Q-Chem
     A Quantum Leap Into The Future Of Chemistry


 Q-Chem 5.0, Q-Chem, Inc., Pleasanton, CA (2017)

 Yihan Shao,  Zhengting Gan,  E. Epifanovsky,  A. T. B. Gilbert,  M. Wormit,  
 J. Kussmann,  A. W. Lange,  A. Behn,  Jia Deng,  Xintian Feng,  D. Ghosh,  
 M. Goldey,  P. R. Horn,  L. D. Jacobson,  I. Kaliman,  T. Kus,  A. Landau,  
 Jie Liu,  E. I. Proynov,  R. M. Richard,  R. P. Steele,  E. J. Sundstrom,  
 H. L. Woodcock III,  P. M. Zimmerman,  D. Zuev,  B. Albrecht,  E. Alguire,  
 S. A. Baeppler,  D. Barton,  Z. Benda,  Y. A. Bernard,  E. J. Berquist,  
 K. B. Bravaya,  H. Burton,  D. Casanova,  Chun-Min Chang,  Yunqing Chen,  
 A. Chien,  K. D. Closser,  M. P. Coons,  S. Dasgupta,  A. L. Dempwolff,  
 M. Diedenhofen,  Hainam Do,  R. G. Edgar,  Po-Tung Fang,  S. Fatehi,  
 Qingguo Feng,  J. Fosso-Tande,  Qinghui Ge,  A. Ghysels,  G. Gidofalvi,  
 J. Gomes,  J. Gonthier,  A. Gunina,  M. W. D. Hanson-Heine,  
 P. H. P. Harbach,  A. W. Hauser,  J. E. Herr,  E. G. Hohenstein,  
 Z. C. Holden,  Kerwin Hui,  T.-C. Jagau,  Hyunjun Ji,  B. Kaduk,  
 K. Khistyaev,  Jaehoon Kim,  P. Klunzinger,  K. Koh,  D. Kosenkov,  
 L. Koulias,  T. Kowalczyk,  C. M. Krauter,  A. Kunitsa,  Ka Un Lao,  
 A. Laurent,  K. V. Lawler,  Joonho Lee,  D. Lefrancois,  S. Lehtola,  
 D. S. Levine,  Yi-Pei Li,  You-Sheng Lin,  Fenglai Liu,  E. Livshits,  
 A. Luenser,  P. Manohar,  E. Mansoor,  S. F. Manzer,  Shan-Ping Mao,  
 Yuezhi Mao,  N. Mardirossian,  A. V. Marenich,  T. Markovich,  
 L. A. Martinez-Martinez,  S. A. Maurer,  N. J. Mayhall,  S. C. McKenzie,  
 J.-M. Mewes,  A. F. Morrison,  J. W. Mullinax,  K. Nanda,  
 T. S. Nguyen-Beck,  R. Olivares-Amaya,  J. A. Parkhill,  T. M. Perrine,  
 F. Plasser,  S. Prager,  A. Prociuk,  E. Ramos,  D. R. Rehn,  F. Rob,  
 M. Schneider,  N. Sergueev,  S. M. Sharada,  S. Sharma,  D. W. Small,  
 T. Stauch,  T. Stein,  Yu-Chuan Su,  A. J. W. Thom,  A. Tkatchenko,  
 T. Tsuchimochi,  L. Vogt,  O. Vydrov,  M. A. Watson,  J. Wenzel,  
 M. de Wergifosse,  T. A. Wesolowski,  A. White,  J. Witte,  A. Yamada,  
 Jun Yang,  K. Yao,  S. Yeganeh,  S. R. Yost,  Zhi-Qiang You,  A. Zech,  
 Igor Ying Zhang,  Xing Zhang,  Yan Zhao,  Ying Zhu,  B. R. Brooks,  
 G. K. L. Chan,  C. J. Cramer,  M. S. Gordon,  W. J. Hehre,  A. Klamt,  
 M. W. Schmidt,  C. D. Sherrill,  D. G. Truhlar,  A. Aspuru-Guzik,  R. Baer,  
 A. T. Bell,  N. A. Besley,  Jeng-Da Chai,  R. A. DiStasio Jr.,  A. Dreuw,  
 B. D. Dunietz,  T. R. Furlani,  Chao-Ping Hsu,  Yousung Jung,  Jing Kong,  
 D. S. Lambrecht,  WanZhen Liang,  C. Ochsenfeld,  V. A. Rassolov,  
 L. V. Slipchenko,  J. E. Subotnik,  T. Van Voorhis,  J. M. Herbert,  
 A. I. Krylov,  P. M. W. Gill,  M. Head-Gordon

 Contributors to earlier versions of Q-Chem not listed above: 
 R. D. Adamson,  B. Austin,  J. Baker,  G. J. O. Beran,  K. Brandhorst,  
 S. T. Brown,  E. F. C. Byrd,  A. K. Chakraborty,  C.-L. Cheng,  
 Siu Hung Chien,  D. M. Chipman,  D. L. Crittenden,  H. Dachsel,  
 R. J. Doerksen,  A. D. Dutoi,  L. Fusti-Molnar,  W. A. Goddard III,  
 A. Golubeva-Zadorozhnaya,  S. R. Gwaltney,  G. Hawkins,  A. Heyden,  
 S. Hirata,  G. Kedziora,  F. J. Keil,  C. Kelley,  Jihan Kim,  R. A. King,  
 R. Z. Khaliullin,  P. P. Korambath,  W. Kurlancheek,  A. M. Lee,  M. S. Lee,  
 S. V. Levchenko,  Ching Yeh Lin,  D. Liotard,  R. C. Lochan,  I. Lotan,  
 P. E. Maslen,  N. Nair,  D. P. O'Neill,  D. Neuhauser,  E. Neuscamman,  
 C. M. Oana,  R. Olson,  B. Peters,  R. Peverati,  P. A. Pieniazek,  
 Y. M. Rhee,  J. Ritchie,  M. A. Rohrdanz,  E. Rosta,  N. J. Russ,  
 H. F. Schaefer III,  N. E. Schultz,  N. Shenvi,  A. C. Simmonett,  A. Sodt,  
 D. Stuck,  K. S. Thanthiriwatte,  V. Vanovschi,  Tao Wang,  A. Warshel,  
 C. F. Williams,  Q. Wu,  X. Xu,  W. Zhang

 Please cite Q-Chem as follows:
 Y. Shao et al., Mol. Phys. 113, 184-215 (2015)
 DOI: 10.1080/00268976.2014.952696

 Q-Chem 5.0.2 for Intel X86 EM64T Linux

 Parts of Q-Chem use Armadillo 5.200.1 (Boston Tea Smuggler).
 http://arma.sourceforge.net/

 Q-Chem begins on Thu Mar  3 01:44:53 2022  

Host: 
0

     Scratch files written to ./optimize.d//
 Dec517 15110_ 26548  26544 5633   
Processing $rem in /home/leeping/opt/qchem/5.0.2-openmp/config/preferences.
 MEM_STATIC 2000
 MEM_TOTAL  8000
 SYMMETRY   OFF
 SYM_IGNORE TRUE 

Checking the input file for inconsistencies... 	...done.

--------------------------------------------------------------
User input:
--------------------------------------------------------------
$molecule
0 2
C        1.3031562781    0.3432829310    0.2338945426
C        0.6299583019   -0.9938895208   -0.1373072860
C       -0.6737183407   -0.5171585340   -0.8255888948
C       -1.0837471636    0.1860208637    0.4383464344
C       -0.5404090309    1.0162559415   -0.7392605231
N        0.7984021633    1.4201842618   -0.5307077841
H        2.3391274207    0.3669366015    0.5537548469
H        1.1692879607   -1.9223921198   -0.2874421475
H       -1.2690502896   -1.0351836176   -1.5690045676
H       -2.0629723815    0.3263237856    0.8822803564
H       -1.1998439385    1.6593269563   -1.3115748978
C        0.2206935727   -0.2902070629    1.1264326499
H        0.3691154475   -0.5595004861    2.1661772707
$end

$rem
method                b3lyp
basis                 6-31g(d)
unrestricted          true
symmetry              off
sym_ignore            true
incdft                false
incfock               0
scf_convergence       8
thresh                14
jobtype               opt
scf_guess             read
scf_algorithm         diis
max_scf_cycles        100
geom_opt_tol_gradient 600
geom_opt_tol_displacement 2400
geom_opt_tol_energy   200
geom_opt_max_cycles   100
$end

--------------------------------------------------------------
 ----------------------------------------------------------------
             Standard Nuclear Orientation (Angstroms)
    I     Atom           X                Y                Z
 ----------------------------------------------------------------
    1      C       1.3031562781     0.3432829310     0.2338945426
    2      C       0.6299583019    -0.9938895208    -0.1373072860
    3      C      -0.6737183407    -0.5171585340    -0.8255888948
    4      C      -1.0837471636     0.1860208637     0.4383464344
    5      C      -0.5404090309     1.0162559415    -0.7392605231
    6      N       0.7984021633     1.4201842618    -0.5307077841
    7      H       2.3391274207     0.3669366015     0.5537548469
    8      H       1.1692879607    -1.9223921198    -0.2874421475
    9      H      -1.2690502896    -1.0351836176    -1.5690045676
   10      H      -2.0629723815     0.3263237856     0.8822803564
   11      H      -1.1998439385     1.6593269563    -1.3115748978
   12      C       0.2206935727    -0.2902070629     1.1264326499
   13      H       0.3691154475    -0.5595004861     2.1661772707
 ----------------------------------------------------------------
 Nuclear Repulsion Energy =   288.0463640515 hartrees
 There are       25 alpha and       24 beta electrons
 Requested basis set is 6-31G(d)
 There are 40 shells and 117 basis functions

 Total QAlloc Memory Limit   8000 MB
 Mega-Array Size      1956 MB
 MEM_STATIC part      2000 MB
 A cutoff of  1.0D-14 yielded    812 shell pairs
 There are      7084 function pairs
 
 -------------------------------------------------------
 OpenMP Integral Computing Module                       
 Release: version 1.0, May 2013, Q-Chem Inc. Pittsburgh 
 -------------------------------------------------------
 Integral Job Info:
 Integral job number is                      11
 Integral operator is                         1
 short-range coefficients                     0
 long-range coefficients              100000000
 Omega coefficients                           0
 if combine SR and LR in K                    0
 Integral screening is                        0
 Integral computing path is                   2
 max size of driver memory is            800000
 size of driver memory is                593474
 size of scratch memory is              2361544
 max col of scratch BK array               1296
 max len of scratch array in speh3          155
 max len of scratch index in speh4           18
 max int batch size is                      520
 min int batch size is                       52
 fixed nKL is                                52
 max L of basis functions is                  2
 order of int derivative is                   0
 number of shells is                         40
 number of basis is                         117
 number of cartesian basis is               117
 number of contracted shell pairs           812
 number of primitive shell pairs           3655
 maxK2 (contraction) of shell pair           36
 max number of K2 of shell pair               1
 max number of CS2 of shell pair             84
 max number of PS2 of shell pair            402
 mem total for path MDJ                  535308
 -------------------------------------------------------
 Smallest overlap matrix eigenvalue = 1.00E-03

 Scale SEOQF with 1.000000e-01/1.000000e-01/1.000000e-01

 Standard Electronic Orientation quadrupole field applied
 Nucleus-field energy     =     0.0000000011 hartrees
 Guess MOs from SCF MO coefficient file
 Reading MOs from coefficient file
 Reading MOs from coefficient file
 An unrestricted hybrid HF-DFT SCF calculation will be
 performed using Pulay DIIS extrapolation
 Exchange:     0.2000 Hartree-Fock + 0.0800 Slater + 0.7200 B88
 Correlation:  0.1900 VWN1RPA + 0.8100 LYP
 Using SG-1 standard quadrature grid
 SCF converges when DIIS error is below 1.0E-08
Using Q-Chem read-in guess as SCF_GUESS READ specified.

 using 4 threads for integral computing
 -------------------------------------------------------
 OpenMP Integral computing Module                
 Release: version 1.0, May 2013, Q-Chem Inc. Pittsburgh 
 -------------------------------------------------------
 -------------------------------------------------------
 OpenMP BLAS3 based DFT computing Module                
 Release: version 1.0, May 2013, Q-Chem Inc. Pittsburgh 
 -------------------------------------------------------
 ---------------------------------------
  Cycle       Energy         DIIS Error
 ---------------------------------------
    1    -286.8249362743      3.99E-10
    2    -286.8249362743      4.42E-10 Convergence criterion met
 ---------------------------------------
 <S^2> = 0.7558
 SCF time:  CPU 5.00 s  wall 1.28 s
 SCF   energy in the final basis set = -286.82493627
 Total energy in the final basis set = -286.82493627
 
 --------------------------------------------------------------
 
                    Orbital Energies (a.u.)
 --------------------------------------------------------------
 
 Alpha MOs
 -- Occupied --
-14.335 -10.215 -10.215 -10.207 -10.207 -10.207 -10.206  -0.986
 -0.837  -0.793  -0.649  -0.588  -0.574  -0.542  -0.533  -0.455
 -0.427  -0.415  -0.395  -0.384  -0.337  -0.275  -0.274  -0.248
 -0.212
 -- Virtual --
  0.090   0.094   0.117   0.147   0.150   0.156   0.167   0.180
  0.184   0.197   0.217   0.251   0.255   0.302   0.364   0.378
  0.477   0.520   0.537   0.541   0.562   0.565   0.574   0.608
  0.621   0.630   0.676   0.728   0.729   0.742   0.743   0.781
  0.786   0.801   0.828   0.831   0.848   0.856   0.918   0.938
  0.983   1.005   1.137   1.162   1.195   1.235   1.399   1.455
  1.490   1.538   1.622   1.630   1.653   1.659   1.667   1.691
  1.754   1.824   1.854   1.942   1.967   1.974   1.978   1.984
  2.043   2.128   2.134   2.242   2.273   2.404   2.413   2.489
  2.516   2.522   2.536   2.560   2.570   2.639   2.710   2.719
  2.757   2.770   2.837   2.881   2.932   3.847   4.233   4.317
  4.370   4.460   4.639   4.673
 
 Beta MOs
 -- Occupied --
-14.319 -10.217 -10.216 -10.205 -10.205 -10.205 -10.205  -0.976
 -0.811  -0.789  -0.644  -0.585  -0.568  -0.537  -0.529  -0.453
 -0.423  -0.392  -0.389  -0.378  -0.322  -0.269  -0.257  -0.244
 -- Virtual --
 -0.078   0.091   0.101   0.120   0.147   0.152   0.157   0.176
  0.182   0.188   0.202   0.225   0.259   0.259   0.302   0.367
  0.384   0.479   0.522   0.540   0.542   0.568   0.568   0.576
  0.613   0.621   0.639   0.679   0.732   0.733   0.743   0.782
  0.787   0.794   0.801   0.830   0.839   0.849   0.857   0.919
  0.944   1.003   1.007   1.141   1.164   1.205   1.236   1.401
  1.474   1.507   1.541   1.626   1.634   1.658   1.661   1.690
  1.696   1.759   1.827   1.858   1.947   1.969   1.979   1.982
  1.987   2.058   2.130   2.156   2.247   2.282   2.404   2.431
  2.502   2.523   2.529   2.541   2.565   2.603   2.640   2.714
  2.721   2.761   2.772   2.839   2.887   2.938   3.873   4.239
  4.320   4.370   4.462   4.642   4.676
 --------------------------------------------------------------
 
          Ground-State Mulliken Net Atomic Charges

     Atom                 Charge (a.u.)    Spin (a.u.)
  --------------------------------------------------------
      1 C                    -0.044916      -0.080304
      2 C                    -0.124804       0.090330
      3 C                    -0.124785       0.089626
      4 C                    -0.124574       0.088569
      5 C                    -0.045042      -0.080243
      6 N                    -0.285784       0.811581
      7 H                     0.149306       0.001043
      8 H                     0.144011      -0.002574
      9 H                     0.144028      -0.002513
     10 H                     0.144002      -0.002442
     11 H                     0.149326       0.001045
     12 C                    -0.124652       0.088298
     13 H                     0.143884      -0.002415
  --------------------------------------------------------
  Sum of atomic charges =    -0.000000
  Sum of spin   charges =     1.000000

 -----------------------------------------------------------------
                    Cartesian Multipole Moments
 -----------------------------------------------------------------
    Charge (ESU x 10^10)
                -0.0000
    Dipole Moment (Debye)
         X      -1.0840      Y      -1.9247      Z       0.7224
       Tot       2.3241
    Quadrupole Moments (Debye-Ang)
        XX     -37.8133     XY      -3.6151     YY     -43.5264
        XZ       2.5569     YZ       1.0616     ZZ     -39.2769
    Octopole Moments (Debye-Ang^2)
       XXX      -9.2109    XXY      -6.9433    XYY      -7.4684
       YYY     -26.0664    XXZ       4.2958    XYZ       2.0330
       YYZ       1.5395    XZZ      -6.2117    YZZ      -7.7088
       ZZZ       9.3608
    Hexadecapole Moments (Debye-Ang^3)
      XXXX    -227.4185   XXXY      -6.3322   XXYY     -79.5601
      XYYY     -18.1717   YYYY    -230.9814   XXXZ     -10.7009
      XXYZ       9.1260   XYYZ       1.5651   YYYZ      24.7662
      XXZZ     -67.4298   XYZZ      -3.3360   YYZZ     -65.4884
      XZZZ     -10.5595   YZZZ      17.9719   ZZZZ    -168.6466
 -----------------------------------------------------------------
 Calculating analytic gradient of the SCF energy
 Gradient of SCF Energy
            1           2           3           4           5           6
    1  -0.0003799  -0.0002534  -0.0000017   0.0000330   0.0000979   0.0000194
    2   0.0000953  -0.0004895  -0.0000463   0.0001104   0.0000686   0.0000355
    3   0.0005941   0.0000386  -0.0002472  -0.0002636   0.0003766  -0.0001584
            7           8           9          10          11          12
    1   0.0000219   0.0001393  -0.0000880  -0.0000227   0.0000095   0.0005152
    2  -0.0000448   0.0000913   0.0000024  -0.0001073  -0.0000767   0.0003410
    3  -0.0000930  -0.0000059   0.0001207   0.0000033   0.0000110  -0.0003621
           13
    1  -0.0000905
    2   0.0000201
    3  -0.0000140
 Max gradient component =       5.941E-04
 RMS gradient           =       2.113E-04
 Gradient time:  CPU 7.82 s  wall 2.01 s
 Geometry Optimization Parameters
   NAtoms,    NIC,     NZ,  NCons,   NDum,   NFix, NCnnct, MaxDiis
       13     151       0       0       0       0       0       0


** GEOMETRY OPTIMIZATION IN DELOCALIZED INTERNAL COORDINATES **
   Searching for a Minimum

   Optimization Cycle:   1

                       Coordinates (Angstroms)
     ATOM                X               Y               Z
      1  C         1.3031562781    0.3432829310    0.2338945426
      2  C         0.6299583019   -0.9938895208   -0.1373072860
      3  C        -0.6737183407   -0.5171585340   -0.8255888948
      4  C        -1.0837471636    0.1860208637    0.4383464344
      5  C        -0.5404090309    1.0162559415   -0.7392605231
      6  N         0.7984021633    1.4201842618   -0.5307077841
      7  H         2.3391274207    0.3669366015    0.5537548469
      8  H         1.1692879607   -1.9223921198   -0.2874421475
      9  H        -1.2690502896   -1.0351836176   -1.5690045676
     10  H        -2.0629723815    0.3263237856    0.8822803564
     11  H        -1.1998439385    1.6593269563   -1.3115748978
     12  C         0.2206935727   -0.2902070629    1.1264326499
     13  H         0.3691154475   -0.5595004861    2.1661772707
   Point Group: c1    Number of degrees of freedom:    33


   Energy is   -286.824936274


 Attempting to Generate Delocalized Internal Coordinates

 33 Hessian modes will be used to form the next step
  Hessian Eigenvalues:
     0.011272    0.013574    0.015618    0.017255    0.018164    0.018964
     0.020319    0.021601    0.054967    0.056068    0.064563    0.066386
     0.076591    0.084940    0.086848    0.114538    0.138877    0.139521
     0.146076    0.169446    0.210209    0.215394    0.258140    0.261384
     0.298103    0.354579    0.354671    0.354831    0.354846    0.354892
     0.354945    0.378027    0.383913

 Minimum Search - Taking Simple RFO Step
 Searching for Lamda that Minimizes Along All modes
 Value Taken    Lamda =  -0.00000394
 Step Taken.  Stepsize is  0.011647

                             Maximum     Tolerance    Cnvgd?
         Gradient           0.000256      0.000600     YES
         Displacement       0.005337      0.002400      NO
         Energy change     *********      0.000002      NO


 New Cartesian Coordinates Obtained by Inverse Iteration

 Displacement from previous Coordinates is:  0.006032
 ----------------------------------------------------------------
             Standard Nuclear Orientation (Angstroms)
    I     Atom           X                Y                Z
 ----------------------------------------------------------------
    1      C       1.3034065191     0.3432266490     0.2333796494
    2      C       0.6302521016    -0.9935380774    -0.1376493613
    3      C      -0.6738938756    -0.5174035248    -0.8251088137
    4      C      -1.0838137079     0.1862010215     0.4387459801
    5      C      -0.5406302255     1.0158765660    -0.7397990135
    6      N       0.7979807497     1.4203063224    -0.5304566915
    7      H       2.3389648815     0.3678157591     0.5545368499
    8      H       1.1685558772    -1.9226898600    -0.2875333327
    9      H      -1.2681497763    -1.0353501011    -1.5695174228
   10      H      -2.0627326427     0.3279047397     0.8828810961
   11      H      -1.2000965275     1.6590415770    -1.3121352464
   12      C       0.2205650056    -0.2908476584     1.1265272157
   13      H       0.3695916208    -0.5605434128     2.1661290905
 ----------------------------------------------------------------
 Nuclear Repulsion Energy =   288.0350156771 hartrees
 There are       25 alpha and       24 beta electrons
 Applying Cartesian multipole field
    Component          Value
    ---------          -----
     (2,0,0)        1.00000E-11
     (0,2,0)        2.00000E-11
     (0,0,2)       -3.00000E-11
 Nucleus-field energy     =     0.0000000011 hartrees
 Requested basis set is 6-31G(d)
 There are 40 shells and 117 basis functions
 A cutoff of  1.0D-14 yielded    812 shell pairs
 There are      7084 function pairs
 Smallest overlap matrix eigenvalue = 1.00E-03
 Guess MOs from SCF MO coefficient file
 Reading MOs from coefficient file
 Reading MOs from coefficient file
 An unrestricted hybrid HF-DFT SCF calculation will be
 performed using Pulay DIIS extrapolation
 Exchange:     0.2000 Hartree-Fock + 0.0800 Slater + 0.7200 B88
 Correlation:  0.1900 VWN1RPA + 0.8100 LYP
 Using SG-1 standard quadrature grid
 SCF converges when DIIS error is below 1.0E-08
 Geometry optimization detected.  Setting ReadMinima to 0
 Setting SaveMinima to 0
Using Q-Chem read-in guess as SCF_GUESS READ specified.

 using 4 threads for integral computing
 -------------------------------------------------------
 OpenMP Integral computing Module                
 Release: version 1.0, May 2013, Q-Chem Inc. Pittsburgh 
 -------------------------------------------------------
 -------------------------------------------------------
 OpenMP BLAS3 based DFT computing Module                
 Release: version 1.0, May 2013, Q-Chem Inc. Pittsburgh 
 -------------------------------------------------------
 ---------------------------------------
  Cycle       Energy         DIIS Error
 ---------------------------------------
    1    -286.8246881329      4.28E-05
    2    -286.8249386883      1.07E-05
    3    -286.8249386189      1.36E-05
    4    -286.8249389362      1.43E-06
    5    -286.8249389429      5.32E-07
    6    -286.8249389449      3.15E-07
    7    -286.8249389460      1.32E-07
    8    -286.8249389463      9.70E-08
    9    -286.8249389463      2.51E-08
   10    -286.8249389463      5.23E-09 Convergence criterion met
 ---------------------------------------
 <S^2> = 0.7558
 SCF time:  CPU 24.85 s  wall 8.41 s
 SCF   energy in the final basis set = -286.82493895
 Total energy in the final basis set = -286.82493895
 
 --------------------------------------------------------------
 
                    Orbital Energies (a.u.)
 --------------------------------------------------------------
 
 Alpha MOs
 -- Occupied --
-14.335 -10.215 -10.215 -10.207 -10.207 -10.207 -10.206  -0.986
 -0.836  -0.793  -0.649  -0.588  -0.574  -0.542  -0.533  -0.455
 -0.427  -0.415  -0.395  -0.384  -0.337  -0.275  -0.274  -0.248
 -0.212
 -- Virtual --
  0.090   0.094   0.117   0.147   0.150   0.156   0.167   0.180
  0.184   0.197   0.217   0.251   0.255   0.302   0.364   0.378
  0.477   0.520   0.537   0.541   0.562   0.565   0.574   0.608
  0.621   0.630   0.676   0.728   0.729   0.742   0.743   0.781
  0.786   0.801   0.828   0.831   0.848   0.856   0.918   0.938
  0.983   1.005   1.137   1.161   1.195   1.235   1.399   1.455
  1.490   1.538   1.622   1.629   1.653   1.659   1.667   1.691
  1.754   1.824   1.854   1.942   1.967   1.974   1.978   1.984
  2.043   2.128   2.134   2.241   2.273   2.404   2.412   2.489
  2.516   2.522   2.536   2.560   2.570   2.638   2.710   2.719
  2.757   2.769   2.837   2.881   2.932   3.847   4.233   4.317
  4.370   4.460   4.639   4.673
 
 Beta MOs
 -- Occupied --
-14.319 -10.217 -10.216 -10.205 -10.205 -10.205 -10.205  -0.976
 -0.811  -0.789  -0.644  -0.585  -0.568  -0.537  -0.529  -0.453
 -0.423  -0.392  -0.389  -0.378  -0.322  -0.269  -0.257  -0.244
 -- Virtual --
 -0.078   0.091   0.101   0.120   0.147   0.152   0.157   0.176
  0.182   0.188   0.202   0.225   0.259   0.259   0.302   0.367
  0.384   0.479   0.522   0.540   0.542   0.568   0.568   0.576
  0.613   0.621   0.639   0.679   0.732   0.733   0.743   0.782
  0.787   0.794   0.801   0.830   0.839   0.849   0.857   0.919
  0.944   1.003   1.007   1.141   1.164   1.205   1.236   1.401
  1.474   1.507   1.541   1.626   1.634   1.658   1.661   1.691
  1.696   1.759   1.827   1.858   1.947   1.970   1.979   1.982
  1.987   2.058   2.130   2.156   2.247   2.282   2.403   2.431
  2.502   2.523   2.529   2.541   2.565   2.603   2.640   2.714
  2.721   2.760   2.772   2.839   2.887   2.937   3.873   4.239
  4.320   4.369   4.462   4.641   4.676
 --------------------------------------------------------------
 
          Ground-State Mulliken Net Atomic Charges

     Atom                 Charge (a.u.)    Spin (a.u.)
  --------------------------------------------------------
      1 C                    -0.044870      -0.080361
      2 C                    -0.124817       0.089860
      3 C                    -0.124664       0.089410
      4 C                    -0.124699       0.088830
      5 C                    -0.045062      -0.080240
      6 N                    -0.285793       0.811540
      7 H                     0.149317       0.001045
      8 H                     0.143993      -0.002534
      9 H                     0.143999      -0.002510
     10 H                     0.143988      -0.002453
     11 H                     0.149359       0.001044
     12 C                    -0.124686       0.088817
     13 H                     0.143934      -0.002449
  --------------------------------------------------------
  Sum of atomic charges =    -0.000000
  Sum of spin   charges =     1.000000

 -----------------------------------------------------------------
                    Cartesian Multipole Moments
 -----------------------------------------------------------------
    Charge (ESU x 10^10)
                -0.0000
    Dipole Moment (Debye)
         X      -1.0828      Y      -1.9250      Z       0.7208
       Tot       2.3233
    Quadrupole Moments (Debye-Ang)
        XX     -37.8176     XY      -3.6170     YY     -43.5280
        XZ       2.5580     YZ       1.0598     ZZ     -39.2705
    Octopole Moments (Debye-Ang^2)
       XXX      -9.1988    XXY      -6.9213    XYY      -7.4666
       YYY     -26.0710    XXZ       4.3023    XYZ       2.0297
       YYZ       1.5395    XZZ      -6.2068    YZZ      -7.7060
       ZZZ       9.3531
    Hexadecapole Moments (Debye-Ang^3)
      XXXX    -227.4627   XXXY      -6.3206   XXYY     -79.5599
      XYYY     -18.1631   YYYY    -230.9987   XXXZ     -10.6887
      XXYZ       9.1281   XYYZ       1.5666   YYYZ      24.7672
      XXZZ     -67.4257   XYZZ      -3.3358   YYZZ     -65.4817
      XZZZ     -10.5467   YZZZ      17.9687   ZZZZ    -168.6466
 -----------------------------------------------------------------
 Calculating analytic gradient of the SCF energy
 Gradient of SCF Energy
            1           2           3           4           5           6
    1  -0.0001869  -0.0001490   0.0000175   0.0000396  -0.0000254  -0.0000102
    2   0.0000856  -0.0002975  -0.0001238   0.0002139   0.0000306   0.0000192
    3   0.0003644  -0.0001117  -0.0000169  -0.0001394   0.0000995  -0.0000657
            7           8           9          10          11          12
    1   0.0000070   0.0000971  -0.0000390  -0.0000024  -0.0000117   0.0003348
    2  -0.0000094   0.0000644   0.0000106  -0.0000390  -0.0000220   0.0000759
    3  -0.0000075   0.0000109   0.0000435   0.0000158  -0.0000339  -0.0001843
           13
    1  -0.0000716
    2  -0.0000084
    3   0.0000252
 Max gradient component =       3.644E-04
 RMS gradient           =       1.215E-04
 Gradient time:  CPU 8.21 s  wall 3.04 s
 Geometry Optimization Parameters
   NAtoms,    NIC,     NZ,  NCons,   NDum,   NFix, NCnnct, MaxDiis
       13     151       0       0       0       0       0       0

 Cartesian Hessian Update
 Hessian Updated using BFGS Update


** GEOMETRY OPTIMIZATION IN DELOCALIZED INTERNAL COORDINATES **
   Searching for a Minimum

   Optimization Cycle:   2

                       Coordinates (Angstroms)
     ATOM                X               Y               Z
      1  C         1.3034065191    0.3432266490    0.2333796494
      2  C         0.6302521016   -0.9935380774   -0.1376493613
      3  C        -0.6738938756   -0.5174035248   -0.8251088137
      4  C        -1.0838137079    0.1862010215    0.4387459801
      5  C        -0.5406302255    1.0158765660   -0.7397990135
      6  N         0.7979807497    1.4203063224   -0.5304566915
      7  H         2.3389648815    0.3678157591    0.5545368499
      8  H         1.1685558772   -1.9226898600   -0.2875333327
      9  H        -1.2681497763   -1.0353501011   -1.5695174228
     10  H        -2.0627326427    0.3279047397    0.8828810961
     11  H        -1.2000965275    1.6590415770   -1.3121352464
     12  C         0.2205650056   -0.2908476584    1.1265272157
     13  H         0.3695916208   -0.5605434128    2.1661290905
   Point Group: c1    Number of degrees of freedom:    33


   Energy is   -286.824938946

 Hessian Updated using BFGS Update

 33 Hessian modes will be used to form the next step
  Hessian Eigenvalues:
     0.008512    0.013357    0.015588    0.017402    0.018356    0.019370
     0.021155    0.023449    0.047105    0.056126    0.064594    0.066361
     0.077940    0.084619    0.087618    0.114079    0.132173    0.140288
     0.142653    0.156358    0.204649    0.215131    0.258116    0.261418
     0.297748    0.354577    0.354724    0.354808    0.354847    0.354902
     0.356563    0.379072    0.383000

 Minimum Search - Taking Simple RFO Step
 Searching for Lamda that Minimizes Along All modes
 Value Taken    Lamda =  -0.00000306
 Step Taken.  Stepsize is  0.016107

                             Maximum     Tolerance    Cnvgd?
         Gradient           0.000150      0.000600     YES
         Displacement       0.007782      0.002400      NO
         Energy change     -0.000003      0.000002      NO


 New Cartesian Coordinates Obtained by Inverse Iteration

 Displacement from previous Coordinates is:  0.009206
 ----------------------------------------------------------------
             Standard Nuclear Orientation (Angstroms)
    I     Atom           X                Y                Z
 ----------------------------------------------------------------
    1      C       1.3039824007     0.3428203950     0.2319906084
    2      C       0.6301970215    -0.9932587948    -0.1373280868
    3      C      -0.6735929152    -0.5172381448    -0.8251794341
    4      C      -1.0842805750     0.1853400715     0.4390435946
    5      C      -0.5409541678     1.0157600491    -0.7395985934
    6      N       0.7976373362     1.4204560976    -0.5301822795
    7      H       2.3392794393     0.3681156423     0.5539142655
    8      H       1.1664542921    -1.9237854105    -0.2862010520
    9      H      -1.2659615212    -1.0348824459    -1.5713921616
   10      H      -2.0631810494     0.3277803634     0.8829458686
   11      H      -1.2005829441     1.6593946432    -1.3112645477
   12      C       0.2204020845    -0.2906556594     1.1268498163
   13      H       0.3706005984    -0.5598468066     2.1664020017
 ----------------------------------------------------------------
 Nuclear Repulsion Energy =   288.0280742618 hartrees
 There are       25 alpha and       24 beta electrons
 Applying Cartesian multipole field
    Component          Value
    ---------          -----
     (2,0,0)        1.00000E-11
     (0,2,0)        2.00000E-11
     (0,0,2)       -3.00000E-11
 Nucleus-field energy     =     0.0000000011 hartrees
 Requested basis set is 6-31G(d)
 There are 40 shells and 117 basis functions
 A cutoff of  1.0D-14 yielded    812 shell pairs
 There are      7084 function pairs
 Smallest overlap matrix eigenvalue = 1.00E-03
 Guess MOs from SCF MO coefficient file
 Reading MOs from coefficient file
 Reading MOs from coefficient file
 An unrestricted hybrid HF-DFT SCF calculation will be
 performed using Pulay DIIS extrapolation
 Exchange:     0.2000 Hartree-Fock + 0.0800 Slater + 0.7200 B88
 Correlation:  0.1900 VWN1RPA + 0.8100 LYP
 Using SG-1 standard quadrature grid
 SCF converges when DIIS error is below 1.0E-08
 Geometry optimization detected.  Setting ReadMinima to 0
 Setting SaveMinima to 0
Using Q-Chem read-in guess as SCF_GUESS READ specified.

 using 4 threads for integral computing
 -------------------------------------------------------
 OpenMP Integral computing Module                
 Release: version 1.0, May 2013, Q-Chem Inc. Pittsburgh 
 -------------------------------------------------------
 -------------------------------------------------------
 OpenMP BLAS3 based DFT computing Module                
 Release: version 1.0, May 2013, Q-Chem Inc. Pittsburgh 
 -------------------------------------------------------
 ---------------------------------------
  Cycle       Energy         DIIS Error
 ---------------------------------------
    1    -286.8248050292      6.42E-05
    2    -286.8249394617      1.51E-05
    3    -286.8249393827      1.83E-05
    4    -286.8249399472      2.28E-06
    5    -286.8249399605      7.18E-07
    6    -286.8249399634      4.00E-07
    7    -286.8249399649      1.47E-07
    8    -286.8249399653      1.23E-07
    9    -286.8249399654      3.75E-08
   10    -286.8249399654      7.87E-09 Convergence criterion met
 ---------------------------------------
 <S^2> = 0.7558
 SCF time:  CPU 25.69 s  wall 11.24 s
 SCF   energy in the final basis set = -286.82493997
 Total energy in the final basis set = -286.82493997
 
 --------------------------------------------------------------
 
                    Orbital Energies (a.u.)
 --------------------------------------------------------------
 
 Alpha MOs
 -- Occupied --
-14.335 -10.215 -10.215 -10.207 -10.207 -10.207 -10.206  -0.986
 -0.836  -0.793  -0.649  -0.588  -0.574  -0.542  -0.533  -0.455
 -0.427  -0.415  -0.395  -0.384  -0.337  -0.275  -0.274  -0.248
 -0.212
 -- Virtual --
  0.090   0.094   0.117   0.147   0.150   0.156   0.167   0.180
  0.184   0.197   0.217   0.251   0.255   0.302   0.364   0.378
  0.477   0.520   0.537   0.541   0.561   0.565   0.574   0.608
  0.621   0.630   0.676   0.728   0.729   0.742   0.743   0.781
  0.786   0.801   0.828   0.831   0.848   0.856   0.918   0.938
  0.983   1.005   1.137   1.161   1.195   1.235   1.400   1.455
  1.490   1.538   1.622   1.629   1.653   1.658   1.667   1.691
  1.754   1.824   1.854   1.942   1.968   1.974   1.978   1.984
  2.043   2.127   2.134   2.242   2.272   2.404   2.412   2.489
  2.516   2.522   2.536   2.560   2.570   2.638   2.710   2.719
  2.757   2.769   2.837   2.881   2.932   3.847   4.233   4.317
  4.370   4.460   4.639   4.673
 
 Beta MOs
 -- Occupied --
-14.319 -10.217 -10.216 -10.205 -10.205 -10.205 -10.205  -0.976
 -0.811  -0.789  -0.644  -0.585  -0.568  -0.537  -0.529  -0.453
 -0.423  -0.392  -0.389  -0.378  -0.322  -0.269  -0.257  -0.244
 -- Virtual --
 -0.078   0.091   0.101   0.120   0.147   0.152   0.157   0.176
  0.182   0.188   0.202   0.225   0.259   0.259   0.302   0.367
  0.384   0.479   0.522   0.540   0.542   0.568   0.568   0.576
  0.613   0.621   0.639   0.679   0.732   0.733   0.743   0.782
  0.787   0.794   0.801   0.830   0.839   0.849   0.857   0.919
  0.944   1.003   1.007   1.140   1.164   1.205   1.236   1.401
  1.474   1.507   1.541   1.626   1.634   1.658   1.660   1.691
  1.697   1.759   1.827   1.858   1.946   1.970   1.979   1.982
  1.987   2.058   2.130   2.156   2.247   2.282   2.403   2.431
  2.502   2.523   2.529   2.541   2.565   2.603   2.639   2.714
  2.720   2.760   2.772   2.839   2.887   2.937   3.873   4.239
  4.320   4.369   4.462   4.641   4.676
 --------------------------------------------------------------
 
          Ground-State Mulliken Net Atomic Charges

     Atom                 Charge (a.u.)    Spin (a.u.)
  --------------------------------------------------------
      1 C                    -0.044753      -0.080437
      2 C                    -0.124592       0.089203
      3 C                    -0.124743       0.089213
      4 C                    -0.124495       0.089102
      5 C                    -0.045155      -0.080248
      6 N                    -0.285791       0.811413
      7 H                     0.149320       0.001048
      8 H                     0.143968      -0.002482
      9 H                     0.143957      -0.002502
     10 H                     0.143986      -0.002481
     11 H                     0.149368       0.001045
     12 C                    -0.125060       0.089619
     13 H                     0.143989      -0.002494
  --------------------------------------------------------
  Sum of atomic charges =     0.000000
  Sum of spin   charges =     1.000000

 -----------------------------------------------------------------
                    Cartesian Multipole Moments
 -----------------------------------------------------------------
    Charge (ESU x 10^10)
                 0.0000
    Dipole Moment (Debye)
         X      -1.0815      Y      -1.9258      Z       0.7187
       Tot       2.3227
    Quadrupole Moments (Debye-Ang)
        XX     -37.8208     XY      -3.6184     YY     -43.5292
        XZ       2.5569     YZ       1.0584     ZZ     -39.2658
    Octopole Moments (Debye-Ang^2)
       XXX      -9.1869    XXY      -6.8971    XYY      -7.4655
       YYY     -26.0794    XXZ       4.3089    XYZ       2.0242
       YYZ       1.5393    XZZ      -6.2000    YZZ      -7.7056
       ZZZ       9.3424
    Hexadecapole Moments (Debye-Ang^3)
      XXXX    -227.5026   XXXY      -6.3124   XXYY     -79.5737
      XYYY     -18.1748   YYYY    -230.9636   XXXZ     -10.6784
      XXYZ       9.1147   XYYZ       1.5744   YYYZ      24.7629
      XXZZ     -67.4311   XYZZ      -3.3321   YYZZ     -65.4856
      XZZZ     -10.5122   YZZZ      17.9914   ZZZZ    -168.6161
 -----------------------------------------------------------------
 Calculating analytic gradient of the SCF energy
 Gradient of SCF Energy
            1           2           3           4           5           6
    1   0.0000729  -0.0001851   0.0001579  -0.0000769  -0.0001150   0.0000087
    2   0.0000079  -0.0001198   0.0000090  -0.0000811   0.0000060   0.0000070
    3  -0.0000756  -0.0000597   0.0000385   0.0000175  -0.0000603   0.0000388
            7           8           9          10          11          12
    1  -0.0000016   0.0000079   0.0000355   0.0000062  -0.0000123   0.0001407
    2   0.0000128   0.0000092   0.0000190  -0.0000049   0.0000344   0.0000888
    3   0.0000183   0.0000542  -0.0000660   0.0000052  -0.0000127   0.0000588
           13
    1  -0.0000391
    2   0.0000118
    3   0.0000431
 Max gradient component =       1.851E-04
 RMS gradient           =       6.542E-05
 Gradient time:  CPU 7.84 s  wall 2.03 s
 Geometry Optimization Parameters
   NAtoms,    NIC,     NZ,  NCons,   NDum,   NFix, NCnnct, MaxDiis
       13     151       0       0       0       0       0       0

 Cartesian Hessian Update
 Hessian Updated using BFGS Update


** GEOMETRY OPTIMIZATION IN DELOCALIZED INTERNAL COORDINATES **
   Searching for a Minimum

   Optimization Cycle:   3

                       Coordinates (Angstroms)
     ATOM                X               Y               Z
      1  C         1.3039824007    0.3428203950    0.2319906084
      2  C         0.6301970215   -0.9932587948   -0.1373280868
      3  C        -0.6735929152   -0.5172381448   -0.8251794341
      4  C        -1.0842805750    0.1853400715    0.4390435946
      5  C        -0.5409541678    1.0157600491   -0.7395985934
      6  N         0.7976373362    1.4204560976   -0.5301822795
      7  H         2.3392794393    0.3681156423    0.5539142655
      8  H         1.1664542921   -1.9237854105   -0.2862010520
      9  H        -1.2659615212   -1.0348824459   -1.5713921616
     10  H        -2.0631810494    0.3277803634    0.8829458686
     11  H        -1.2005829441    1.6593946432   -1.3112645477
     12  C         0.2204020845   -0.2906556594    1.1268498163
     13  H         0.3706005984   -0.5598468066    2.1664020017
   Point Group: c1    Number of degrees of freedom:    33


   Energy is   -286.824939965

 Hessian Updated using BFGS Update

 33 Hessian modes will be used to form the next step
  Hessian Eigenvalues:
     0.010101    0.013500    0.015560    0.017485    0.018296    0.019276
     0.021936    0.027583    0.043305    0.056132    0.064581    0.066395
     0.077833    0.084894    0.087869    0.113595    0.130058    0.140100
     0.142170    0.159814    0.201883    0.215047    0.258209    0.261508
     0.299776    0.354579    0.354709    0.354822    0.354844    0.354961
     0.356789    0.378714    0.383460

 Minimum Search - Taking Simple RFO Step
 Searching for Lamda that Minimizes Along All modes
 Value Taken    Lamda =   0.00000000
 Step Taken.  Stepsize is  0.005032

                             Maximum     Tolerance    Cnvgd?
         Gradient           0.000099      0.000600     YES
         Displacement       0.004178      0.002400      NO
         Energy change     -0.000001      0.000002     YES


                       Distance Matrix (Angstroms)
             C (  1)   C (  2)   C (  3)   C (  4)   C (  5)   N (  6)
   C (  2)  1.541263
   C (  3)  2.401690  1.549065
   C (  4)  2.402389  2.158873  1.503509
   C (  5)  2.191033  2.402183  1.541104  1.540778
   N (  6)  1.413716  2.451202  2.450755  2.450821  1.414023
   H (  7)  1.084488  2.291750  3.429745  3.430359  3.223099  2.158552
   H (  8)  2.329150  1.084258  2.377950  3.168627  3.429539  3.373352
   H (  9)  3.428537  2.377749  1.084292  2.358771  2.328659  3.372128
   H ( 10)  3.429542  3.168657  2.358538  1.084244  2.328764  3.372707
   H ( 11)  3.223019  3.430226  2.291665  2.291275  1.084517  2.158718
   C ( 12)  1.541496  1.503239  2.158931  1.549789  2.402086  2.450890
   H ( 13)  2.329798  2.358476  3.168867  2.378182  3.429039  3.372762
             H (  7)   H (  8)   H (  9)   H ( 10)   H ( 11)   C ( 12)
   H (  8)  2.708159
   H (  9)  4.413966  2.891109
   H ( 10)  4.414923  4.106945  2.918250
   H ( 11)  4.204393  4.415065  2.707595  2.707735
   C ( 12)  2.291697  2.357719  3.169173  2.378383  3.430204
   H ( 13)  2.708676  2.917014  4.107931  2.891096  4.414501  1.084293

 
 Final energy is   -286.824939965380     


 ******************************
 **  OPTIMIZATION CONVERGED  **
 ******************************

                       Coordinates (Angstroms)
     ATOM                X               Y               Z
      1  C         1.3039824007    0.3428203950    0.2319906084
      2  C         0.6301970215   -0.9932587948   -0.1373280868
      3  C        -0.6735929152   -0.5172381448   -0.8251794341
      4  C        -1.0842805750    0.1853400715    0.4390435946
      5  C        -0.5409541678    1.0157600491   -0.7395985934
      6  N         0.7976373362    1.4204560976   -0.5301822795
      7  H         2.3392794393    0.3681156423    0.5539142655
      8  H         1.1664542921   -1.9237854105   -0.2862010520
      9  H        -1.2659615212   -1.0348824459   -1.5713921616
     10  H        -2.0631810494    0.3277803634    0.8829458686
     11  H        -1.2005829441    1.6593946432   -1.3112645477
     12  C         0.2204020845   -0.2906556594    1.1268498163
     13  H         0.3706005984   -0.5598468066    2.1664020017

Z-matrix Print:
$molecule
0 2
N 
C  1 1.413716
H  2 1.084488 1 118.958576
C  1 1.414023 2 101.580270 3 -179.984714 0
H  4 1.084517 1 118.946276 2 -179.967778 0
C  4 1.540778 1 112.010747 2 31.767167 0
H  6 1.084244 4 124.107752 1 135.369308 0
C  6 1.503509 4 60.811173 1 -103.028493 0
H  8 1.084292 6 130.732795 4 -111.432789 0
C  2 1.541263 1 112.026126 3 -148.322215 0
H  10 1.084258 2 124.100751 1 135.452114 0
C  10 1.503239 2 60.822987 1 -103.016503 0
H  12 1.084293 10 130.728023 2 -111.547296 0
$end

 
 --------------------------------------------------------------
 
                    Orbital Energies (a.u.)
 --------------------------------------------------------------
 
 Alpha MOs
 -- Occupied --
-14.335 -10.215 -10.215 -10.207 -10.207 -10.207 -10.206  -0.986
 -0.836  -0.793  -0.649  -0.588  -0.574  -0.542  -0.533  -0.455
 -0.427  -0.415  -0.395  -0.384  -0.337  -0.275  -0.274  -0.248
 -0.212
 -- Virtual --
  0.090   0.094   0.117   0.147   0.150   0.156   0.167   0.180
  0.184   0.197   0.217   0.251   0.255   0.302   0.364   0.378
  0.477   0.520   0.537   0.541   0.561   0.565   0.574   0.608
  0.621   0.630   0.676   0.728   0.729   0.742   0.743   0.781
  0.786   0.801   0.828   0.831   0.848   0.856   0.918   0.938
  0.983   1.005   1.137   1.161   1.195   1.235   1.400   1.455
  1.490   1.538   1.622   1.629   1.653   1.658   1.667   1.691
  1.754   1.824   1.854   1.942   1.968   1.974   1.978   1.984
  2.043   2.127   2.134   2.242   2.272   2.404   2.412   2.489
  2.516   2.522   2.536   2.560   2.570   2.638   2.710   2.719
  2.757   2.769   2.837   2.881   2.932   3.847   4.233   4.317
  4.370   4.460   4.639   4.673
 
 Beta MOs
 -- Occupied --
-14.319 -10.217 -10.216 -10.205 -10.205 -10.205 -10.205  -0.976
 -0.811  -0.789  -0.644  -0.585  -0.568  -0.537  -0.529  -0.453
 -0.423  -0.392  -0.389  -0.378  -0.322  -0.269  -0.257  -0.244
 -- Virtual --
 -0.078   0.091   0.101   0.120   0.147   0.152   0.157   0.176
  0.182   0.188   0.202   0.225   0.259   0.259   0.302   0.367
  0.384   0.479   0.522   0.540   0.542   0.568   0.568   0.576
  0.613   0.621   0.639   0.679   0.732   0.733   0.743   0.782
  0.787   0.794   0.801   0.830   0.839   0.849   0.857   0.919
  0.944   1.003   1.007   1.140   1.164   1.205   1.236   1.401
  1.474   1.507   1.541   1.626   1.634   1.658   1.660   1.691
  1.697   1.759   1.827   1.858   1.946   1.970   1.979   1.982
  1.987   2.058   2.130   2.156   2.247   2.282   2.403   2.431
  2.502   2.523   2.529   2.541   2.565   2.603   2.639   2.714
  2.720   2.760   2.772   2.839   2.887   2.937   3.873   4.239
  4.320   4.369   4.462   4.641   4.676
 --------------------------------------------------------------
 
          Ground-State Mulliken Net Atomic Charges

     Atom                 Charge (a.u.)    Spin (a.u.)
  --------------------------------------------------------
      1 C                    -0.044753      -0.080437
      2 C                    -0.124592       0.089203
      3 C                    -0.124743       0.089213
      4 C                    -0.124495       0.089102
      5 C                    -0.045155      -0.080248
      6 N                    -0.285791       0.811413
      7 H                     0.149320       0.001048
      8 H                     0.143968      -0.002482
      9 H                     0.143957      -0.002502
     10 H                     0.143986      -0.002481
     11 H                     0.149368       0.001045
     12 C                    -0.125060       0.089619
     13 H                     0.143989      -0.002494
  --------------------------------------------------------
  Sum of atomic charges =     0.000000
  Sum of spin   charges =     1.000000

 -----------------------------------------------------------------
                    Cartesian Multipole Moments
 -----------------------------------------------------------------
    Charge (ESU x 10^10)
                 0.0000
    Dipole Moment (Debye)
         X      -1.0815      Y      -1.9258      Z       0.7187
       Tot       2.3227
    Quadrupole Moments (Debye-Ang)
        XX     -37.8208     XY      -3.6184     YY     -43.5292
        XZ       2.5569     YZ       1.0584     ZZ     -39.2658
    Octopole Moments (Debye-Ang^2)
       XXX      -9.1869    XXY      -6.8971    XYY      -7.4655
       YYY     -26.0794    XXZ       4.3089    XYZ       2.0242
       YYZ       1.5393    XZZ      -6.2000    YZZ      -7.7056
       ZZZ       9.3424
    Hexadecapole Moments (Debye-Ang^3)
      XXXX    -227.5026   XXXY      -6.3124   XXYY     -79.5737
      XYYY     -18.1748   YYYY    -230.9636   XXXZ     -10.6784
      XXYZ       9.1147   XYYZ       1.5744   YYYZ      24.7629
      XXZZ     -67.4311   XYZZ      -3.3321   YYZZ     -65.4856
      XZZZ     -10.5122   YZZZ      17.9914   ZZZZ    -168.6161
 -----------------------------------------------------------------
Archival summary:
1\1\c8-90\OPT\ProcedureUnspecified\6-31G*\166(2)\hpark21\ThuMar301:45:232022ThuMar301:45:232022\0\\#,OPT,ProcedureUnspecified,6-31G*,\\0,2\N\C,1,1.41372\H,2,1.08449,1,118.959\C,1,1.41402,2,101.58,3,-179.985,0\H,4,1.08452,1,118.946,2,-179.968,0\C,4,1.54078,1,112.011,2,31.7672,0\H,6,1.08424,4,124.108,1,135.369,0\C,6,1.50351,4,60.8112,1,-103.028,0\H,8,1.08429,6,130.733,4,-111.433,0\C,2,1.54126,1,112.026,3,-148.322,0\H,10,1.08426,2,124.101,1,135.452,0\C,10,1.50324,2,60.823,1,-103.017,0\H,12,1.08429,10,130.728,2,-111.547,0\\\@

 Total job time:  30.04s(wall), 83.72s(cpu) 
 Thu Mar  3 01:45:23 2022

        *************************************************************
        *                                                           *
        *  Thank you very much for using Q-Chem.  Have a nice day.  *
        *                                                           *
        *************************************************************


