13   
From optimize.out: Frame 1 / 3, Energy=    -286.8249362743
C       -0.0449160000   -0.0803040000    0.0000000000
C       -0.1248040000    0.0903300000   -0.0000000000
C       -0.1247850000    0.0896260000   -0.0000000000
C       -0.1245740000    0.0885690000    0.0000000000
C       -0.0450420000   -0.0802430000   -0.0000000000
N       -0.2857840000    0.8115810000   -0.0000000000
H        0.1493060000    0.0010430000    0.0000000000
H        0.1440110000   -0.0025740000   -0.0000000000
H        0.1440280000   -0.0025130000   -0.0000000000
H        0.1440020000   -0.0024420000    0.0000000000
H        0.1493260000    0.0010450000   -0.0000000000
C       -0.1246520000    0.0882980000    0.0000000000
H        0.1438840000   -0.0024150000    0.0000000000
13   
From optimize.out: Frame 2 / 3, Energy=    -286.8249389463
C       -0.0448700000   -0.0803610000    0.0000000000
C       -0.1248170000    0.0898600000   -0.0000000000
C       -0.1246640000    0.0894100000   -0.0000000000
C       -0.1246990000    0.0888300000    0.0000000000
C       -0.0450620000   -0.0802400000   -0.0000000000
N       -0.2857930000    0.8115400000   -0.0000000000
H        0.1493170000    0.0010450000    0.0000000000
H        0.1439930000   -0.0025340000   -0.0000000000
H        0.1439990000   -0.0025100000   -0.0000000000
H        0.1439880000   -0.0024530000    0.0000000000
H        0.1493590000    0.0010440000   -0.0000000000
C       -0.1246860000    0.0888170000    0.0000000000
H        0.1439340000   -0.0024490000    0.0000000000
