13   
From optimize.out: Frame 1 / 3, Energy=    -286.8249362743
C        1.3031562781    0.3432829310    0.2338945426
C        0.6299583019   -0.9938895208   -0.1373072860
C       -0.6737183407   -0.5171585340   -0.8255888948
C       -1.0837471636    0.1860208637    0.4383464344
C       -0.5404090309    1.0162559415   -0.7392605231
N        0.7984021633    1.4201842618   -0.5307077841
H        2.3391274207    0.3669366015    0.5537548469
H        1.1692879607   -1.9223921198   -0.2874421475
H       -1.2690502896   -1.0351836176   -1.5690045676
H       -2.0629723815    0.3263237856    0.8822803564
H       -1.1998439385    1.6593269563   -1.3115748978
C        0.2206935727   -0.2902070629    1.1264326499
H        0.3691154475   -0.5595004861    2.1661772707
13   
From optimize.out: Frame 2 / 3, Energy=    -286.8249389463
C        1.3034065191    0.3432266490    0.2333796494
C        0.6302521016   -0.9935380774   -0.1376493613
C       -0.6738938756   -0.5174035248   -0.8251088137
C       -1.0838137079    0.1862010215    0.4387459801
C       -0.5406302255    1.0158765660   -0.7397990135
N        0.7979807497    1.4203063224   -0.5304566915
H        2.3389648815    0.3678157591    0.5545368499
H        1.1685558772   -1.9226898600   -0.2875333327
H       -1.2681497763   -1.0353501011   -1.5695174228
H       -2.0627326427    0.3279047397    0.8828810961
H       -1.2000965275    1.6590415770   -1.3121352464
C        0.2205650056   -0.2908476584    1.1265272157
H        0.3695916208   -0.5605434128    2.1661290905
