13   
From optimize.out: Frame 1 / 1, Energy=    -286.9243507379
C        0.0356600000   -0.1127340000   -0.0000000000
C       -0.1314940000    0.3471900000   -0.0000000000
C       -0.1113560000    0.0935170000    0.0000000000
C       -0.1313860000    0.3467150000    0.0000000000
C        0.0354460000   -0.1124660000   -0.0000000000
N       -0.4234270000    0.3869480000   -0.0000000000
H        0.1425870000    0.0034080000   -0.0000000000
H        0.1343850000   -0.0183430000   -0.0000000000
H        0.1419540000   -0.0066260000    0.0000000000
H        0.1343530000   -0.0183200000    0.0000000000
H        0.1426470000    0.0033940000   -0.0000000000
C       -0.1113130000    0.0939640000    0.0000000000
H        0.1419430000   -0.0066470000    0.0000000000
