13   
Frame   0 IRC: Energy =  -286.8764961209 ; +0.0000 kcal/mol
C       -0.2524810000   -0.0354870000   -0.0000000000
C        0.0861170000    0.0464370000   -0.0000000000
C       -0.1500860000   -0.0264370000   -0.0000000000
C       -0.0161200000    0.0287330000    0.0000000000
C       -0.0548040000   -0.0479160000   -0.0000000000
N       -0.1820120000    0.0163130000   -0.0000000000
H        0.1249510000    0.0008450000   -0.0000000000
H        0.1327050000    0.0030900000   -0.0000000000
H        0.1442870000    0.0171310000   -0.0000000000
H        0.1442330000    0.0226640000   -0.0000000000
H        0.1284480000    0.0050410000   -0.0000000000
C       -0.2539280000    0.9914570000    0.0000000000
H        0.1486910000   -0.0218710000    0.0000000000
13   
Frame   1 IRC: Energy =  -286.8764958771 ; +0.0002 kcal/mol
C       -0.2524230000   -0.0355120000   -0.0000000000
C        0.0859540000    0.0464990000   -0.0000000000
C       -0.1499050000   -0.0265020000   -0.0000000000
C       -0.0163440000    0.0287570000    0.0000000000
C       -0.0547060000   -0.0479200000   -0.0000000000
N       -0.1820250000    0.0163350000   -0.0000000000
H        0.1249400000    0.0008460000   -0.0000000000
H        0.1326960000    0.0030940000   -0.0000000000
H        0.1442880000    0.0171660000   -0.0000000000
H        0.1442530000    0.0226880000   -0.0000000000
H        0.1284590000    0.0050400000   -0.0000000000
C       -0.2538730000    0.9914320000    0.0000000000
H        0.1486850000   -0.0219230000    0.0000000000
13   
Frame   2 IRC: Energy =  -286.8764938299 ; +0.0014 kcal/mol
C       -0.2520320000   -0.0358800000   -0.0000000000
C        0.0844260000    0.0474940000   -0.0000000000
C       -0.1489570000   -0.0273830000   -0.0000000000
C       -0.0169700000    0.0285580000    0.0000000000
C       -0.0541070000   -0.0482370000   -0.0000000000
N       -0.1821870000    0.0165740000   -0.0000000000
H        0.1249050000    0.0008530000   -0.0000000000
H        0.1326990000    0.0030830000   -0.0000000000
H        0.1442990000    0.0171480000   -0.0000000000
H        0.1442730000    0.0229800000   -0.0000000000
H        0.1284680000    0.0050540000   -0.0000000000
C       -0.2534680000    0.9918800000    0.0000000000
H        0.1486520000   -0.0221250000    0.0000000000
13   
Frame   3 IRC: Energy =  -286.8764894543 ; +0.0042 kcal/mol
C       -0.2520160000   -0.0363540000   -0.0000000000
C        0.0824660000    0.0487410000   -0.0000000000
C       -0.1476150000   -0.0283890000   -0.0000000000
C       -0.0180000000    0.0285540000    0.0000000000
C       -0.0533480000   -0.0487920000   -0.0000000000
N       -0.1822440000    0.0169020000   -0.0000000000
H        0.1248820000    0.0008640000   -0.0000000000
H        0.1327260000    0.0030640000   -0.0000000000
H        0.1443050000    0.0170470000   -0.0000000000
H        0.1442650000    0.0233250000   -0.0000000000
H        0.1284760000    0.0050410000   -0.0000000000
C       -0.2525370000    0.9923050000    0.0000000000
H        0.1486400000   -0.0223060000    0.0000000000
13   
Frame   4 IRC: Energy =  -286.8764604130 ; +0.0224 kcal/mol
C       -0.2520750000   -0.0372180000   -0.0000000000
C        0.0774160000    0.0519430000   -0.0000000000
C       -0.1451740000   -0.0312490000   -0.0000000000
C       -0.0184830000    0.0275680000    0.0000000000
C       -0.0530740000   -0.0501710000   -0.0000000000
N       -0.1820340000    0.0175310000   -0.0000000000
H        0.1248900000    0.0008850000   -0.0000000000
H        0.1330090000    0.0029600000   -0.0000000000
H        0.1443260000    0.0168160000   -0.0000000000
H        0.1442230000    0.0241510000   -0.0000000000
H        0.1283080000    0.0050610000   -0.0000000000
C       -0.2498940000    0.9941780000    0.0000000000
H        0.1485620000   -0.0224550000    0.0000000000
13   
Frame   5 IRC: Energy =  -286.8764090000 ; +0.0547 kcal/mol
C       -0.2524390000   -0.0375950000   -0.0000000000
C        0.0745350000    0.0537320000   -0.0000000000
C       -0.1442520000   -0.0328940000   -0.0000000000
C       -0.0189540000    0.0270030000    0.0000000000
C       -0.0532280000   -0.0510870000   -0.0000000000
N       -0.1817300000    0.0178630000   -0.0000000000
H        0.1248400000    0.0008940000   -0.0000000000
H        0.1332560000    0.0028610000   -0.0000000000
H        0.1442220000    0.0167050000   -0.0000000000
H        0.1441740000    0.0246410000   -0.0000000000
H        0.1282330000    0.0050250000   -0.0000000000
C       -0.2472010000    0.9952940000    0.0000000000
H        0.1485440000   -0.0224420000    0.0000000000
13   
Frame   6 IRC: Energy =  -286.8763980000 ; +0.0616 kcal/mol
C       -0.2520300000   -0.0376480000   -0.0000000000
C        0.0736990000    0.0541850000   -0.0000000000
C       -0.1434090000   -0.0334550000   -0.0000000000
C       -0.0195440000    0.0268190000    0.0000000000
C       -0.0531120000   -0.0511400000   -0.0000000000
N       -0.1818270000    0.0179270000   -0.0000000000
H        0.1248030000    0.0008950000   -0.0000000000
H        0.1332820000    0.0028520000   -0.0000000000
H        0.1441810000    0.0167740000   -0.0000000000
H        0.1441600000    0.0247230000   -0.0000000000
H        0.1282360000    0.0050310000   -0.0000000000
C       -0.2469510000    0.9955660000    0.0000000000
H        0.1485120000   -0.0225290000    0.0000000000
13   
Frame   7 IRC: Energy =  -286.8763900000 ; +0.0666 kcal/mol
C       -0.2523040000   -0.0377190000   -0.0000000000
C        0.0734650000    0.0543810000   -0.0000000000
C       -0.1437310000   -0.0336590000   -0.0000000000
C       -0.0192420000    0.0265710000    0.0000000000
C       -0.0532060000   -0.0511450000   -0.0000000000
N       -0.1817340000    0.0179230000   -0.0000000000
H        0.1248310000    0.0008950000   -0.0000000000
H        0.1333030000    0.0028440000   -0.0000000000
H        0.1442040000    0.0167150000   -0.0000000000
H        0.1441660000    0.0248460000   -0.0000000000
H        0.1282350000    0.0050240000   -0.0000000000
C       -0.2465140000    0.9958700000    0.0000000000
H        0.1485260000   -0.0225450000    0.0000000000
13   
Frame   8 IRC: Energy =  -286.8763850000 ; +0.0697 kcal/mol
C       -0.2525690000   -0.0377400000   -0.0000000000
C        0.0733680000    0.0543230000   -0.0000000000
C       -0.1443210000   -0.0335360000   -0.0000000000
C       -0.0188780000    0.0263490000    0.0000000000
C       -0.0531040000   -0.0510970000   -0.0000000000
N       -0.1815560000    0.0179060000   -0.0000000000
H        0.1248970000    0.0008940000   -0.0000000000
H        0.1333000000    0.0028430000   -0.0000000000
H        0.1442370000    0.0166180000   -0.0000000000
H        0.1441670000    0.0248970000   -0.0000000000
H        0.1281480000    0.0050280000   -0.0000000000
C       -0.2462250000    0.9960360000    0.0000000000
H        0.1485350000   -0.0225210000    0.0000000000
13   
Frame   9 IRC: Energy =  -286.8762000000 ; +0.1858 kcal/mol
C       -0.2519490000   -0.0382670000   -0.0000000000
C        0.0675170000    0.0583420000   -0.0000000000
C       -0.1418190000   -0.0398140000   -0.0000000000
C       -0.0200280000    0.0211920000    0.0000000000
C       -0.0546040000   -0.0497940000   -0.0000000000
N       -0.1814000000    0.0177430000   -0.0000000000
H        0.1247240000    0.0008700000   -0.0000000000
H        0.1335390000    0.0027940000   -0.0000000000
H        0.1440790000    0.0171480000   -0.0000000000
H        0.1441410000    0.0265720000   -0.0000000000
H        0.1281600000    0.0050500000   -0.0000000000
C       -0.2407070000    1.0017720000    0.0000000000
H        0.1483480000   -0.0236100000    0.0000000000
13   
Frame  10 IRC: Energy =  -286.8761880000 ; +0.1933 kcal/mol
C       -0.2525500000   -0.0382830000   -0.0000000000
C        0.0675280000    0.0583920000   -0.0000000000
C       -0.1423100000   -0.0399970000   -0.0000000000
C       -0.0194230000    0.0208470000    0.0000000000
C       -0.0548250000   -0.0496830000   -0.0000000000
N       -0.1812750000    0.0176660000   -0.0000000000
H        0.1248020000    0.0008700000   -0.0000000000
H        0.1335290000    0.0027840000   -0.0000000000
H        0.1441040000    0.0171230000   -0.0000000000
H        0.1441540000    0.0266980000   -0.0000000000
H        0.1281200000    0.0050390000   -0.0000000000
C       -0.2402180000    1.0021880000    0.0000000000
H        0.1483620000   -0.0236430000    0.0000000000
13   
Frame  11 IRC: Energy =  -286.8761480000 ; +0.2184 kcal/mol
C       -0.2517670000   -0.0383040000   -0.0000000000
C        0.0662830000    0.0590690000   -0.0000000000
C       -0.1414100000   -0.0410640000   -0.0000000000
C       -0.0201480000    0.0199870000    0.0000000000
C       -0.0549210000   -0.0493970000   -0.0000000000
N       -0.1813120000    0.0176790000   -0.0000000000
H        0.1246940000    0.0008610000   -0.0000000000
H        0.1335850000    0.0027880000   -0.0000000000
H        0.1440510000    0.0172480000   -0.0000000000
H        0.1441370000    0.0269270000   -0.0000000000
H        0.1281330000    0.0050580000   -0.0000000000
C       -0.2396310000    1.0029940000    0.0000000000
H        0.1483050000   -0.0238460000    0.0000000000
13   
Frame  12 IRC: Energy =  -286.8761290000 ; +0.2304 kcal/mol
C       -0.2524530000   -0.0383300000   -0.0000000000
C        0.0662800000    0.0592120000   -0.0000000000
C       -0.1419590000   -0.0414340000   -0.0000000000
C       -0.0194300000    0.0194910000    0.0000000000
C       -0.0552920000   -0.0492310000   -0.0000000000
N       -0.1811940000    0.0175800000   -0.0000000000
H        0.1247720000    0.0008590000   -0.0000000000
H        0.1335860000    0.0027800000   -0.0000000000
H        0.1440780000    0.0172430000   -0.0000000000
H        0.1441580000    0.0271150000   -0.0000000000
H        0.1281010000    0.0050430000   -0.0000000000
C       -0.2389570000    1.0036080000    0.0000000000
H        0.1483100000   -0.0239360000    0.0000000000
13   
Frame  13 IRC: Energy =  -286.8760590000 ; +0.2743 kcal/mol
C       -0.2517220000   -0.0383120000   -0.0000000000
C        0.0645710000    0.0600680000   -0.0000000000
C       -0.1411020000   -0.0429670000   -0.0000000000
C       -0.0199690000    0.0179890000    0.0000000000
C       -0.0555810000   -0.0486760000   -0.0000000000
N       -0.1811270000    0.0175210000   -0.0000000000
H        0.1246920000    0.0008440000   -0.0000000000
H        0.1336560000    0.0027760000   -0.0000000000
H        0.1440150000    0.0173740000   -0.0000000000
H        0.1441260000    0.0275020000   -0.0000000000
H        0.1281340000    0.0050580000   -0.0000000000
C       -0.2379660000    1.0050180000    0.0000000000
H        0.1482720000   -0.0241950000    0.0000000000
13   
Frame  14 IRC: Energy =  -286.8760410000 ; +0.2856 kcal/mol
C       -0.2508980000   -0.0383990000   -0.0000000000
C        0.0637090000    0.0602560000   -0.0000000000
C       -0.1408390000   -0.0430250000   -0.0000000000
C       -0.0204310000    0.0178510000    0.0000000000
C       -0.0554100000   -0.0488050000   -0.0000000000
N       -0.1808140000    0.0176020000   -0.0000000000
H        0.1246420000    0.0008420000   -0.0000000000
H        0.1337220000    0.0027870000   -0.0000000000
H        0.1440070000    0.0173550000   -0.0000000000
H        0.1441570000    0.0275460000   -0.0000000000
H        0.1280350000    0.0050950000   -0.0000000000
C       -0.2381570000    1.0051140000    0.0000000000
H        0.1482770000   -0.0242190000    0.0000000000
13   
Frame  15 IRC: Energy =  -286.8756820000 ; +0.5109 kcal/mol
C       -0.2520350000   -0.0378670000   -0.0000000000
C        0.0597320000    0.0628400000   -0.0000000000
C       -0.1404200000   -0.0498790000   -0.0000000000
C       -0.0182320000    0.0096750000    0.0000000000
C       -0.0590920000   -0.0447770000   -0.0000000000
N       -0.1804920000    0.0166130000   -0.0000000000
H        0.1246520000    0.0007600000   -0.0000000000
H        0.1338290000    0.0028130000   -0.0000000000
H        0.1438960000    0.0181490000   -0.0000000000
H        0.1440590000    0.0296500000   -0.0000000000
H        0.1280490000    0.0050820000   -0.0000000000
C       -0.2320240000    1.0127990000    0.0000000000
H        0.1480770000   -0.0258580000    0.0000000000
13   
Frame  16 IRC: Energy =  -286.8756490000 ; +0.5316 kcal/mol
C       -0.2513600000   -0.0378040000   -0.0000000000
C        0.0591010000    0.0630450000   -0.0000000000
C       -0.1400670000   -0.0502440000   -0.0000000000
C       -0.0183510000    0.0091670000    0.0000000000
C       -0.0592340000   -0.0445990000   -0.0000000000
N       -0.1801390000    0.0166370000   -0.0000000000
H        0.1245450000    0.0007510000   -0.0000000000
H        0.1338940000    0.0028380000   -0.0000000000
H        0.1438550000    0.0182280000   -0.0000000000
H        0.1440570000    0.0298260000   -0.0000000000
H        0.1280260000    0.0051330000   -0.0000000000
C       -0.2323400000    1.0130250000    0.0000000000
H        0.1480130000   -0.0260030000    0.0000000000
13   
Frame  17 IRC: Energy =  -286.8755060000 ; +0.6213 kcal/mol
C       -0.2521110000   -0.0375200000   -0.0000000000
C        0.0578590000    0.0636550000   -0.0000000000
C       -0.1401220000   -0.0524900000   -0.0000000000
C       -0.0173460000    0.0062660000    0.0000000000
C       -0.0605700000   -0.0430420000   -0.0000000000
N       -0.1802420000    0.0162110000   -0.0000000000
H        0.1246570000    0.0007180000   -0.0000000000
H        0.1338940000    0.0028360000   -0.0000000000
H        0.1438530000    0.0184600000   -0.0000000000
H        0.1440310000    0.0304800000   -0.0000000000
H        0.1280060000    0.0050840000   -0.0000000000
C       -0.2299350000    1.0158840000    0.0000000000
H        0.1480250000   -0.0265420000    0.0000000000
13   
Frame  18 IRC: Energy =  -286.8754510000 ; +0.6558 kcal/mol
C       -0.2515700000   -0.0374000000   -0.0000000000
C        0.0571800000    0.0639420000   -0.0000000000
C       -0.1397900000   -0.0532100000   -0.0000000000
C       -0.0170820000    0.0053700000    0.0000000000
C       -0.0611460000   -0.0426700000   -0.0000000000
N       -0.1798180000    0.0161620000   -0.0000000000
H        0.1245310000    0.0007040000   -0.0000000000
H        0.1339730000    0.0028620000   -0.0000000000
H        0.1438070000    0.0185950000   -0.0000000000
H        0.1440400000    0.0307880000   -0.0000000000
H        0.1280240000    0.0051280000   -0.0000000000
C       -0.2301060000    1.0165180000    0.0000000000
H        0.1479560000   -0.0267880000    0.0000000000
13   
Frame  19 IRC: Energy =  -286.8753200000 ; +0.7380 kcal/mol
C       -0.2520800000   -0.0370600000   -0.0000000000
C        0.0561270000    0.0642950000   -0.0000000000
C       -0.1397670000   -0.0550060000   -0.0000000000
C       -0.0163730000    0.0028230000    0.0000000000
C       -0.0621100000   -0.0411860000   -0.0000000000
N       -0.1800310000    0.0157990000   -0.0000000000
H        0.1246420000    0.0006730000   -0.0000000000
H        0.1339580000    0.0028690000   -0.0000000000
H        0.1438070000    0.0187680000   -0.0000000000
H        0.1439840000    0.0312860000   -0.0000000000
H        0.1279940000    0.0050870000   -0.0000000000
C       -0.2281100000    1.0188970000    0.0000000000
H        0.1479580000   -0.0272450000    0.0000000000
13   
Frame  20 IRC: Energy =  -286.8752600000 ; +0.7757 kcal/mol
C       -0.2518250000   -0.0368870000   -0.0000000000
C        0.0556980000    0.0645650000   -0.0000000000
C       -0.1394960000   -0.0557680000   -0.0000000000
C       -0.0158320000    0.0019120000    0.0000000000
C       -0.0628880000   -0.0407680000   -0.0000000000
N       -0.1795350000    0.0157250000   -0.0000000000
H        0.1244980000    0.0006560000   -0.0000000000
H        0.1340500000    0.0029030000   -0.0000000000
H        0.1437550000    0.0189750000   -0.0000000000
H        0.1440040000    0.0316930000   -0.0000000000
H        0.1280590000    0.0051340000   -0.0000000000
C       -0.2283930000    1.0193820000    0.0000000000
H        0.1479040000   -0.0275240000    0.0000000000
13   
Frame  21 IRC: Energy =  -286.8751480000 ; +0.8460 kcal/mol
C       -0.2519670000   -0.0366130000   -0.0000000000
C        0.0544720000    0.0647670000   -0.0000000000
C       -0.1393830000   -0.0571370000   -0.0000000000
C       -0.0153940000   -0.0002050000    0.0000000000
C       -0.0634880000   -0.0395680000   -0.0000000000
N       -0.1796750000    0.0154370000   -0.0000000000
H        0.1246230000    0.0006310000   -0.0000000000
H        0.1340210000    0.0029000000   -0.0000000000
H        0.1437590000    0.0190670000   -0.0000000000
H        0.1439620000    0.0320060000   -0.0000000000
H        0.1279340000    0.0051000000   -0.0000000000
C       -0.2267870000    1.0215010000    0.0000000000
H        0.1479240000   -0.0278870000    0.0000000000
13   
Frame  22 IRC: Energy =  -286.8750810000 ; +0.8880 kcal/mol
C       -0.2520300000   -0.0363280000   -0.0000000000
C        0.0544500000    0.0649300000   -0.0000000000
C       -0.1393090000   -0.0579530000   -0.0000000000
C       -0.0146420000   -0.0012630000    0.0000000000
C       -0.0643600000   -0.0389410000   -0.0000000000
N       -0.1793410000    0.0153160000   -0.0000000000
H        0.1245020000    0.0006120000   -0.0000000000
H        0.1340990000    0.0029370000   -0.0000000000
H        0.1436990000    0.0192730000   -0.0000000000
H        0.1439390000    0.0324340000   -0.0000000000
H        0.1280640000    0.0051330000   -0.0000000000
C       -0.2269050000    1.0220460000    0.0000000000
H        0.1478350000   -0.0281970000    0.0000000000
13   
Frame  23 IRC: Energy =  -286.8744300000 ; +1.2965 kcal/mol
C       -0.2521210000   -0.0341850000   -0.0000000000
C        0.0490020000    0.0655630000   -0.0000000000
C       -0.1376660000   -0.0648300000   -0.0000000000
C       -0.0104870000   -0.0121820000    0.0000000000
C       -0.0698590000   -0.0325470000   -0.0000000000
N       -0.1784310000    0.0139040000   -0.0000000000
H        0.1245000000    0.0004490000   -0.0000000000
H        0.1343010000    0.0031170000   -0.0000000000
H        0.1435960000    0.0203830000   -0.0000000000
H        0.1437910000    0.0349230000   -0.0000000000
H        0.1278790000    0.0051530000   -0.0000000000
C       -0.2223030000    1.0308970000    0.0000000000
H        0.1477980000   -0.0306450000    0.0000000000
13   
Frame  24 IRC: Energy =  -286.8743660000 ; +1.3367 kcal/mol
C       -0.2519860000   -0.0341020000   -0.0000000000
C        0.0476910000    0.0657530000   -0.0000000000
C       -0.1369660000   -0.0655440000   -0.0000000000
C       -0.0094960000   -0.0131760000    0.0000000000
C       -0.0690590000   -0.0324270000   -0.0000000000
N       -0.1785440000    0.0138920000   -0.0000000000
H        0.1245830000    0.0004450000   -0.0000000000
H        0.1342680000    0.0030790000   -0.0000000000
H        0.1435300000    0.0205290000   -0.0000000000
H        0.1437340000    0.0355480000   -0.0000000000
H        0.1278100000    0.0051170000   -0.0000000000
C       -0.2232930000    1.0317580000    0.0000000000
H        0.1477290000   -0.0308720000    0.0000000000
13   
Frame  25 IRC: Energy =  -286.8737090000 ; +1.7489 kcal/mol
C       -0.2524070000   -0.0313300000   -0.0000000000
C        0.0439670000    0.0651570000   -0.0000000000
C       -0.1357320000   -0.0707880000   -0.0000000000
C       -0.0056530000   -0.0228910000    0.0000000000
C       -0.0760260000   -0.0258000000   -0.0000000000
N       -0.1772070000    0.0125360000   -0.0000000000
H        0.1244280000    0.0002740000    0.0000000000
H        0.1345860000    0.0033690000   -0.0000000000
H        0.1434900000    0.0215480000   -0.0000000000
H        0.1436280000    0.0374030000   -0.0000000000
H        0.1277620000    0.0052090000   -0.0000000000
C       -0.2186270000    1.0386090000    0.0000000000
H        0.1477900000   -0.0332960000    0.0000000000
13   
Frame  26 IRC: Energy =  -286.8736020000 ; +1.8161 kcal/mol
C       -0.2523590000   -0.0310340000   -0.0000000000
C        0.0425720000    0.0652670000   -0.0000000000
C       -0.1348380000   -0.0718320000   -0.0000000000
C       -0.0042490000   -0.0244490000    0.0000000000
C       -0.0759620000   -0.0252640000   -0.0000000000
N       -0.1772770000    0.0124150000   -0.0000000000
H        0.1244610000    0.0002560000    0.0000000000
H        0.1346040000    0.0033500000   -0.0000000000
H        0.1434310000    0.0217880000   -0.0000000000
H        0.1435820000    0.0382070000   -0.0000000000
H        0.1277810000    0.0051620000   -0.0000000000
C       -0.2194820000    1.0398220000    0.0000000000
H        0.1477360000   -0.0336880000    0.0000000000
13   
Frame  27 IRC: Energy =  -286.8728280000 ; +2.3018 kcal/mol
C       -0.2527340000   -0.0276020000   -0.0000000000
C        0.0375180000    0.0638230000   -0.0000000000
C       -0.1328660000   -0.0761820000   -0.0000000000
C       -0.0002700000   -0.0342330000    0.0000000000
C       -0.0826260000   -0.0183920000   -0.0000000000
N       -0.1758530000    0.0111320000   -0.0000000000
H        0.1243920000    0.0000740000    0.0000000000
H        0.1349950000    0.0036610000   -0.0000000000
H        0.1434180000    0.0227000000   -0.0000000000
H        0.1434810000    0.0402120000   -0.0000000000
H        0.1276700000    0.0052230000   -0.0000000000
C       -0.2150000000    1.0457850000    0.0000000000
H        0.1478750000   -0.0362010000    0.0000000000
13   
Frame  28 IRC: Energy =  -286.8727190000 ; +2.3702 kcal/mol
C       -0.2526640000   -0.0273470000   -0.0000000000
C        0.0360670000    0.0639150000   -0.0000000000
C       -0.1318130000   -0.0770230000   -0.0000000000
C        0.0011320000   -0.0355120000    0.0000000000
C       -0.0826100000   -0.0180420000   -0.0000000000
N       -0.1757820000    0.0110430000   -0.0000000000
H        0.1244040000    0.0000610000    0.0000000000
H        0.1350440000    0.0036340000   -0.0000000000
H        0.1433610000    0.0229590000   -0.0000000000
H        0.1434690000    0.0410240000   -0.0000000000
H        0.1277010000    0.0051770000   -0.0000000000
C       -0.2161070000    1.0466450000    0.0000000000
H        0.1477980000   -0.0365340000    0.0000000000
13   
Frame  29 IRC: Energy =  -286.8719120000 ; +2.8766 kcal/mol
C       -0.2529110000   -0.0238920000   -0.0000000000
C        0.0308220000    0.0620710000   -0.0000000000
C       -0.1299310000   -0.0794830000   -0.0000000000
C        0.0035380000   -0.0434340000    0.0000000000
C       -0.0883800000   -0.0120500000   -0.0000000000
N       -0.1744220000    0.0100760000   -0.0000000000
H        0.1243880000   -0.0001090000    0.0000000000
H        0.1355270000    0.0039180000   -0.0000000000
H        0.1434100000    0.0233700000   -0.0000000000
H        0.1434490000    0.0425510000   -0.0000000000
H        0.1276410000    0.0051840000   -0.0000000000
C       -0.2111180000    1.0502870000    0.0000000000
H        0.1479860000   -0.0384890000    0.0000000000
13   
Frame  30 IRC: Energy =  -286.8718000000 ; +2.9469 kcal/mol
C       -0.2528640000   -0.0237090000   -0.0000000000
C        0.0294070000    0.0622020000   -0.0000000000
C       -0.1288670000   -0.0801120000   -0.0000000000
C        0.0048720000   -0.0444250000    0.0000000000
C       -0.0882770000   -0.0118960000   -0.0000000000
N       -0.1743340000    0.0100140000   -0.0000000000
H        0.1243840000   -0.0001180000    0.0000000000
H        0.1355950000    0.0038750000   -0.0000000000
H        0.1433570000    0.0235890000   -0.0000000000
H        0.1434570000    0.0433860000   -0.0000000000
H        0.1277180000    0.0051210000   -0.0000000000
C       -0.2123230000    1.0507940000    0.0000000000
H        0.1478760000   -0.0387220000    0.0000000000
13   
Frame  31 IRC: Energy =  -286.8709650000 ; +3.4708 kcal/mol
C       -0.2527380000   -0.0207760000   -0.0000000000
C        0.0244580000    0.0605800000   -0.0000000000
C       -0.1274250000   -0.0806810000   -0.0000000000
C        0.0051420000   -0.0499060000    0.0000000000
C       -0.0926580000   -0.0072980000   -0.0000000000
N       -0.1729240000    0.0094020000   -0.0000000000
H        0.1244300000   -0.0002600000    0.0000000000
H        0.1361440000    0.0040900000   -0.0000000000
H        0.1434120000    0.0234240000   -0.0000000000
H        0.1435260000    0.0442230000   -0.0000000000
H        0.1276800000    0.0050730000   -0.0000000000
C       -0.2070690000    1.0520150000    0.0000000000
H        0.1480210000   -0.0398870000    0.0000000000
13   
Frame  32 IRC: Energy =  -286.8708340000 ; +3.5530 kcal/mol
C       -0.2526940000   -0.0206740000   -0.0000000000
C        0.0229710000    0.0608010000   -0.0000000000
C       -0.1263670000   -0.0811300000   -0.0000000000
C        0.0063210000   -0.0506750000    0.0000000000
C       -0.0924910000   -0.0073240000   -0.0000000000
N       -0.1727360000    0.0093750000   -0.0000000000
H        0.1244170000   -0.0002680000    0.0000000000
H        0.1362390000    0.0040310000   -0.0000000000
H        0.1433580000    0.0235910000   -0.0000000000
H        0.1435620000    0.0450610000   -0.0000000000
H        0.1277790000    0.0049960000   -0.0000000000
C       -0.2082600000    1.0522530000    0.0000000000
H        0.1479010000   -0.0400390000    0.0000000000
13   
Frame  33 IRC: Energy =  -286.8699370000 ; +4.1159 kcal/mol
C       -0.2521690000   -0.0184710000   -0.0000000000
C        0.0188830000    0.0598340000   -0.0000000000
C       -0.1256020000   -0.0803840000   -0.0000000000
C        0.0048990000   -0.0540590000    0.0000000000
C       -0.0955170000   -0.0041220000   -0.0000000000
N       -0.1714030000    0.0091230000   -0.0000000000
H        0.1245180000   -0.0003770000    0.0000000000
H        0.1367990000    0.0041580000   -0.0000000000
H        0.1433590000    0.0229520000   -0.0000000000
H        0.1436570000    0.0453340000   -0.0000000000
H        0.1278150000    0.0048990000   -0.0000000000
C       -0.2031460000    1.0516480000    0.0000000000
H        0.1479070000   -0.0405360000    0.0000000000
13   
Frame  34 IRC: Energy =  -286.8697570000 ; +4.2289 kcal/mol
C       -0.2520240000   -0.0184730000   -0.0000000000
C        0.0171520000    0.0602320000   -0.0000000000
C       -0.1244920000   -0.0806520000   -0.0000000000
C        0.0058240000   -0.0546120000    0.0000000000
C       -0.0953590000   -0.0042920000   -0.0000000000
N       -0.1708510000    0.0091140000   -0.0000000000
H        0.1244660000   -0.0003830000    0.0000000000
H        0.1369280000    0.0040730000   -0.0000000000
H        0.1432820000    0.0230700000   -0.0000000000
H        0.1437460000    0.0460740000   -0.0000000000
H        0.1278920000    0.0048120000   -0.0000000000
C       -0.2043340000    1.0516540000    0.0000000000
H        0.1477690000   -0.0406190000    0.0000000000
13   
Frame  35 IRC: Energy =  -286.8687610000 ; +4.8539 kcal/mol
C       -0.2511830000   -0.0168920000   -0.0000000000
C        0.0142000000    0.0599950000   -0.0000000000
C       -0.1245170000   -0.0791580000   -0.0000000000
C        0.0032550000   -0.0566330000    0.0000000000
C       -0.0971740000   -0.0020550000   -0.0000000000
N       -0.1699050000    0.0091030000   -0.0000000000
H        0.1246720000   -0.0004640000    0.0000000000
H        0.1374610000    0.0041190000   -0.0000000000
H        0.1432190000    0.0220920000   -0.0000000000
H        0.1438010000    0.0460400000   -0.0000000000
H        0.1280440000    0.0046610000   -0.0000000000
C       -0.1994910000    1.0498530000    0.0000000000
H        0.1476170000   -0.0406600000    0.0000000000
13   
Frame  36 IRC: Energy =  -286.8685090000 ; +5.0120 kcal/mol
C       -0.2508980000   -0.0170270000   -0.0000000000
C        0.0123710000    0.0606920000   -0.0000000000
C       -0.1235510000   -0.0792310000   -0.0000000000
C        0.0038720000   -0.0569200000    0.0000000000
C       -0.0970720000   -0.0023410000   -0.0000000000
N       -0.1688440000    0.0091050000   -0.0000000000
H        0.1245380000   -0.0004660000    0.0000000000
H        0.1376020000    0.0039940000   -0.0000000000
H        0.1430940000    0.0221350000   -0.0000000000
H        0.1439440000    0.0465820000   -0.0000000000
H        0.1281110000    0.0045650000   -0.0000000000
C       -0.2006220000    1.0495800000    0.0000000000
H        0.1474550000   -0.0406680000    0.0000000000
13   
Frame  37 IRC: Energy =  -286.8673900000 ; +5.7142 kcal/mol
C       -0.2497900000   -0.0159760000    0.0000000000
C        0.0104160000    0.0612040000   -0.0000000000
C       -0.1241290000   -0.0773990000   -0.0000000000
C        0.0005040000   -0.0581500000    0.0000000000
C       -0.0978450000   -0.0007790000   -0.0000000000
N       -0.1684280000    0.0092760000   -0.0000000000
H        0.1248920000   -0.0005180000    0.0000000000
H        0.1381110000    0.0039660000   -0.0000000000
H        0.1429930000    0.0209760000   -0.0000000000
H        0.1439460000    0.0464380000   -0.0000000000
H        0.1283600000    0.0043670000   -0.0000000000
C       -0.1961850000    1.0470020000    0.0000000000
H        0.1471550000   -0.0404060000    0.0000000000
13   
Frame  38 IRC: Energy =  -286.8670190000 ; +5.9470 kcal/mol
C       -0.2492480000   -0.0162400000    0.0000000000
C        0.0085520000    0.0623270000   -0.0000000000
C       -0.1235330000   -0.0772210000   -0.0000000000
C        0.0006660000   -0.0582290000    0.0000000000
C       -0.0977110000   -0.0010800000   -0.0000000000
N       -0.1668480000    0.0093030000   -0.0000000000
H        0.1246740000   -0.0005160000    0.0000000000
H        0.1382350000    0.0037880000   -0.0000000000
H        0.1428020000    0.0208840000   -0.0000000000
H        0.1441260000    0.0467380000   -0.0000000000
H        0.1284280000    0.0042610000   -0.0000000000
C       -0.1970850000    1.0463080000    0.0000000000
H        0.1469440000   -0.0403230000    0.0000000000
13   