13   
Frame   0 IRC: Energy =  -286.8764961209 ; +0.0000 kcal/mol
C        1.6806220490    0.4064389654   -0.1596845201
C        1.1335791003   -0.8278867552   -0.2626938280
C       -0.3067691375   -1.0694230393   -0.0886928063
C       -1.1622985611    0.3248777942    0.0410068280
C       -0.3382750323    1.5316444022   -0.1462829207
N        0.9507733155    1.5951832289   -0.1467868137
H        2.7561286000    0.5415924400   -0.2233136675
H        1.7630345620   -1.6821874092   -0.4978504089
H       -0.7381328327   -1.9104105128   -0.6337059307
H       -2.1665022145    0.3852148665   -0.3820983531
H       -0.8793018298    2.4560415369   -0.3584331341
C       -0.9654562855   -0.6261488044    1.1361771961
H       -1.7274017331   -1.1249367133    1.7223583585
13   
Frame   1 IRC: Energy =  -286.8764958771 ; +0.0002 kcal/mol
C        1.6805853429    0.4065094106   -0.1598337889
C        1.1335898965   -0.8278777635   -0.2623709073
C       -0.3067233640   -1.0697583987   -0.0883578067
C       -1.1621546137    0.3249458892    0.0410807032
C       -0.3381996106    1.5317112932   -0.1462534153
N        0.9508821971    1.5953073140   -0.1469582176
H        2.7560826129    0.5414992390   -0.2243135512
H        1.7632423170   -1.6820620939   -0.4974375998
H       -0.7377743699   -1.9105888307   -0.6339161915
H       -2.1662449975    0.3850862327   -0.3824200033
H       -0.8793641154    2.4562067119   -0.3575801258
C       -0.9658851957   -0.6263595145    1.1360096700
H       -1.7280360993   -1.1246194894    1.7223512342
13   
Frame   2 IRC: Energy =  -286.8764938299 ; +0.0014 kcal/mol
C        1.6801323299    0.4067351197   -0.1596476646
C        1.1332282159   -0.8278684538   -0.2617618621
C       -0.3072445925   -1.0703020768   -0.0897096071
C       -1.1616643361    0.3255763703    0.0425104126
C       -0.3383348844    1.5322134096   -0.1461122712
N        0.9508346295    1.5953658152   -0.1479187672
H        2.7557201836    0.5411043516   -0.2235932699
H        1.7634978724   -1.6820256975   -0.4955830371
H       -0.7381072473   -1.9099687369   -0.6370774594
H       -2.1659180629    0.3854814308   -0.3809332289
H       -0.8794623102    2.4561952302   -0.3595595718
C       -0.9659795298   -0.6276963969    1.1352143459
H       -1.7267022681   -1.1248103655    1.7241719808
13   
Frame   3 IRC: Energy =  -286.8764894543 ; +0.0042 kcal/mol
C        1.6797022605    0.4068363036   -0.1582462754
C        1.1326355365   -0.8278163821   -0.2618161353
C       -0.3082139121   -1.0704213610   -0.0923270650
C       -1.1616089753    0.3262016070    0.0439300150
C       -0.3385758779    1.5322199228   -0.1480773992
N        0.9506306894    1.5950765464   -0.1487840033
H        2.7554039092    0.5409067762   -0.2195991558
H        1.7634416082   -1.6819936628   -0.4944597646
H       -0.7396328623   -1.9087475313   -0.6411059745
H       -2.1666649824    0.3860451076   -0.3777071740
H       -0.8792034246    2.4560411759   -0.3632995407
C       -0.9649457011   -0.6289480928    1.1343344935
H       -1.7229682681   -1.1254004095    1.7271579793
13   
Frame   4 IRC: Energy =  -286.8764604130 ; +0.0224 kcal/mol
C        1.6782627856    0.4058213576   -0.1499505039
C        1.1302996480   -0.8281364741   -0.2649325687
C       -0.3114478077   -1.0687831120   -0.1017217899
C       -1.1627050301    0.3277915157    0.0476292109
C       -0.3400178858    1.5323160127   -0.1520442597
N        0.9492793631    1.5940467411   -0.1500053818
H        2.7547079725    0.5396764190   -0.1980089460
H        1.7613002950   -1.6822566357   -0.4966291375
H       -0.7472865325   -1.9021631971   -0.6544061947
H       -2.1715294641    0.3882257135   -0.3646951951
H       -0.8791364842    2.4525194229   -0.3854275320
C       -0.9567937346   -0.6309563918    1.1327819078
H       -1.7049331254   -1.1281013718    1.7374103907
13   
Frame   5 IRC: Energy =  -286.8764090000 ; +0.0547 kcal/mol
C        1.6761532146    0.4044530334   -0.1442913035
C        1.1280240224   -0.8285195605   -0.2701955504
C       -0.3133193171   -1.0672678127   -0.1083383499
C       -1.1636160510    0.3285732017    0.0490165513
C       -0.3413530542    1.5320451908   -0.1578858330
N        0.9478836979    1.5935749633   -0.1510749328
H        2.7535100333    0.5374068583   -0.1761350166
H        1.7590621262   -1.6827511703   -0.5001526696
H       -0.7527027273   -1.8972702029   -0.6632859214
H       -2.1758135317    0.3891222946   -0.3549988236
H       -0.8798392659    2.4503206591   -0.4001246437
C       -0.9486921241   -0.6309437957    1.1319952645
H       -1.6892970232   -1.1287436591    1.7454712287
13   
Frame   6 IRC: Energy =  -286.8763980000 ; +0.0616 kcal/mol
C        1.6759792571    0.4045305837   -0.1433266131
C        1.1279374110   -0.8281865703   -0.2707884272
C       -0.3141800639   -1.0669721955   -0.1092507561
C       -1.1637003284    0.3287426365    0.0491376594
C       -0.3414965767    1.5320544317   -0.1585430934
N        0.9477664953    1.5930604395   -0.1511554216
H        2.7530290561    0.5370724671   -0.1730849272
H        1.7588735780   -1.6829639975   -0.5004756125
H       -0.7537310932   -1.8965909139   -0.6651656471
H       -2.1762988821    0.3891112562   -0.3538091946
H       -0.8799626443    2.4500517735   -0.4023962317
C       -0.9477804129   -0.6313967949    1.1316455392
H       -1.6864357959   -1.1285131161    1.7472127259
13   
Frame   7 IRC: Energy =  -286.8763900000 ; +0.0666 kcal/mol
C        1.6757088328    0.4042512620   -0.1427681003
C        1.1275549787   -0.8284546091   -0.2711121700
C       -0.3141826428   -1.0669932176   -0.1103182101
C       -1.1637701375    0.3287393433    0.0493117904
C       -0.3417309450    1.5320839998   -0.1589643895
N        0.9476281280    1.5932936740   -0.1511824862
H        2.7531467671    0.5369694841   -0.1712655281
H        1.7586631942   -1.6829201800   -0.5006252974
H       -0.7542991567   -1.8960418746   -0.6661685626
H       -2.1766397259    0.3891127946   -0.3531260075
H       -0.8799430958    2.4498227395   -0.4037193187
C       -0.9471408204   -0.6313296155    1.1314392762
H       -1.6849953767   -1.1285338006    1.7484990036
13   
Frame   8 IRC: Energy =  -286.8763850000 ; +0.0697 kcal/mol
C        1.6757638834    0.4041806089   -0.1426458951
C        1.1271234455   -0.8289695832   -0.2711641472
C       -0.3138208747   -1.0671815527   -0.1109105835
C       -1.1638757891    0.3287155794    0.0493780114
C       -0.3414855248    1.5321033233   -0.1590607648
N        0.9471851600    1.5936323401   -0.1511782647
H        2.7533066115    0.5369769272   -0.1708716742
H        1.7585554585   -1.6827889930   -0.5006239547
H       -0.7543670429   -1.8957834723   -0.6662948164
H       -2.1767092051    0.3891149258   -0.3529719501
H       -0.8799039907    2.4497529679   -0.4040004870
C       -0.9469696372   -0.6311396060    1.1314613991
H       -1.6848024946   -1.1286134653    1.7488831271
13   
Frame   9 IRC: Energy =  -286.8762000000 ; +0.1858 kcal/mol
C        1.6714275972    0.4019889220   -0.1316523083
C        1.1235742650   -0.8293548645   -0.2774136376
C       -0.3199419500   -1.0653101714   -0.1244169492
C       -1.1657885637    0.3292257849    0.0478945111
C       -0.3447442357    1.5321277332   -0.1655951223
N        0.9445377992    1.5910015027   -0.1491563137
H        2.7490339452    0.5331254266   -0.1381126938
H        1.7554772613   -1.6842380394   -0.5043859860
H       -0.7650211394   -1.8881195352   -0.6859549562
H       -2.1816301429    0.3873506493   -0.3477524677
H       -0.8807131036    2.4476520232   -0.4237558309
C       -0.9367429553   -0.6318512094    1.1258068676
H       -1.6494687773   -1.1235982222    1.7744948869
13   
Frame  10 IRC: Energy =  -286.8761880000 ; +0.1933 kcal/mol
C        1.6712534512    0.4012991456   -0.1311833561
C        1.1231773863   -0.8300712814   -0.2777200467
C       -0.3196611475   -1.0652810987   -0.1253430398
C       -1.1659399475    0.3292136251    0.0479233860
C       -0.3450231924    1.5321162061   -0.1659189802
N        0.9441151096    1.5916727987   -0.1490660151
H        2.7491684925    0.5330538412   -0.1366837590
H        1.7551333409   -1.6839301938   -0.5044555012
H       -0.7654505590   -1.8877059414   -0.6867538458
H       -2.1818271577    0.3872911545   -0.3475256443
H       -0.8806063865    2.4474557737   -0.4245698157
C       -0.9362687214   -0.6316454116    1.1255483250
H       -1.6480706686   -1.1234686181    1.7757482930
13   
Frame  11 IRC: Energy =  -286.8761480000 ; +0.2184 kcal/mol
C        1.6705465975    0.4016257058   -0.1294087901
C        1.1227942698   -0.8294877051   -0.2786495540
C       -0.3211278743   -1.0649767207   -0.1272422151
C       -1.1662245277    0.3293337786    0.0475422587
C       -0.3452585852    1.5321251590   -0.1668659021
N        0.9438912046    1.5904199997   -0.1487291240
H        2.7480313189    0.5323062939   -0.1313538621
H        1.7548088867   -1.6845337929   -0.5051830217
H       -0.7672233145   -1.8865106900   -0.6899665521
H       -2.1826291903    0.3869071148   -0.3468195407
H       -0.8808706654    2.4471912220   -0.4277130985
C       -0.9347225128   -0.6319619046    1.1245769250
H       -1.6420156073   -1.1224384604    1.7798124769
13   
Frame  12 IRC: Energy =  -286.8761290000 ; +0.2304 kcal/mol
C        1.6701691635    0.4007646263   -0.1287021581
C        1.1222203376   -0.8302368259   -0.2790735041
C       -0.3209401449   -1.0649426353   -0.1285079293
C       -1.1664071399    0.3293481083    0.0475442463
C       -0.3457533523    1.5320719764   -0.1672942735
N        0.9434385062    1.5911422950   -0.1486121192
H        2.7480866057    0.5321572458   -0.1290968415
H        1.7543626086   -1.6842340826   -0.5053511437
H       -0.7678832516   -1.8858042302   -0.6911621912
H       -2.1828828448    0.3867457353   -0.3464871679
H       -0.8807017634    2.4468447075   -0.4289430043
C       -0.9341016815   -0.6317663017    1.1240080591
H       -1.6396070434   -1.1220906188    1.7816780274
13   
Frame  13 IRC: Energy =  -286.8760590000 ; +0.2743 kcal/mol
C        1.6691449520    0.4007813969   -0.1259308454
C        1.1214440834   -0.8298208379   -0.2807706329
C       -0.3229250596   -1.0644181869   -0.1318299350
C       -1.1668416810    0.3292524104    0.0468234780
C       -0.3463007481    1.5321103080   -0.1689236199
N        0.9429044160    1.5898007126   -0.1478275085
H        2.7467561438    0.5310993072   -0.1209030649
H        1.7537834658   -1.6849744410   -0.5064260478
H       -0.7706086798   -1.8840671910   -0.6960938721
H       -2.1841540863    0.3861596541   -0.3457072685
H       -0.8811022166    2.4466433595   -0.4336408969
C       -0.9316312145   -0.6320255892    1.1228150809
H       -1.6304693752   -1.1205409028    1.7884151328
13   
Frame  14 IRC: Energy =  -286.8760410000 ; +0.2856 kcal/mol
C        1.6690779323    0.4019360633   -0.1255712508
C        1.1208259206   -0.8294391547   -0.2808823830
C       -0.3233609176   -1.0643637597   -0.1321213492
C       -1.1666383040    0.3292956679    0.0466899175
C       -0.3455212849    1.5316533241   -0.1689449405
N        0.9426802015    1.5888452317   -0.1477387680
H        2.7464334502    0.5308940400   -0.1199981043
H        1.7540901830   -1.6855991551   -0.5066761668
H       -0.7708969810   -1.8838564026   -0.6966327993
H       -2.1844806914    0.3860704556   -0.3456927785
H       -0.8814583483    2.4470549099   -0.4342849059
C       -0.9313801153   -0.6321716797    1.1227460741
H       -1.6293710451   -1.1203195407    1.7891074547
13   
Frame  15 IRC: Energy =  -286.8756820000 ; +0.5109 kcal/mol
C        1.6639993824    0.3973146256   -0.1140385663
C        1.1170652305   -0.8317352123   -0.2863930914
C       -0.3284553403   -1.0634485726   -0.1464514246
C       -1.1703858438    0.3294971632    0.0433819500
C       -0.3500377670    1.5321662619   -0.1745436491
N        0.9390367596    1.5877307323   -0.1434947944
H        2.7414428443    0.5266532802   -0.0883710526
H        1.7502070869   -1.6859973495   -0.5104269587
H       -0.7803726483   -1.8768641343   -0.7164595559
H       -2.1892498823    0.3846596470   -0.3456863744
H       -0.8812691535    2.4447534070   -0.4512676909
C       -0.9236025506   -0.6320129534    1.1148089349
H       -1.5883781180   -1.1127168950    1.8189422735
13   
Frame  16 IRC: Energy =  -286.8756490000 ; +0.5316 kcal/mol
C        1.6637308301    0.3982459488   -0.1132513889
C        1.1166760877   -0.8311006441   -0.2866886808
C       -0.3294031406   -1.0632032627   -0.1469207879
C       -1.1704206548    0.3291415986    0.0433597212
C       -0.3495234746    1.5316492861   -0.1747475344
N        0.9390982611    1.5866123741   -0.1431986939
H        2.7406524995    0.5262505594   -0.0863830902
H        1.7504038351   -1.6867041926   -0.5108482357
H       -0.7810113571   -1.8765281473   -0.7178120449
H       -2.1897198886    0.3845675945   -0.3457619908
H       -0.8817101224    2.4452684234   -0.4525461454
C       -0.9234387543   -0.6322612024    1.1143788359
H       -1.5853341210   -1.1119383359    1.8204200358
13   
Frame  17 IRC: Energy =  -286.8755060000 ; +0.6213 kcal/mol
C        1.6619936034    0.3959484240   -0.1094812907
C        1.1153383419   -0.8325361447   -0.2884028167
C       -0.3304816145   -1.0631975824   -0.1519895531
C       -1.1718272726    0.3297234580    0.0419716798
C       -0.3514780273    1.5322269409   -0.1765717309
N        0.9374412072    1.5869226747   -0.1417294967
H        2.7393534947    0.5249266056   -0.0761481997
H        1.7488267269   -1.6863389699   -0.5119495948
H       -0.7839396279   -1.8741489272   -0.7241878168
H       -2.1911988447    0.3841835442   -0.3459458404
H       -0.8812363510    2.4439449680   -0.4578440188
C       -0.9209037136   -0.6321131339    1.1115927456
H       -1.5718879224   -1.1095418571    1.8306859333
13   
Frame  18 IRC: Energy =  -286.8754510000 ; +0.6558 kcal/mol
C        1.6613359236    0.3965961756   -0.1081553445
C        1.1147903101   -0.8319861296   -0.2889182116
C       -0.3316370719   -1.0628570806   -0.1530585794
C       -1.1719792721    0.3293428063    0.0418437071
C       -0.3513444770    1.5315681183   -0.1769727163
N        0.9375506802    1.5857837930   -0.1411966794
H        2.7383657341    0.5243381621   -0.0727625533
H        1.7488473922   -1.6870556015   -0.5125505524
H       -0.7849847969   -1.8735454866   -0.7264784213
H       -2.1919377852    0.3840695401   -0.3461216228
H       -0.8816857109    2.4444409967   -0.4599011468
C       -0.9205708038   -0.6323888597    1.1107806351
H       -1.5667501223   -1.1083064340    1.8334914855
13   
Frame  19 IRC: Energy =  -286.8753200000 ; +0.7380 kcal/mol
C        1.6600854425    0.3947423583   -0.1050550357
C        1.1137281321   -0.8331086518   -0.2902219342
C       -0.3325644098   -1.0630535375   -0.1572322681
C       -1.1733364057    0.3298852634    0.0406142295
C       -0.3528989208    1.5323114563   -0.1784539985
N        0.9360602274    1.5859443100   -0.1399198335
H        2.7371362801    0.5232137809   -0.0645217916
H        1.7475539585   -1.6867483815   -0.5134596036
H       -0.7872625067   -1.8715801877   -0.7316394784
H       -2.1930738232    0.3838228682   -0.3463756021
H       -0.8811979268    2.4431794679   -0.4641403766
C       -0.9186898711   -0.6323590910    1.1084944762
H       -1.5555401765   -1.1062496557    1.8419112165
13   
Frame  20 IRC: Energy =  -286.8752600000 ; +0.7757 kcal/mol
C        1.6591422233    0.3951240145   -0.1037312490
C        1.1132733262   -0.8325139475   -0.2907120985
C       -0.3337915406   -1.0625795132   -0.1581161403
C       -1.1734177806    0.3293276706    0.0406608091
C       -0.3529864971    1.5315697741   -0.1788440797
N        0.9363617762    1.5849641499   -0.1393456830
H        2.7362967416    0.5226562930   -0.0611354759
H        1.7475546594   -1.6874261675   -0.5140715414
H       -0.7882979523   -1.8710328238   -0.7339962519
H       -2.1938706098    0.3837538016   -0.3466243656
H       -0.8816140208    2.4436911006   -0.4662127013
C       -0.9183285800   -0.6325203501    1.1073093362
H       -1.5503217454   -1.1050140022    1.8448194413
13   
Frame  21 IRC: Energy =  -286.8751480000 ; +0.8460 kcal/mol
C        1.6583946907    0.3939076992   -0.1012112678
C        1.1122313214   -0.8337199394   -0.2917489614
C       -0.3342732895   -1.0628110489   -0.1616189636
C       -1.1745586899    0.3300605796    0.0394471483
C       -0.3538426224    1.5321467297   -0.1799346297
N        0.9347148198    1.5850047966   -0.1383003957
H        2.7351706867    0.5217218348   -0.0546676305
H        1.7464698987   -1.6870870262   -0.5147616970
H       -0.7900377978   -1.8694576449   -0.7380399887
H       -2.1947447942    0.3835871769   -0.3468517798
H       -0.8811972021    2.4426346535   -0.4695736906
C       -0.9170024365   -0.6326392075    1.1056749571
H       -1.5413245848   -1.1033486034    1.8515868992
13   
Frame  22 IRC: Energy =  -286.8750810000 ; +0.8880 kcal/mol
C        1.6574096337    0.3938141911   -0.0998007662
C        1.1118604646   -0.8330687416   -0.2923086011
C       -0.3356732054   -1.0624194116   -0.1626191291
C       -1.1748215052    0.3293452378    0.0395456528
C       -0.3544135183    1.5316375099   -0.1804768213
N        0.9350880057    1.5842622880   -0.1376532108
H        2.7343550021    0.5211676887   -0.0511341478
H        1.7464297790   -1.6876925013   -0.5153891545
H       -0.7909926194   -1.8687390137   -0.7403979258
H       -2.1953143186    0.3835540385   -0.3470275701
H       -0.8814276975    2.4429290804   -0.4716869981
C       -0.9168490828   -0.6328397042    1.1043955017
H       -1.5356509378   -1.1019506619    1.8545531705
13   
Frame  23 IRC: Energy =  -286.8744300000 ; +1.2965 kcal/mol
C        1.6519112028    0.3903278818   -0.0866547528
C        1.1071695276   -0.8354730647   -0.2956173300
C       -0.3406713066   -1.0630353159   -0.1764971096
C       -1.1803584610    0.3310855521    0.0364055469
C       -0.3580797556    1.5315719945   -0.1847711029
N        0.9306587418    1.5814185261   -0.1317619165
H        2.7279766723    0.5162954962   -0.0207354416
H        1.7429592092   -1.6879595308   -0.5197360098
H       -0.7982689051   -1.8625917118   -0.7619811487
H       -2.2016750988    0.3857627877   -0.3487170553
H       -0.8805598004    2.4400348649   -0.4906068555
C       -0.9139985881   -0.6347876864    1.0941527532
H       -1.4870634380   -1.0926497935    1.8865204228
13   
Frame  24 IRC: Energy =  -286.8743660000 ; +1.3367 kcal/mol
C        1.6513027017    0.3897145673   -0.0857925956
C        1.1069509779   -0.8364628821   -0.2960483100
C       -0.3402164851   -1.0623901741   -0.1772033911
C       -1.1790951521    0.3313242991    0.0366672117
C       -0.3580803492    1.5322841780   -0.1853893865
N        0.9291252904    1.5815004655   -0.1313129982
H        2.7279693770    0.5159857834   -0.0186510710
H        1.7423598701   -1.6874542062   -0.5198841982
H       -0.7990417541   -1.8627128062   -0.7637768461
H       -2.2033116279    0.3859927483   -0.3492470473
H       -0.8801337192    2.4392441916   -0.4917127487
C       -0.9143389760   -0.6352092769    1.0939974975
H       -1.4834901535   -1.0918168878    1.8883538835
13   
Frame  25 IRC: Energy =  -286.8737090000 ; +1.7489 kcal/mol
C        1.6465280013    0.3874124209   -0.0736065816
C        1.1026730778   -0.8370511509   -0.2978149976
C       -0.3458284932   -1.0639964843   -0.1886980247
C       -1.1863853645    0.3330038496    0.0350975878
C       -0.3614731995    1.5308317129   -0.1885992746
N        0.9272705978    1.5782517602   -0.1263421724
H        2.7214707361    0.5116842861    0.0079169835
H        1.7400439515   -1.6880489337   -0.5245089779
H       -0.8042023960   -1.8567416208   -0.7823638350
H       -2.2079625138    0.3898623674   -0.3482571856
H       -0.8793315661    2.4366892782   -0.5109553797
C       -0.9143510100   -0.6381813767    1.0832735486
H       -1.4384518215   -1.0837161089    1.9148583092
13   
Frame  26 IRC: Energy =  -286.8736020000 ; +1.8161 kcal/mol
C        1.6453313373    0.3865486283   -0.0719605503
C        1.1022394585   -0.8378279084   -0.2982504539
C       -0.3457011320   -1.0633828129   -0.1899971477
C       -1.1855140374    0.3333908135    0.0354292070
C       -0.3620630429    1.5313756578   -0.1894573369
N        0.9260567616    1.5780418786   -0.1255808300
H        2.7211168085    0.5111244748    0.0117274292
H        1.7393453932   -1.6876041499   -0.5250238429
H       -0.8052828386   -1.8565647184   -0.7854280735
H       -2.2100202874    0.3905429003   -0.3485614158
H       -0.8788052860    2.4356584193   -0.5135058725
C       -0.9149006742   -0.6389309315    1.0824231345
H       -1.4318024605   -1.0823722516    1.9181857528
13   
Frame  27 IRC: Energy =  -286.8728280000 ; +2.3018 kcal/mol
C        1.6404180487    0.3842238838   -0.0585489688
C        1.0977337163   -0.8386953199   -0.2998303676
C       -0.3508475849   -1.0650693404   -0.2014957483
C       -1.1926620675    0.3364281225    0.0361480776
C       -0.3650887159    1.5301715561   -0.1935427617
N        0.9237045130    1.5747497601   -0.1212736119
H        2.7141918983    0.5066361638    0.0412003371
H        1.7366595568   -1.6872056786   -0.5310984217
H       -0.8107368660   -1.8502303153   -0.8043051309
H       -2.2161218101    0.3964058373   -0.3432707207
H       -0.8771595665    2.4310971067   -0.5375256961
C       -0.9165325296   -0.6433408025    1.0713342181
H       -1.3835585926   -1.0751709735    1.9422087950
13   
Frame  28 IRC: Energy =  -286.8727190000 ; +2.3702 kcal/mol
C        1.6391258656    0.3835126527   -0.0570120901
C        1.0972816366   -0.8394241727   -0.3002328020
C       -0.3505326058   -1.0642327966   -0.2023610232
C       -1.1916021005    0.3368721705    0.0368160266
C       -0.3655666977    1.5304799202   -0.1943727555
N        0.9226955003    1.5745427589   -0.1207227588
H        2.7139685740    0.5061539953    0.0448500978
H        1.7360269279   -1.6867133874   -0.5317249606
H       -0.8118128025   -1.8502116898   -0.8070890586
H       -2.2182475960    0.3972337603   -0.3430314840
H       -0.8766590763    2.4300760212   -0.5403342701
C       -0.9172457920   -0.6442217047    1.0706615950
H       -1.3774318336   -1.0740675278    1.9445534835
13   
Frame  29 IRC: Energy =  -286.8719120000 ; +2.8766 kcal/mol
C        1.6344234389    0.3814795920   -0.0434244538
C        1.0928862639   -0.8397228607   -0.3025251184
C       -0.3553262813   -1.0656573778   -0.2134623698
C       -1.1981152791    0.3408949747    0.0397761489
C       -0.3682370808    1.5294206759   -0.1998483879
N        0.9207865906    1.5714037138   -0.1178896664
H        2.7064096322    0.5016328091    0.0772980564
H        1.7331469723   -1.6856365892   -0.5397425957
H       -0.8182251391   -1.8432049231   -0.8236858715
H       -2.2245237374    0.4034199567   -0.3318651044
H       -0.8744934280    2.4237939820   -0.5682856705
C       -0.9173611301   -0.6484231353    1.0610067672
H       -1.3313708221   -1.0694008180    1.9626482660
13   
Frame  30 IRC: Energy =  -286.8718000000 ; +2.9469 kcal/mol
C        1.6329568083    0.3807673970   -0.0419971510
C        1.0924944698   -0.8404024268   -0.3030310663
C       -0.3548677932   -1.0646629291   -0.2141229625
C       -1.1967728407    0.3413884040    0.0407594090
C       -0.3688122536    1.5297203229   -0.2008509270
N        0.9199864868    1.5712548399   -0.1175366491
H        2.7062883573    0.5011959862    0.0811512377
H        1.7324885925   -1.6850482427   -0.5405521564
H       -0.8194269659   -1.8431978758   -0.8261255404
H       -2.2267239219    0.4042406266   -0.3309924283
H       -0.8739336640    2.4225984798   -0.5713816854
C       -0.9178627724   -0.6492368790    1.0606066660
H       -1.3258145031   -1.0686177031    1.9640732536
13   
Frame  31 IRC: Energy =  -286.8709650000 ; +3.4708 kcal/mol
C        1.6285690900    0.3791360796   -0.0288177902
C        1.0882455256   -0.8401256554   -0.3069738765
C       -0.3593360016   -1.0652512648   -0.2247812957
C       -1.2020724926    0.3457858094    0.0450638936
C       -0.3707866706    1.5287533656   -0.2078194280
N        0.9182510411    1.5683739617   -0.1162597630
H        2.6976861193    0.4965270887    0.1167125998
H        1.7294926375   -1.6835910901   -0.5505772051
H       -0.8273463151   -1.8358221398   -0.8394720503
H       -2.2325035489    0.4092550842   -0.3147723809
H       -0.8716711223    2.4153758225   -0.6015756634
C       -0.9137683609   -0.6516692728    1.0534528385
H       -1.2847599015   -1.0667477889    1.9758201212
13   
Frame  32 IRC: Energy =  -286.8708340000 ; +3.5530 kcal/mol
C        1.6267601850    0.3783926391   -0.0273121994
C        1.0878060043   -0.8408386364   -0.3077676789
C       -0.3587883613   -1.0640698772   -0.2255058183
C       -1.2005093064    0.3464186527    0.0462582400
C       -0.3714094014    1.5290081507   -0.2091223027
N        0.9175044431    1.5682540732   -0.1160730706
H        2.6975333382    0.4960314503    0.1215442288
H        1.7287307403   -1.6828791500   -0.5517570000
H       -0.8288853177   -1.8356941063   -0.8417545807
H       -2.2348267813    0.4100025778   -0.3130681902
H       -0.8710496539    2.4139449417   -0.6053633904
C       -0.9136389912   -0.6522883817    1.0532285767
H       -1.2792268977   -1.0662823340    1.9766931857
13   
Frame  33 IRC: Energy =  -286.8699370000 ; +4.1159 kcal/mol
C        1.6226324546    0.3769453375   -0.0150530610
C        1.0838567746   -0.8399362198   -0.3136220629
C       -0.3630498985   -1.0637422700   -0.2358083912
C       -1.2042735377    0.3504877580    0.0508586304
C       -0.3729512176    1.5283239594   -0.2173340751
N        0.9159087646    1.5656981406   -0.1160609828
H        2.6874981272    0.4910821071    0.1594836308
H        1.7257343923   -1.6813130180   -0.5633766995
H       -0.8381014383   -1.8285654434   -0.8516628701
H       -2.2396632301    0.4130407916   -0.2938719398
H       -0.8689197781    2.4065552092   -0.6354161602
C       -0.9047053805   -0.6522962487    1.0486021027
H       -1.2439660326   -1.0662801034    1.9832618786
13   
Frame  34 IRC: Energy =  -286.8697570000 ; +4.2289 kcal/mol
C        1.6201660366    0.3763391159   -0.0133088745
C        1.0833545393   -0.8408376433   -0.3149864486
C       -0.3624998910   -1.0622206479   -0.2367782297
C       -1.2026252926    0.3513364051    0.0521354295
C       -0.3733828722    1.5283072106   -0.2190102482
N        0.9151212138    1.5655091067   -0.1160631902
H        2.6870852613    0.4903812984    0.1662174494
H        1.7247669959   -1.6804157960   -0.5651868388
H       -0.8402318253   -1.8282796497   -0.8539147427
H       -2.2420627418    0.4136043546   -0.2909966880
H       -0.8683118307    2.4049597252   -0.6403780890
C       -0.9034913246   -0.6526244586    1.0485611352
H       -1.2378882685   -1.0660590211    1.9837093355
13   
Frame  35 IRC: Energy =  -286.8687610000 ; +4.8539 kcal/mol
C        1.6165080875    0.3747108370   -0.0022265028
C        1.0796227920   -0.8392643861   -0.3224686521
C       -0.3665823198   -1.0612744630   -0.2468491210
C       -1.2047485672    0.3546096256    0.0562406238
C       -0.3748874675    1.5282621685   -0.2280997414
N        0.9135539972    1.5633909249   -0.1169473179
H        2.6753387167    0.4850372188    0.2054068074
H        1.7219606761   -1.6789561309   -0.5778362936
H       -0.8501057327   -1.8219359869   -0.8606303790
H       -2.2457711156    0.4145457459   -0.2707945564
H       -0.8663870667    2.3979920441   -0.6683466833
C       -0.8905858918   -0.6503934417    1.0457769834
H       -1.2079161084   -1.0667241562    1.9867748330
13   
Frame  36 IRC: Energy =  -286.8685090000 ; +5.0120 kcal/mol
C        1.6130891285    0.3743393489   -0.0003783272
C        1.0793580543   -0.8403909867   -0.3245827488
C       -0.3663026759   -1.0594621686   -0.2481688425
C       -1.2031253994    0.3555898823    0.0574073499
C       -0.3750924384    1.5278813750   -0.2301110087
N        0.9128781715    1.5630741435   -0.1171537616
H        2.6745157275    0.4840354637    0.2143537603
H        1.7207255893   -1.6778186441   -0.5803675015
H       -0.8528115603   -1.8215268329   -0.8626423329
H       -2.2479965993    0.4147337729   -0.2667281809
H       -0.8658862683    2.3964299155   -0.6743459291
C       -0.8879866469   -0.6502563625    1.0459136333
H       -1.2013650827   -1.0666289069    1.9868038898
13   
Frame  37 IRC: Energy =  -286.8673900000 ; +5.7142 kcal/mol
C        1.6100810931    0.3723631690    0.0095559432
C        1.0755094016   -0.8382016648   -0.3332271060
C       -0.3699241602   -1.0580467671   -0.2579005504
C       -1.2036439780    0.3579347521    0.0606221247
C       -0.3766699429    1.5285614615   -0.2396920743
N        0.9111735819    1.5614425132   -0.1186517420
H        2.6609310297    0.4782377854    0.2536517945
H        1.7183273869   -1.6765944908   -0.5935258485
H       -0.8627715772   -1.8163875252   -0.8667152444
H       -2.2506405893    0.4138459299   -0.2468498287
H       -0.8641638163    2.3902887370   -0.6991865653
C       -0.8724698199   -0.6464223722    1.0442555846
H       -1.1757386094   -1.0670215280    1.9876635125
13   
Frame  38 IRC: Energy =  -286.8670190000 ; +5.9470 kcal/mol
C        1.6056529186    0.3722442019    0.0115879659
C        1.0756966753   -0.8395158170   -0.3363803031
C       -0.3702352013   -1.0560823331   -0.2598812165
C       -1.2021095290    0.3589663324    0.0616044616
C       -0.3766279820    1.5279036979   -0.2422103690
N        0.9105979439    1.5609260767   -0.1190936885
H        2.6590898493    0.4766951065    0.2656766275
H        1.7167435225   -1.6751316507   -0.5970620616
H       -0.8661282551   -1.8158119728   -0.8683342313
H       -2.2525245315    0.4134866580   -0.2413106665
H       -0.8637845699    2.3888079075   -0.7064075414
C       -0.8680666620   -0.6456147218    1.0444771533
H       -1.1683041786   -1.0668734856    1.9873338695
13   