
Running Job 1 of 1 irc_product.in
qchem irc_product.in_39414.0 ./irc_product.d/ 1
/home/leeping/opt/qchem/5.0.2-openmp/exe/qcprog.exe_s irc_product.in_39414.0 ./irc_product.d/
Check license passed

                  Welcome to Q-Chem
     A Quantum Leap Into The Future Of Chemistry


 Q-Chem 5.0, Q-Chem, Inc., Pleasanton, CA (2017)

 Yihan Shao,  Zhengting Gan,  E. Epifanovsky,  A. T. B. Gilbert,  M. Wormit,  
 J. Kussmann,  A. W. Lange,  A. Behn,  Jia Deng,  Xintian Feng,  D. Ghosh,  
 M. Goldey,  P. R. Horn,  L. D. Jacobson,  I. Kaliman,  T. Kus,  A. Landau,  
 Jie Liu,  E. I. Proynov,  R. M. Richard,  R. P. Steele,  E. J. Sundstrom,  
 H. L. Woodcock III,  P. M. Zimmerman,  D. Zuev,  B. Albrecht,  E. Alguire,  
 S. A. Baeppler,  D. Barton,  Z. Benda,  Y. A. Bernard,  E. J. Berquist,  
 K. B. Bravaya,  H. Burton,  D. Casanova,  Chun-Min Chang,  Yunqing Chen,  
 A. Chien,  K. D. Closser,  M. P. Coons,  S. Dasgupta,  A. L. Dempwolff,  
 M. Diedenhofen,  Hainam Do,  R. G. Edgar,  Po-Tung Fang,  S. Fatehi,  
 Qingguo Feng,  J. Fosso-Tande,  Qinghui Ge,  A. Ghysels,  G. Gidofalvi,  
 J. Gomes,  J. Gonthier,  A. Gunina,  M. W. D. Hanson-Heine,  
 P. H. P. Harbach,  A. W. Hauser,  J. E. Herr,  E. G. Hohenstein,  
 Z. C. Holden,  Kerwin Hui,  T.-C. Jagau,  Hyunjun Ji,  B. Kaduk,  
 K. Khistyaev,  Jaehoon Kim,  P. Klunzinger,  K. Koh,  D. Kosenkov,  
 L. Koulias,  T. Kowalczyk,  C. M. Krauter,  A. Kunitsa,  Ka Un Lao,  
 A. Laurent,  K. V. Lawler,  Joonho Lee,  D. Lefrancois,  S. Lehtola,  
 D. S. Levine,  Yi-Pei Li,  You-Sheng Lin,  Fenglai Liu,  E. Livshits,  
 A. Luenser,  P. Manohar,  E. Mansoor,  S. F. Manzer,  Shan-Ping Mao,  
 Yuezhi Mao,  N. Mardirossian,  A. V. Marenich,  T. Markovich,  
 L. A. Martinez-Martinez,  S. A. Maurer,  N. J. Mayhall,  S. C. McKenzie,  
 J.-M. Mewes,  A. F. Morrison,  J. W. Mullinax,  K. Nanda,  
 T. S. Nguyen-Beck,  R. Olivares-Amaya,  J. A. Parkhill,  T. M. Perrine,  
 F. Plasser,  S. Prager,  A. Prociuk,  E. Ramos,  D. R. Rehn,  F. Rob,  
 M. Schneider,  N. Sergueev,  S. M. Sharada,  S. Sharma,  D. W. Small,  
 T. Stauch,  T. Stein,  Yu-Chuan Su,  A. J. W. Thom,  A. Tkatchenko,  
 T. Tsuchimochi,  L. Vogt,  O. Vydrov,  M. A. Watson,  J. Wenzel,  
 M. de Wergifosse,  T. A. Wesolowski,  A. White,  J. Witte,  A. Yamada,  
 Jun Yang,  K. Yao,  S. Yeganeh,  S. R. Yost,  Zhi-Qiang You,  A. Zech,  
 Igor Ying Zhang,  Xing Zhang,  Yan Zhao,  Ying Zhu,  B. R. Brooks,  
 G. K. L. Chan,  C. J. Cramer,  M. S. Gordon,  W. J. Hehre,  A. Klamt,  
 M. W. Schmidt,  C. D. Sherrill,  D. G. Truhlar,  A. Aspuru-Guzik,  R. Baer,  
 A. T. Bell,  N. A. Besley,  Jeng-Da Chai,  R. A. DiStasio Jr.,  A. Dreuw,  
 B. D. Dunietz,  T. R. Furlani,  Chao-Ping Hsu,  Yousung Jung,  Jing Kong,  
 D. S. Lambrecht,  WanZhen Liang,  C. Ochsenfeld,  V. A. Rassolov,  
 L. V. Slipchenko,  J. E. Subotnik,  T. Van Voorhis,  J. M. Herbert,  
 A. I. Krylov,  P. M. W. Gill,  M. Head-Gordon

 Contributors to earlier versions of Q-Chem not listed above: 
 R. D. Adamson,  B. Austin,  J. Baker,  G. J. O. Beran,  K. Brandhorst,  
 S. T. Brown,  E. F. C. Byrd,  A. K. Chakraborty,  C.-L. Cheng,  
 Siu Hung Chien,  D. M. Chipman,  D. L. Crittenden,  H. Dachsel,  
 R. J. Doerksen,  A. D. Dutoi,  L. Fusti-Molnar,  W. A. Goddard III,  
 A. Golubeva-Zadorozhnaya,  S. R. Gwaltney,  G. Hawkins,  A. Heyden,  
 S. Hirata,  G. Kedziora,  F. J. Keil,  C. Kelley,  Jihan Kim,  R. A. King,  
 R. Z. Khaliullin,  P. P. Korambath,  W. Kurlancheek,  A. M. Lee,  M. S. Lee,  
 S. V. Levchenko,  Ching Yeh Lin,  D. Liotard,  R. C. Lochan,  I. Lotan,  
 P. E. Maslen,  N. Nair,  D. P. O'Neill,  D. Neuhauser,  E. Neuscamman,  
 C. M. Oana,  R. Olson,  B. Peters,  R. Peverati,  P. A. Pieniazek,  
 Y. M. Rhee,  J. Ritchie,  M. A. Rohrdanz,  E. Rosta,  N. J. Russ,  
 H. F. Schaefer III,  N. E. Schultz,  N. Shenvi,  A. C. Simmonett,  A. Sodt,  
 D. Stuck,  K. S. Thanthiriwatte,  V. Vanovschi,  Tao Wang,  A. Warshel,  
 C. F. Williams,  Q. Wu,  X. Xu,  W. Zhang

 Please cite Q-Chem as follows:
 Y. Shao et al., Mol. Phys. 113, 184-215 (2015)
 DOI: 10.1080/00268976.2014.952696

 Q-Chem 5.0.2 for Intel X86 EM64T Linux

 Parts of Q-Chem use Armadillo 5.200.1 (Boston Tea Smuggler).
 http://arma.sourceforge.net/

 Q-Chem begins on Wed Mar  2 09:35:59 2022  

Host: 
0

     Scratch files written to ./irc_product.d//
 Dec517 15110_ 26548  26544 5633   
Processing $rem in /home/leeping/opt/qchem/5.0.2-openmp/config/preferences.
 MEM_STATIC 2000
 MEM_TOTAL  8000
 SYMMETRY   OFF
 SYM_IGNORE TRUE 

Checking the input file for inconsistencies... 	...done.

--------------------------------------------------------------
User input:
--------------------------------------------------------------
$molecule
0 2
C        1.1290306652    0.2003782706    0.4389300968
C        1.0271923875   -0.8095820377   -0.7114818623
C       -0.4106860712   -1.0260874292   -0.4658438804
C       -1.1190603794    0.3115164347   -0.0600503210
C       -0.3880110979    1.5620825015   -0.4196008795
N        0.8558930538    1.5497692232   -0.1109381476
H        2.0070494255    0.1809600550    1.0836372157
H        1.7391646816   -1.6044900340   -0.8984335998
H       -1.0227048808   -1.8670319411   -0.7725431337
H       -2.2005938284    0.2669609232    0.0116614918
H       -0.8431084263    2.4113473388   -0.9266710514
C       -0.2473240822   -0.3909763680    0.9295544276
H       -0.5268414475   -0.7848469369    1.9017796439
$end

$rem
method                b3lyp
basis                 6-31+g(d,p)
unrestricted          true
symmetry              off
sym_ignore            true
incdft                false
incfock               0
scf_convergence       8
thresh                14
jobtype               sp
scf_guess             core
scf_guess_mix         5
scf_algorithm         diis
max_scf_cycles        100
$end

--------------------------------------------------------------
 ----------------------------------------------------------------
             Standard Nuclear Orientation (Angstroms)
    I     Atom           X                Y                Z
 ----------------------------------------------------------------
    1      C       1.1290306652     0.2003782706     0.4389300968
    2      C       1.0271923875    -0.8095820377    -0.7114818623
    3      C      -0.4106860712    -1.0260874292    -0.4658438804
    4      C      -1.1190603794     0.3115164347    -0.0600503210
    5      C      -0.3880110979     1.5620825015    -0.4196008795
    6      N       0.8558930538     1.5497692232    -0.1109381476
    7      H       2.0070494255     0.1809600550     1.0836372157
    8      H       1.7391646816    -1.6044900340    -0.8984335998
    9      H      -1.0227048808    -1.8670319411    -0.7725431337
   10      H      -2.2005938284     0.2669609232     0.0116614918
   11      H      -0.8431084263     2.4113473388    -0.9266710514
   12      C      -0.2473240822    -0.3909763680     0.9295544276
   13      H      -0.5268414475    -0.7848469369     1.9017796439
 ----------------------------------------------------------------
 Nuclear Repulsion Energy =   281.6811172376 hartrees
 There are       25 alpha and       24 beta electrons
 Requested basis set is 6-31+G(d,p)
 There are 53 shells and 163 basis functions

 Total QAlloc Memory Limit   8000 MB
 Mega-Array Size      1956 MB
 MEM_STATIC part      2000 MB

                       Distance Matrix (Angstroms)
             C (  1)   C (  2)   C (  3)   C (  4)   C (  5)   N (  6)
   C (  2)  1.534222
   C (  3)  2.166463  1.474689
   C (  4)  2.305482  2.507514  1.567050
   C (  5)  2.211952  2.777191  2.588682  1.492523
   N (  6)  1.482503  2.440601  2.892269  2.331588  1.281687
   H (  7)  1.089468  2.272388  3.115012  3.331310  3.146989  2.150770
   H (  8)  2.327736  1.083390  2.267938  3.541669  3.844651  3.368927
   H (  9)  3.220531  2.307381  1.084352  2.294124  3.505172  3.954919
   H ( 10)  3.357587  3.478575  2.259149  1.084824  2.269093  3.317038
   H ( 11)  3.262297  3.730780  3.495041  2.288334  1.088800  2.072280
   C ( 12)  1.576314  2.119581  1.541814  1.494235  2.377909  2.462967
   H ( 13)  2.419196  3.040521  2.382715  2.324115  3.303961  3.378375
             H (  7)   H (  8)   H (  9)   H ( 10)   H ( 11)   C ( 12)
   H (  8)  2.681082
   H (  9)  4.101108  2.777175
   H ( 10)  4.342901  4.455592  2.560532
   H ( 11)  4.139972  4.774503  4.284920  2.705851
   C ( 12)  2.330891  2.959779  2.382665  2.256252  3.413730
   H ( 13)  2.832445  3.694292  2.927287  2.735013  4.279698  1.085581

 
 A cutoff of  1.0D-14 yielded   1401 shell pairs
 There are     13507 function pairs
 
 -------------------------------------------------------
 OpenMP Integral Computing Module                       
 Release: version 1.0, May 2013, Q-Chem Inc. Pittsburgh 
 -------------------------------------------------------
 Integral Job Info:
 Integral job number is                      11
 Integral operator is                         1
 short-range coefficients                     0
 long-range coefficients              100000000
 Omega coefficients                           0
 if combine SR and LR in K                    0
 Integral screening is                        0
 Integral computing path is                   2
 max size of driver memory is            800000
 size of driver memory is                593474
 size of scratch memory is              2361544
 max col of scratch BK array               1296
 max len of scratch array in speh3          155
 max len of scratch index in speh4           18
 max int batch size is                      520
 min int batch size is                       52
 fixed nKL is                                52
 max L of basis functions is                  2
 order of int derivative is                   0
 number of shells is                         53
 number of basis is                         163
 number of cartesian basis is               163
 number of contracted shell pairs          1401
 number of primitive shell pairs           4828
 maxK2 (contraction) of shell pair           36
 max number of K2 of shell pair               1
 max number of CS2 of shell pair            126
 max number of PS2 of shell pair            708
 mem total for path MDJ                  535308
 -------------------------------------------------------
 Smallest overlap matrix eigenvalue = 2.07E-05

 Scale SEOQF with 1.000000e-01/1.000000e-01/1.000000e-01

 Standard Electronic Orientation quadrupole field applied
 Nucleus-field energy     =     0.0000000035 hartrees
 Guess MOs from core Hamiltonian diagonalization
 Mixing HOMO and LUMO in initial guess
 Adding  50% of the LUMO to the HOMO
 An unrestricted hybrid HF-DFT SCF calculation will be
 performed using Pulay DIIS extrapolation
 Exchange:     0.2000 Hartree-Fock + 0.0800 Slater + 0.7200 B88
 Correlation:  0.1900 VWN1RPA + 0.8100 LYP
 Using SG-1 standard quadrature grid
 SCF converges when DIIS error is below 1.0E-08
 using 4 threads for integral computing
 -------------------------------------------------------
 OpenMP Integral computing Module                
 Release: version 1.0, May 2013, Q-Chem Inc. Pittsburgh 
 -------------------------------------------------------
 -------------------------------------------------------
 OpenMP BLAS3 based DFT computing Module                
 Release: version 1.0, May 2013, Q-Chem Inc. Pittsburgh 
 -------------------------------------------------------
 ---------------------------------------
  Cycle       Energy         DIIS Error
 ---------------------------------------
    1    -236.4518107139      9.80E-02
    2    -214.6835464394      7.25E-02
    3    -265.5449452514      6.34E-02
    4    -267.1157386992      6.29E-02
    5    -279.3520005649      4.09E-02
    6    -284.2322916177      2.38E-02
    7    -286.0245828500      1.34E-02
    8    -286.6636823380      7.02E-03
    9    -286.8166527374      3.16E-03
   10    -286.8444000899      1.84E-03
   11    -286.8559443827      6.30E-04
   12    -286.8572784134      1.86E-04
   13    -286.8575117778      4.83E-05
   14    -286.8575591486      3.28E-05
   15    -286.8575763820      6.47E-06
   16    -286.8575820554      1.85E-06
   17    -286.8575847658      7.00E-07
   18    -286.8575856469      3.58E-07
   19    -286.8575862341      1.75E-07
   20    -286.8575865412      8.91E-08
   21    -286.8575866315      2.15E-08
   22    -286.8575866329      5.82E-09 Convergence criterion met
 ---------------------------------------
 <S^2> = 0.7546
 SCF time:  CPU 114.22 s  wall 59.75 s
 SCF   energy in the final basis set = -286.85758663
 Total energy in the final basis set = -286.85758663
 
 --------------------------------------------------------------
 
                    Orbital Energies (a.u.)
 --------------------------------------------------------------
 
 Alpha MOs
 -- Occupied --
-14.332 -10.231 -10.231 -10.226 -10.223 -10.222 -10.206  -0.976
 -0.869  -0.757  -0.667  -0.617  -0.584  -0.548  -0.520  -0.473
 -0.438  -0.422  -0.399  -0.375  -0.339  -0.326  -0.277  -0.268
 -0.183
 -- Virtual --
 -0.022  -0.001   0.017   0.019   0.026   0.045   0.050   0.062
  0.069   0.074   0.086   0.097   0.102   0.107   0.112   0.115
  0.120   0.131   0.150   0.163   0.165   0.173   0.179   0.183
  0.189   0.199   0.210   0.213   0.225   0.238   0.247   0.258
  0.264   0.272   0.284   0.294   0.303   0.315   0.328   0.338
  0.357   0.389   0.433   0.453   0.616   0.638   0.664   0.676
  0.700   0.721   0.732   0.744   0.748   0.755   0.779   0.795
  0.801   0.835   0.860   0.886   0.910   0.919   0.955   0.976
  0.985   1.028   1.031   1.065   1.073   1.119   1.144   1.167
  1.202   1.250   1.287   1.355   1.405   1.428   1.472   1.538
  1.559   1.594   1.639   1.665   1.747   1.765   1.822   1.836
  1.887   1.918   1.950   1.986   2.014   2.054   2.093   2.141
  2.166   2.202   2.261   2.302   2.339   2.357   2.365   2.379
  2.397   2.415   2.447   2.477   2.495   2.504   2.533   2.537
  2.591   2.610   2.642   2.649   2.704   2.734   2.762   2.798
  2.852   2.883   2.979   3.022   3.106   3.272   3.304   3.386
  3.422   3.619   3.675   4.159   4.377   4.455   4.587   4.643
  4.670   4.856
 
 Beta MOs
 -- Occupied --
-14.332 -10.231 -10.231 -10.226 -10.221 -10.221 -10.193  -0.972
 -0.865  -0.747  -0.656  -0.612  -0.580  -0.546  -0.509  -0.470
 -0.434  -0.416  -0.396  -0.371  -0.327  -0.314  -0.274  -0.266
 -- Virtual --
 -0.055  -0.018  -0.001   0.019   0.019   0.026   0.046   0.051
  0.063   0.069   0.079   0.087   0.099   0.102   0.108   0.114
  0.117   0.123   0.133   0.152   0.167   0.167   0.174   0.180
  0.184   0.190   0.201   0.213   0.215   0.229   0.241   0.250
  0.260   0.265   0.274   0.287   0.295   0.308   0.317   0.333
  0.340   0.360   0.391   0.443   0.456   0.619   0.644   0.668
  0.695   0.711   0.725   0.737   0.748   0.753   0.766   0.781
  0.798   0.809   0.839   0.866   0.887   0.913   0.923   0.960
  0.978   0.987   1.030   1.034   1.070   1.077   1.124   1.151
  1.177   1.206   1.256   1.292   1.358   1.409   1.434   1.477
  1.540   1.563   1.604   1.643   1.669   1.750   1.778   1.827
  1.845   1.895   1.924   1.955   1.993   2.024   2.062   2.101
  2.147   2.171   2.214   2.265   2.306   2.346   2.361   2.367
  2.381   2.405   2.419   2.451   2.479   2.497   2.515   2.540
  2.548   2.598   2.615   2.647   2.657   2.708   2.736   2.767
  2.800   2.856   2.886   2.983   3.027   3.108   3.274   3.306
  3.389   3.424   3.621   3.680   4.160   4.385   4.469   4.590
  4.647   4.674   4.861
 --------------------------------------------------------------
 
          Ground-State Mulliken Net Atomic Charges

     Atom                 Charge (a.u.)    Spin (a.u.)
  --------------------------------------------------------
      1 C                    -0.150456      -0.105031
      2 C                    -0.049198       1.026832
      3 C                    -0.177019      -0.078051
      4 C                    -0.085000       0.007293
      5 C                    -0.060556      -0.000876
      6 N                    -0.194053       0.024126
      7 H                     0.134161       0.005414
      8 H                     0.135300      -0.039166
      9 H                     0.141101       0.000030
     10 H                     0.138975       0.002210
     11 H                     0.132675       0.004216
     12 C                    -0.101148       0.144500
     13 H                     0.135217       0.008503
  --------------------------------------------------------
  Sum of atomic charges =     0.000000
  Sum of spin   charges =     1.000000

 -----------------------------------------------------------------
                    Cartesian Multipole Moments
 -----------------------------------------------------------------
    Charge (ESU x 10^10)
                 0.0000
    Dipole Moment (Debye)
         X      -2.1691      Y      -2.1324      Z       0.9831
       Tot       3.1966
    Quadrupole Moments (Debye-Ang)
        XX     -39.9624     XY      -4.3429     YY     -43.2449
        XZ       2.0647     YZ      -0.4382     ZZ     -41.9496
    Octopole Moments (Debye-Ang^2)
       XXX     -16.8600    XXY     -12.8317    XYY     -14.8430
       YYY     -28.2915    XXZ       4.7855    XYZ       3.0074
       YYZ      -2.3400    XZZ      -5.9829    YZZ      -8.0113
       ZZZ      12.8498
    Hexadecapole Moments (Debye-Ang^3)
      XXXX    -243.9911   XXXY     -10.7545   XXYY    -101.2013
      XYYY     -23.0558   YYYY    -330.6029   XXXZ       7.0289
      XXYZ       3.9509   XYYZ       4.4489   YYYZ       0.1378
      XXZZ     -68.1223   XYZZ      -0.5298   YYZZ     -74.9167
      XZZZ       4.9591   YZZZ      -1.9622   ZZZZ    -144.2800
 -----------------------------------------------------------------
Archival summary:
1\1\c8-73\SP\ProcedureUnspecified\6-31+G**\166(2)\hpark21\WedMar209:37:092022WedMar209:37:092022\0\\#,ProcedureUnspecified,6-31+G**,\\0,2\N\C,1,1.28169\H,2,1.0888,1,121.689\C,1,1.4825,2,106.074,3,-174.788,0\H,4,1.08947,1,112.594,2,-157.305,0\C,2,1.49252,1,114.161,3,178.291,0\H,6,1.08482,2,122.592,1,161.926,0\C,6,1.49423,2,105.528,1,17.1983,0\H,8,1.08558,6,127.842,2,129.271,0\C,4,1.53422,1,107.989,2,69.224,0\H,10,1.08339,4,124.665,1,134.597,0\C,10,1.47469,4,92.0899,1,-90.2718,0\H,12,1.08435,10,128.102,4,-159.705,0\\\@

 Total job time:  69.88s(wall), 116.07s(cpu) 
 Wed Mar  2 09:37:09 2022

        *************************************************************
        *                                                           *
        *  Thank you very much for using Q-Chem.  Have a nice day.  *
        *                                                           *
        *************************************************************


