
Running Job 1 of 1 qcts1.in
qchem qcts1.in_11507.0 ./qcts1.d/ 1
/home/leeping/opt/qchem/5.0.2-openmp/exe/qcprog.exe_s qcts1.in_11507.0 ./qcts1.d/
Check license passed

                  Welcome to Q-Chem
     A Quantum Leap Into The Future Of Chemistry


 Q-Chem 5.0, Q-Chem, Inc., Pleasanton, CA (2017)

 Yihan Shao,  Zhengting Gan,  E. Epifanovsky,  A. T. B. Gilbert,  M. Wormit,  
 J. Kussmann,  A. W. Lange,  A. Behn,  Jia Deng,  Xintian Feng,  D. Ghosh,  
 M. Goldey,  P. R. Horn,  L. D. Jacobson,  I. Kaliman,  T. Kus,  A. Landau,  
 Jie Liu,  E. I. Proynov,  R. M. Richard,  R. P. Steele,  E. J. Sundstrom,  
 H. L. Woodcock III,  P. M. Zimmerman,  D. Zuev,  B. Albrecht,  E. Alguire,  
 S. A. Baeppler,  D. Barton,  Z. Benda,  Y. A. Bernard,  E. J. Berquist,  
 K. B. Bravaya,  H. Burton,  D. Casanova,  Chun-Min Chang,  Yunqing Chen,  
 A. Chien,  K. D. Closser,  M. P. Coons,  S. Dasgupta,  A. L. Dempwolff,  
 M. Diedenhofen,  Hainam Do,  R. G. Edgar,  Po-Tung Fang,  S. Fatehi,  
 Qingguo Feng,  J. Fosso-Tande,  Qinghui Ge,  A. Ghysels,  G. Gidofalvi,  
 J. Gomes,  J. Gonthier,  A. Gunina,  M. W. D. Hanson-Heine,  
 P. H. P. Harbach,  A. W. Hauser,  J. E. Herr,  E. G. Hohenstein,  
 Z. C. Holden,  Kerwin Hui,  T.-C. Jagau,  Hyunjun Ji,  B. Kaduk,  
 K. Khistyaev,  Jaehoon Kim,  P. Klunzinger,  K. Koh,  D. Kosenkov,  
 L. Koulias,  T. Kowalczyk,  C. M. Krauter,  A. Kunitsa,  Ka Un Lao,  
 A. Laurent,  K. V. Lawler,  Joonho Lee,  D. Lefrancois,  S. Lehtola,  
 D. S. Levine,  Yi-Pei Li,  You-Sheng Lin,  Fenglai Liu,  E. Livshits,  
 A. Luenser,  P. Manohar,  E. Mansoor,  S. F. Manzer,  Shan-Ping Mao,  
 Yuezhi Mao,  N. Mardirossian,  A. V. Marenich,  T. Markovich,  
 L. A. Martinez-Martinez,  S. A. Maurer,  N. J. Mayhall,  S. C. McKenzie,  
 J.-M. Mewes,  A. F. Morrison,  J. W. Mullinax,  K. Nanda,  
 T. S. Nguyen-Beck,  R. Olivares-Amaya,  J. A. Parkhill,  T. M. Perrine,  
 F. Plasser,  S. Prager,  A. Prociuk,  E. Ramos,  D. R. Rehn,  F. Rob,  
 M. Schneider,  N. Sergueev,  S. M. Sharada,  S. Sharma,  D. W. Small,  
 T. Stauch,  T. Stein,  Yu-Chuan Su,  A. J. W. Thom,  A. Tkatchenko,  
 T. Tsuchimochi,  L. Vogt,  O. Vydrov,  M. A. Watson,  J. Wenzel,  
 M. de Wergifosse,  T. A. Wesolowski,  A. White,  J. Witte,  A. Yamada,  
 Jun Yang,  K. Yao,  S. Yeganeh,  S. R. Yost,  Zhi-Qiang You,  A. Zech,  
 Igor Ying Zhang,  Xing Zhang,  Yan Zhao,  Ying Zhu,  B. R. Brooks,  
 G. K. L. Chan,  C. J. Cramer,  M. S. Gordon,  W. J. Hehre,  A. Klamt,  
 M. W. Schmidt,  C. D. Sherrill,  D. G. Truhlar,  A. Aspuru-Guzik,  R. Baer,  
 A. T. Bell,  N. A. Besley,  Jeng-Da Chai,  R. A. DiStasio Jr.,  A. Dreuw,  
 B. D. Dunietz,  T. R. Furlani,  Chao-Ping Hsu,  Yousung Jung,  Jing Kong,  
 D. S. Lambrecht,  WanZhen Liang,  C. Ochsenfeld,  V. A. Rassolov,  
 L. V. Slipchenko,  J. E. Subotnik,  T. Van Voorhis,  J. M. Herbert,  
 A. I. Krylov,  P. M. W. Gill,  M. Head-Gordon

 Contributors to earlier versions of Q-Chem not listed above: 
 R. D. Adamson,  B. Austin,  J. Baker,  G. J. O. Beran,  K. Brandhorst,  
 S. T. Brown,  E. F. C. Byrd,  A. K. Chakraborty,  C.-L. Cheng,  
 Siu Hung Chien,  D. M. Chipman,  D. L. Crittenden,  H. Dachsel,  
 R. J. Doerksen,  A. D. Dutoi,  L. Fusti-Molnar,  W. A. Goddard III,  
 A. Golubeva-Zadorozhnaya,  S. R. Gwaltney,  G. Hawkins,  A. Heyden,  
 S. Hirata,  G. Kedziora,  F. J. Keil,  C. Kelley,  Jihan Kim,  R. A. King,  
 R. Z. Khaliullin,  P. P. Korambath,  W. Kurlancheek,  A. M. Lee,  M. S. Lee,  
 S. V. Levchenko,  Ching Yeh Lin,  D. Liotard,  R. C. Lochan,  I. Lotan,  
 P. E. Maslen,  N. Nair,  D. P. O'Neill,  D. Neuhauser,  E. Neuscamman,  
 C. M. Oana,  R. Olson,  B. Peters,  R. Peverati,  P. A. Pieniazek,  
 Y. M. Rhee,  J. Ritchie,  M. A. Rohrdanz,  E. Rosta,  N. J. Russ,  
 H. F. Schaefer III,  N. E. Schultz,  N. Shenvi,  A. C. Simmonett,  A. Sodt,  
 D. Stuck,  K. S. Thanthiriwatte,  V. Vanovschi,  Tao Wang,  A. Warshel,  
 C. F. Williams,  Q. Wu,  X. Xu,  W. Zhang

 Please cite Q-Chem as follows:
 Y. Shao et al., Mol. Phys. 113, 184-215 (2015)
 DOI: 10.1080/00268976.2014.952696

 Q-Chem 5.0.2 for Intel X86 EM64T Linux

 Parts of Q-Chem use Armadillo 5.200.1 (Boston Tea Smuggler).
 http://arma.sourceforge.net/

 Q-Chem begins on Wed Mar  2 03:10:00 2022  

Host: 
0

     Scratch files written to ./qcts1.d//
 Dec517 15110_ 26548  26544 5633   
Processing $rem in /home/leeping/opt/qchem/5.0.2-openmp/config/preferences.
 MEM_STATIC 2000
 MEM_TOTAL  8000
 SYMMETRY   OFF
 SYM_IGNORE TRUE 

Checking the input file for inconsistencies... 	...done.

--------------------------------------------------------------
User input:
--------------------------------------------------------------
$molecule
0 2
C        1.3666804862    0.2926692517    0.2507176877
C        1.0322188276   -0.8421316946   -0.5780694130
C       -0.3969526543   -1.0249879706   -0.3808636951
C       -1.1287860054    0.3408361157    0.0261340738
C       -0.3903912191    1.5467467748   -0.3769776505
N        0.8744323055    1.5453022386   -0.1601403627
H        2.3229198669    0.3416930346    0.7699811991
H        1.7095049962   -1.6703717282   -0.7558287194
H       -0.9932038677   -1.8218894196   -0.8178528545
H       -2.2159672318    0.3319481360   -0.0335630720
H       -0.8669992837    2.3863184024   -0.8810126839
C       -0.4526338754   -0.4928670327    1.0335573954
H       -0.9065641245   -0.9587048489    1.9072309390
$end

$rem
method                b3lyp
basis                 6-31g(d)
unrestricted          true
symmetry              off
sym_ignore            true
incdft                false
incfock               0
scf_convergence       8
thresh                14
jobtype               sp
scf_guess             read
scf_algorithm         diis
max_scf_cycles        100
$end

--------------------------------------------------------------
 ----------------------------------------------------------------
             Standard Nuclear Orientation (Angstroms)
    I     Atom           X                Y                Z
 ----------------------------------------------------------------
    1      C       1.3666804862     0.2926692517     0.2507176877
    2      C       1.0322188276    -0.8421316946    -0.5780694130
    3      C      -0.3969526543    -1.0249879706    -0.3808636951
    4      C      -1.1287860054     0.3408361157     0.0261340738
    5      C      -0.3903912191     1.5467467748    -0.3769776505
    6      N       0.8744323055     1.5453022386    -0.1601403627
    7      H       2.3229198669     0.3416930346     0.7699811991
    8      H       1.7095049962    -1.6703717282    -0.7558287194
    9      H      -0.9932038677    -1.8218894196    -0.8178528545
   10      H      -2.2159672318     0.3319481360    -0.0335630720
   11      H      -0.8669992837     2.3863184024    -0.8810126839
   12      C      -0.4526338754    -0.4928670327     1.0335573954
   13      H      -0.9065641245    -0.9587048489     1.9072309390
 ----------------------------------------------------------------
 Nuclear Repulsion Energy =   277.0220236299 hartrees
 There are       25 alpha and       24 beta electrons
 Requested basis set is 6-31G(d)
 There are 40 shells and 117 basis functions

 Total QAlloc Memory Limit   8000 MB
 Mega-Array Size      1956 MB
 MEM_STATIC part      2000 MB

                       Distance Matrix (Angstroms)
             C (  1)   C (  2)   C (  3)   C (  4)   C (  5)   N (  6)
   C (  2)  1.444481
   C (  3)  2.290309  1.454255
   C (  4)  2.506015  2.536615  1.602093
   C (  5)  2.248113  2.787651  2.571746  1.470356
   N (  6)  1.407197  2.428868  2.876027  2.344850  1.283277
   H (  7)  1.089234  2.210111  3.254223  3.530946  3.182723  2.100456
   H (  8)  2.232531  1.084572  2.234789  3.565434  3.860433  3.375315
   H (  9)  3.343988  2.262688  1.086981  2.325528  3.450430  3.906230
   H ( 10)  3.594123  3.496522  2.295802  1.088855  2.219549  3.322472
   H ( 11)  3.263971  3.757884  3.479670  2.252875  1.089076  2.063868
   C ( 12)  2.130683  2.219035  1.512230  1.472122  2.480626  2.709272
   H ( 13)  3.078573  3.154233  2.345096  2.297110  3.429480  3.703515
             H (  7)   H (  8)   H (  9)   H ( 10)   H ( 11)   C ( 12)
   H (  8)  2.598611
   H (  9)  4.266027  2.707663
   H ( 10)  4.609477  4.465455  2.597937
   H ( 11)  4.133020  4.807367  4.210574  2.599677
   C ( 12)  2.910268  3.043561  2.342272  2.220002  3.482382
   H ( 13)  3.662504  3.800286  2.859838  2.673388  4.354888  1.089203

 
 A cutoff of  1.0D-14 yielded    811 shell pairs
 There are      7083 function pairs
 
 -------------------------------------------------------
 OpenMP Integral Computing Module                       
 Release: version 1.0, May 2013, Q-Chem Inc. Pittsburgh 
 -------------------------------------------------------
 Integral Job Info:
 Integral job number is                      11
 Integral operator is                         1
 short-range coefficients                     0
 long-range coefficients              100000000
 Omega coefficients                           0
 if combine SR and LR in K                    0
 Integral screening is                        0
 Integral computing path is                   2
 max size of driver memory is            800000
 size of driver memory is                593474
 size of scratch memory is              2361544
 max col of scratch BK array               1296
 max len of scratch array in speh3          155
 max len of scratch index in speh4           18
 max int batch size is                      520
 min int batch size is                       52
 fixed nKL is                                52
 max L of basis functions is                  2
 order of int derivative is                   0
 number of shells is                         40
 number of basis is                         117
 number of cartesian basis is               117
 number of contracted shell pairs           811
 number of primitive shell pairs           3571
 maxK2 (contraction) of shell pair           36
 max number of K2 of shell pair               1
 max number of CS2 of shell pair             84
 max number of PS2 of shell pair            384
 mem total for path MDJ                  535308
 -------------------------------------------------------
 Smallest overlap matrix eigenvalue = 1.51E-03

 Scale SEOQF with 1.000000e-01/1.000000e-01/1.000000e-01

 Standard Electronic Orientation quadrupole field applied
 Nucleus-field energy     =     0.0000000040 hartrees
 Guess MOs from SCF MO coefficient file
 Reading MOs from coefficient file
 Reading MOs from coefficient file
 An unrestricted hybrid HF-DFT SCF calculation will be
 performed using Pulay DIIS extrapolation
 Exchange:     0.2000 Hartree-Fock + 0.0800 Slater + 0.7200 B88
 Correlation:  0.1900 VWN1RPA + 0.8100 LYP
 Using SG-1 standard quadrature grid
 SCF converges when DIIS error is below 1.0E-08
Using Q-Chem read-in guess as SCF_GUESS READ specified.

 using 4 threads for integral computing
 -------------------------------------------------------
 OpenMP Integral computing Module                
 Release: version 1.0, May 2013, Q-Chem Inc. Pittsburgh 
 -------------------------------------------------------
 -------------------------------------------------------
 OpenMP BLAS3 based DFT computing Module                
 Release: version 1.0, May 2013, Q-Chem Inc. Pittsburgh 
 -------------------------------------------------------
 ---------------------------------------
  Cycle       Energy         DIIS Error
 ---------------------------------------
    1    -286.8056467592      2.58E-09
    2    -286.8056467591      3.67E-09 Convergence criterion met
 ---------------------------------------
 <S^2> = 0.7888
 SCF time:  CPU 5.26 s  wall 4.69 s
 SCF   energy in the final basis set = -286.80564676
 Total energy in the final basis set = -286.80564676
 
 --------------------------------------------------------------
 
                    Orbital Energies (a.u.)
 --------------------------------------------------------------
 
 Alpha MOs
 -- Occupied --
-14.327 -10.233 -10.226 -10.215 -10.212 -10.207 -10.197  -0.953
 -0.860  -0.761  -0.654  -0.623  -0.569  -0.534  -0.503  -0.467
 -0.445  -0.421  -0.405  -0.359  -0.339  -0.280  -0.273  -0.245
 -0.170
 -- Virtual --
 -0.030   0.030   0.093   0.135   0.142   0.150   0.158   0.165
  0.175   0.215   0.236   0.257   0.295   0.331   0.368   0.399
  0.485   0.516   0.524   0.557   0.572   0.576   0.586   0.605
  0.614   0.623   0.661   0.676   0.700   0.710   0.779   0.813
  0.818   0.821   0.847   0.859   0.861   0.875   0.908   0.932
  0.955   1.032   1.069   1.091   1.124   1.211   1.233   1.311
  1.404   1.415   1.436   1.508   1.596   1.628   1.678   1.721
  1.801   1.815   1.858   1.898   1.910   1.946   1.996   2.023
  2.072   2.139   2.179   2.204   2.255   2.267   2.326   2.360
  2.423   2.480   2.497   2.512   2.558   2.604   2.629   2.685
  2.729   2.790   2.836   2.942   3.042   3.951   4.127   4.239
  4.327   4.446   4.460   4.559
 
 Beta MOs
 -- Occupied --
-14.327 -10.235 -10.226 -10.216 -10.212 -10.197 -10.187  -0.951
 -0.852  -0.752  -0.644  -0.622  -0.559  -0.531  -0.495  -0.462
 -0.442  -0.418  -0.396  -0.357  -0.321  -0.281  -0.271  -0.227
 -- Virtual --
 -0.049  -0.013   0.031   0.097   0.141   0.143   0.153   0.161
  0.169   0.181   0.217   0.241   0.261   0.302   0.335   0.374
  0.403   0.491   0.523   0.534   0.560   0.576   0.583   0.593
  0.613   0.625   0.635   0.666   0.684   0.706   0.713   0.783
  0.818   0.819   0.824   0.848   0.862   0.865   0.882   0.912
  0.937   0.958   1.042   1.076   1.099   1.129   1.217   1.240
  1.316   1.409   1.423   1.439   1.514   1.600   1.632   1.686
  1.725   1.806   1.828   1.876   1.909   1.920   1.961   2.000
  2.033   2.080   2.148   2.193   2.213   2.257   2.274   2.332
  2.369   2.441   2.486   2.500   2.522   2.562   2.612   2.637
  2.688   2.736   2.798   2.841   2.943   3.043   3.951   4.129
  4.253   4.343   4.447   4.465   4.561
 --------------------------------------------------------------
 
          Ground-State Mulliken Net Atomic Charges

     Atom                 Charge (a.u.)    Spin (a.u.)
  --------------------------------------------------------
      1 C                    -0.062465      -0.177528
      2 C                    -0.047227       0.724831
      3 C                    -0.169369      -0.078115
      4 C                    -0.196374       0.013420
      5 C                     0.112115      -0.032690
      6 N                    -0.340714       0.020501
      7 H                     0.141811       0.011093
      8 H                     0.145771      -0.036019
      9 H                     0.147940       0.001488
     10 H                     0.150868       0.019504
     11 H                     0.147721       0.002608
     12 C                    -0.170227       0.518922
     13 H                     0.140152       0.011985
  --------------------------------------------------------
  Sum of atomic charges =     0.000000
  Sum of spin   charges =     1.000000

 -----------------------------------------------------------------
                    Cartesian Multipole Moments
 -----------------------------------------------------------------
    Charge (ESU x 10^10)
                -0.0000
    Dipole Moment (Debye)
         X      -1.5927      Y      -1.6192      Z      -0.0263
       Tot       2.2714
    Quadrupole Moments (Debye-Ang)
        XX     -37.5718     XY      -3.3481     YY     -41.3013
        XZ       1.0819     YZ      -0.2131     ZZ     -41.5806
    Octopole Moments (Debye-Ang^2)
       XXX     -12.4545    XXY     -10.3379    XYY     -12.3994
       YYY     -24.8795    XXZ       2.9445    XYZ       3.3418
       YYZ      -2.7047    XZZ      -6.3561    YZZ      -7.5231
       ZZZ       4.7663
    Hexadecapole Moments (Debye-Ang^3)
      XXXX    -257.7134   XXXY     -11.3141   XXYY    -100.0311
      XYYY     -24.2679   YYYY    -315.6759   XXXZ      14.6170
      XXYZ       5.2560   XYYZ       6.2451   YYYZ       7.1595
      XXZZ     -66.9270   XYZZ      -0.3951   YYZZ     -69.8778
      XZZZ       7.1848   YZZZ       4.1619   ZZZZ    -124.1795
 -----------------------------------------------------------------
Archival summary:
1\1\c8-73\SP\ProcedureUnspecified\6-31G*\166(2)\hpark21\WedMar203:10:132022WedMar203:10:132022\0\\#,ProcedureUnspecified,6-31G*,\\0,2\N\C,1,1.28328\H,2,1.08908,1,120.691\C,1,1.4072,2,113.273,3,-168.025,0\H,4,1.08923,1,113.968,2,-159.308,0\C,4,1.44448,1,116.795,2,52.2159,0\H,6,1.08457,4,123.325,1,143.909,0\C,6,1.45426,4,104.39,1,-69.3942,0\H,8,1.08698,6,125.222,4,-177.123,0\C,2,1.47036,1,116.597,3,177.008,0\H,10,1.08886,2,119.543,1,173.296,0\C,10,1.47212,2,114.925,1,20.8773,0\H,12,1.0892,10,126.849,2,136.596,0\\\@

 Total job time:  13.60s(wall), 7.05s(cpu) 
 Wed Mar  2 03:10:13 2022

        *************************************************************
        *                                                           *
        *  Thank you very much for using Q-Chem.  Have a nice day.  *
        *                                                           *
        *************************************************************


