
Running Job 1 of 1 qcts2.in
qchem qcts2.in_11987.0 ./qcts2.d/ 1
/home/leeping/opt/qchem/5.0.2-openmp/exe/qcprog.exe_s qcts2.in_11987.0 ./qcts2.d/
Check license passed

                  Welcome to Q-Chem
     A Quantum Leap Into The Future Of Chemistry


 Q-Chem 5.0, Q-Chem, Inc., Pleasanton, CA (2017)

 Yihan Shao,  Zhengting Gan,  E. Epifanovsky,  A. T. B. Gilbert,  M. Wormit,  
 J. Kussmann,  A. W. Lange,  A. Behn,  Jia Deng,  Xintian Feng,  D. Ghosh,  
 M. Goldey,  P. R. Horn,  L. D. Jacobson,  I. Kaliman,  T. Kus,  A. Landau,  
 Jie Liu,  E. I. Proynov,  R. M. Richard,  R. P. Steele,  E. J. Sundstrom,  
 H. L. Woodcock III,  P. M. Zimmerman,  D. Zuev,  B. Albrecht,  E. Alguire,  
 S. A. Baeppler,  D. Barton,  Z. Benda,  Y. A. Bernard,  E. J. Berquist,  
 K. B. Bravaya,  H. Burton,  D. Casanova,  Chun-Min Chang,  Yunqing Chen,  
 A. Chien,  K. D. Closser,  M. P. Coons,  S. Dasgupta,  A. L. Dempwolff,  
 M. Diedenhofen,  Hainam Do,  R. G. Edgar,  Po-Tung Fang,  S. Fatehi,  
 Qingguo Feng,  J. Fosso-Tande,  Qinghui Ge,  A. Ghysels,  G. Gidofalvi,  
 J. Gomes,  J. Gonthier,  A. Gunina,  M. W. D. Hanson-Heine,  
 P. H. P. Harbach,  A. W. Hauser,  J. E. Herr,  E. G. Hohenstein,  
 Z. C. Holden,  Kerwin Hui,  T.-C. Jagau,  Hyunjun Ji,  B. Kaduk,  
 K. Khistyaev,  Jaehoon Kim,  P. Klunzinger,  K. Koh,  D. Kosenkov,  
 L. Koulias,  T. Kowalczyk,  C. M. Krauter,  A. Kunitsa,  Ka Un Lao,  
 A. Laurent,  K. V. Lawler,  Joonho Lee,  D. Lefrancois,  S. Lehtola,  
 D. S. Levine,  Yi-Pei Li,  You-Sheng Lin,  Fenglai Liu,  E. Livshits,  
 A. Luenser,  P. Manohar,  E. Mansoor,  S. F. Manzer,  Shan-Ping Mao,  
 Yuezhi Mao,  N. Mardirossian,  A. V. Marenich,  T. Markovich,  
 L. A. Martinez-Martinez,  S. A. Maurer,  N. J. Mayhall,  S. C. McKenzie,  
 J.-M. Mewes,  A. F. Morrison,  J. W. Mullinax,  K. Nanda,  
 T. S. Nguyen-Beck,  R. Olivares-Amaya,  J. A. Parkhill,  T. M. Perrine,  
 F. Plasser,  S. Prager,  A. Prociuk,  E. Ramos,  D. R. Rehn,  F. Rob,  
 M. Schneider,  N. Sergueev,  S. M. Sharada,  S. Sharma,  D. W. Small,  
 T. Stauch,  T. Stein,  Yu-Chuan Su,  A. J. W. Thom,  A. Tkatchenko,  
 T. Tsuchimochi,  L. Vogt,  O. Vydrov,  M. A. Watson,  J. Wenzel,  
 M. de Wergifosse,  T. A. Wesolowski,  A. White,  J. Witte,  A. Yamada,  
 Jun Yang,  K. Yao,  S. Yeganeh,  S. R. Yost,  Zhi-Qiang You,  A. Zech,  
 Igor Ying Zhang,  Xing Zhang,  Yan Zhao,  Ying Zhu,  B. R. Brooks,  
 G. K. L. Chan,  C. J. Cramer,  M. S. Gordon,  W. J. Hehre,  A. Klamt,  
 M. W. Schmidt,  C. D. Sherrill,  D. G. Truhlar,  A. Aspuru-Guzik,  R. Baer,  
 A. T. Bell,  N. A. Besley,  Jeng-Da Chai,  R. A. DiStasio Jr.,  A. Dreuw,  
 B. D. Dunietz,  T. R. Furlani,  Chao-Ping Hsu,  Yousung Jung,  Jing Kong,  
 D. S. Lambrecht,  WanZhen Liang,  C. Ochsenfeld,  V. A. Rassolov,  
 L. V. Slipchenko,  J. E. Subotnik,  T. Van Voorhis,  J. M. Herbert,  
 A. I. Krylov,  P. M. W. Gill,  M. Head-Gordon

 Contributors to earlier versions of Q-Chem not listed above: 
 R. D. Adamson,  B. Austin,  J. Baker,  G. J. O. Beran,  K. Brandhorst,  
 S. T. Brown,  E. F. C. Byrd,  A. K. Chakraborty,  C.-L. Cheng,  
 Siu Hung Chien,  D. M. Chipman,  D. L. Crittenden,  H. Dachsel,  
 R. J. Doerksen,  A. D. Dutoi,  L. Fusti-Molnar,  W. A. Goddard III,  
 A. Golubeva-Zadorozhnaya,  S. R. Gwaltney,  G. Hawkins,  A. Heyden,  
 S. Hirata,  G. Kedziora,  F. J. Keil,  C. Kelley,  Jihan Kim,  R. A. King,  
 R. Z. Khaliullin,  P. P. Korambath,  W. Kurlancheek,  A. M. Lee,  M. S. Lee,  
 S. V. Levchenko,  Ching Yeh Lin,  D. Liotard,  R. C. Lochan,  I. Lotan,  
 P. E. Maslen,  N. Nair,  D. P. O'Neill,  D. Neuhauser,  E. Neuscamman,  
 C. M. Oana,  R. Olson,  B. Peters,  R. Peverati,  P. A. Pieniazek,  
 Y. M. Rhee,  J. Ritchie,  M. A. Rohrdanz,  E. Rosta,  N. J. Russ,  
 H. F. Schaefer III,  N. E. Schultz,  N. Shenvi,  A. C. Simmonett,  A. Sodt,  
 D. Stuck,  K. S. Thanthiriwatte,  V. Vanovschi,  Tao Wang,  A. Warshel,  
 C. F. Williams,  Q. Wu,  X. Xu,  W. Zhang

 Please cite Q-Chem as follows:
 Y. Shao et al., Mol. Phys. 113, 184-215 (2015)
 DOI: 10.1080/00268976.2014.952696

 Q-Chem 5.0.2 for Intel X86 EM64T Linux

 Parts of Q-Chem use Armadillo 5.200.1 (Boston Tea Smuggler).
 http://arma.sourceforge.net/

 Q-Chem begins on Wed Mar  2 03:16:18 2022  

Host: 
0

     Scratch files written to ./qcts2.d//
 Dec517 15110_ 26548  26544 5633   
Processing $rem in /home/leeping/opt/qchem/5.0.2-openmp/config/preferences.
 MEM_STATIC 2000
 MEM_TOTAL  8000
 SYMMETRY   OFF
 SYM_IGNORE TRUE 

Checking the input file for inconsistencies... 	...done.

--------------------------------------------------------------
User input:
--------------------------------------------------------------
$molecule
0 2
C        1.3666804862    0.2926692517    0.2507176877
C        1.0322188276   -0.8421316946   -0.5780694130
C       -0.3969526543   -1.0249879706   -0.3808636951
C       -1.1287860054    0.3408361157    0.0261340738
C       -0.3903912191    1.5467467748   -0.3769776505
N        0.8744323055    1.5453022386   -0.1601403627
H        2.3229198669    0.3416930346    0.7699811991
H        1.7095049962   -1.6703717282   -0.7558287194
H       -0.9932038677   -1.8218894196   -0.8178528545
H       -2.2159672318    0.3319481360   -0.0335630720
H       -0.8669992837    2.3863184024   -0.8810126839
C       -0.4526338754   -0.4928670327    1.0335573954
H       -0.9065641245   -0.9587048489    1.9072309390
$end

$rem
method                b3lyp
basis                 6-31+g(d,p)
unrestricted          true
symmetry              off
sym_ignore            true
incdft                false
incfock               0
scf_convergence       6
thresh                14
jobtype               sp
scf_guess             read
scf_algorithm         diis
max_scf_cycles        100
stability_analysis    true
max_cis_cycles        100
cis_n_roots           4
$end

--------------------------------------------------------------
 ----------------------------------------------------------------
             Standard Nuclear Orientation (Angstroms)
    I     Atom           X                Y                Z
 ----------------------------------------------------------------
    1      C       1.3666804862     0.2926692517     0.2507176877
    2      C       1.0322188276    -0.8421316946    -0.5780694130
    3      C      -0.3969526543    -1.0249879706    -0.3808636951
    4      C      -1.1287860054     0.3408361157     0.0261340738
    5      C      -0.3903912191     1.5467467748    -0.3769776505
    6      N       0.8744323055     1.5453022386    -0.1601403627
    7      H       2.3229198669     0.3416930346     0.7699811991
    8      H       1.7095049962    -1.6703717282    -0.7558287194
    9      H      -0.9932038677    -1.8218894196    -0.8178528545
   10      H      -2.2159672318     0.3319481360    -0.0335630720
   11      H      -0.8669992837     2.3863184024    -0.8810126839
   12      C      -0.4526338754    -0.4928670327     1.0335573954
   13      H      -0.9065641245    -0.9587048489     1.9072309390
 ----------------------------------------------------------------
 Nuclear Repulsion Energy =   277.0220236299 hartrees
 There are       25 alpha and       24 beta electrons
 Requested basis set is 6-31+G(d,p)
 There are 53 shells and 163 basis functions

 Total QAlloc Memory Limit   8000 MB
 Mega-Array Size      1956 MB
 MEM_STATIC part      2000 MB

                       Distance Matrix (Angstroms)
             C (  1)   C (  2)   C (  3)   C (  4)   C (  5)   N (  6)
   C (  2)  1.444481
   C (  3)  2.290309  1.454255
   C (  4)  2.506015  2.536615  1.602093
   C (  5)  2.248113  2.787651  2.571746  1.470356
   N (  6)  1.407197  2.428868  2.876027  2.344850  1.283277
   H (  7)  1.089234  2.210111  3.254223  3.530946  3.182723  2.100456
   H (  8)  2.232531  1.084572  2.234789  3.565434  3.860433  3.375315
   H (  9)  3.343988  2.262688  1.086981  2.325528  3.450430  3.906230
   H ( 10)  3.594123  3.496522  2.295802  1.088855  2.219549  3.322472
   H ( 11)  3.263971  3.757884  3.479670  2.252875  1.089076  2.063868
   C ( 12)  2.130683  2.219035  1.512230  1.472122  2.480626  2.709272
   H ( 13)  3.078573  3.154233  2.345096  2.297110  3.429480  3.703515
             H (  7)   H (  8)   H (  9)   H ( 10)   H ( 11)   C ( 12)
   H (  8)  2.598611
   H (  9)  4.266027  2.707663
   H ( 10)  4.609477  4.465455  2.597937
   H ( 11)  4.133020  4.807367  4.210574  2.599677
   C ( 12)  2.910268  3.043561  2.342272  2.220002  3.482382
   H ( 13)  3.662504  3.800286  2.859838  2.673388  4.354888  1.089203

 
 A cutoff of  1.0D-14 yielded   1398 shell pairs
 There are     13492 function pairs
 Smallest overlap matrix eigenvalue = 2.80E-05

 Scale SEOQF with 1.000000e-01/1.000000e-01/1.000000e-01

 Standard Electronic Orientation quadrupole field applied
 Nucleus-field energy     =     0.0000000040 hartrees
 Guess MOs from SCF MO coefficient file
 Reading MOs from coefficient file
 Reading MOs from coefficient file
 An unrestricted hybrid HF-DFT SCF calculation will be
 performed using Pulay DIIS extrapolation
 Exchange:     0.2000 Hartree-Fock + 0.0800 Slater + 0.7200 B88
 Correlation:  0.1900 VWN1RPA + 0.8100 LYP
 Using SG-1 standard quadrature grid
 SCF converges when DIIS error is below 1.0E-06
Using Q-Chem read-in guess as SCF_GUESS READ specified.

 -------------------------------------------------------
 OpenMP BLAS3 based DFT computing Module                
 -------------------------------------------------------
 ---------------------------------------
  Cycle       Energy         DIIS Error
 ---------------------------------------
    1    -286.8277089943      1.58E-09
    2    -286.8277089943      1.83E-09 Convergence criterion met
 ---------------------------------------
 <S^2> = 0.7854
 SCF time:  CPU 6.83 s  wall 17.18 s
 SCF   energy in the final basis set = -286.82770899
 Total energy in the final basis set = -286.82770899
 
 Direct TDDFT/TDA calculation will be performed
 Exchange:     0.2000 Hartree-Fock + 0.0800 Slater + 0.7200 B88
 Correlation:  0.1900 VWN1RPA + 0.8100 LYP
 Using SG-1 standard quadrature grid
 CIS energy converged when residual is below 10e- 6
 ---------------------------------------------------
 Iter    Rts Conv    Rts Left    Ttl Dev     Max Dev
 ---------------------------------------------------
   1         0           4      0.003822    0.001494
   2         0           4      0.001190    0.000428
   3         0           4      0.000610    0.000279
   4         0           4      0.000481    0.000210
   5         0           4      0.000606    0.000384
   6         0           4      0.000241    0.000134
   7         1           3      0.000128    0.000074
   8         1           3      0.000041    0.000025
   9         2           2      0.000010    0.000006
  10         3           1      0.000003    0.000002
  11         4           0      0.000002    0.000001    Roots Converged
 ---------------------------------------------------
 
 ---------------------------------------------------
         TDDFT/TDA Excitation Energies              
 ---------------------------------------------------

 Excited state   1: excitation energy (eV) =    2.3806
 Total energy for state  1:                  -286.74022230 au
    <S**2>     :  0.7684
    Trans. Mom.:  0.0946 X  -0.2591 Y  -0.2151 Z
    Strength   :     0.0071354291
    S(  1) --> V(  1) amplitude =  0.9182 alpha
    D( 24) --> S(  1) amplitude =  0.3425 beta

 Excited state   2: excitation energy (eV) =    3.2969
 Total energy for state  2:                  -286.70655043 au
    <S**2>     :  1.3448
    Trans. Mom.: -0.2267 X   0.0495 Y   0.3032 Z
    Strength   :     0.0117752636
    D( 24) --> V(  1) amplitude = -0.3037 alpha
    S(  1) --> V(  1) amplitude = -0.3212 alpha
    S(  1) --> V(  3) amplitude =  0.1886 alpha
    D( 24) --> S(  1) amplitude =  0.7974 beta
    D( 24) --> V(  1) amplitude =  0.2414 beta

 Excited state   3: excitation energy (eV) =    3.9058
 Total energy for state  3:                  -286.68417286 au
    <S**2>     :  1.4161
    Trans. Mom.:  0.0061 X   0.1160 Y  -0.1449 Z
    Strength   :     0.0032987493
    D( 24) --> V(  1) amplitude =  0.4059 alpha
    S(  1) --> V(  2) amplitude =  0.4704 alpha
    S(  1) --> V(  3) amplitude =  0.6352 alpha
    D( 24) --> V(  1) amplitude = -0.3893 beta

 Excited state   4: excitation energy (eV) =    4.0047
 Total energy for state  4:                  -286.68053984 au
    <S**2>     :  1.4917
    Trans. Mom.: -0.2276 X   0.0105 Y   0.3792 Z
    Strength   :     0.0192047346
    D( 24) --> V(  1) amplitude =  0.3666 alpha
    S(  1) --> V(  2) amplitude = -0.4140 alpha
    S(  1) --> V(  3) amplitude = -0.3068 alpha
    D( 24) --> S(  1) amplitude =  0.4184 beta
    D( 24) --> V(  1) amplitude = -0.5643 beta
 
 ---------------------------------------------------

 Stability analysis will be performed
 ---------------------------------------------------
 Iter    Rts Conv    Rts Left    Ttl Dev     Max Dev
 ---------------------------------------------------
   1         0           8      0.004432    0.000684
   2         0           8      0.001560    0.000393
   3         0           8      0.001189    0.000335
   4         1           7      0.001688    0.000738
   5         2           6      0.000905    0.000506
   6         3           5      0.000339    0.000198
   7         3           5      0.000110    0.000064
   8         4           4      0.000033    0.000018
   9         6           2      0.000012    0.000006
  10         7           1      0.000005    0.000002
  11         8           0      0.000003    0.000001    Roots Converged
 UKS-> UKS   stable,    smallest eigenvalue:      0.0722047
 UKS->CUKS   stable,    smallest eigenvalue:      0.0888374
 ---------------------------------------------------
  SETman timing summary (seconds)
  CPU time               211.29s
  System time              0.00s
  Wall time              293.05s
 
 --------------------------------------------------------------
 
                    Orbital Energies (a.u.)
 --------------------------------------------------------------
 
 Alpha MOs
 -- Occupied --
-14.341 -10.244 -10.236 -10.226 -10.223 -10.219 -10.210  -0.966
 -0.872  -0.773  -0.664  -0.634  -0.578  -0.543  -0.511  -0.477
 -0.454  -0.431  -0.415  -0.368  -0.350  -0.292  -0.284  -0.257
 -0.182
 -- Virtual --
 -0.048   0.000   0.008   0.019   0.025   0.029   0.045   0.050
  0.066   0.071   0.072   0.097   0.103   0.104   0.111   0.117
  0.118   0.127   0.136   0.155   0.167   0.178   0.180   0.189
  0.193   0.196   0.200   0.212   0.223   0.243   0.249   0.258
  0.270   0.277   0.288   0.297   0.306   0.321   0.331   0.340
  0.345   0.404   0.433   0.453   0.603   0.651   0.661   0.677
  0.694   0.711   0.728   0.747   0.751   0.760   0.780   0.791
  0.819   0.837   0.867   0.887   0.911   0.932   0.956   0.992
  0.997   1.013   1.027   1.052   1.081   1.119   1.123   1.137
  1.176   1.224   1.261   1.311   1.357   1.405   1.411   1.499
  1.553   1.572   1.654   1.674   1.731   1.788   1.805   1.839
  1.882   1.925   1.971   2.008   2.020   2.062   2.073   2.089
  2.101   2.178   2.213   2.230   2.274   2.343   2.370   2.377
  2.404   2.406   2.460   2.466   2.492   2.516   2.522   2.538
  2.581   2.593   2.634   2.645   2.672   2.725   2.751   2.775
  2.852   2.905   2.981   3.064   3.118   3.261   3.294   3.367
  3.445   3.612   3.648   4.157   4.359   4.425   4.554   4.573
  4.654   4.726
 
 Beta MOs
 -- Occupied --
-14.341 -10.247 -10.237 -10.227 -10.223 -10.210 -10.200  -0.963
 -0.864  -0.763  -0.655  -0.632  -0.569  -0.540  -0.503  -0.472
 -0.451  -0.428  -0.406  -0.366  -0.333  -0.293  -0.282  -0.240
 -- Virtual --
 -0.069  -0.033   0.002   0.009   0.019   0.025   0.032   0.045
  0.051   0.067   0.071   0.076   0.097   0.103   0.106   0.113
  0.117   0.120   0.130   0.138   0.156   0.167   0.179   0.182
  0.192   0.194   0.198   0.205   0.213   0.224   0.245   0.253
  0.260   0.272   0.281   0.290   0.298   0.311   0.325   0.334
  0.346   0.348   0.410   0.437   0.457   0.607   0.657   0.667
  0.680   0.712   0.724   0.730   0.747   0.762   0.767   0.782
  0.792   0.822   0.846   0.871   0.888   0.913   0.938   0.957
  0.995   1.002   1.016   1.029   1.056   1.084   1.125   1.127
  1.143   1.183   1.230   1.267   1.315   1.362   1.409   1.414
  1.506   1.554   1.577   1.659   1.679   1.746   1.796   1.817
  1.845   1.892   1.932   1.977   2.016   2.030   2.067   2.080
  2.098   2.106   2.184   2.221   2.235   2.277   2.345   2.373
  2.381   2.408   2.411   2.465   2.472   2.497   2.522   2.529
  2.545   2.587   2.597   2.643   2.652   2.674   2.729   2.753
  2.783   2.857   2.910   2.986   3.066   3.120   3.265   3.296
  3.370   3.448   3.618   3.651   4.158   4.362   4.439   4.569
  4.574   4.655   4.730
 --------------------------------------------------------------
 
          Ground-State Mulliken Net Atomic Charges

     Atom                 Charge (a.u.)    Spin (a.u.)
  --------------------------------------------------------
      1 C                    -0.131886      -0.198670
      2 C                    -0.004465       0.759836
      3 C                    -0.127077      -0.085329
      4 C                    -0.072779      -0.016189
      5 C                    -0.061831      -0.054306
      6 N                    -0.150692       0.039094
      7 H                     0.127325       0.010343
      8 H                     0.140867      -0.036202
      9 H                     0.140131       0.001218
     10 H                     0.142429       0.020706
     11 H                     0.133887       0.002644
     12 C                    -0.265360       0.544105
     13 H                     0.129451       0.012751
  --------------------------------------------------------
  Sum of atomic charges =    -0.000000
  Sum of spin   charges =     1.000000

 -----------------------------------------------------------------
                    Cartesian Multipole Moments
 -----------------------------------------------------------------
    Charge (ESU x 10^10)
                -0.0000
    Dipole Moment (Debye)
         X      -1.7867      Y      -1.8093      Z       0.1189
       Tot       2.5456
    Quadrupole Moments (Debye-Ang)
        XX     -38.6973     XY      -3.8252     YY     -42.6677
        XZ       1.4087     YZ      -0.2354     ZZ     -43.2354
    Octopole Moments (Debye-Ang^2)
       XXX     -13.7645    XXY     -11.3009    XYY     -13.8478
       YYY     -27.0497    XXZ       3.7716    XYZ       3.6177
       YYZ      -2.8890    XZZ      -7.3698    YZZ      -7.8472
       ZZZ       6.0663
    Hexadecapole Moments (Debye-Ang^3)
      XXXX    -271.3075   XXXY     -13.7385   XXYY    -106.0236
      XYYY     -28.5100   YYYY    -334.3136   XXXZ      17.5862
      XXYZ       5.9069   XYYZ       7.2854   YYYZ       7.0225
      XXZZ     -72.9023   XYZZ      -0.8150   YYZZ     -74.9517
      XZZZ       9.2947   YZZZ       3.7386   ZZZZ    -139.7502
 -----------------------------------------------------------------
Archival summary:
1\1\c8-73\SP\ProcedureUnspecified\6-31+G**\166(2)\hpark21\WedMar203:21:372022WedMar203:21:372022\0\\#,ProcedureUnspecified,6-31+G**,\\0,2\N\C,1,1.28328\H,2,1.08908,1,120.691\C,1,1.4072,2,113.273,3,-168.025,0\H,4,1.08923,1,113.968,2,-159.308,0\C,4,1.44448,1,116.795,2,52.2159,0\H,6,1.08457,4,123.325,1,143.909,0\C,6,1.45426,4,104.39,1,-69.3942,0\H,8,1.08698,6,125.222,4,-177.123,0\C,2,1.47036,1,116.597,3,177.008,0\H,10,1.08886,2,119.543,1,173.296,0\C,10,1.47212,2,114.925,1,20.8773,0\H,12,1.0892,10,126.849,2,136.596,0\\\@

 Total job time:  319.07s(wall), 218.37s(cpu) 
 Wed Mar  2 03:21:37 2022

        *************************************************************
        *                                                           *
        *  Thank you very much for using Q-Chem.  Have a nice day.  *
        *                                                           *
        *************************************************************


