13
image # 1 Energy = -286.85491
C 1.68031   0.39455   -0.17907  
C 1.12635   -0.83480  -0.26739  
C -0.31642  -1.06216  -0.08275  
C -1.15599  0.32831   0.04768   
C -0.32704  1.53238   -0.14909  
N 0.95988   1.58970   -0.16653  
H 2.75718   0.52306   -0.25093  
H 1.74816   -1.69800  -0.49194  
H -0.75807  -1.90171  -0.62277  
H -2.16299  0.39242   -0.36922  
H -0.86699  2.46042   -0.35274  
C -0.95817  -0.61450  1.15131   
H -1.72621  -1.10966  1.73344   
13
image # 2 Energy = -286.85382
C 1.66440   0.38295   -0.14292  
C 1.11765   -0.83572  -0.28224  
C -0.33523  -1.05330  -0.10610  
C -1.15047  0.32300   0.04417   
C -0.33809  1.53493   -0.17146  
N 0.95117   1.58554   -0.16495  
H 2.73933   0.51326   -0.17348  
H 1.74087   -1.70480  -0.51206  
H -0.77649  -1.89538  -0.66860  
H -2.17395  0.38211   -0.34390  
H -0.87421  2.45633   -0.39209  
C -0.91449  -0.59822  1.14493   
H -1.66211  -1.09145  1.77023   
13
image # 3 Energy = -286.85304
C 1.65308   0.38122   -0.11248  
C 1.10424   -0.84668  -0.29697  
C -0.34436  -1.05488  -0.13718  
C -1.15203  0.32841   0.03560   
C -0.34096  1.53361   -0.19133  
N 0.93898   1.58106   -0.16275  
H 2.72280   0.50298   -0.10065  
H 1.73181   -1.70630  -0.52867  
H -0.79185  -1.88162  -0.70330  
H -2.18051  0.37213   -0.31808  
H -0.88181  2.45401   -0.42986  
C -0.88440  -0.59499  1.14892   
H -1.59615  -1.07085  1.79899   
13
image # 4 Energy = -286.85090
C 1.62781   0.36982   -0.09309  
C 1.09179   -0.84298  -0.31101  
C -0.34581  -1.06338  -0.17632  
C -1.15129  0.33626   0.03763   
C -0.36170  1.53380   -0.21723  
N 0.94410   1.57249   -0.15385  
H 2.71763   0.49222   -0.00679  
H 1.71752   -1.70388  -0.54492  
H -0.81460  -1.85487  -0.73117  
H -2.19153  0.36089   -0.28456  
H -0.88921  2.44941   -0.48131  
C -0.85622  -0.60390  1.12219   
H -1.51844  -1.04873  1.84259   
13
image # 5 Energy = -286.84883
C 1.62553   0.36897   -0.06768  
C 1.08164   -0.85460  -0.32775  
C -0.34615  -1.05561  -0.20189  
C -1.15207  0.33027   0.04577   
C -0.35164  1.53655   -0.23401  
N 0.92020   1.57375   -0.15057  
H 2.69812   0.47939   0.07152   
H 1.70741   -1.70124  -0.55889  
H -0.84090  -1.84752  -0.76508  
H -2.20275  0.35319   -0.25756  
H -0.89354  2.44523   -0.52707  
C -0.82333  -0.59413  1.09446   
H -1.45836  -1.03750  1.88091   
13
image # 6 Energy = -286.84728
C 1.62246   0.36392   -0.03764  
C 1.08655   -0.84643  -0.34459  
C -0.36720  -1.04708  -0.22785  
C -1.15491  0.33557   0.03854   
C -0.36912  1.53992   -0.24723  
N 0.92093   1.57205   -0.15016  
H 2.66760   0.46573   0.14908   
H 1.70564   -1.70801  -0.57535  
H -0.86776  -1.84740  -0.80276  
H -2.21039  0.34683   -0.23095  
H -0.89334  2.43575   -0.57268  
C -0.79823  -0.59361  1.10525   
H -1.38415  -1.02152  1.89902   
13
image # 7 Energy = -286.84294
C 1.58149   0.36001   -0.01405  
C 1.07386   -0.83810  -0.36396  
C -0.38497  -1.04529  -0.26010  
C -1.15548  0.33959   0.03539   
C -0.36028  1.53233   -0.25810  
N 0.90872   1.56402   -0.14994  
H 2.65743   0.45411   0.24513   
H 1.70428   -1.71357  -0.59138  
H -0.88948  -1.83078  -0.83212  
H -2.22028  0.34080   -0.19978  
H -0.89612  2.43162   -0.62849  
C -0.76722  -0.59069  1.09461   
H -1.30030  -1.01048  1.92479   
13
image # 8 Energy = -286.83945
C 1.57055   0.35943   0.02005   
C 1.05027   -0.85558  -0.38747  
C -0.39032  -1.04151  -0.29475  
C -1.15246  0.33231   0.03370   
C -0.37937  1.54093   -0.27868  
N 0.91166   1.56119   -0.14909  
H 2.62573   0.44165   0.32394   
H 1.69726   -1.70854  -0.60015  
H -0.90650  -1.81752  -0.85224  
H -2.22486  0.33671   -0.17363  
H -0.89337  2.42172   -0.66707  
C -0.73116  -0.57242  1.08240   
H -1.23045  -1.00760  1.94451   
13
image # 9 Energy = -286.83413
C 1.56195   0.32746   0.04764   
C 1.04647   -0.84873  -0.39824  
C -0.39233  -1.03353  -0.32987  
C -1.15244  0.33223   0.03420   
C -0.38110  1.54491   -0.29989  
N 0.89336   1.56731   -0.15261  
H 2.57593   0.42601   0.39888   
H 1.68620   -1.70176  -0.60662  
H -0.92799  -1.81144  -0.87268  
H -2.22619  0.33253   -0.15003  
H -0.88958  2.41382   -0.70415  
C -0.69718  -0.55123  1.08353   
H -1.15384  -1.01034  1.95161   
13
image # 10 Energy = -286.82781
C 1.52714   0.33914   0.07372   
C 1.04901   -0.85496  -0.41315  
C -0.40949  -1.00687  -0.35528  
C -1.14542  0.32977   0.02773   
C -0.38254  1.53634   -0.31649  
N 0.89466   1.55241   -0.15480  
H 2.52925   0.40618   0.47648   
H 1.67666   -1.70174  -0.61148  
H -0.95017  -1.81295  -0.89076  
H -2.22728  0.32727   -0.12860  
H -0.89052  2.41562   -0.74193  
C -0.65830  -0.52626  1.08871   
H -1.07304  -1.02140  1.94805   
13
image # 11 Energy = -286.82227
C 1.50737   0.33680   0.09717   
C 1.02663   -0.84170  -0.43053  
C -0.41753  -0.99529  -0.37672  
C -1.14963  0.33206   0.03024   
C -0.38634  1.53532   -0.34124  
N 0.88530   1.53756   -0.16258  
H 2.48573   0.38728   0.56465   
H 1.67665   -1.70852  -0.63032  
H -0.95729  -1.78098  -0.91620  
H -2.22475  0.32107   -0.10161  
H -0.88612  2.39916   -0.79101  
C -0.62440  -0.52364  1.08672   
H -0.99432  -1.01891  1.97380   
13
image # 12 Energy = -286.81629
C 1.48747   0.31759   0.12464   
C 1.02965   -0.84866  -0.44869  
C -0.42155  -0.98724  -0.38786  
C -1.14172  0.33059   0.04887   
C -0.39400  1.52739   -0.36247  
N 0.87545   1.53529   -0.17478  
H 2.44751   0.37122   0.64139   
H 1.66369   -1.69429  -0.66003  
H -0.95615  -1.74260  -0.95922  
H -2.22826  0.31023   -0.07300  
H -0.88478  2.37770   -0.84167  
C -0.58976  -0.52572  1.08781   
H -0.94359  -0.99330  2.00767   
13
image # 13 Energy = -286.80814
C 1.46828   0.30858   0.15666   
C 1.02796   -0.85400  -0.44999  
C -0.41613  -0.97548  -0.39149  
C -1.13763  0.31655   0.05553   
C -0.39412  1.51256   -0.37605  
N 0.86982   1.51695   -0.18261  
H 2.43039   0.36402   0.65116   
H 1.66882   -1.68828  -0.69974  
H -0.94032  -1.72406  -1.01480  
H -2.21714  0.29476   -0.05677  
H -0.89443  2.36494   -0.85682  
C -0.54853  -0.50274  1.11930   
H -0.97153  -0.95647  2.04844   
13
image # 14 Energy = -286.79371
C 1.42552   0.28867   0.20563   
C 1.01516   -0.86594  -0.46054  
C -0.41112  -0.96435  -0.46217  
C -1.11497  0.28894   0.03445   
C -0.39665  1.50702   -0.38980  
N 0.86636   1.51202   -0.18337  
H 2.40153   0.35506   0.64916   
H 1.67242   -1.69389  -0.70148  
H -0.93606  -1.75109  -1.01626  
H -2.20288  0.28302   -0.06407  
H -0.90518  2.37812   -0.82487  
C -0.50185  -0.40401  1.18535   
H -0.96326  -0.95784  2.03106   
13
image # 15 Energy = -286.77903
C 1.35774   0.28020   0.27363   
C 0.98204   -0.90753  -0.46853  
C -0.39898  -0.98268  -0.55476  
C -1.09016  0.25734   -0.01075  
C -0.39252  1.52158   -0.38156  
N 0.86943   1.53432   -0.18388  
H 2.39567   0.35479   0.61186   
H 1.67983   -1.71096  -0.67265  
H -0.94018  -1.82247  -0.98745  
H -2.18573  0.27740   -0.08886  
H -0.91363  2.40511   -0.74457  
C -0.47057  -0.25184  1.27260   
H -0.93869  -0.98071  1.93820   
13
image # 16 Energy = -286.77910
C 1.30136   0.27138   0.32848   
C 0.95518   -0.93607  -0.46554  
C -0.39136  -0.99822  -0.62167  
C -1.07596  0.22941   -0.02198  
C -0.39058  1.53323   -0.37765  
N 0.87471   1.54941   -0.18548  
H 2.37235   0.34775   0.61195   
H 1.67964   -1.71825  -0.66219  
H -0.94688  -1.86612  -0.98367  
H -2.17118  0.26844   -0.09546  
H -0.91912  2.41746   -0.70539  
C -0.42673  -0.14411  1.30806   
H -0.90019  -0.97671  1.87319   
13
image # 17 Energy = -286.79332
C 1.26770   0.24908   0.37390   
C 0.93311   -0.94212  -0.45484  
C -0.38468  -1.01302  -0.65049  
C -1.08439  0.22216   -0.00596  
C -0.36905  1.52356   -0.38664  
N 0.84936   1.54060   -0.18932  
H 2.33105   0.33586   0.64985   
H 1.67980   -1.71125  -0.68689  
H -0.94124  -1.84964  -1.03863  
H -2.15876  0.25930   -0.07376  
H -0.92304  2.40596   -0.72780  
C -0.37733  -0.09620  1.30847   
H -0.85466  -0.94375  1.88399   
13
image # 18 Energy = -286.80539
C 1.21861   0.24072   0.42320   
C 0.91972   -0.96329  -0.45602  
C -0.39310  -1.00637  -0.67419  
C -1.05599  0.21233   -0.01780  
C -0.38296  1.50691   -0.38874  
N 0.85814   1.53593   -0.19203  
H 2.29682   0.32646   0.68601   
H 1.67884   -1.70288  -0.70632  
H -0.93983  -1.84417  -1.08358  
H -2.16128  0.25227   -0.05162  
H -0.92496  2.39877   -0.74947  
C -0.33409  -0.06519  1.32548   
H -0.80622  -0.90836  1.88616   
13
image # 19 Energy = -286.81817
C 1.19465   0.22187   0.44917   
C 0.92000   -0.96545  -0.44399  
C -0.40278  -1.00599  -0.67975  
C -1.06942  0.20598   0.01353   
C -0.39653  1.50336   -0.41352  
N 0.85899   1.51549   -0.19189  
H 2.26188   0.31160   0.74787   
H 1.67327   -1.68401  -0.73835  
H -0.93645  -1.80036  -1.16440  
H -2.15759  0.24379   -0.02081  
H -0.91858  2.36507   -0.80301  
C -0.30043  -0.04751  1.31272   
H -0.74825  -0.87862  1.93211   
13
image # 20 Energy = -286.82962
C 1.15629   0.20098   0.47584   
C 0.91641   -0.96162  -0.43786  
C -0.40933  -0.99102  -0.69737  
C -1.05912  0.19724   0.02632   
C -0.39468  1.48285   -0.42469  
N 0.85320   1.50328   -0.19298  
H 2.22020   0.29484   0.80614   
H 1.66989   -1.67397  -0.75991  
H -0.94300  -1.78019  -1.22316  
H -2.15933  0.23313   0.00459   
H -0.91981  2.35283   -0.84626  
C -0.26540  -0.02245  1.31862   
H -0.68151  -0.84853  1.94920   
13
image # 21 Energy = -286.83775
C 1.14578   0.19435   0.50720   
C 0.88915   -0.96172  -0.44392  
C -0.39901  -0.98621  -0.70158  
C -1.06754  0.18781   0.02888   
C -0.40281  1.47581   -0.43891  
N 0.85965   1.49927   -0.20228  
H 2.17295   0.27225   0.87320   
H 1.66931   -1.66373  -0.78253  
H -0.94816  -1.74217  -1.28607  
H -2.16726  0.22107   0.03662   
H -0.91471  2.32686   -0.89491  
C -0.24155  -0.01696  1.32487   
H -0.60679  -0.81647  1.97842   
13
image # 22 Energy = -286.84564
C 1.13220   0.19801   0.51879   
C 0.89903   -0.96880  -0.44809  
C -0.42428  -0.99704  -0.71197  
C -1.08029  0.18281   0.03428   
C -0.39465  1.47336   -0.44814  
N 0.85535   1.49769   -0.21299  
H 2.13605   0.24506   0.95116   
H 1.66126   -1.64717  -0.80177  
H -0.94715  -1.68805  -1.34284  
H -2.17554  0.20523   0.07214   
H -0.90706  2.29378   -0.94499  
C -0.23179  -0.00719  1.31104   
H -0.52983  -0.79507  2.02207   
13
image # 23 Energy = -286.84947
C 1.10836   0.19217   0.52066   
C 0.88429   -0.96928  -0.44572  
C -0.42476  -0.99088  -0.72264  
C -1.07813  0.17754   0.04178   
C -0.39547  1.46592   -0.45680  
N 0.85613   1.49348   -0.21129  
H 2.10103   0.22360   1.01627   
H 1.65926   -1.63844  -0.81677  
H -0.95482  -1.66005  -1.38924  
H -2.17402  0.19050   0.10037   
H -0.90263  2.27137   -0.98113  
C -0.22274  0.01451   1.29874   
H -0.46003  -0.77467  2.04405   
13
image # 24 Energy = -286.85164
C 1.09854   0.18387   0.53745   
C 0.87537   -0.97631  -0.44479  
C -0.43358  -0.98354  -0.74495  
C -1.07696  0.17238   0.04765   
C -0.39648  1.45713   -0.46657  
N 0.85240   1.48762   -0.20641  
H 2.04581   0.20107   1.07440   
H 1.65400   -1.62614  -0.82877  
H -0.96289  -1.63425  -1.43249  
H -2.16403  0.17397   0.12829   
H -0.89937  2.25116   -1.01610  
C -0.21012  0.03399   1.30357   
H -0.38270  -0.74095  2.04872   
