
Running Job 1 of 1 optimize.in
qchem optimize.in_12807.0 ./optimize.d/ 1
/home/leeping/opt/qchem/5.0.2-openmp/exe/qcprog.exe_s optimize.in_12807.0 ./optimize.d/
Check license passed

                  Welcome to Q-Chem
     A Quantum Leap Into The Future Of Chemistry


 Q-Chem 5.0, Q-Chem, Inc., Pleasanton, CA (2017)

 Yihan Shao,  Zhengting Gan,  E. Epifanovsky,  A. T. B. Gilbert,  M. Wormit,  
 J. Kussmann,  A. W. Lange,  A. Behn,  Jia Deng,  Xintian Feng,  D. Ghosh,  
 M. Goldey,  P. R. Horn,  L. D. Jacobson,  I. Kaliman,  T. Kus,  A. Landau,  
 Jie Liu,  E. I. Proynov,  R. M. Richard,  R. P. Steele,  E. J. Sundstrom,  
 H. L. Woodcock III,  P. M. Zimmerman,  D. Zuev,  B. Albrecht,  E. Alguire,  
 S. A. Baeppler,  D. Barton,  Z. Benda,  Y. A. Bernard,  E. J. Berquist,  
 K. B. Bravaya,  H. Burton,  D. Casanova,  Chun-Min Chang,  Yunqing Chen,  
 A. Chien,  K. D. Closser,  M. P. Coons,  S. Dasgupta,  A. L. Dempwolff,  
 M. Diedenhofen,  Hainam Do,  R. G. Edgar,  Po-Tung Fang,  S. Fatehi,  
 Qingguo Feng,  J. Fosso-Tande,  Qinghui Ge,  A. Ghysels,  G. Gidofalvi,  
 J. Gomes,  J. Gonthier,  A. Gunina,  M. W. D. Hanson-Heine,  
 P. H. P. Harbach,  A. W. Hauser,  J. E. Herr,  E. G. Hohenstein,  
 Z. C. Holden,  Kerwin Hui,  T.-C. Jagau,  Hyunjun Ji,  B. Kaduk,  
 K. Khistyaev,  Jaehoon Kim,  P. Klunzinger,  K. Koh,  D. Kosenkov,  
 L. Koulias,  T. Kowalczyk,  C. M. Krauter,  A. Kunitsa,  Ka Un Lao,  
 A. Laurent,  K. V. Lawler,  Joonho Lee,  D. Lefrancois,  S. Lehtola,  
 D. S. Levine,  Yi-Pei Li,  You-Sheng Lin,  Fenglai Liu,  E. Livshits,  
 A. Luenser,  P. Manohar,  E. Mansoor,  S. F. Manzer,  Shan-Ping Mao,  
 Yuezhi Mao,  N. Mardirossian,  A. V. Marenich,  T. Markovich,  
 L. A. Martinez-Martinez,  S. A. Maurer,  N. J. Mayhall,  S. C. McKenzie,  
 J.-M. Mewes,  A. F. Morrison,  J. W. Mullinax,  K. Nanda,  
 T. S. Nguyen-Beck,  R. Olivares-Amaya,  J. A. Parkhill,  T. M. Perrine,  
 F. Plasser,  S. Prager,  A. Prociuk,  E. Ramos,  D. R. Rehn,  F. Rob,  
 M. Schneider,  N. Sergueev,  S. M. Sharada,  S. Sharma,  D. W. Small,  
 T. Stauch,  T. Stein,  Yu-Chuan Su,  A. J. W. Thom,  A. Tkatchenko,  
 T. Tsuchimochi,  L. Vogt,  O. Vydrov,  M. A. Watson,  J. Wenzel,  
 M. de Wergifosse,  T. A. Wesolowski,  A. White,  J. Witte,  A. Yamada,  
 Jun Yang,  K. Yao,  S. Yeganeh,  S. R. Yost,  Zhi-Qiang You,  A. Zech,  
 Igor Ying Zhang,  Xing Zhang,  Yan Zhao,  Ying Zhu,  B. R. Brooks,  
 G. K. L. Chan,  C. J. Cramer,  M. S. Gordon,  W. J. Hehre,  A. Klamt,  
 M. W. Schmidt,  C. D. Sherrill,  D. G. Truhlar,  A. Aspuru-Guzik,  R. Baer,  
 A. T. Bell,  N. A. Besley,  Jeng-Da Chai,  R. A. DiStasio Jr.,  A. Dreuw,  
 B. D. Dunietz,  T. R. Furlani,  Chao-Ping Hsu,  Yousung Jung,  Jing Kong,  
 D. S. Lambrecht,  WanZhen Liang,  C. Ochsenfeld,  V. A. Rassolov,  
 L. V. Slipchenko,  J. E. Subotnik,  T. Van Voorhis,  J. M. Herbert,  
 A. I. Krylov,  P. M. W. Gill,  M. Head-Gordon

 Contributors to earlier versions of Q-Chem not listed above: 
 R. D. Adamson,  B. Austin,  J. Baker,  G. J. O. Beran,  K. Brandhorst,  
 S. T. Brown,  E. F. C. Byrd,  A. K. Chakraborty,  C.-L. Cheng,  
 Siu Hung Chien,  D. M. Chipman,  D. L. Crittenden,  H. Dachsel,  
 R. J. Doerksen,  A. D. Dutoi,  L. Fusti-Molnar,  W. A. Goddard III,  
 A. Golubeva-Zadorozhnaya,  S. R. Gwaltney,  G. Hawkins,  A. Heyden,  
 S. Hirata,  G. Kedziora,  F. J. Keil,  C. Kelley,  Jihan Kim,  R. A. King,  
 R. Z. Khaliullin,  P. P. Korambath,  W. Kurlancheek,  A. M. Lee,  M. S. Lee,  
 S. V. Levchenko,  Ching Yeh Lin,  D. Liotard,  R. C. Lochan,  I. Lotan,  
 P. E. Maslen,  N. Nair,  D. P. O'Neill,  D. Neuhauser,  E. Neuscamman,  
 C. M. Oana,  R. Olson,  B. Peters,  R. Peverati,  P. A. Pieniazek,  
 Y. M. Rhee,  J. Ritchie,  M. A. Rohrdanz,  E. Rosta,  N. J. Russ,  
 H. F. Schaefer III,  N. E. Schultz,  N. Shenvi,  A. C. Simmonett,  A. Sodt,  
 D. Stuck,  K. S. Thanthiriwatte,  V. Vanovschi,  Tao Wang,  A. Warshel,  
 C. F. Williams,  Q. Wu,  X. Xu,  W. Zhang

 Please cite Q-Chem as follows:
 Y. Shao et al., Mol. Phys. 113, 184-215 (2015)
 DOI: 10.1080/00268976.2014.952696

 Q-Chem 5.0.2 for Intel X86 EM64T Linux

 Parts of Q-Chem use Armadillo 5.200.1 (Boston Tea Smuggler).
 http://arma.sourceforge.net/

 Q-Chem begins on Tue Mar  1 23:25:11 2022  

Host: 
0

     Scratch files written to ./optimize.d//
 Dec517 15110_ 26548  26544 5633   
Processing $rem in /home/leeping/opt/qchem/5.0.2-openmp/config/preferences.
 MEM_STATIC 2000
 MEM_TOTAL  8000
 SYMMETRY   OFF
 SYM_IGNORE TRUE 

Checking the input file for inconsistencies... 	...done.

--------------------------------------------------------------
User input:
--------------------------------------------------------------
$molecule
0 2
C        1.5167238018    0.3971141064   -0.4795135170
C        0.8528758001   -0.7816226035    0.1261445954
C       -0.5925401501   -1.0629742414   -0.2531984901
C       -1.1146988188    0.3149714432    0.1132696753
C       -0.4546603066    1.4960375634   -0.4943343640
N        0.8466819037    1.5095803830   -0.7747615121
H        2.5822989295    0.3740000018   -0.6992134275
H        1.4767085912   -1.6490900353    0.3351312672
H       -1.0847949075   -1.9529046960   -0.6199379679
H       -2.1822715549    0.3918113226    0.3128184767
H       -1.0324335230    2.3891447552   -0.7244592174
C       -0.3064872331   -0.5373723251    1.0777413015
H       -0.5074025323   -0.8886956743    2.0803131798
$end

$rem
method                b3lyp
basis                 6-31g(d)
unrestricted          true
symmetry              off
sym_ignore            true
incdft                false
incfock               0
scf_convergence       8
thresh                14
jobtype               opt
scf_guess             read
scf_algorithm         diis
max_scf_cycles        100
geom_opt_tol_gradient 600
geom_opt_tol_displacement 2400
geom_opt_tol_energy   200
geom_opt_max_cycles   100
$end

--------------------------------------------------------------
 ----------------------------------------------------------------
             Standard Nuclear Orientation (Angstroms)
    I     Atom           X                Y                Z
 ----------------------------------------------------------------
    1      C       1.5167238018     0.3971141064    -0.4795135170
    2      C       0.8528758001    -0.7816226035     0.1261445954
    3      C      -0.5925401501    -1.0629742414    -0.2531984901
    4      C      -1.1146988188     0.3149714432     0.1132696753
    5      C      -0.4546603066     1.4960375634    -0.4943343640
    6      N       0.8466819037     1.5095803830    -0.7747615121
    7      H       2.5822989295     0.3740000018    -0.6992134275
    8      H       1.4767085912    -1.6490900353     0.3351312672
    9      H      -1.0847949075    -1.9529046960    -0.6199379679
   10      H      -2.1822715549     0.3918113226     0.3128184767
   11      H      -1.0324335230     2.3891447552    -0.7244592174
   12      C      -0.3064872331    -0.5373723251     1.0777413015
   13      H      -0.5074025323    -0.8886956743     2.0803131798
 ----------------------------------------------------------------
 Nuclear Repulsion Energy =   277.2352844164 hartrees
 There are       25 alpha and       24 beta electrons
 Requested basis set is 6-31G(d)
 There are 40 shells and 117 basis functions

 Total QAlloc Memory Limit   8000 MB
 Mega-Array Size      1956 MB
 MEM_STATIC part      2000 MB
 A cutoff of  1.0D-14 yielded    808 shell pairs
 There are      7080 function pairs
 
 -------------------------------------------------------
 OpenMP Integral Computing Module                       
 Release: version 1.0, May 2013, Q-Chem Inc. Pittsburgh 
 -------------------------------------------------------
 Integral Job Info:
 Integral job number is                      11
 Integral operator is                         1
 short-range coefficients                     0
 long-range coefficients              100000000
 Omega coefficients                           0
 if combine SR and LR in K                    0
 Integral screening is                        0
 Integral computing path is                   2
 max size of driver memory is            800000
 size of driver memory is                593474
 size of scratch memory is              2361544
 max col of scratch BK array               1296
 max len of scratch array in speh3          155
 max len of scratch index in speh4           18
 max int batch size is                      520
 min int batch size is                       52
 fixed nKL is                                52
 max L of basis functions is                  2
 order of int derivative is                   0
 number of shells is                         40
 number of basis is                         117
 number of cartesian basis is               117
 number of contracted shell pairs           808
 number of primitive shell pairs           3556
 maxK2 (contraction) of shell pair           36
 max number of K2 of shell pair               1
 max number of CS2 of shell pair             84
 max number of PS2 of shell pair            366
 mem total for path MDJ                  535308
 -------------------------------------------------------
 Smallest overlap matrix eigenvalue = 1.59E-03

 Scale SEOQF with 1.000000e-01/1.000000e-01/1.000000e-01

 Standard Electronic Orientation quadrupole field applied
 Nucleus-field energy     =     0.0000000036 hartrees
 Guess MOs from SCF MO coefficient file
 Reading MOs from coefficient file
 Reading MOs from coefficient file
 An unrestricted hybrid HF-DFT SCF calculation will be
 performed using Pulay DIIS extrapolation
 Exchange:     0.2000 Hartree-Fock + 0.0800 Slater + 0.7200 B88
 Correlation:  0.1900 VWN1RPA + 0.8100 LYP
 Using SG-1 standard quadrature grid
 SCF converges when DIIS error is below 1.0E-08
Using Q-Chem read-in guess as SCF_GUESS READ specified.

 using 4 threads for integral computing
 -------------------------------------------------------
 OpenMP Integral computing Module                
 Release: version 1.0, May 2013, Q-Chem Inc. Pittsburgh 
 -------------------------------------------------------
 -------------------------------------------------------
 OpenMP BLAS3 based DFT computing Module                
 Release: version 1.0, May 2013, Q-Chem Inc. Pittsburgh 
 -------------------------------------------------------
 ---------------------------------------
  Cycle       Energy         DIIS Error
 ---------------------------------------
    1    -286.8584534010      8.89E-10
    2    -286.8584534010      7.61E-10 Convergence criterion met
 ---------------------------------------
 <S^2> = 0.7737
 SCF time:  CPU 5.27 s  wall 5.53 s
 SCF   energy in the final basis set = -286.85845340
 Total energy in the final basis set = -286.85845340
 
 --------------------------------------------------------------
 
                    Orbital Energies (a.u.)
 --------------------------------------------------------------
 
 Alpha MOs
 -- Occupied --
-14.317 -10.216 -10.216 -10.215 -10.215 -10.215 -10.214  -0.960
 -0.896  -0.750  -0.643  -0.635  -0.589  -0.545  -0.482  -0.471
 -0.465  -0.408  -0.395  -0.365  -0.338  -0.299  -0.299  -0.227
 -0.173
 -- Virtual --
  0.016   0.089   0.114   0.142   0.143   0.153   0.159   0.166
  0.198   0.211   0.232   0.274   0.291   0.304   0.321   0.388
  0.526   0.528   0.540   0.541   0.564   0.589   0.592   0.595
  0.615   0.617   0.632   0.656   0.672   0.735   0.791   0.802
  0.814   0.838   0.854   0.854   0.882   0.888   0.925   0.938
  0.958   0.983   1.144   1.156   1.165   1.198   1.256   1.370
  1.413   1.456   1.489   1.500   1.582   1.616   1.647   1.677
  1.740   1.742   1.861   1.869   1.877   1.916   1.993   2.025
  2.037   2.135   2.160   2.202   2.247   2.287   2.358   2.468
  2.473   2.484   2.526   2.578   2.596   2.609   2.623   2.690
  2.733   2.772   2.804   2.989   3.153   4.017   4.114   4.179
  4.381   4.454   4.461   4.550
 
 Beta MOs
 -- Occupied --
-14.320 -10.216 -10.216 -10.213 -10.213 -10.207 -10.207  -0.956
 -0.894  -0.738  -0.631  -0.630  -0.584  -0.542  -0.476  -0.466
 -0.463  -0.405  -0.377  -0.362  -0.323  -0.298  -0.294  -0.227
 -- Virtual --
 -0.064   0.036   0.091   0.120   0.144   0.144   0.161   0.165
  0.170   0.210   0.213   0.235   0.277   0.300   0.308   0.329
  0.393   0.528   0.534   0.548   0.563   0.567   0.592   0.599
  0.605   0.621   0.639   0.652   0.659   0.678   0.740   0.794
  0.804   0.817   0.842   0.847   0.857   0.883   0.897   0.931
  0.942   0.961   0.992   1.147   1.157   1.168   1.199   1.256
  1.387   1.420   1.456   1.498   1.515   1.583   1.633   1.660
  1.684   1.748   1.750   1.863   1.881   1.886   1.920   1.999
  2.030   2.050   2.143   2.164   2.224   2.256   2.298   2.374
  2.475   2.478   2.496   2.541   2.583   2.597   2.617   2.625
  2.694   2.736   2.776   2.810   2.991   3.157   4.014   4.130
  4.191   4.384   4.460   4.472   4.552
 --------------------------------------------------------------
 
          Ground-State Mulliken Net Atomic Charges

     Atom                 Charge (a.u.)    Spin (a.u.)
  --------------------------------------------------------
      1 C                     0.076713       0.597820
      2 C                    -0.221306      -0.053428
      3 C                    -0.089564       0.094535
      4 C                    -0.221462      -0.053170
      5 C                     0.076763       0.596814
      6 N                    -0.395324      -0.205402
      7 H                     0.135630      -0.032083
      8 H                     0.142105       0.000521
      9 H                     0.154128      -0.004284
     10 H                     0.142110       0.000512
     11 H                     0.135595      -0.032027
     12 C                    -0.089633       0.094470
     13 H                     0.154246      -0.004278
  --------------------------------------------------------
  Sum of atomic charges =     0.000000
  Sum of spin   charges =     1.000000

 -----------------------------------------------------------------
                    Cartesian Multipole Moments
 -----------------------------------------------------------------
    Charge (ESU x 10^10)
                 0.0000
    Dipole Moment (Debye)
         X      -1.3322      Y      -2.3757      Z       1.2171
       Tot       2.9833
    Quadrupole Moments (Debye-Ang)
        XX     -37.5223     XY      -3.3894     YY     -41.6928
        XZ       0.5335     YZ       0.8800     ZZ     -41.7348
    Octopole Moments (Debye-Ang^2)
       XXX      -9.1288    XXY      -9.2145    XYY     -12.1149
       YYY     -28.7876    XXZ       3.1628    XYZ       2.3705
       YYZ       5.9797    XZZ      -6.1434    YZZ     -10.8906
       ZZZ      15.9114
    Hexadecapole Moments (Debye-Ang^3)
      XXXX    -260.0279   XXXY     -16.0454   XXYY     -99.8088
      XYYY     -28.3306   YYYY    -313.3311   XXXZ      20.3943
      XXYZ      17.2062   XYYZ      18.4352   YYYZ      53.0965
      XXZZ     -72.5274   XYZZ      -5.3723   YYZZ     -78.7444
      XZZZ      24.4908   YZZZ      44.8546   ZZZZ    -134.4441
 -----------------------------------------------------------------
 Calculating analytic gradient of the SCF energy
 Gradient of SCF Energy
            1           2           3           4           5           6
    1   0.0001719   0.0000687  -0.0004341   0.0003263   0.0001373  -0.0002136
    2  -0.0000367  -0.0001486   0.0003676  -0.0007517   0.0002623   0.0000026
    3   0.0000899  -0.0001596   0.0002415  -0.0001290  -0.0002959   0.0002833
            7           8           9          10          11          12
    1  -0.0000279  -0.0000288   0.0000659  -0.0000034  -0.0000436  -0.0000471
    2  -0.0000447   0.0000584  -0.0000159  -0.0000055  -0.0000429   0.0005427
    3  -0.0000511   0.0000979  -0.0000513   0.0000535  -0.0000031  -0.0000623
           13
    1   0.0000286
    2  -0.0001877
    3  -0.0000136
 Max gradient component =       7.517E-04
 RMS gradient           =       2.168E-04
 Gradient time:  CPU 7.72 s  wall 3.33 s
 Geometry Optimization Parameters
   NAtoms,    NIC,     NZ,  NCons,   NDum,   NFix, NCnnct, MaxDiis
       13     127       0       0       0       0       0       0


** GEOMETRY OPTIMIZATION IN DELOCALIZED INTERNAL COORDINATES **
   Searching for a Minimum

   Optimization Cycle:   1

                       Coordinates (Angstroms)
     ATOM                X               Y               Z
      1  C         1.5167238018    0.3971141064   -0.4795135170
      2  C         0.8528758001   -0.7816226035    0.1261445954
      3  C        -0.5925401501   -1.0629742414   -0.2531984901
      4  C        -1.1146988188    0.3149714432    0.1132696753
      5  C        -0.4546603066    1.4960375634   -0.4943343640
      6  N         0.8466819037    1.5095803830   -0.7747615121
      7  H         2.5822989295    0.3740000018   -0.6992134275
      8  H         1.4767085912   -1.6490900353    0.3351312672
      9  H        -1.0847949075   -1.9529046960   -0.6199379679
     10  H        -2.1822715549    0.3918113226    0.3128184767
     11  H        -1.0324335230    2.3891447552   -0.7244592174
     12  C        -0.3064872331   -0.5373723251    1.0777413015
     13  H        -0.5074025323   -0.8886956743    2.0803131798
   Point Group: c1    Number of degrees of freedom:    33


   Energy is   -286.858453401


 Attempting to Generate Delocalized Internal Coordinates

 33 Hessian modes will be used to form the next step
  Hessian Eigenvalues:
     0.014031    0.014308    0.016311    0.017764    0.019060    0.019166
     0.019176    0.021057    0.035097    0.043452    0.063991    0.078633
     0.082737    0.094012    0.126455    0.147122    0.160000    0.160000
     0.185122    0.187399    0.234596    0.254300    0.316239    0.317893
     0.342653    0.349543    0.349593    0.350086    0.350176    0.358524
     0.358611    0.534583    0.573169

 Minimum Search - Taking Simple RFO Step
 Searching for Lamda that Minimizes Along All modes
 Value Taken    Lamda =  -0.00000402
 Step Taken.  Stepsize is  0.011240

                             Maximum     Tolerance    Cnvgd?
         Gradient           0.000239      0.000600     YES
         Displacement       0.005825      0.002400      NO
         Energy change     *********      0.000002      NO


 New Cartesian Coordinates Obtained by Inverse Iteration

 Displacement from previous Coordinates is:  0.005839
 ----------------------------------------------------------------
             Standard Nuclear Orientation (Angstroms)
    I     Atom           X                Y                Z
 ----------------------------------------------------------------
    1      C       1.5164190444     0.3969749173    -0.4801375989
    2      C       0.8530152601    -0.7814482013     0.1267439452
    3      C      -0.5920529983    -1.0630808078    -0.2533103490
    4      C      -1.1147839628     0.3153727163     0.1138851944
    5      C      -0.4544957090     1.4960924389    -0.4935647904
    6      N       0.8463932585     1.5089849450    -0.7766554402
    7      H       2.5822572414     0.3744114198    -0.6987412414
    8      H       1.4770254607    -1.6491200282     0.3347019187
    9      H      -1.0843416439    -1.9529140123    -0.6202370557
   10      H      -2.1825201233     0.3921202431     0.3124842415
   11      H      -1.0319885779     2.3893174460    -0.7240124400
   12      C      -0.3068477134    -0.5381335123     1.0780477739
   13      H      -0.5080795364    -0.8885775647     2.0807958417
 ----------------------------------------------------------------
 Nuclear Repulsion Energy =   277.2206057787 hartrees
 There are       25 alpha and       24 beta electrons
 Applying Cartesian multipole field
    Component          Value
    ---------          -----
     (2,0,0)        1.00000E-11
     (0,2,0)        2.00000E-11
     (0,0,2)       -3.00000E-11
 Nucleus-field energy     =     0.0000000036 hartrees
 Requested basis set is 6-31G(d)
 There are 40 shells and 117 basis functions
 A cutoff of  1.0D-14 yielded    808 shell pairs
 There are      7080 function pairs
 Smallest overlap matrix eigenvalue = 1.59E-03
 Guess MOs from SCF MO coefficient file
 Reading MOs from coefficient file
 Reading MOs from coefficient file
 An unrestricted hybrid HF-DFT SCF calculation will be
 performed using Pulay DIIS extrapolation
 Exchange:     0.2000 Hartree-Fock + 0.0800 Slater + 0.7200 B88
 Correlation:  0.1900 VWN1RPA + 0.8100 LYP
 Using SG-1 standard quadrature grid
 SCF converges when DIIS error is below 1.0E-08
 Geometry optimization detected.  Setting ReadMinima to 0
 Setting SaveMinima to 0
Using Q-Chem read-in guess as SCF_GUESS READ specified.

 using 4 threads for integral computing
 -------------------------------------------------------
 OpenMP Integral computing Module                
 Release: version 1.0, May 2013, Q-Chem Inc. Pittsburgh 
 -------------------------------------------------------
 -------------------------------------------------------
 OpenMP BLAS3 based DFT computing Module                
 Release: version 1.0, May 2013, Q-Chem Inc. Pittsburgh 
 -------------------------------------------------------
 ---------------------------------------
  Cycle       Energy         DIIS Error
 ---------------------------------------
    1    -286.8580911697      6.58E-05
    2    -286.8584556196      8.90E-06
    3    -286.8584555984      1.16E-05
    4    -286.8584558293      1.96E-06
    5    -286.8584558364      6.86E-07
    6    -286.8584558374      4.06E-07
    7    -286.8584558378      1.11E-07
    8    -286.8584558379      3.11E-08
    9    -286.8584558379      1.22E-08
   10    -286.8584558379      5.77E-09 Convergence criterion met
 ---------------------------------------
 <S^2> = 0.7737
 SCF time:  CPU 26.19 s  wall 17.93 s
 SCF   energy in the final basis set = -286.85845584
 Total energy in the final basis set = -286.85845584
 
 --------------------------------------------------------------
 
                    Orbital Energies (a.u.)
 --------------------------------------------------------------
 
 Alpha MOs
 -- Occupied --
-14.317 -10.216 -10.216 -10.215 -10.215 -10.215 -10.215  -0.960
 -0.896  -0.750  -0.643  -0.635  -0.589  -0.545  -0.482  -0.471
 -0.465  -0.408  -0.395  -0.365  -0.338  -0.299  -0.299  -0.227
 -0.173
 -- Virtual --
  0.016   0.089   0.114   0.142   0.143   0.153   0.159   0.166
  0.198   0.211   0.231   0.274   0.291   0.304   0.321   0.388
  0.526   0.528   0.540   0.541   0.564   0.589   0.592   0.595
  0.615   0.617   0.632   0.656   0.672   0.735   0.791   0.802
  0.814   0.838   0.854   0.854   0.882   0.888   0.925   0.938
  0.958   0.983   1.144   1.156   1.165   1.197   1.256   1.370
  1.414   1.457   1.489   1.500   1.582   1.616   1.646   1.677
  1.741   1.742   1.860   1.868   1.877   1.916   1.993   2.025
  2.037   2.134   2.160   2.202   2.247   2.287   2.358   2.468
  2.473   2.484   2.526   2.578   2.596   2.609   2.623   2.690
  2.733   2.771   2.804   2.989   3.153   4.017   4.114   4.179
  4.381   4.454   4.461   4.550
 
 Beta MOs
 -- Occupied --
-14.320 -10.216 -10.216 -10.213 -10.213 -10.207 -10.207  -0.955
 -0.894  -0.738  -0.631  -0.630  -0.584  -0.542  -0.476  -0.466
 -0.463  -0.405  -0.377  -0.362  -0.323  -0.298  -0.294  -0.227
 -- Virtual --
 -0.064   0.036   0.091   0.120   0.144   0.144   0.161   0.165
  0.170   0.210   0.213   0.235   0.277   0.300   0.308   0.329
  0.393   0.528   0.534   0.547   0.563   0.566   0.592   0.599
  0.605   0.621   0.639   0.652   0.659   0.678   0.740   0.795
  0.804   0.817   0.842   0.847   0.857   0.883   0.897   0.931
  0.942   0.961   0.992   1.147   1.157   1.168   1.199   1.256
  1.387   1.420   1.457   1.497   1.515   1.583   1.633   1.659
  1.684   1.748   1.750   1.863   1.881   1.886   1.919   1.999
  2.030   2.050   2.143   2.164   2.224   2.256   2.297   2.374
  2.475   2.477   2.497   2.541   2.583   2.597   2.618   2.625
  2.694   2.736   2.776   2.810   2.991   3.157   4.014   4.130
  4.191   4.384   4.459   4.472   4.552
 --------------------------------------------------------------
 
          Ground-State Mulliken Net Atomic Charges

     Atom                 Charge (a.u.)    Spin (a.u.)
  --------------------------------------------------------
      1 C                     0.076666       0.597519
      2 C                    -0.221200      -0.053402
      3 C                    -0.089824       0.094634
      4 C                    -0.221349      -0.053264
      5 C                     0.076677       0.596911
      6 N                    -0.395257      -0.205355
      7 H                     0.135586      -0.032071
      8 H                     0.142133       0.000521
      9 H                     0.154175      -0.004290
     10 H                     0.142157       0.000515
     11 H                     0.135561      -0.032038
     12 C                    -0.089545       0.094605
     13 H                     0.154222      -0.004283
  --------------------------------------------------------
  Sum of atomic charges =    -0.000000
  Sum of spin   charges =     1.000000

 -----------------------------------------------------------------
                    Cartesian Multipole Moments
 -----------------------------------------------------------------
    Charge (ESU x 10^10)
                -0.0000
    Dipole Moment (Debye)
         X      -1.3319      Y      -2.3751      Z       1.2204
       Tot       2.9840
    Quadrupole Moments (Debye-Ang)
        XX     -37.5218     XY      -3.3863     YY     -41.6897
        XZ       0.5358     YZ       0.8866     ZZ     -41.7407
    Octopole Moments (Debye-Ang^2)
       XXX      -9.1289    XXY      -9.2051    XYY     -12.1014
       YYY     -28.7652    XXZ       3.1717    XYZ       2.3751
       YYZ       5.9848    XZZ      -6.1521    YZZ     -10.8960
       ZZZ      15.9335
    Hexadecapole Moments (Debye-Ang^3)
      XXXX    -259.9757   XXXY     -16.0132   XXYY     -99.7892
      XYYY     -28.2839   YYYY    -313.2806   XXXZ      20.4623
      XXYZ      17.2239   XYYZ      18.4559   YYYZ      53.1517
      XXZZ     -72.5539   XYZZ      -5.3697   YYZZ     -78.7842
      XZZZ      24.5503   YZZZ      44.9099   ZZZZ    -134.5692
 -----------------------------------------------------------------
 Calculating analytic gradient of the SCF energy
 Gradient of SCF Energy
            1           2           3           4           5           6
    1   0.0000093   0.0000648  -0.0001840   0.0000802   0.0001589  -0.0001304
    2  -0.0000219  -0.0000842   0.0001465  -0.0003335   0.0001336  -0.0000011
    3   0.0000428  -0.0000235   0.0000461  -0.0001035  -0.0000027  -0.0000167
            7           8           9          10          11          12
    1  -0.0000064  -0.0000025   0.0000535  -0.0000178  -0.0000027  -0.0000338
    2   0.0000126   0.0000045  -0.0000241   0.0000135  -0.0000146   0.0002688
    3   0.0000051   0.0000380  -0.0000127   0.0000026  -0.0000244   0.0000845
           13
    1   0.0000110
    2  -0.0001000
    3  -0.0000355
 Max gradient component =       3.335E-04
 RMS gradient           =       9.593E-05
 Gradient time:  CPU 7.98 s  wall 6.28 s
 Geometry Optimization Parameters
   NAtoms,    NIC,     NZ,  NCons,   NDum,   NFix, NCnnct, MaxDiis
       13     127       0       0       0       0       0       0

 Cartesian Hessian Update
 Hessian Updated using BFGS Update


** GEOMETRY OPTIMIZATION IN DELOCALIZED INTERNAL COORDINATES **
   Searching for a Minimum

   Optimization Cycle:   2

                       Coordinates (Angstroms)
     ATOM                X               Y               Z
      1  C         1.5164190444    0.3969749173   -0.4801375989
      2  C         0.8530152601   -0.7814482013    0.1267439452
      3  C        -0.5920529983   -1.0630808078   -0.2533103490
      4  C        -1.1147839628    0.3153727163    0.1138851944
      5  C        -0.4544957090    1.4960924389   -0.4935647904
      6  N         0.8463932585    1.5089849450   -0.7766554402
      7  H         2.5822572414    0.3744114198   -0.6987412414
      8  H         1.4770254607   -1.6491200282    0.3347019187
      9  H        -1.0843416439   -1.9529140123   -0.6202370557
     10  H        -2.1825201233    0.3921202431    0.3124842415
     11  H        -1.0319885779    2.3893174460   -0.7240124400
     12  C        -0.3068477134   -0.5381335123    1.0780477739
     13  H        -0.5080795364   -0.8885775647    2.0807958417
   Point Group: c1    Number of degrees of freedom:    33


   Energy is   -286.858455838

 Hessian Updated using BFGS Update

 33 Hessian modes will be used to form the next step
  Hessian Eigenvalues:
     0.013078    0.014262    0.014975    0.018081    0.018708    0.019072
     0.020911    0.023167    0.032155    0.043420    0.061460    0.077937
     0.082750    0.094087    0.124041    0.144523    0.159713    0.160985
     0.182531    0.185692    0.236679    0.243703    0.310162    0.318672
     0.342138    0.349444    0.349980    0.350075    0.350156    0.358611
     0.358779    0.533207    0.568072

 Minimum Search - Taking Simple RFO Step
 Searching for Lamda that Minimizes Along All modes
 Value Taken    Lamda =   0.00000000
 Step Taken.  Stepsize is  0.006018

                             Maximum     Tolerance    Cnvgd?
         Gradient           0.000112      0.000600     YES
         Displacement       0.004630      0.002400      NO
         Energy change     -0.000002      0.000002      NO


 New Cartesian Coordinates Obtained by Inverse Iteration

 Displacement from previous Coordinates is:  0.002438
 ----------------------------------------------------------------
             Standard Nuclear Orientation (Angstroms)
    I     Atom           X                Y                Z
 ----------------------------------------------------------------
    1      C       1.5164183686     0.3969743057    -0.4802081639
    2      C       0.8530421787    -0.7814352329     0.1267367795
    3      C      -0.5919084519    -1.0632233583    -0.2534470803
    4      C      -1.1148166787     0.3155826777     0.1141846302
    5      C      -0.4546283552     1.4958427223    -0.4937285977
    6      N       0.8464245457     1.5089281204    -0.7767536661
    7      H       2.5823909621     0.3745154263    -0.6982639386
    8      H       1.4771515077    -1.6491699697     0.3341688286
    9      H      -1.0845208494    -1.9528898549    -0.6203428280
   10      H      -2.1825810583     0.3921989234     0.3124629591
   11      H      -1.0319957914     2.3892264299    -0.7239295890
   12      C      -0.3068939015    -0.5385954565     1.0779950496
   13      H      -0.5080824763    -0.8879547334     2.0811256164
 ----------------------------------------------------------------
 Nuclear Repulsion Energy =   277.2146564942 hartrees
 There are       25 alpha and       24 beta electrons
 Applying Cartesian multipole field
    Component          Value
    ---------          -----
     (2,0,0)        1.00000E-11
     (0,2,0)        2.00000E-11
     (0,0,2)       -3.00000E-11
 Nucleus-field energy     =     0.0000000036 hartrees
 Requested basis set is 6-31G(d)
 There are 40 shells and 117 basis functions
 A cutoff of  1.0D-14 yielded    808 shell pairs
 There are      7080 function pairs
 Smallest overlap matrix eigenvalue = 1.59E-03
 Guess MOs from SCF MO coefficient file
 Reading MOs from coefficient file
 Reading MOs from coefficient file
 An unrestricted hybrid HF-DFT SCF calculation will be
 performed using Pulay DIIS extrapolation
 Exchange:     0.2000 Hartree-Fock + 0.0800 Slater + 0.7200 B88
 Correlation:  0.1900 VWN1RPA + 0.8100 LYP
 Using SG-1 standard quadrature grid
 SCF converges when DIIS error is below 1.0E-08
 Geometry optimization detected.  Setting ReadMinima to 0
 Setting SaveMinima to 0
Using Q-Chem read-in guess as SCF_GUESS READ specified.

 using 4 threads for integral computing
 -------------------------------------------------------
 OpenMP Integral computing Module                
 Release: version 1.0, May 2013, Q-Chem Inc. Pittsburgh 
 -------------------------------------------------------
 -------------------------------------------------------
 OpenMP BLAS3 based DFT computing Module                
 Release: version 1.0, May 2013, Q-Chem Inc. Pittsburgh 
 -------------------------------------------------------
 ---------------------------------------
  Cycle       Energy         DIIS Error
 ---------------------------------------
    1    -286.8583294166      2.27E-05
    2    -286.8584562850      5.23E-06
    3    -286.8584562554      6.92E-06
    4    -286.8584563397      9.81E-07
    5    -286.8584563415      3.37E-07
    6    -286.8584563418      1.10E-07
    7    -286.8584563418      5.41E-08
    8    -286.8584563419      1.77E-08
    9    -286.8584563419      7.23E-09 Convergence criterion met
 ---------------------------------------
 <S^2> = 0.7737
 SCF time:  CPU 23.60 s  wall 18.90 s
 SCF   energy in the final basis set = -286.85845634
 Total energy in the final basis set = -286.85845634
 
 --------------------------------------------------------------
 
                    Orbital Energies (a.u.)
 --------------------------------------------------------------
 
 Alpha MOs
 -- Occupied --
-14.317 -10.216 -10.216 -10.215 -10.215 -10.215 -10.215  -0.960
 -0.896  -0.750  -0.643  -0.635  -0.589  -0.545  -0.482  -0.471
 -0.465  -0.408  -0.395  -0.365  -0.338  -0.299  -0.298  -0.227
 -0.173
 -- Virtual --
  0.016   0.089   0.114   0.142   0.143   0.153   0.159   0.166
  0.198   0.211   0.231   0.274   0.291   0.304   0.321   0.388
  0.526   0.528   0.540   0.541   0.564   0.589   0.592   0.595
  0.615   0.617   0.632   0.656   0.672   0.735   0.791   0.802
  0.814   0.838   0.854   0.854   0.882   0.888   0.925   0.938
  0.958   0.983   1.144   1.156   1.165   1.197   1.256   1.370
  1.414   1.457   1.489   1.500   1.582   1.616   1.646   1.677
  1.741   1.742   1.860   1.868   1.877   1.916   1.993   2.025
  2.037   2.134   2.160   2.202   2.247   2.287   2.358   2.467
  2.473   2.484   2.526   2.578   2.596   2.609   2.623   2.690
  2.733   2.771   2.804   2.989   3.153   4.017   4.114   4.179
  4.381   4.454   4.461   4.550
 
 Beta MOs
 -- Occupied --
-14.320 -10.216 -10.216 -10.213 -10.213 -10.207 -10.207  -0.955
 -0.894  -0.738  -0.631  -0.630  -0.584  -0.542  -0.476  -0.466
 -0.464  -0.405  -0.377  -0.362  -0.323  -0.298  -0.294  -0.227
 -- Virtual --
 -0.064   0.036   0.091   0.120   0.144   0.144   0.161   0.165
  0.170   0.210   0.213   0.235   0.277   0.300   0.308   0.329
  0.393   0.528   0.534   0.547   0.563   0.566   0.592   0.599
  0.605   0.621   0.639   0.652   0.659   0.678   0.740   0.795
  0.804   0.817   0.842   0.847   0.857   0.883   0.897   0.931
  0.942   0.962   0.992   1.147   1.157   1.168   1.199   1.256
  1.387   1.420   1.457   1.497   1.515   1.583   1.633   1.659
  1.684   1.748   1.750   1.863   1.881   1.886   1.919   1.999
  2.030   2.050   2.143   2.164   2.224   2.256   2.297   2.374
  2.475   2.477   2.497   2.541   2.583   2.597   2.618   2.625
  2.694   2.736   2.776   2.810   2.991   3.157   4.014   4.130
  4.191   4.384   4.459   4.472   4.552
 --------------------------------------------------------------
 
          Ground-State Mulliken Net Atomic Charges

     Atom                 Charge (a.u.)    Spin (a.u.)
  --------------------------------------------------------
      1 C                     0.076668       0.597264
      2 C                    -0.221136      -0.053383
      3 C                    -0.090020       0.094755
      4 C                    -0.221259      -0.053323
      5 C                     0.076639       0.597031
      6 N                    -0.395281      -0.205348
      7 H                     0.135576      -0.032059
      8 H                     0.142131       0.000520
      9 H                     0.154195      -0.004296
     10 H                     0.142173       0.000517
     11 H                     0.135555      -0.032046
     12 C                    -0.089444       0.094654
     13 H                     0.154203      -0.004286
  --------------------------------------------------------
  Sum of atomic charges =    -0.000000
  Sum of spin   charges =     1.000000

 -----------------------------------------------------------------
                    Cartesian Multipole Moments
 -----------------------------------------------------------------
    Charge (ESU x 10^10)
                 0.0000
    Dipole Moment (Debye)
         X      -1.3319      Y      -2.3748      Z       1.2215
       Tot       2.9842
    Quadrupole Moments (Debye-Ang)
        XX     -37.5211     XY      -3.3861     YY     -41.6918
        XZ       0.5359     YZ       0.8893     ZZ     -41.7402
    Octopole Moments (Debye-Ang^2)
       XXX      -9.1291    XXY      -9.2022    XYY     -12.1003
       YYY     -28.7544    XXZ       3.1746    XYZ       2.3752
       YYZ       5.9836    XZZ      -6.1539    YZZ     -10.8914
       ZZZ      15.9457
    Hexadecapole Moments (Debye-Ang^3)
      XXXX    -259.9769   XXXY     -16.0075   XXYY     -99.7885
      XYYY     -28.2792   YYYY    -313.2819   XXXZ      20.4721
      XXYZ      17.2282   XYYZ      18.4573   YYYZ      53.1625
      XXZZ     -72.5633   XYZZ      -5.3685   YYZZ     -78.7944
      XZZZ      24.5539   YZZZ      44.9179   ZZZZ    -134.5693
 -----------------------------------------------------------------
 Calculating analytic gradient of the SCF energy
 Gradient of SCF Energy
            1           2           3           4           5           6
    1  -0.0000082   0.0000314  -0.0000306  -0.0000356   0.0000369  -0.0000301
    2  -0.0000344  -0.0000269   0.0000390  -0.0000461  -0.0000030   0.0000183
    3   0.0000013   0.0000366  -0.0000511  -0.0000291  -0.0000195  -0.0000205
            7           8           9          10          11          12
    1   0.0000069   0.0000044   0.0000298  -0.0000044   0.0000012   0.0000020
    2   0.0000094   0.0000014  -0.0000181   0.0000158   0.0000021   0.0000776
    3   0.0000151   0.0000070   0.0000125  -0.0000256  -0.0000091   0.0001028
           13
    1  -0.0000037
    2  -0.0000351
    3  -0.0000205
 Max gradient component =       1.028E-04
 RMS gradient           =       3.125E-05
 Gradient time:  CPU 7.97 s  wall 5.78 s
 Geometry Optimization Parameters
   NAtoms,    NIC,     NZ,  NCons,   NDum,   NFix, NCnnct, MaxDiis
       13     127       0       0       0       0       0       0

 Cartesian Hessian Update
 Hessian Updated using BFGS Update


** GEOMETRY OPTIMIZATION IN DELOCALIZED INTERNAL COORDINATES **
   Searching for a Minimum

   Optimization Cycle:   3

                       Coordinates (Angstroms)
     ATOM                X               Y               Z
      1  C         1.5164183686    0.3969743057   -0.4802081639
      2  C         0.8530421787   -0.7814352329    0.1267367795
      3  C        -0.5919084519   -1.0632233583   -0.2534470803
      4  C        -1.1148166787    0.3155826777    0.1141846302
      5  C        -0.4546283552    1.4958427223   -0.4937285977
      6  N         0.8464245457    1.5089281204   -0.7767536661
      7  H         2.5823909621    0.3745154263   -0.6982639386
      8  H         1.4771515077   -1.6491699697    0.3341688286
      9  H        -1.0845208494   -1.9528898549   -0.6203428280
     10  H        -2.1825810583    0.3921989234    0.3124629591
     11  H        -1.0319957914    2.3892264299   -0.7239295890
     12  C        -0.3068939015   -0.5385954565    1.0779950496
     13  H        -0.5080824763   -0.8879547334    2.0811256164
   Point Group: c1    Number of degrees of freedom:    33


   Energy is   -286.858456342

 Hessian Updated using BFGS Update

 33 Hessian modes will be used to form the next step
  Hessian Eigenvalues:
     0.011071    0.014498    0.014618    0.018047    0.018240    0.019084
     0.021010    0.022547    0.033482    0.043429    0.057325    0.077713
     0.082677    0.094338    0.124478    0.145343    0.159528    0.160862
     0.179109    0.186647    0.236354    0.247603    0.312013    0.323709
     0.341832    0.349501    0.349894    0.350120    0.350309    0.358624
     0.358797    0.534372    0.563348

 Minimum Search - Taking Simple RFO Step
 Searching for Lamda that Minimizes Along All modes
 Value Taken    Lamda =   0.00000000
 Step Taken.  Stepsize is  0.003104

                             Maximum     Tolerance    Cnvgd?
         Gradient           0.000036      0.000600     YES
         Displacement       0.001798      0.002400     YES
         Energy change     -0.000001      0.000002     YES


                       Distance Matrix (Angstroms)
             C (  1)   C (  2)   C (  3)   C (  4)   C (  5)   N (  6)
   C (  2)  1.482262
   C (  3)  2.574614  1.520469
   C (  4)  2.698764  2.253014  1.519767
   C (  5)  2.256706  2.698328  2.573985  1.482707
   N (  6)  1.331643  2.462134  2.993095  2.462582  1.331545
   H (  7)  1.088279  2.237743  3.512995  3.785880  3.243871  2.075243
   H (  8)  2.202603  1.088809  2.229268  3.259900  3.782630  3.406692
   H (  9)  3.508046  2.384237  1.081104  2.384621  3.508070  3.967014
   H ( 10)  3.782981  3.259896  2.229069  1.088717  2.203133  3.407103
   H ( 11)  3.243899  3.785511  3.512042  2.238145  1.088338  2.075133
   C ( 12)  2.574443  1.519643  1.459180  1.520293  2.575088  2.993758
   H ( 13)  3.508572  2.384039  2.342643  2.384426  3.509305  3.968276
             H (  7)   H (  8)   H (  9)   H ( 10)   H ( 11)   C ( 12)
   H (  8)  2.526415
   H (  9)  4.343861  2.750546
   H ( 10)  4.871020  4.190621  2.752327
   H ( 11)  4.138056  4.870733  4.343669  2.527068
   C ( 12)  3.512383  2.229231  2.342922  2.229489  3.513523
   H ( 13)  4.343946  2.751810  2.960456  2.751528  4.345427  1.081110

 
 Final energy is   -286.858456341861     


 ******************************
 **  OPTIMIZATION CONVERGED  **
 ******************************

                       Coordinates (Angstroms)
     ATOM                X               Y               Z
      1  C         1.5164183686    0.3969743057   -0.4802081639
      2  C         0.8530421787   -0.7814352329    0.1267367795
      3  C        -0.5919084519   -1.0632233583   -0.2534470803
      4  C        -1.1148166787    0.3155826777    0.1141846302
      5  C        -0.4546283552    1.4958427223   -0.4937285977
      6  N         0.8464245457    1.5089281204   -0.7767536661
      7  H         2.5823909621    0.3745154263   -0.6982639386
      8  H         1.4771515077   -1.6491699697    0.3341688286
      9  H        -1.0845208494   -1.9528898549   -0.6203428280
     10  H        -2.1825810583    0.3921989234    0.3124629591
     11  H        -1.0319957914    2.3892264299   -0.7239295890
     12  C        -0.3068939015   -0.5385954565    1.0779950496
     13  H        -0.5080824763   -0.8879547334    2.0811256164

Z-matrix Print:
$molecule
0 2
N 
C  1 1.331545
H  2 1.088338 1 117.731562
C  1 1.331643 2 115.853504 3 -179.984296 0
H  4 1.088279 1 117.738255 2 -179.961326 0
C  4 1.482262 1 121.996186 2 0.026110 0
H  6 1.088809 4 117.069057 1 179.870453 0
C  2 1.482707 1 122.007646 3 179.996325 0
H  8 1.088717 2 117.086908 1 179.969774 0
C  6 1.519643 4 118.091708 1 -32.984676 0
H  10 1.081110 6 132.162008 4 -128.162444 0
C  10 1.459180 6 61.344650 4 106.929875 0
H  12 1.081104 10 133.990151 6 122.252559 0
$end

 
 --------------------------------------------------------------
 
                    Orbital Energies (a.u.)
 --------------------------------------------------------------
 
 Alpha MOs
 -- Occupied --
-14.317 -10.216 -10.216 -10.215 -10.215 -10.215 -10.215  -0.960
 -0.896  -0.750  -0.643  -0.635  -0.589  -0.545  -0.482  -0.471
 -0.465  -0.408  -0.395  -0.365  -0.338  -0.299  -0.298  -0.227
 -0.173
 -- Virtual --
  0.016   0.089   0.114   0.142   0.143   0.153   0.159   0.166
  0.198   0.211   0.231   0.274   0.291   0.304   0.321   0.388
  0.526   0.528   0.540   0.541   0.564   0.589   0.592   0.595
  0.615   0.617   0.632   0.656   0.672   0.735   0.791   0.802
  0.814   0.838   0.854   0.854   0.882   0.888   0.925   0.938
  0.958   0.983   1.144   1.156   1.165   1.197   1.256   1.370
  1.414   1.457   1.489   1.500   1.582   1.616   1.646   1.677
  1.741   1.742   1.860   1.868   1.877   1.916   1.993   2.025
  2.037   2.134   2.160   2.202   2.247   2.287   2.358   2.467
  2.473   2.484   2.526   2.578   2.596   2.609   2.623   2.690
  2.733   2.771   2.804   2.989   3.153   4.017   4.114   4.179
  4.381   4.454   4.461   4.550
 
 Beta MOs
 -- Occupied --
-14.320 -10.216 -10.216 -10.213 -10.213 -10.207 -10.207  -0.955
 -0.894  -0.738  -0.631  -0.630  -0.584  -0.542  -0.476  -0.466
 -0.464  -0.405  -0.377  -0.362  -0.323  -0.298  -0.294  -0.227
 -- Virtual --
 -0.064   0.036   0.091   0.120   0.144   0.144   0.161   0.165
  0.170   0.210   0.213   0.235   0.277   0.300   0.308   0.329
  0.393   0.528   0.534   0.547   0.563   0.566   0.592   0.599
  0.605   0.621   0.639   0.652   0.659   0.678   0.740   0.795
  0.804   0.817   0.842   0.847   0.857   0.883   0.897   0.931
  0.942   0.962   0.992   1.147   1.157   1.168   1.199   1.256
  1.387   1.420   1.457   1.497   1.515   1.583   1.633   1.659
  1.684   1.748   1.750   1.863   1.881   1.886   1.919   1.999
  2.030   2.050   2.143   2.164   2.224   2.256   2.297   2.374
  2.475   2.477   2.497   2.541   2.583   2.597   2.618   2.625
  2.694   2.736   2.776   2.810   2.991   3.157   4.014   4.130
  4.191   4.384   4.459   4.472   4.552
 --------------------------------------------------------------
 
          Ground-State Mulliken Net Atomic Charges

     Atom                 Charge (a.u.)    Spin (a.u.)
  --------------------------------------------------------
      1 C                     0.076668       0.597264
      2 C                    -0.221136      -0.053383
      3 C                    -0.090020       0.094755
      4 C                    -0.221259      -0.053323
      5 C                     0.076639       0.597031
      6 N                    -0.395281      -0.205348
      7 H                     0.135576      -0.032059
      8 H                     0.142131       0.000520
      9 H                     0.154195      -0.004296
     10 H                     0.142173       0.000517
     11 H                     0.135555      -0.032046
     12 C                    -0.089444       0.094654
     13 H                     0.154203      -0.004286
  --------------------------------------------------------
  Sum of atomic charges =    -0.000000
  Sum of spin   charges =     1.000000

 -----------------------------------------------------------------
                    Cartesian Multipole Moments
 -----------------------------------------------------------------
    Charge (ESU x 10^10)
                 0.0000
    Dipole Moment (Debye)
         X      -1.3319      Y      -2.3748      Z       1.2215
       Tot       2.9842
    Quadrupole Moments (Debye-Ang)
        XX     -37.5211     XY      -3.3861     YY     -41.6918
        XZ       0.5359     YZ       0.8893     ZZ     -41.7402
    Octopole Moments (Debye-Ang^2)
       XXX      -9.1291    XXY      -9.2022    XYY     -12.1003
       YYY     -28.7544    XXZ       3.1746    XYZ       2.3752
       YYZ       5.9836    XZZ      -6.1539    YZZ     -10.8914
       ZZZ      15.9457
    Hexadecapole Moments (Debye-Ang^3)
      XXXX    -259.9769   XXXY     -16.0075   XXYY     -99.7885
      XYYY     -28.2792   YYYY    -313.2819   XXXZ      20.4721
      XXYZ      17.2282   XYYZ      18.4573   YYYZ      53.1625
      XXZZ     -72.5633   XYZZ      -5.3685   YYZZ     -78.7944
      XZZZ      24.5539   YZZZ      44.9179   ZZZZ    -134.5693
 -----------------------------------------------------------------
Archival summary:
1\1\c8-90\OPT\ProcedureUnspecified\6-31G*\166(2)\hpark21\TueMar123:26:232022TueMar123:26:232022\0\\#,OPT,ProcedureUnspecified,6-31G*,\\0,2\N\C,1,1.33155\H,2,1.08834,1,117.732\C,1,1.33164,2,115.854,3,-179.984,0\H,4,1.08828,1,117.738,2,-179.961,0\C,4,1.48226,1,121.996,2,0.0261104,0\H,6,1.08881,4,117.069,1,179.87,0\C,2,1.48271,1,122.008,3,179.996,0\H,8,1.08872,2,117.087,1,179.97,0\C,6,1.51964,4,118.092,1,-32.9847,0\H,10,1.08111,6,132.162,4,-128.162,0\C,10,1.45918,6,61.3446,4,106.93,0\H,12,1.0811,10,133.99,6,122.253,0\\\@

 Total job time:  72.71s(wall), 83.20s(cpu) 
 Tue Mar  1 23:26:23 2022

        *************************************************************
        *                                                           *
        *  Thank you very much for using Q-Chem.  Have a nice day.  *
        *                                                           *
        *************************************************************


