13   
From optimize.out: Frame 1 / 2, Energy=    -286.8461971281
C        1.9428671549    0.1644130201   -0.5816694291
C        1.1171166541   -0.7250166629   -0.0036560302
C       -0.2927840060   -0.2256916522   -0.2056906425
C       -1.0511201092    0.0417131585    1.0956345203
C       -0.0024048681    1.0452593303   -0.9825406061
N        1.2505041428    1.2579809599   -1.1897213086
H        3.0249701578    0.1420497572   -0.6411949128
H        1.3785570708   -1.6314259533    0.5273052169
H       -0.8804660219   -0.9148225955   -0.8298881231
H       -0.5399779417    0.7085944320    1.7925776609
H       -0.7717201054    1.7284287703   -1.3355947938
C       -2.2231320458   -0.4639088046    1.4017476031
H       -2.9524100829   -1.1275737599    0.9526908452
13   
From optimize.out: Frame 23 / 24, Energy=    -286.8461971282
C        1.9502684745    0.1668757039   -0.5830682031
C        1.1303215668   -0.7231444481   -0.0010897950
C       -0.2892485755   -0.2389341637   -0.2005875207
C       -1.0563392866    0.0343628401    1.0915026042
C       -0.0033814690    1.0377469144   -0.9809310074
N        1.2448730248    1.2594058763   -1.1926967933
H        3.0317152510    0.1621612534   -0.6546089855
H        1.3990876798   -1.6371899581    0.5135231138
H       -0.8479898341   -0.9416058920   -0.8365984303
H       -0.5480256503    0.6888479117    1.8052358743
H       -0.7792756930    1.7217136904   -1.3193025589
C       -2.2436211608   -0.4367572776    1.3952143572
H       -2.9883843277   -1.0934824506    0.9634073448
13   
From optimize.out: Frame 21 / 24, Energy=    -286.8461841257
C        1.9541896447    0.1663746535   -0.5662048149
C        1.1228592461   -0.7319456296   -0.0141691465
C       -0.2943810136   -0.2409285392   -0.2231110760
C       -1.0605199047    0.0427976099    1.0574413237
C        0.0093636296    1.0394857789   -0.9935647747
N        1.2601063457    1.2716117476   -1.1666994167
H        3.0374192533    0.1665681533   -0.6086410224
H        1.3806514106   -1.6664666248    0.4683022120
H       -0.8585325060   -0.9418051156   -0.8558509486
H       -0.5773119735    0.7376560539    1.7527221660
H       -0.7575862688    1.7417944765   -1.3161059375
C       -2.2325593840   -0.4411238010    1.3972470646
H       -2.9836984795   -1.1440187633    1.0686343711
13   
From optimize.out: Frame 18 / 24, Energy=    -286.8456945674
C        1.9550626311    0.1741431511   -0.5432858514
C        1.1154234445   -0.7428484894   -0.0343687676
C       -0.2958204900   -0.2500617531   -0.2665907018
C       -1.0570010958    0.0430933806    1.0265197812
C        0.0176655129    1.0397366402   -1.0117974534
N        1.2723452164    1.2877334881   -1.1350870426
H        3.0391113415    0.1815716803   -0.5399954974
H        1.3658560050   -1.6863419872    0.4340212766
H       -0.8848462282   -0.9438036193   -0.8812875879
H       -0.5744077781    0.7590701854    1.7013478211
H       -0.7431584164    1.7523982385   -1.3253582832
C       -2.2184269953   -0.4473846969    1.3866282721
H       -2.9918031476   -1.1673062184    1.1892540344
13   
From optimize.out: Frame 16 / 24, Energy=    -286.8433384476
C        1.9502897193    0.1858665585   -0.5142800756
C        1.1053365386   -0.7543830530   -0.0547313846
C       -0.2972729617   -0.2614330895   -0.3155014646
C       -1.0448561096    0.0398344819    0.9936524731
C        0.0203300437    1.0395200573   -1.0273107454
N        1.2780635642    1.3022384166   -1.1014259456
H        3.0330946921    0.2000109217   -0.4615597342
H        1.3492478841   -1.7017176748    0.4082794597
H       -0.9199637275   -0.9449311113   -0.9038297288
H       -0.5496231414    0.7665775698    1.6471157214
H       -0.7362332658    1.7562355353   -1.3402855013
C       -2.1962684044   -0.4566507457    1.3696663881
H       -2.9921448317   -1.1711678666    1.3002105378
13   
From optimize.out: Frame 14 / 24, Energy=    -286.8380932506
C        1.9402958526    0.1979084861   -0.4818708414
C        1.0918383692   -0.7663146885   -0.0755767034
C       -0.2996510919   -0.2723751271   -0.3674981448
C       -1.0281338785    0.0365836561    0.9643981689
C        0.0197808838    1.0397970643   -1.0420371001
N        1.2794223521    1.3169932027   -1.0628694292
H        3.0194373952    0.2159526327   -0.3784141799
H        1.3284677057   -1.7149337960    0.3873793899
H       -0.9607802367   -0.9421682840   -0.9243649388
H       -0.5138755594    0.7707801010    1.5929102651
H       -0.7324213153    1.7558582105   -1.3644077272
C       -2.1671291756   -0.4698274729    1.3562552071
H       -2.9772513014   -1.1682539850    1.3960960337
13   
From optimize.out: Frame 13 / 24, Energy=    -286.8352118420
C        1.9257757708    0.2084900513   -0.4463841772
C        1.0745194063   -0.7786443359   -0.0970712513
C       -0.3036161909   -0.2806947189   -0.4200225181
C       -1.0094991273    0.0358768674    0.9427077522
C        0.0171484147    1.0420537787   -1.0549939911
N        1.2777481599    1.3308330858   -1.0221578040
H        2.9992369920    0.2267038622   -0.2943277120
H        1.3014649211   -1.7272558605    0.3696599539
H       -1.0048887290   -0.9328286181   -0.9431230769
H       -0.4722148048    0.7773396914    1.5399396653
H       -0.7281528637    1.7538758432   -1.3989536031
C       -2.1323698758   -0.4857763735    1.3505530327
H       -2.9451520734   -1.1699732731    1.4741737297
13   
From optimize.out: Frame 11 / 24, Energy=    -286.8281237405
C        1.9066006067    0.2175138533   -0.4084975642
C        1.0531968916   -0.7904675600   -0.1187772173
C       -0.3099003816   -0.2847171726   -0.4686557613
C       -0.9897411990    0.0383159519    0.9310033305
C        0.0125579318    1.0465488775   -1.0639709075
N        1.2732393374    1.3430529709   -0.9801221295
H        2.9732043055    0.2315060224   -0.2137573550
H        1.2682375043   -1.7383320584    0.3542426566
H       -1.0492717315   -0.9158720987   -0.9596268225
H       -0.4251212477    0.7865012550    1.4888483599
H       -0.7202888645    1.7501078111   -1.4460521695
C       -2.0936508637   -0.5024326321    1.3529596139
H       -2.8990622892   -1.1817252202    1.5324059658
13   
From optimize.out: Frame 8 / 24, Energy=    -286.8109941957
C        1.8836163023    0.2251172456   -0.3688010244
C        1.0290010543   -0.8013188039   -0.1408458062
C       -0.3180127541   -0.2851463076   -0.5118240818
C       -0.9715106046    0.0439743977    0.9333478650
C        0.0059795777    1.0533146889   -1.0680369136
N        1.2656951022    1.3547857181   -0.9361067108
H        2.9435430991    0.2324633999   -0.1409320375
H        1.2311211604   -1.7481310015    0.3395790393
H       -1.0886885971   -0.8946262233   -0.9773253256
H       -0.3727058201    0.7962753349    1.4408686706
H       -0.7062055987    1.7432096583   -1.5067464189
C       -2.0552552348   -0.5173953930    1.3632232363
H       -2.8465776866   -1.2025227142    1.5735995074
13   
From optimize.out: Frame 6 / 24, Energy=    -286.7950798059
C        1.8590416413    0.2317830198   -0.3266715814
C        1.0052240725   -0.8119063359   -0.1663276338
C       -0.3256029705   -0.2854118446   -0.5507603461
C       -0.9607848082    0.0547016855    0.9560957966
C       -0.0011356180    1.0608565088   -1.0673054706
N        1.2548853473    1.3678245935   -0.8876307688
H        2.9142249777    0.2353237864   -0.0785262174
H        1.1949766296   -1.7599925634    0.3170480315
H       -1.1154985229   -0.8762847526   -1.0044816553
H       -0.3209163746    0.8079226736    1.3993705906
H       -0.6830638740    1.7289080073   -1.5802589486
C       -2.0240704626   -0.5264837378    1.3841427862
H       -2.7972800375   -1.2272410407    1.6053054171
13   
From optimize.out: Frame 4 / 24, Energy=    -286.7650031898
C        1.8400858120    0.2357678180   -0.2866468287
C        0.9894783182   -0.8227139123   -0.1996826030
C       -0.3289220954   -0.2905606967   -0.5894710941
C       -0.9681628212    0.0720675255    1.0066907985
C       -0.0036330969    1.0672645831   -1.0674690737
N        1.2444622329    1.3818559342   -0.8408274041
H        2.8933349735    0.2470931028   -0.0309900616
H        1.1688286244   -1.7761512804    0.2786356913
H       -1.1191211609   -0.8705606516   -1.0546948578
H       -0.2889063124    0.8239855178    1.3824877126
H       -0.6487972357    1.7071981030   -1.6592219783
C       -2.0128941436   -0.5253325521    1.4225201869
H       -2.7657530949   -1.2499134913    1.6386695121
13   
From optimize.out: Frame 2 / 24, Energy=    -286.6927183242
C        1.8274581877    0.2355301020   -0.2518211801
C        0.9817433889   -0.8329195990   -0.2376612024
C       -0.3306858947   -0.2992081893   -0.6249558449
C       -0.9881084097    0.0918306048    1.0691884666
C       -0.0013660212    1.0735201638   -1.0711631446
N        1.2357997724    1.3950648006   -0.8014378062
H        2.8804847235    0.2657764251    0.0033999536
H        1.1523394646   -1.7941771810    0.2306159585
H       -1.1050970850   -0.8746497468   -1.1214032849
H       -0.2817637881    0.8428921509    1.3918729271
H       -0.6047841117    1.6834837807   -1.7358535320
C       -2.0177207222   -0.5176164957    1.4716294098
H       -2.7482995047   -1.2695268159    1.6775892795
13   
From optimize.out: Frame 1 / 24, Energy=    -286.6300281804
C        1.8148818181    0.2313927921   -0.2176619222
C        0.9753374466   -0.8417581848   -0.2763427466
C       -0.3372452839   -0.3068186469   -0.6525775723
C       -1.0074675397    0.1105090785    1.1249127748
C        0.0014001431    1.0810875926   -1.0756285195
N        1.2255861041    1.4071069824   -0.7646848339
H        2.8680977589    0.2874132882    0.0326586328
H        1.1375129105   -1.8120944654    0.1792520770
H       -1.0878351495   -0.8790443945   -1.1891729261
H       -0.2854475192    0.8627188052    1.4117205093
H       -0.5510336651    1.6575205707   -1.8120309155
C       -2.0242112084   -0.5089838349    1.5205695216
H       -2.7295758155   -1.2890495831    1.7189859205
13   
C6H6N->C4H4N+C2H2 atoms 1-13 frame 537 charge -0.000 sz -1.000 sz^2 1.281
C        1.8021592145    0.2218743469   -0.1809220595
C        0.9683407632   -0.8486168663   -0.3155155696
C       -0.3526377234   -0.3123349768   -0.6698593773
C       -1.0224694286    0.1287661650    1.1701838727
C        0.0032239316    1.0902880561   -1.0798705941
N        1.2120499450    1.4194296979   -0.7280985563
H        2.8554240613    0.3131897577    0.0599462188
H        1.1225704780   -1.8300639857    0.1227180044
H       -1.0744489130   -0.8820562942   -1.2495397821
H       -0.2905446451    0.8839590735    1.4364732061
H       -0.4880126679    1.6256766399   -1.8891021830
C       -2.0290630671   -0.5001895224    1.5654927735
H       -2.7065919485   -1.3099220916    1.7580940465
13   
C6H6N->C4H4N+C2H2 atoms 1-13 frame 540 charge +0.000 sz -1.000 sz^2 1.229
C        1.7977911241    0.2033045126   -0.1444145761
C        0.9647497542   -0.8537348654   -0.3561776835
C       -0.3787263214   -0.3175556761   -0.6768250484
C       -1.0374906737    0.1482843725    1.2092131148
C        0.0051529597    1.1038835539   -1.0861298326
N        1.1983849881    1.4351832132   -0.6977205232
H        2.8502959721    0.3422644839    0.0854992289
H        1.1124672531   -1.8482270457    0.0588884065
H       -1.0685000217   -0.8877065176   -1.2985422352
H       -0.2968539189    0.9110148226    1.4701673501
H       -0.4209064159    1.5907751915   -1.9636144443
C       -2.0391376389   -0.4916193606    1.6073776907
H       -2.6872270609   -1.3358666847    1.7922785523
13   
From optimize.out: Frame 2 / 41, Energy=    -286.7040734658
C        1.8127979126    0.1754518926   -0.1165708777
C        0.9702367149   -0.8594907628   -0.3959340607
C       -0.4150857758   -0.3242913574   -0.6763536945
C       -1.0588217310    0.1687132783    1.2454537056
C        0.0076180380    1.1263907415   -1.0963676677
N        1.1914964136    1.4561969051   -0.6807022014
H        2.8644586591    0.3685141481    0.1057745179
H        1.1141360069   -1.8660867510   -0.0050363386
H       -1.0749356874   -0.8985502216   -1.3340218862
H       -0.3035565325    0.9513790986    1.5154007816
H       -0.3591125836    1.5643486145   -2.0298863135
C       -2.0647295553   -0.4874469670    1.6471752324
H       -2.6845018795   -1.3751286188    1.8210688028
13   
From optimize.out: Frame 4 / 41, Energy=    -286.7741829675
C        1.8476680350    0.1468951653   -0.1040380620
C        0.9853048040   -0.8673817712   -0.4290043390
C       -0.4531655965   -0.3315974177   -0.6738035770
C       -1.0849071018    0.1881321986    1.2777540020
C        0.0112365235    1.1549228167   -1.1095221272
N        1.1969784469    1.4784834453   -0.6777768396
H        2.9003941251    0.3877047795    0.1151623434
H        1.1283601381   -1.8821543070   -0.0559149866
H       -1.0919892512   -0.9117084005   -1.3569363460
H       -0.3035490496    1.0052522318    1.5652047537
H       -0.3119128652    1.5548734143   -2.0811696194
C       -2.1116357849   -0.4941042082    1.6837522480
H       -2.7127824234   -1.4293179471    1.8462925497
13   
From optimize.out: Frame 6 / 41, Energy=    -286.8005255443
C        1.8935451238    0.1267223506   -0.1035567133
C        1.0043833316   -0.8745291612   -0.4551965406
C       -0.4847627605   -0.3372827961   -0.6734091944
C       -1.1106619400    0.2052125164    1.3065653659
C        0.0162081165    1.1812022592   -1.1232049305
N        1.2133547967    1.4968092543   -0.6818624318
H        2.9511739039    0.4017401247    0.1150984496
H        1.1481308353   -1.8939017134   -0.0931056288
H       -1.1125168899   -0.9227496055   -1.3730243473
H       -0.2964530106    1.0605079788    1.6102459130
H       -0.2786681998    1.5554852595   -2.1192966859
C       -2.1723244610   -0.5116353725    1.7175775162
H       -2.7714088460   -1.4875810947    1.8731692279
13   
From optimize.out: Frame 7 / 41, Energy=    -286.8090270493
C        1.9357404626    0.1240933749   -0.0958833492
C        1.0162908399   -0.8766527996   -0.4752497493
C       -0.5044777107   -0.3378795811   -0.6808946372
C       -1.1374067109    0.2221881933    1.3342771476
C        0.0169794356    1.1909270868   -1.1363131158
N        1.2414313320    1.5119328460   -0.6888403599
H        3.0182737776    0.4058662128    0.0966669838
H        1.1589340927   -1.8909247169   -0.1233191835
H       -1.1311704380   -0.9215128981   -1.3724153760
H       -0.2801723842    1.0919205009    1.6664520128
H       -0.2613301342    1.5495070334   -2.1596052931
C       -2.2327555322   -0.5257522812    1.7465660649
H       -2.8403370303   -1.5437129712    1.8885588549
13   
From optimize.out: Frame 11 / 41, Energy=    -286.8301625134
C        1.9426674562    0.1544590532   -0.0615605458
C        1.0071365195   -0.8689479631   -0.4765119800
C       -0.4934572320   -0.3288361522   -0.7009764952
C       -1.1594967259    0.2373359572    1.3518229539
C        0.0064219216    1.1617077939   -1.1457735895
N        1.2765902642    1.5225707988   -0.7006854131
H        3.0762108047    0.3839143510    0.0468803413
H        1.1456988933   -1.8628650780   -0.1365917702
H       -1.1377462766   -0.8970479307   -1.3299064218
H       -0.2666579856    1.0502573085    1.7364689485
H       -0.2788042331    1.5248078185   -2.1966986903
C       -2.2577887485   -0.5128195094    1.7551354809
H       -2.8607746578   -1.5645364477    1.8583971814
13   
From optimize.out: Frame 13 / 41, Energy=    -286.8345178012
C        1.9316246945    0.1998368451   -0.0252087077
C        0.9953939901   -0.8556955958   -0.4665966562
C       -0.4621404761   -0.3177418439   -0.7229230219
C       -1.1759586455    0.2500310570    1.3631571484
C       -0.0041654565    1.1192469592   -1.1545994745
N        1.3047284004    1.5303657771   -0.7156284727
H        3.1007956877    0.3530156057   -0.0062148894
H        1.1337762082   -1.8386476051   -0.1361783758
H       -1.1419682594   -0.8764925393   -1.2780453866
H       -0.2799891566    0.9715885774    1.7895318098
H       -0.3080484089    1.4950454605   -2.2113859116
C       -2.2571948502   -0.4887827231    1.7532881638
H       -2.8368537277   -1.5417699747    1.8108037744
13   
From optimize.out: Frame 14 / 41, Energy=    -286.8357048406
C        1.8824091052    0.2139439614   -0.0253350306
C        0.9872738573   -0.8556420170   -0.4489725549
C       -0.4280248787   -0.3208161051   -0.7277613821
C       -1.1601677412    0.2450872805    1.3482605998
C       -0.0023592200    1.1021597820   -1.1465657257
N        1.2754237563    1.5194284917   -0.7104378024
H        3.0347898297    0.3511298095   -0.0073239326
H        1.1291874288   -1.8440124089   -0.1067909102
H       -1.1232033453   -0.8869867603   -1.2717342861
H       -0.2893782721    0.9352389915    1.7660936938
H       -0.3152240635    1.4968232844   -2.1775382030
C       -2.2116946810   -0.4667072793    1.7280028996
H       -2.7790317756   -1.4896470304    1.7801026345
13   
From optimize.out: Frame 16 / 41, Energy=    -286.8362173905
C        1.8313452787    0.2228206337   -0.0399008370
C        0.9837973740   -0.8559229453   -0.4279490366
C       -0.3878840979   -0.3292076589   -0.7322485996
C       -1.1385212371    0.2330769107    1.3303780992
C        0.0040613596    1.0894636166   -1.1335799755
N        1.2315321377    1.4941138411   -0.7005015288
H        2.9561945149    0.3553573235    0.0015923780
H        1.1318631179   -1.8482427435   -0.0692609436
H       -1.0937479793   -0.9031024012   -1.2754720947
H       -0.2966213537    0.9063253284    1.7188390451
H       -0.3251816708    1.5113535491   -2.1260374274
C       -2.1607988533   -0.4505853565    1.6954718066
H       -2.7360385906   -1.4254500978    1.7586691142
13   
From optimize.out: Frame 18 / 41, Energy=    -286.8365485126
C        1.8010342662    0.2381517331   -0.0730265512
C        0.9871432052   -0.8568817895   -0.4008097638
C       -0.3395767278   -0.3421742072   -0.7422732995
C       -1.1206569542    0.2174464172    1.3153874114
C        0.0114085320    1.0758875523   -1.1218293010
N        1.2035558236    1.4676282983   -0.6971322616
H        2.9009037679    0.3551283779    0.0021328408
H        1.1430231379   -1.8487799027   -0.0184177529
H       -1.0639772027   -0.9229305109   -1.2739653736
H       -0.3032237216    0.8789246489    1.6629950306
H       -0.3615382062    1.5406580366   -2.0572291054
C       -2.1264471750   -0.4442534192    1.6614369788
H       -2.7316487452   -1.3588052348    1.7427311473
13   
From optimize.out: Frame 21 / 41, Energy=    -286.8368383316
C        1.7991153549    0.2562138915   -0.1228956508
C        1.0000903403   -0.8587789337   -0.3773330575
C       -0.2902995386   -0.3599449011   -0.7593914545
C       -1.1156939536    0.2021912597    1.3093442807
C        0.0169478912    1.0608115576   -1.1154781327
N        1.2011677484    1.4480805644   -0.7035251826
H        2.8817319537    0.3465313149    0.0022914873
H        1.1680331538   -1.8455312459    0.0293064031
H       -1.0396630348   -0.9462206539   -1.2651111585
H       -0.3107753428    0.8649833136    1.6118886044
H       -0.4251135253    1.5770860826   -1.9745480851
C       -2.1176340021   -0.4443513612    1.6326344084
H       -2.7679070450   -1.3010708887    1.7328175378
13   
From optimize.out: Frame 23 / 41, Energy=    -286.8370712758
C        1.8135610171    0.2722615752   -0.1761563536
C        1.0222300067   -0.8624062571   -0.3664510606
C       -0.2403792586   -0.3824284994   -0.7843213569
C       -1.1262173649    0.1924529440    1.3193445630
C        0.0242187930    1.0431545745   -1.1160770954
N        1.2089952930    1.4362839154   -0.7157307490
H        2.8814794121    0.3393919512    0.0111451818
H        1.2081484346   -1.8434217888    0.0539540258
H       -1.0156395997   -0.9732809540   -1.2539874659
H       -0.3256990636    0.8624472846    1.5730211808
H       -0.4925780409    1.6059476637   -1.8901200483
C       -2.1295754575   -0.4439288736    1.6151104242
H       -2.8285441714   -1.2464735356    1.7302687540
13   
From optimize.out: Frame 25 / 41, Energy=    -286.8372691178
C        1.8359125538    0.2847834542   -0.2234527232
C        1.0495337956   -0.8675771454   -0.3682166282
C       -0.1901682156   -0.4079942238   -0.8155863440
C       -1.1509563106    0.1904854104    1.3467805989
C        0.0357948709    1.0231959066   -1.1228876042
N        1.2195254443    1.4300678995   -0.7290255895
H        2.8885259578    0.3419033862    0.0241547714
H        1.2570086708   -1.8454448544    0.0526825446
H       -0.9890715066   -1.0031046068   -1.2440274953
H       -0.3494079282    0.8662966956    1.5471040065
H       -0.5494595988    1.6210273322   -1.8120335598
C       -2.1566613312   -0.4406732853    1.6105302430
H       -2.9005764022   -1.1929659690    1.7339777797
13   
From optimize.out: Frame 26 / 41, Energy=    -286.8373435776
C        1.8631340900    0.2947364013   -0.2616962274
C        1.0787577606   -0.8736666999   -0.3782103503
C       -0.1431799545   -0.4337130256   -0.8500942030
C       -1.1870631151    0.1957755144    1.3873443423
C        0.0503401692    1.0025058703   -1.1339423488
N        1.2328769104    1.4261580630   -0.7428067132
H        2.9012627501    0.3545777445    0.0351589895
H        1.3086102606   -1.8511724834    0.0326017351
H       -0.9623162703   -1.0328758891   -1.2342492786
H       -0.3788976477    0.8720106666    1.5304066961
H       -0.5932879644    1.6241017489   -1.7421397401
C       -2.1942487822   -0.4348342598    1.6167094268
H       -2.9759882068   -1.1436036512    1.7409176715
13   
From optimize.out: Frame 28 / 41, Energy=    -286.8374512176
C        1.8925057090    0.3038128434   -0.2926947601
C        1.1090199286   -0.8796722184   -0.3923592225
C       -0.1003091414   -0.4576536206   -0.8850854960
C       -1.2309207395    0.2061646278    1.4354496693
C        0.0661647962    0.9824108586   -1.1471151573
N        1.2488215185    1.4228307840   -0.7580238563
H        2.9180788502    0.3728447474    0.0429056945
H        1.3610469459   -1.8585943657    0.0011439680
H       -0.9361971342   -1.0607158270   -1.2235668099
H       -0.4115137531    0.8761930506    1.5192925635
H       -0.6258195835    1.6197357605   -1.6802252506
C       -2.2388593060   -0.4275991787    1.6303781401
H       -3.0520180907   -1.0997574616    1.7499005172
13   
From optimize.out: Frame 31 / 41, Energy=    -286.8375205631
C        1.9210777024    0.3135903999   -0.3187866654
C        1.1404301653   -0.8847656218   -0.4092717614
C       -0.0599430963   -0.4797898600   -0.9189372266
C       -1.2809983534    0.2206471338    1.4882449952
C        0.0832602375    0.9629385086   -1.1616832343
N        1.2629306470    1.4212458657   -0.7661259998
H        2.9366164766    0.3921997837    0.0455894534
H        1.4161150488   -1.8661365392   -0.0398637523
H       -0.9095444713   -1.0858798577   -1.2128824894
H       -0.4468139863    0.8762304272    1.5132833863
H       -0.6454236923    1.6091123356   -1.6328003972
C       -2.2891395076   -0.4193830852    1.6506447352
H       -3.1285671705   -1.0600094906    1.7625889563
13   
From optimize.out: Frame 33 / 41, Energy=    -286.8375585693
C        1.9527533883    0.3208343303   -0.3410400906
C        1.1721571837   -0.8888186341   -0.4248753112
C       -0.0249581075   -0.4968740840   -0.9481422350
C       -1.3370539342    0.2365245035    1.5398482437
C        0.0989923382    0.9478715357   -1.1721362292
N        1.2879403926    1.4170633519   -0.7970819310
H        2.9617553277    0.4127018615    0.0421560515
H        1.4643889401   -1.8722398673   -0.0759672794
H       -0.8827145811   -1.1066389352   -1.2048813858
H       -0.4861768763    0.8731349984    1.5158309581
H       -0.6607635190    1.6009254189   -1.5834350234
C       -2.3438937673   -0.4125935294    1.6739079485
H       -3.2024267853   -1.0318909502    1.7758162838
13   
From optimize.out: Frame 35 / 41, Energy=    -286.8375758291
C        1.9803923538    0.3296416758   -0.3582839569
C        1.2056696085   -0.8922834340   -0.4436547271
C        0.0087253128   -0.5134752211   -0.9763374792
C       -1.3970491557    0.2550103360    1.5907985128
C        0.1142322577    0.9325289103   -1.1842729395
N        1.3022092090    1.4161316599   -0.8030077579
H        2.9851095734    0.4305337646    0.0365802227
H        1.5191992377   -1.8781977119   -0.1236027624
H       -0.8558166191   -1.1254042462   -1.2002481736
H       -0.5263787759    0.8628533656    1.5243585403
H       -0.6652638928    1.5855973259   -1.5604112401
C       -2.3977596088   -0.4024312203    1.7022416046
H       -3.2732695006   -1.0005052047    1.7958401563
13   
From optimize.out: Frame 37 / 41, Energy=    -286.8375861324
C        2.0063896345    0.3387312144   -0.3726523960
C        1.2403449694   -0.8952497212   -0.4654781185
C        0.0424584471   -0.5298721679   -1.0036812578
C       -1.4582578485    0.2766509946    1.6429823114
C        0.1304906868    0.9173371757   -1.1960292551
N        1.3132533608    1.4169508367   -0.8015167424
H        3.0095471049    0.4477917114    0.0294529081
H        1.5765114544   -1.8841934373   -0.1770930033
H       -0.8289336811   -1.1431394056   -1.1976517835
H       -0.5677161734    0.8505160842    1.5372245234
H       -0.6639697663    1.5667048806   -1.5491223063
C       -2.4556433373   -0.3924888267    1.7342961228
H       -3.3444748514   -0.9697393387    1.8192689971
13   
From optimize.out: Frame 38 / 41, Energy=    -286.8375905481
C        2.0237039895    0.3453347177   -0.3726203727
C        1.2763379068   -0.8983405830   -0.4987933238
C        0.0689124699   -0.5401086957   -1.0188841925
C       -1.5167785487    0.2937042092    1.6881739115
C        0.1446301732    0.9090876243   -1.1944036593
N        1.3213438420    1.4212776803   -0.7939603428
H        3.0328898744    0.4589694463    0.0135466703
H        1.6239507454   -1.8863375769   -0.2294583989
H       -0.8015059337   -1.1539510338   -1.2107327094
H       -0.6080329455    0.8403486405    1.5707125414
H       -0.6447026862    1.5474849611   -1.5774730615
C       -2.5138887127   -0.3804965879    1.7731164417
H       -3.4068601744   -0.9569728018    1.8507764961
13   
From optimize.out: Frame 40 / 41, Energy=    -286.8375982643
C        2.0441892621    0.3502953488   -0.3835758194
C        1.3168485603   -0.9036563265   -0.5335433897
C        0.0983335976   -0.5497655341   -1.0328344861
C       -1.5706269388    0.2975543191    1.7263542571
C        0.1524071732    0.9047002074   -1.1886907821
N        1.3285712345    1.4231417227   -0.7863070565
H        3.0537903340    0.4677386399   -0.0022799953
H        1.6763838528   -1.8912343605   -0.2711955969
H       -0.7636863014   -1.1722286708   -1.2338675908
H       -0.6551913556    0.8374180099    1.6104854488
H       -0.6328228685    1.5369757310   -1.6002044584
C       -2.5759770354   -0.3637004332    1.8105006936
H       -3.4722195150   -0.9372386536    1.8851587756
13   
From optimize.out: Frame 2 / 58, Energy=    -286.8375806352
C        2.0696347680    0.3514071770   -0.4091289372
C        1.3543504914   -0.9090183826   -0.5612317211
C        0.1292250259   -0.5609314039   -1.0503242857
C       -1.6185699580    0.2918446372    1.7595935621
C        0.1629552519    0.8974514550   -1.1887366944
N        1.3355395734    1.4220251284   -0.7915780492
H        3.0737399992    0.4812626345   -0.0145544131
H        1.7299158142   -1.8942073525   -0.3056506528
H       -0.7168410622   -1.1998264072   -1.2602917974
H       -0.7104036736    0.8421480394    1.6489537218
H       -0.6281409396    1.5295514732   -1.5876164051
C       -2.6394611183   -0.3438112323    1.8432868119
H       -3.5419441723   -0.9078957663    1.9172788603
13   
From optimize.out: Frame 3 / 58, Energy=    -286.8376010728
C        2.0935499487    0.3546002049   -0.4274306151
C        1.3900880028   -0.9098726742   -0.5868442736
C        0.1588510102   -0.5736050389   -1.0667885365
C       -1.6703319119    0.2905567801    1.7932398398
C        0.1804574467    0.8854227201   -1.1937543582
N        1.3458748275    1.4205115363   -0.7985397548
H        3.0951447939    0.4963448730   -0.0307690822
H        1.7783626410   -1.8917098220   -0.3474351067
H       -0.6749022720   -1.2255920058   -1.2875170690
H       -0.7647865843    0.8451846529    1.6895384427
H       -0.6184719286    1.5155139970   -1.5716549223
C       -2.7028632760   -0.3258722718    1.8774649128
H       -3.6109726979   -0.8814829516    1.9504905231
13   
From optimize.out: Frame 4 / 58, Energy=    -286.8376390868
C        2.1169943324    0.3622779178   -0.4397463207
C        1.4271616738   -0.9097685792   -0.6112651577
C        0.1899149983   -0.5864248555   -1.0833695707
C       -1.7271564856    0.2948819118    1.8258877374
C        0.1964090341    0.8724436006   -1.1988169254
N        1.3591143606    1.4191424975   -0.7999712304
H        3.1202427072    0.5078746347   -0.0513922870
H        1.8276877313   -1.8902516155   -0.3913656714
H       -0.6362875699   -1.2468086792   -1.3153338833
H       -0.8166984133    0.8433747631    1.7312805470
H       -0.6117338818    1.4990361549   -1.5643618515
C       -2.7659128920   -0.3104168736    1.9121481095
H       -3.6797355951   -0.8553608773    1.9863065042
13   
From optimize.out: Frame 5 / 58, Energy=    -286.8376962516
C        2.1389271749    0.3675724401   -0.4513840458
C        1.4644533620   -0.9125633069   -0.6322504963
C        0.2248734982   -0.5988580669   -1.1050175341
C       -1.7843973894    0.3040775163    1.8531206036
C        0.2097122934    0.8606352882   -1.1991364183
N        1.3667507699    1.4183455270   -0.7956496987
H        3.1476703730    0.5190001222   -0.0805982816
H        1.8775920790   -1.8905074091   -0.4203842421
H       -0.5922592477   -1.2643322266   -1.3536255858
H       -0.8645393034    0.8379099759    1.7675764309
H       -0.6137070444    1.4773957144   -1.5481524407
C       -2.8262675115   -0.2952066430    1.9414013680