13   
From optimize.out: Frame 23 / 24, Energy=    -286.8461971282
C        1.9428671549    0.1644130201   -0.5816694291
C        1.1171166541   -0.7250166629   -0.0036560302
C       -0.2927840060   -0.2256916522   -0.2056906425
C       -1.0511201092    0.0417131585    1.0956345203
C       -0.0024048681    1.0452593303   -0.9825406061
N        1.2505041428    1.2579809599   -1.1897213086
H        3.0249701578    0.1420497572   -0.6411949128
H        1.3785570708   -1.6314259533    0.5273052169
H       -0.8804660219   -0.9148225955   -0.8298881231
H       -0.5399779417    0.7085944320    1.7925776609
H       -0.7717201054    1.7284287703   -1.3355947938
C       -2.2231320458   -0.4639088046    1.4017476031
H       -2.9524100829   -1.1275737599    0.9526908452
13   
From optimize.out: Frame 22 / 24, Energy=    -286.8461923961
C        1.9432337598    0.1637340354   -0.5813870447
C        1.1164822567   -0.7255076529   -0.0048312837
C       -0.2933278492   -0.2246041110   -0.2052531597
C       -1.0533423636    0.0437478158    1.0959918983
C       -0.0009271414    1.0459006065   -0.9826929567
N        1.2520765871    1.2581233136   -1.1888197109
H        3.0252917576    0.1403687086   -0.6416083528
H        1.3772859480   -1.6325478522    0.5254007611
H       -0.8799623081   -0.9125941024   -0.8318333235
H       -0.5440069762    0.7125251427    1.7925912627
H       -0.7698518879    1.7288524978   -1.3370325834
C       -2.2233255026   -0.4652653250    1.4039170503
H       -2.9496262802   -1.1327330770    0.9555574431
13   
From optimize.out: Frame 21 / 24, Energy=    -286.8461841257
C        1.9438358643    0.1620066566   -0.5809045793
C        1.1161445275   -0.7273338910   -0.0047987193
C       -0.2934723196   -0.2248707432   -0.2058266705
C       -1.0533572799    0.0439819998    1.0931837884
C       -0.0002412300    1.0487770733   -0.9801392927
N        1.2527696613    1.2588993896   -1.1882653006
H        3.0259895639    0.1378859280   -0.6419011792
H        1.3763546784   -1.6340435110    0.5264765399
H       -0.8796375173   -0.9108218865   -0.8349577168
H       -0.5474259192    0.7194695900    1.7862031720
H       -0.7690158450    1.7321438874   -1.3340149348
C       -2.2228492590   -0.4658022184    1.4008837650
H       -2.9490949255   -1.1402922746    0.9640611276
13   
From optimize.out: Frame 20 / 24, Energy=    -286.8461253334
C        1.9427529396    0.1756135125   -0.5759623767
C        1.1242889258   -0.7272619033   -0.0096667721
C       -0.2894912965   -0.2356976835   -0.2032286955
C       -1.0423533117    0.0315950523    1.0954888641
C       -0.0082667385    1.0361161093   -0.9810544573
N        1.2430694744    1.2584354454   -1.1876724285
H        3.0249943104    0.1634544856   -0.6323383522
H        1.3940745005   -1.6337399812    0.5168567071
H       -0.8731512309   -0.9276560255   -0.8273027681
H       -0.5208882013    0.6817929838    1.7993096275
H       -0.7840373518    1.7095154462   -1.3378244840
C       -2.2300594585   -0.4442719207    1.3911777325
H       -2.9809325614   -1.0878955208    0.9522174034
13   
From optimize.out: Frame 19 / 24, Energy=    -286.8459822555
C        1.9449424657    0.1690045527   -0.5950998954
C        1.1342541354   -0.7164964826    0.0056351737
C       -0.2860513445   -0.2398300152   -0.1910711034
C       -1.0492115969    0.0242361419    1.1046737788
C       -0.0105804941    1.0333246228   -0.9783992254
N        1.2375999789    1.2659144800   -1.1854592072
H        3.0254544328    0.1581403525   -0.6755488518
H        1.4138737811   -1.6187413742    0.5351360835
H       -0.8451338099   -0.9433394375   -0.8256206703
H       -0.5274253208    0.6532797719    1.8294894787
H       -0.7910072069    1.7033494052   -1.3328408115
C       -2.2473687825   -0.4320957182    1.3889354895
H       -2.9993462382   -1.0567462993    0.9201697609
13   
From optimize.out: Frame 18 / 24, Energy=    -286.8456945674
C        1.9543738378    0.1628876381   -0.5848098694
C        1.1328231950   -0.7222849818    0.0026867653
C       -0.2891452380   -0.2389404604   -0.1972335534
C       -1.0635517951    0.0378339087    1.0944303527
C       -0.0021121586    1.0400478409   -0.9780611273
N        1.2442909637    1.2523485236   -1.2067475231
H        3.0354457392    0.1623591001   -0.6665432421
H        1.3991818401   -1.6383942918    0.5159429820
H       -0.8372536159   -0.9454966755   -0.8392369156
H       -0.5585985944    0.6938160724    1.8118988036
H       -0.7786235542    1.7289388928   -1.3068480678
C       -2.2500228182   -0.4351349900    1.3992239187
H       -2.9868078015   -1.0979805771    0.9552974763
13   
From optimize.out: Frame 17 / 24, Energy=    -286.8450808287
C        1.9541289918    0.1675228930   -0.5600783557
C        1.1195782170   -0.7351267847   -0.0197196304
C       -0.2961051023   -0.2415831938   -0.2316322866
C       -1.0595215333    0.0444321072    1.0452612048
C        0.0131424924    1.0393006975   -0.9986699714
N        1.2653141935    1.2779549354   -1.1535119740
H        3.0380691118    0.1679541526   -0.5895743981
H        1.3745495246   -1.6757105646    0.4526145808
H       -0.8655394326   -0.9405895217   -0.8613217843
H       -0.5834741029    0.7520921233    1.7332358885
H       -0.7506589001    1.7460276922   -1.3191544618
C       -2.2268088490   -0.4430958568    1.3965961063
H       -2.9826746108   -1.1591786795    1.1059550820
13   
From optimize.out: Frame 16 / 24, Energy=    -286.8433384476
C        1.9557797593    0.1793894869   -0.5296498600
C        1.1118692307   -0.7491559393   -0.0462853383
C       -0.2957762048   -0.2566973405   -0.2945453081
C       -1.0549463715    0.0422232743    1.0107551537
C        0.0215559056    1.0400554656   -1.0224896257
N        1.2783247115    1.2959576441   -1.1194646578
H        3.0399852188    0.1922633797   -0.4996359976
H        1.3584971301   -1.6955233748    0.4180129080
H       -0.9005201316   -0.9461694652   -0.8973150505
H       -0.5680135536    0.7659518454    1.6746512205
H       -0.7366394631    1.7577664211   -1.3304762127
C       -2.2113454911   -0.4509089910    1.3788392621
H       -2.9987707402   -1.1751524064    1.2576035065
13   
From optimize.out: Frame 15 / 24, Energy=    -286.8408184510
C        1.9440759077    0.1951187178   -0.4920094926
C        1.0965973166   -0.7624689543   -0.0683387014
C       -0.2989838906   -0.2690931949   -0.3488462603
C       -1.0323773766    0.0367236816    0.9687809918
C        0.0200613990    1.0389966435   -1.0362817581
N        1.2795664968    1.3121135647   -1.0755196881
H        3.0252740999    0.2124846197   -0.4043633737
H        1.3361600225   -1.7117430730    0.3920435865
H       -0.9476486376   -0.9442537427   -0.9164814243
H       -0.5258890518    0.7692394824    1.6066510365
H       -0.7338067890    1.7560713648   -1.3533727466
C       -2.1764226118   -0.4644761676    1.3564311156
H       -2.9866068851   -1.1687129421    1.3713067146
13   
From optimize.out: Frame 14 / 24, Energy=    -286.8380932506
C        1.9317542136    0.2060831345   -0.4573124822
C        1.0809430537   -0.7753755874   -0.0918379442
C       -0.3014599667   -0.2803805784   -0.4087351627
C       -1.0160573508    0.0349308390    0.9470015867
C        0.0189818853    1.0406726681   -1.0539797401
N        1.2795419466    1.3282958597   -1.0330239650
H        3.0071349321    0.2262908910   -0.3158397543
H        1.3114760883   -1.7238163611    0.3737988453
H       -0.9921600284   -0.9386538377   -0.9407960032
H       -0.4854291123    0.7738703107    1.5551456198
H       -0.7296749804    1.7551035020   -1.3863700111
C       -2.1445072327   -0.4811277904    1.3500901893
H       -2.9605434484   -1.1658930499    1.4618588217
13   
From optimize.out: Frame 13 / 24, Energy=    -286.8352118420
C        1.9120137244    0.2160911796   -0.4170497280
C        1.0589036720   -0.7882863136   -0.1134813733
C       -0.3079042800   -0.2850695924   -0.4585756296
C       -0.9934403034    0.0367700631    0.9283859617
C        0.0138542974    1.0448313005   -1.0626854332
N        1.2748793965    1.3404328344   -0.9902458467
H        2.9804175330    0.2321008383   -0.2296427713
H        1.2770295171   -1.7368841014    0.3567983671
H       -1.0404624546   -0.9216178885   -0.9551788076
H       -0.4372572413    0.7844612484    1.4980153338
H       -0.7243076451    1.7515860614   -1.4303441699
C       -2.1020621815   -0.4989039293    1.3491148000
H       -2.9116640345   -1.1755117006    1.5248892971
13   
From optimize.out: Frame 12 / 24, Energy=    -286.8319653812
C        1.8902790998    0.2236522694   -0.3792303493
C        1.0355189154   -0.7989454998   -0.1356391008
C       -0.3155986740   -0.2859461571   -0.5040665164
C       -0.9750867283    0.0415201244    0.9280932961
C        0.0084957211    1.0509202364   -1.0693880058
N        1.2687999807    1.3519435099   -0.9473499051
H        2.9512970019    0.2327731807   -0.1550176327
H        1.2408135868   -1.7456849804    0.3435907064
H       -1.0820383908   -0.9000502897   -0.9723332913
H       -0.3870275618    0.7938610772    1.4521173452
H       -0.7117343432    1.7463692341   -1.4883092705
C       -2.0637742170   -0.5149547973    1.3587999999
H       -2.8599443905   -1.1954579078    1.5687327242
13   
From optimize.out: Frame 11 / 24, Energy=    -286.8281237405
C        1.8664678900    0.2298952732   -0.3405830953
C        1.0114568856   -0.8084835526   -0.1561199209
C       -0.3241606245   -0.2843500018   -0.5390998758
C       -0.9598845928    0.0491119873    0.9405585432
C        0.0005354729    1.0588538359   -1.0685828403
N        1.2591701786    1.3629117413   -0.9049171155
H        2.9222006913    0.2322755283   -0.0942943071
H        1.2045099827   -1.7547240453    0.3292100784
H       -1.1130047195   -0.8792631534   -0.9904886720
H       -0.3345737311    0.8030410511    1.4085842967
H       -0.6939539248    1.7369209460   -1.5534102280
C       -2.0295276485   -0.5266063602    1.3728896743
H       -2.8092358599   -1.2195832499    1.5962534621
13   
From optimize.out: Frame 10 / 24, Energy=    -286.8234216415
C        1.8463462462    0.2350575202   -0.3043722881
C        0.9935540928   -0.8174001369   -0.1807295101
C       -0.3290486271   -0.2859824788   -0.5701083288
C       -0.9578218101    0.0616862983    0.9733607113
C       -0.0046400264    1.0646565285   -1.0659407300
N        1.2485829375    1.3750325702   -0.8613130897
H        2.8997133591    0.2379784774   -0.0490402452
H        1.1772514139   -1.7670445987    0.3023829784
H       -1.1254786869   -0.8683963026   -1.0217551179
H       -0.2954125201    0.8146571158    1.3801374493
H       -0.6687121188    1.7192525285   -1.6209346594
C       -2.0105727179   -0.5292718482    1.3979069132
H       -2.7737615422   -1.2402256736    1.6204059170
13   
From optimize.out: Frame 9 / 24, Energy=    -286.8176047522
C        1.8345371895    0.2368073261   -0.2731848155
C        0.9853104312   -0.8265422870   -0.2124716353
C       -0.3292878981   -0.2931991856   -0.6033578902
C       -0.9734720295    0.0790341871    1.0282645018
C       -0.0036874490    1.0692272384   -1.0679460284
N        1.2411191521    1.3868411320   -0.8250262138
H        2.8874642779    0.2525514844   -0.0163101912
H        1.1613224617   -1.7823625346    0.2630696572
H       -1.1171949701   -0.8705222828   -1.0755982755
H       -0.2807775798    0.8302152155    1.3803262345
H       -0.6356499996    1.6987953011   -1.6870220086
C       -2.0120234109   -0.5235186486    1.4383660450
H       -2.7576601754   -1.2573269461    1.6508906197
13   
From optimize.out: Frame 8 / 24, Energy=    -286.8109941957
C        1.8250016767    0.2353870929   -0.2434526870
C        0.9805013846   -0.8356535791   -0.2477971272
C       -0.3304604103   -0.3019504852   -0.6346521980
C       -0.9945972671    0.0972113418    1.0870571611
C       -0.0002695826    1.0750421702   -1.0725571300
N        1.2340307081    1.3985271221   -0.7920385296
H        2.8780629314    0.2709509038    0.0114832579
H        1.1489678478   -1.7989981175    0.2177611231
H       -1.1000416215   -0.8767417399   -1.1401875599
H       -0.2816192842    0.8479073098    1.3961311484
H       -0.5936071287    1.6776843156   -1.7552556415
C       -2.0205021321   -0.5151147484    1.4853891713
H       -2.7454671221   -1.2742515860    1.6881190113
13   
From optimize.out: Frame 7 / 24, Energy=    -286.8037945218
C        1.8121859467    0.2311245648   -0.2109804416
C        0.9740708892   -0.8438145720   -0.2843387890
C       -0.3376077339   -0.3085603805   -0.6594505558
C       -1.0119359151    0.1142698469    1.1373196451
C        0.0020434786    1.0826041758   -1.0765779363
N        1.2239014315    1.4094614518   -0.7572195802
H        2.8654258800    0.2910911801    0.0390872108
H        1.1343577951   -1.8157026831    0.1693558857
H       -1.0837093517   -0.8799283183   -1.2043421927
H       -0.2865667154    0.8668550991    1.4154021854
H       -0.5407558887    1.6531228217   -1.8276985342
C       -2.0255909801   -0.5073764683    1.5312067068
H       -2.7258188361   -1.2931467180    1.7282363961
13   
From optimize.out: Frame 6 / 24, Energy=    -286.7950798059
C        1.7988348474    0.2222590869   -0.1761006719
C        0.9667652392   -0.8499247842   -0.3202293194
C       -0.3530879530   -0.3129728109   -0.6736210900
C       -1.0242174484    0.1308270347    1.1767693317
C        0.0033493221    1.0910040718   -1.0800371352
N        1.2102080060    1.4204697746   -0.7219379448
H        2.8523566401    0.3160070690    0.0634652854
H        1.1197133675   -1.8324410484    0.1169136082
H       -1.0715546818   -0.8817439565   -1.2593903074
H       -0.2911682799    0.8855346814    1.4380983839
H       -0.4797834176    1.6221211293   -1.9001484690
C       -2.0287145536   -0.4991710702    1.5719028231
H       -2.7027010881   -1.3119691776    1.7643155053
13   
From optimize.out: Frame 5 / 24, Energy=    -286.7830013846
C        1.7930341356    0.2055465807   -0.1417782318
C        0.9623827896   -0.8536387457   -0.3567735644
C       -0.3767033229   -0.3171762707   -0.6786203088
C       -1.0360528968    0.1482498928    1.2099706176
C        0.0049077396    1.1014779769   -1.0849870963
N        1.1964809204    1.4336915076   -0.6935887389
H        2.8457517985    0.3436344798    0.0867130363
H        1.1094348435   -1.8485977148    0.0581420332
H       -1.0656177564   -0.8863253320   -1.3024391348
H       -0.2957580054    0.9089090670    1.4679338417
H       -0.4187984039    1.5879939770   -1.9663225880
C       -2.0356594168   -0.4905224152    1.6080556711
H       -2.6834024249   -1.3332430032    1.7936944631
13   
From optimize.out: Frame 4 / 24, Energy=    -286.7650031898
C        1.8037226791    0.1804114914   -0.1155530726
C        0.9661549278   -0.8578141141   -0.3924510696
C       -0.4082040003   -0.3228510415   -0.6774906262
C       -1.0533269412    0.1663767991    1.2416264486
C        0.0073783353    1.1207391139   -1.0941104570
N        1.1889722265    1.4525873695   -0.6787814405
H        2.8548629284    0.3673817888    0.1064818771
H        1.1094473776   -1.8639951400    0.0000210718
H       -1.0695906210   -0.8959040446   -1.3332618063
H       -0.3043448599    0.9404509349    1.5066010729
H       -0.3631653727    1.5624787209   -2.0252136556
C       -2.0550353095   -0.4854314347    1.6430407456
H       -2.6768713702   -1.3644304437    1.8190909116
13   
From optimize.out: Frame 3 / 24, Energy=    -286.7369738019
C        1.8353612490    0.1513250928   -0.1023348030
C        0.9797521245   -0.8650047914   -0.4238983923
C       -0.4464993215   -0.3303046936   -0.6736549946
C       -1.0790876400    0.1839224662    1.2715672766
C        0.0095518847    1.1481485357   -1.1059322087
N        1.1913638729    1.4741246705   -0.6750416340
H        2.8869768790    0.3850328792    0.1166115917
H        1.1224246392   -1.8791946901   -0.0495030016
H       -1.0868049984   -0.9090801435   -1.3542088843
H       -0.3074140886    0.9899644825    1.5545832777
H       -0.3179413503    1.5520515075   -2.0741442662
C       -2.0936975060   -0.4878942067    1.6758668808
H       -2.6939857446   -1.4130911091    1.8400891578
13   
From optimize.out: Frame 2 / 24, Energy=    -286.6927183242
C        1.8833084053    0.1265608315   -0.1015081389
C        1.0010979025   -0.8747234451   -0.4515606208
C       -0.4814435529   -0.3370927087   -0.6724452678
C       -1.1063402388    0.2031747236    1.3016230365
C        0.0152003340    1.1787793175   -1.1210180212
N        1.2081312663    1.4954878758   -0.6811299874
H        2.9382413187    0.4000150574    0.1168411552
H        1.1445816145   -1.8939444835   -0.0884956418
H       -1.1086510325   -0.9220421163   -1.3707447157
H       -0.2978713160    1.0538559196    1.6047328625
H       -0.2818482828    1.5555471305   -2.1146061946
C       -2.1604238546   -0.5063623893    1.7119122212
H       -2.7539825638   -1.4792557130    1.8663993128
13   
From optimize.out: Frame 1 / 24, Energy=    -286.6300281804
C        1.9481107445    0.1130310358   -0.1085337233
C        1.0252928805   -0.8795541419   -0.4806399727
C       -0.5135161543   -0.3416589631   -0.6752830504
C       -1.1376956989    0.2216101031    1.3368481437
C        0.0221092287    1.2051123634   -1.1376233482
N        1.2368082639    1.5125051558   -0.6872820944
H        3.0148010027    0.4148711346    0.1105944537
H        1.1702045190   -1.9021984781   -0.1276004299
H       -1.1352553969   -0.9320223209   -1.3885161879
H       -0.2872394807    1.1146314753    1.6535043287
H       -0.2496297408    1.5573139554   -2.1548434025
C       -2.2420234842   -0.5361901753    1.7531984250
H       -2.8519666835   -1.5474511442    1.9061768581
13   
C6H6N->C4H4N+C2H2 atoms 1-13 frame 536 charge -0.000 sz -1.000 sz^2 1.289
C        1.9481107445    0.1130310358   -0.1085337233
C        1.0252928805   -0.8795541419   -0.4806399727
C       -0.5135161543   -0.3416589631   -0.6752830504
C       -1.1376956989    0.2216101031    1.3368481437
C        0.0221092287    1.2051123634   -1.1376233482
N        1.2368082639    1.5125051558   -0.6872820944
H        3.0148010027    0.4148711346    0.1105944537
H        1.1702045190   -1.9021984781   -0.1276004299
H       -1.1352553969   -0.9320223209   -1.3885161879
H       -0.2872394807    1.1146314753    1.6535043287
H       -0.2496297408    1.5573139554   -2.1548434025
C       -2.2420234842   -0.5361901753    1.7531984250
H       -2.8519666835   -1.5474511442    1.9061768581
13   
C6H6N->C4H4N+C2H2 atoms 1-13 frame 537 charge -0.000 sz -1.000 sz^2 1.281
C        1.9458796456    0.1283795270   -0.0884428258
C        1.0167664967   -0.8759141053   -0.4799210265
C       -0.5072939626   -0.3363983729   -0.6859850883
C       -1.1466142214    0.2281665560    1.3429247317
C        0.0151827314    1.1881315310   -1.1403154494
N        1.2535428360    1.5166162321   -0.6918664061
H        3.0439106390    0.4035323375    0.0842723405
H        1.1581261068   -1.8848929644   -0.1318415999
H       -1.1360833356   -0.9165772223   -1.3655996874
H       -0.2716398957    1.0930407940    1.6908901273
H       -0.2604800873    1.5441430396   -2.1752967255
C       -2.2502867429   -0.5268369769    1.7539688750
H       -2.8610102100   -1.5613903754    1.8872127344
13   
C6H6N->C4H4N+C2H2 atoms 1-13 frame 538 charge -0.000 sz -1.000 sz^2 1.266
C        1.9436050313    0.1454237163   -0.0691234602
C        1.0093116029   -0.8716237915   -0.4781591800
C       -0.4990148242   -0.3311713105   -0.6965610821
C       -1.1556071439    0.2345946257    1.3490726587
C        0.0087072981    1.1701691697   -1.1436841588
N        1.2699223851    1.5207009979   -0.6974012328
H        3.0692250400    0.3905630955    0.0579921851
H        1.1480382237   -1.8683875863   -0.1356903724
H       -1.1367730748   -0.9019267429   -1.3410089143
H       -0.2635863728    1.0661096120    1.7249267875
H       -0.2726998719    1.5309142901   -2.1926301740
C       -2.2566986434   -0.5172020291    1.7547795003
H       -2.8644296499   -1.5681640470    1.8674874430
13   
C6H6N->C4H4N+C2H2 atoms 1-13 frame 539 charge +0.000 sz -1.000 sz^2 1.246
C        1.9413817524    0.1643528059   -0.0507263785
C        1.0030653744   -0.8664076086   -0.4753797610
C       -0.4884848568   -0.3258697939   -0.7069452919
C       -1.1645940221    0.2409692446    1.3553161806
C        0.0028228041    1.1514209098   -1.1477752298
N        1.2858094655    1.5248942131   -0.7039512173
H        3.0899882983    0.3763921072    0.0320153056
H        1.1402717520   -1.8537120570   -0.1386780888
H       -1.1381892294   -0.8889242203   -1.3158613277
H       -0.2630806321    1.0343522221    1.7552870116
H       -0.2858638886    1.5172674358   -2.2060340331
C       -2.2611763642   -0.5073294354    1.7555976637
H       -2.8619504534   -1.5674058232    1.8471351666
13   
C6H6N->C4H4N+C2H2 atoms 1-13 frame 540 charge +0.000 sz -1.000 sz^2 1.229
C        1.9392944503    0.1852967362   -0.0334101223
C        0.9981190629   -0.8600393701   -0.4716375389
C       -0.4755362026   -0.3203930891   -0.7170887755
C       -1.1735003191    0.2473393059    1.3616916520
C       -0.0023313874    1.1320903950   -1.1526007617
N        1.3011129405    1.5293089165   -0.7115437634
H        3.1056395149    0.3614538507    0.0066469833
H        1.1350877440   -1.8417521248   -0.1404081206
H       -1.1412067510   -0.8783645858   -1.2911414683
H       -0.2699123255    0.9983351372    1.7817478411
H       -0.2996046922    1.5029623164   -2.2149341464
C       -2.2636419744   -0.4972500205    1.7563847419
H       -2.8535200605   -1.5589874675    1.8262934788
13   
From optimize.out: Frame 1 / 41, Energy=    -286.6353232318
C        1.9373997425    0.2082944407   -0.0173423609
C        0.9945011825   -0.8523804634   -0.4670176744
C       -0.4600610342   -0.3146839213   -0.7269806246
C       -1.1822763244    0.2537061838    1.3682343643
C       -0.0066266610    1.1123705945   -1.1581488520
N        1.3157763433    1.5340084287   -0.7201721421
H        3.1158048379    0.3461396002   -0.0177849841
H        1.1326407153   -1.8331053427   -0.1406234186
H       -1.1465209318   -0.8708419594   -1.2675340476
H       -0.2836478764    0.9586615497    1.8041980985
H       -0.3136114251    1.4878644692   -2.2189881811
C       -2.2640477766   -0.4870006264    1.7570852176
H       -2.8393307921   -1.5430329535    1.8050746051
13   
From optimize.out: Frame 2 / 41, Energy=    -286.7040734658
C        1.8633348839    0.2159035715   -0.0281073926
C        0.9847669651   -0.8567733295   -0.4427133693
C       -0.4169127193   -0.3229431332   -0.7280321981
C       -1.1524990901    0.2420977012    1.3413324384
C       -0.0008790023    1.0986180281   -1.1425479669
N        1.2614269339    1.5143712499   -0.7070613194
H        3.0066887151    0.3528607288   -0.0036953801
H        1.1279896112   -1.8477956673   -0.0950556623
H       -1.1151153355   -0.8925867956   -1.2731911938
H       -0.2913659348    0.9271145711    1.7528766829
H       -0.3157834282    1.4999307666   -2.1631607362
C       -2.1935353255   -0.4596682665    1.7179153174
H       -2.7581162735   -1.4711294251    1.7714407800
13   
From optimize.out: Frame 3 / 41, Energy=    -286.7497031094
C        1.8118029375    0.2267805830   -0.0465826721
C        0.9829683576   -0.8556045078   -0.4192417839
C       -0.3709110475   -0.3328372694   -0.7345490921
C       -1.1300639242    0.2278593401    1.3236374731
C        0.0068995599    1.0841064321   -1.1282646184
N        1.2137393204    1.4826003342   -0.6965598149
H        2.9255940423    0.3569122186    0.0048810239
H        1.1337989979   -1.8489474265   -0.0539503735
H       -1.0812656933   -0.9094441229   -1.2768773796
H       -0.2996912410    0.8941494394    1.6989142225
H       -0.3303039716    1.5178771963   -2.1043109565
C       -2.1409671760   -0.4448374382    1.6821654605
H       -2.7216001619   -1.3986147790    1.7507385110
13   
From optimize.out: Frame 4 / 41, Energy=    -286.7741829675
C        1.7950795393    0.2421615207   -0.0819484476
C        0.9882834099   -0.8572210094   -0.3939815997
C       -0.3277270008   -0.3454934239   -0.7449187577
C       -1.1165987614    0.2135582887    1.3119491846
C        0.0131905815    1.0726786626   -1.1191316797
N        1.1979709518    1.4614601380   -0.6967450781
H        2.8891937500    0.3548447164    0.0016837337
H        1.1460501344   -1.8488190557   -0.0054796777
H       -1.0569949662   -0.9278698413   -1.2732953883
H       -0.3047035654    0.8725621342    1.6493176638
H       -0.3716621094    1.5484924029   -2.0400208842
C       -2.1193157277   -0.4433376144    1.6533192207
H       -2.7327662360   -1.3430169189    1.7392517101
13   
From optimize.out: Frame 5 / 41, Energy=    -286.7894654678
C        1.7971177374    0.2566468233   -0.1227089922
C        0.9986141773   -0.8584152777   -0.3749529468
C       -0.2902230850   -0.3593086984   -0.7582592611
C       -1.1134262141    0.2011922280    1.3067422095
C        0.0165710024    1.0611404584   -1.1143375072
N        1.2003088730    1.4466895514   -0.7027533324
H        2.8793261437    0.3461008593    0.0003246852
H        1.1655378929   -1.8452395387    0.0335878322
H       -1.0396474144   -0.9458036466   -1.2653455433
H       -0.3096979932    0.8631984540    1.6096463733
H       -0.4257118293    1.5787527453   -1.9739949111
C       -2.1143827916   -0.4444719164    1.6305962617
H       -2.7643864989   -1.3004820419    1.7314551322
13   
From optimize.out: Frame 6 / 41, Energy=    -286.8005255443
C        1.8070956304    0.2694749689   -0.1643841921
C        1.0148496549   -0.8610584322   -0.3652928655
C       -0.2528630000   -0.3757086799   -0.7761516505
C       -1.1192436205    0.1927398999    1.3118439005
C        0.0214621564    1.0482473054   -1.1140514728
N        1.2060666893    1.4373787169   -0.7118516007
H        2.8789681530    0.3390287778    0.0067685200
H        1.1950154164   -1.8428029255    0.0558234200
H       -1.0222880058   -0.9654694399   -1.2564312812
H       -0.3189910228    0.8608812151    1.5787083341
H       -0.4776163077    1.6025249034   -1.9098840024
C       -2.1223369258   -0.4451324159    1.6158684642
H       -2.8101188179   -1.2601038940    1.7290344263
13   
From optimize.out: Frame 7 / 41, Energy=    -286.8090270493
C        1.8233759773    0.2795063686   -0.2023372729
C        1.0351468468   -0.8646514102   -0.3641626147
C       -0.2150316935   -0.3947611033   -0.7985915847
C       -1.1350559919    0.1891859833    1.3284426297
C        0.0286287236    1.0336440239   -1.1179459630
N        1.2138788310    1.4319278193   -0.7227195665
H        2.8837951396    0.3372451768    0.0176795076
H        1.2313409662   -1.8431623129    0.0599962340
H       -1.0030372913   -0.9878297248   -1.2484596000
H       -0.3355079140    0.8631511945    1.5565536919
H       -0.5254769538    1.6176798308   -1.8482358702
C       -2.1394269288   -0.4429918774    1.6091669494
H       -2.8626297114   -1.2189439686    1.7306134594
13   
From optimize.out: Frame 8 / 41, Energy=    -286.8159329634
C        1.8424461791    0.2879832492   -0.2359922458
C        1.0572996403   -0.8690819530   -0.3694996860
C       -0.1763136012   -0.4152098752   -0.8245627730
C       -1.1586062170    0.1904461105    1.3554291253
C        0.0392971948    1.0175604841   -1.1251457128
N        1.2224979514    1.4287138948   -0.7326367371
H        2.8907584153    0.3432814455    0.0279250964
H        1.2708953835   -1.8462862326    0.0506824422
H       -0.9815480921   -1.0114778875   -1.2414317671
H       -0.3564815246    0.8677294328    1.5408259702
H       -0.5642684464    1.6242359127   -1.7910923426
C       -2.1649983626   -0.4395968723    1.6101009307
H       -2.9209785206   -1.1782977089    1.7353976995
13   
From optimize.out: Frame 9 / 41, Energy=    -286.8216676987
C        1.8649382358    0.2952741951   -0.2649025890
C        1.0804650131   -0.8741136286   -0.3782430782
C       -0.1398859054   -0.4355371780   -0.8521916837
C       -1.1886058792    0.1954003874    1.3889124119
C        0.0508868756    1.0012300671   -1.1342005721
N        1.2337833775    1.4257170959   -0.7442263516
H        2.9019715454    0.3547356235    0.0362038727
H        1.3115375897   -1.8513781731    0.0329489886
H       -0.9606536313   -1.0349917329   -1.2339247108
H       -0.3806653955    0.8726654434    1.5289015351
H       -0.5979662762    1.6253577990   -1.7363144356
C       -2.1955163633   -0.4344969285    1.6160730982
H       -2.9802891861   -1.1398629704    1.7409635145
13   
From optimize.out: Frame 10 / 41, Energy=    -286.8263999503
C        1.8877260467    0.3028755085   -0.2901459868
C        1.1046232081   -0.8790138756   -0.3901507198
C       -0.1046761947   -0.4552486075   -0.8807252716
C       -1.2229385545    0.2039430362    1.4279335014
C        0.0643753815    0.9845293907   -1.1455093058
N        1.2452115711    1.4235957003   -0.7537336021
H        2.9142015622    0.3698105919    0.0428547050
H        1.3542314894   -1.8574617372    0.0069113202
H       -0.9394234951   -1.0577670079   -1.2250529317
H       -0.4059521720    0.8764858420    1.5193226167
H       -0.6230983962    1.6211764077   -1.6873445222
C       -2.2318188351   -0.4290027032    1.6272106478
H       -3.0424616113   -1.1039225459    1.7484295488
13   
From optimize.out: Frame 11 / 41, Energy=    -286.8301625134
C        1.9137796022    0.3098455832   -0.3118159604
C        1.1304879570   -0.8836488211   -0.4030078061
C       -0.0723242517   -0.4732559687   -0.9090935413
C       -1.2642368421    0.2148355069    1.4707964204
C        0.0770740324    0.9690607329   -1.1564323990
N        1.2614539640    1.4203323694   -0.7706164958
H        2.9316203718    0.3867113763    0.0469390033
H        1.3974411260   -1.8640416655   -0.0236593022
H       -0.9183630330   -1.0790184946   -1.2158910014
H       -0.4355378707    0.8779884941    1.5135537874
H       -0.6451537867    1.6149197783   -1.6396111380
C       -2.2718210670   -0.4220634336    1.6421216866