13   
From optimize.out: Frame 23 / 24, Energy=    -286.8461971282
C        1.9428671549    0.1644130201   -0.5816694291
C        1.1171166541   -0.7250166629   -0.0036560302
C       -0.2927840060   -0.2256916522   -0.2056906425
C       -1.0511201092    0.0417131585    1.0956345203
C       -0.0024048681    1.0452593303   -0.9825406061
N        1.2505041428    1.2579809599   -1.1897213086
H        3.0249701578    0.1420497572   -0.6411949128
H        1.3785570708   -1.6314259533    0.5273052169
H       -0.8804660219   -0.9148225955   -0.8298881231
H       -0.5399779417    0.7085944320    1.7925776609
H       -0.7717201054    1.7284287703   -1.3355947938
C       -2.2231320458   -0.4639088046    1.4017476031
H       -2.9524100829   -1.1275737599    0.9526908452
13   
From optimize.out: Frame 21 / 24, Energy=    -286.8461841257
C        1.9440650272    0.1716530509   -0.5874306578
C        1.1302606418   -0.7208106557   -0.0004969827
C       -0.2874298832   -0.2381740098   -0.1959431803
C       -1.0464631832    0.0271851779    1.1009929833
C       -0.0096532715    1.0344432931   -0.9794632925
N        1.2397918440    1.2629173050   -1.1863461414
H        3.0252700417    0.1602699572   -0.6582325219
H        1.4059393467   -1.6247519695    0.5278107410
H       -0.8563616113   -0.9370544110   -0.8262947602
H       -0.5248056122    0.6647062582    1.8173950973
H       -0.7882140823    1.7058204065   -1.3348379862
C       -2.2404321822   -0.4369752531    1.3898340540
H       -2.9919670756   -1.0692291495    0.9330126476
13   
From optimize.out: Frame 20 / 24, Energy=    -286.8461253334
C        1.9543283299    0.1637491620   -0.5802131880
C        1.1303614393   -0.7246718020   -0.0014777619
C       -0.2904388215   -0.2394316476   -0.2036270163
C       -1.0628027173    0.0390602718    1.0852916113
C        0.0007231216    1.0399089743   -0.9818915556
N        1.2481984112    1.2571078165   -1.1968529869
H        3.0359333279    0.1633990151   -0.6522375567
H        1.3946035960   -1.6453300184    0.5041725547
H       -0.8425109119   -0.9445846155   -0.8433416827
H       -0.5632220391    0.7046474530    1.7972782525
H       -0.7734259506    1.7321150739   -1.3091353751
C       -2.2457081927   -0.4366146232    1.3987355047
H       -2.9860395929   -1.1093550600    0.9832992001
13   
From optimize.out: Frame 18 / 24, Energy=    -286.8456945674
C        1.9541416042    0.1672841225   -0.5613523211
C        1.1202604899   -0.7344652800   -0.0185654361
C       -0.2957465870   -0.2414470618   -0.2298603451
C       -1.0597291395    0.0440922220    1.0477939973
C        0.0123566975    1.0393391842   -0.9976083722
N        1.2642312486    1.2766359024   -1.1562542343
H        3.0379339771    0.1676659412   -0.5935392037
H        1.3758183801   -1.6737883353    0.4558767423
H       -0.8640823786   -0.9408422982   -0.8601841524
H       -0.5821927200    0.7490902176    1.7372879588
H       -0.7520994105    1.7451474170   -1.3185205370
C       -2.2280046430   -0.4426857780    1.3967314697
H       -2.9828875190   -1.1560262536    1.0981944338
13   
From optimize.out: Frame 16 / 24, Energy=    -286.8433384476
C        1.9554154119    0.1767703637   -0.5363658543
C        1.1135707117   -0.7460595088   -0.0404219152
C       -0.2958487971   -0.2533614370   -0.2806595248
C       -1.0559561737    0.0427107946    1.0183711215
C        0.0196989477    1.0398888778   -1.0172322950
N        1.2754531083    1.2919841946   -1.1269793765
H        3.0395623072    0.1868979934   -0.5194866599
H        1.3620401180   -1.6911504106    0.4256499809
H       -0.8927994023   -0.9449378937   -0.8893708335
H       -0.5714259130    0.7628928110    1.6875816757
H       -0.7397337489    1.7551755196   -1.3279773440
C       -2.2147584704   -0.4491845231    1.3827584458
H       -2.9952180995   -1.1716267816    1.2241325793
13   
From optimize.out: Frame 14 / 24, Energy=    -286.8380932506
C        1.9481972863    0.1895798476   -0.5052641209
C        1.1019751479   -0.7577809272   -0.0605728598
C       -0.2978543405   -0.2647281354   -0.3297247962
C       -1.0403247921    0.0386603008    0.9835617166
C        0.0205876725    1.0393694957   -1.0314250152
N        1.2791292162    1.3064244406   -1.0909944105
H        3.0304544535    0.2053639395   -0.4379125471
H        1.3440257815   -1.7060314904    0.4011883884
H       -0.9310528690   -0.9449283426   -0.9097322033
H       -0.5407227171    0.7680817784    1.6305965297
H       -0.7348042830    1.7566682596   -1.3453099920
C       -2.1887203074   -0.4596986403    1.3643218901
H       -2.9908902487   -1.1709805264    1.3312674201
13   
From optimize.out: Frame 13 / 24, Energy=    -286.8352118420
C        1.9368011514    0.2015921345   -0.4715242984
C        1.0873550040   -0.7700890600   -0.0822127081
C       -0.3004457716   -0.2757572919   -0.3842048051
C       -1.0227419961    0.0356651832    0.9559223813
C        0.0194240517    1.0399861723   -1.0467306871
N        1.2795520023    1.3216676287   -1.0504301161
H        3.0145646938    0.2206358738   -0.3520988265
H        1.3215865713   -1.7188711699    0.3812718496
H       -0.9739282644   -0.9409475460   -0.9308368072
H       -0.5020014110    0.7719735341    1.5762421208
H       -0.7313673597    1.7554999364   -1.3728544069
C       -2.1575796990   -0.4743073238    1.3526874182
H       -2.9712189725   -1.1670480713    1.4247688856
13   
From optimize.out: Frame 11 / 24, Energy=    -286.8281237405
C        1.9205166952    0.2117803384   -0.4343924099
C        1.0683968622   -0.7827251785   -0.1041587347
C       -0.3051284720   -0.2830498578   -0.4371074669
C       -1.0031823160    0.0359778402    0.9364044112
C        0.0160629423    1.0430400212   -1.0589355639
N        1.2768877321    1.3352049831   -1.0086719904
H        2.9919257212    0.2295982756   -0.2667710523
H        1.2918669503   -1.7312553344    0.3641211121
H       -1.0196567838   -0.9289559123   -0.9489835931
H       -0.4580066771    0.7798993334    1.5226234957
H       -0.7266195582    1.7531011553   -1.4114028466
C       -2.1203448607   -0.4912470780    1.3495349368
H       -2.9327182356   -1.1713685862    1.4977397019
13   
From optimize.out: Frame 9 / 24, Energy=    -286.8176047522
C        1.8994199260    0.2204723384   -0.3951358630
C        1.0453537297   -0.7944626172   -0.1263203322
C       -0.3123626798   -0.2855775045   -0.4849346335
C       -0.9828056029    0.0395224140    0.9282163811
C        0.0107493517    1.0483594420   -1.0665691372
N        1.2713567713    1.3471025206   -0.9653904444
H        2.9635440832    0.2324904169   -0.1864023673
H        1.2560447459   -1.7419836372    0.3491453886
H       -1.0645529998   -0.9091208707   -0.9651187128
H       -0.4081524159    0.7899078365    1.4714204409
H       -0.7170222362    1.7485632500   -1.4639311677
C       -2.0798768016   -0.5082043611    1.3547267421
H       -2.8816958718   -1.1870692276    1.5502937055
13   
From optimize.out: Frame 8 / 24, Energy=    -286.8109941957
C        1.8747301373    0.2277290145   -0.3539932989
C        1.0198061649   -0.8051739454   -0.1490132849
C       -0.3211897149   -0.2849038514   -0.5269436568
C       -0.9651595791    0.0464776882    0.9362332294
C        0.0032975980    1.0561009576   -1.0688622245
N        1.2625116219    1.3591058767   -0.9196408614
H        2.9322968148    0.2324482086   -0.1153646827
H        1.2171069636   -1.7515875818    0.3342000099
H       -1.1022597188   -0.8864760780   -0.9841889398
H       -0.3527746762    0.7998556936    1.4236898212
H       -0.7001235490    1.7401994058   -1.5308208587
C       -2.0414108590   -0.5225633865    1.3680007008
H       -2.8268312036   -1.2112120018    1.5867040463
13   
From optimize.out: Frame 6 / 24, Energy=    -286.7950798059
C        1.8496191928    0.2342178394   -0.3102622662
C        0.9964661256   -0.8159497830   -0.1767265631
C       -0.3282535543   -0.2857169433   -0.5650645553
C       -0.9581573382    0.0596409858    0.9680251757
C       -0.0037981900    1.0637126740   -1.0663704904
N        1.2503050371    1.3730610202   -0.8684056341
H        2.9033711040    0.2370508470   -0.0564011812
H        1.1816852387   -1.7650405619    0.3067466213
H       -1.1234496961   -0.8701638830   -1.0166693798
H       -0.3017824051    0.8127676697    1.3847645571
H       -0.6728179009    1.7221264382   -1.6099512693
C       -2.0136558893   -0.5288382852    1.3938376587
H       -2.7795317243   -1.2368680179    1.6164773266
13   
From optimize.out: Frame 4 / 24, Energy=    -286.7650031898
C        1.8340961704    0.2367416401   -0.2718096993
C        0.9850880120   -0.8269636859   -0.2141054455
C       -0.3293421270   -0.2936039347   -0.6048052574
C       -0.9744490755    0.0798748837    1.0309836726
C       -0.0035293721    1.0694961800   -1.0681592927
N        1.2407913103    1.3873816111   -0.8235005276
H        2.8870294640    0.2534024607   -0.0150247393
H        1.1607510586   -1.7831319332    0.2609741296
H       -1.1164016247   -0.8708099338   -1.0785855412
H       -0.2808165088    0.8310334780    1.3810572145
H       -0.6337055094    1.6978189144   -1.6901778260
C       -2.0124155532   -0.5231299668    1.4405408729
H       -2.7570962446   -1.2581097137    1.6526124394
13   
From optimize.out: Frame 2 / 24, Energy=    -286.6927183242
C        1.8229672099    0.2347104266   -0.2382977948
C        0.9794805587   -0.8369491174   -0.2535980296
C       -0.3315950310   -0.3029997905   -0.6385888787
C       -0.9973497365    0.0999193391    1.0950362116
C        0.0000976104    1.0762426207   -1.0731954235
N        1.2324227094    1.4002629211   -0.7865111037
H        2.8760568294    0.2741481251    0.0158653202
H        1.1466485365   -1.8016499278    0.2100769062
H       -1.0974489123   -0.8772476017   -1.1503719562
H       -0.2824046772    0.8509152266    1.3991903799
H       -0.5852171194    1.6737852365   -1.7667557794
C       -2.0213099747   -0.5138863148    1.4926625968
H       -2.7423480031   -1.2772511435    1.6944875513
13   
From optimize.out: Frame 1 / 24, Energy=    -286.6300281804
C        1.8088830307    0.2289313425   -0.2023515680
C        0.9722635513   -0.8453261717   -0.2932177137
C       -0.3414373708   -0.3096519676   -0.6629561910
C       -1.0149742321    0.1183659141    1.1470790661
C        0.0023665300    1.0846822182   -1.0774337043
N        1.2205138278    1.4121847905   -0.7484912895
H        2.8621926930    0.2972550986    0.0451180798
H        1.1307349239   -1.8198435716    0.1563822398
H       -1.0807024193   -0.8803774873   -1.2179604943
H       -0.2877050922    0.8714762235    1.4210169767
H       -0.5256719662    1.6454533420   -1.8456218557
C       -2.0263637180   -0.5053465426    1.5412744809
H       -2.7200997581   -1.2978031886    1.7371619732
13   
C6H6N->C4H4N+C2H2 atoms 1-13 frame 537 charge -0.000 sz -1.000 sz^2 1.281
C        1.7967198008    0.2161653986   -0.1635860766
C        0.9651673172   -0.8512789631   -0.3335540258
C       -0.3616985529   -0.3145054699   -0.6754438974
C       -1.0285328714    0.1371797304    1.1888751335
C        0.0039175499    1.0948230510   -1.0818419824
N        1.2052028572    1.4252906625   -0.7116013009
H        2.8499483929    0.3260805331    0.0719418446
H        1.1159656278   -1.8383320672    0.0954844069
H       -1.0693899692   -0.8834144106   -1.2750867047
H       -0.2928417785    0.8940574140    1.4489769427
H       -0.4575471557    1.6096777395   -1.9242767746
C       -2.0312467789   -0.4960176109    1.5850848190
H       -2.6956644392   -1.3197260072    1.7750276157
13   
C6H6N->C4H4N+C2H2 atoms 1-13 frame 539 charge +0.000 sz -1.000 sz^2 1.246
C        1.7987177117    0.1921811308   -0.1278331430
C        0.9643886040   -0.8558589756   -0.3757448878
C       -0.3934536404   -0.3201937998   -0.6780196061
C       -1.0452382779    0.1578887787    1.2268034372
C        0.0062214657    1.1117199840   -1.0898383948
N        1.1924882124    1.4437392815   -0.6857150368
H        2.8505965933    0.3562619849    0.0972250121
H        1.1094415084   -1.8567852137    0.0272365214
H       -1.0677303060   -0.8914187614   -1.3188289263
H       -0.3003240196    0.9256812874    1.4884949360
H       -0.3892158357    1.5744263754   -1.9976375996
C       -2.0459624446   -0.4878153134    1.6266587982
H       -2.6799295713   -1.3498267587    1.8071988894
13   
C6H6N->C4H4N+C2H2 atoms 1-13 frame 540 charge +0.000 sz -1.000 sz^2 1.229
C        1.8253853268    0.1604962927   -0.1065026408
C        0.9754648076   -0.8627375070   -0.4139827720
C       -0.4344244664   -0.3279544908   -0.6748644033
C       -1.0709650628    0.1783901614    1.2621266675
C        0.0088665453    1.1395061014   -1.1022047053
N        1.1906097655    1.4673337681   -0.6762208282
H        2.8768510650    0.3794673336    0.1134176027
H        1.1183327933   -1.8744021369   -0.0338876212
H       -1.0813771523   -0.9049256024   -1.3476040845
H       -0.3064463335    0.9743524210    1.5394540622
H       -0.3322008864    1.5553393005   -2.0587160099
C       -2.0815069719   -0.4871176728    1.6655165087
H       -2.6885894303   -1.3977479689    1.8334682242
13   
From optimize.out: Frame 2 / 41, Energy=    -286.7040734658
C        1.8681839213    0.1343724872   -0.1017689024
C        0.9943645756   -0.8716577863   -0.4428348283
C       -0.4704207204   -0.3349514926   -0.6728268649
C       -1.0977436602    0.1971017782    1.2921422269
C        0.0134185833    1.1691171226   -1.1162593421
N        1.2028421482    1.4887490516   -0.6792094730
H        2.9220704284    0.3952890688    0.1167687415
H        1.1375924029   -1.8892917985   -0.0761957764
H       -1.1017599044   -0.9179533826   -1.3655286416
H       -0.3008814947    1.0337019606    1.5889136428
H       -0.2932335049    1.5544444687   -2.1018428560
C       -2.1393756492   -0.5005367731    1.7005420542
H       -2.7350571257   -1.4583847047    1.8581000194
13   
From optimize.out: Frame 4 / 41, Energy=    -286.7741829675
C        1.9183002199    0.1192550443   -0.1053017974
C        1.0141626498   -0.8773319134   -0.4672628208
C       -0.4987620407   -0.3395583840   -0.6739776069
C       -1.1232714863    0.2131294164    1.3206438070
C        0.0189309827    1.1929985737   -1.1299845266
N        1.2236162039    1.5046768266   -0.6844519876
H        2.9795818366    0.4080370070    0.1134680760
H        1.1584174102   -1.8984014561   -0.1096113532
H       -1.1230167946   -0.9274312037   -1.3803409134
H       -0.2921303626    1.0866733611    1.6310683640
H       -0.2644509903    1.5565011764   -2.1363333874
C       -2.2044858305   -0.5224687270    1.7342058483
H       -2.8068917981   -1.5160797214    1.8878782981
13   
From optimize.out: Frame 6 / 41, Energy=    -286.8005255443
C        1.9460855076    0.1269633320   -0.0902965994
C        1.0175532204   -0.8762499690   -0.4799873631
C       -0.5078680800   -0.3368837640   -0.6849976184
C       -1.1457913153    0.2275615965    1.3423640490
C        0.0158218346    1.1896983410   -1.1400670511
N        1.2519987482    1.5162369059   -0.6914434147
H        3.0412247124    0.4045785607    0.0867010642
H        1.1592405738   -1.8864897326   -0.1314502700
H       -1.1360069423   -0.9180023312   -1.3677141776
H       -0.2730792590    1.0950329517    1.6874405648
H       -0.2594789331    1.5453583111   -2.1734095112
C       -2.2495242976   -0.5276999902    1.7538977861
H       -2.8601757699   -1.5601042119    1.8889625414
13   
From optimize.out: Frame 7 / 41, Energy=    -286.8090270493
C        1.9411561950    0.1666160426   -0.0488551545
C        1.0025308675   -0.8657194459   -0.4749753701
C       -0.4870856033   -0.3252779719   -0.7080414140
C       -1.1655564517    0.2416576042    1.3560051249
C        0.0022658334    1.1493320216   -1.1482966850
N        1.2874631850    1.5253712734   -0.7047716807
H        3.0916795954    0.3747778538    0.0292739616
H        1.1397115593   -1.8524196464   -0.1388650389
H       -1.1385153079   -0.8877831282   -1.3131900577
H       -0.2638188765    1.0304601547    1.7581464137
H       -0.2873487432    1.5157216003   -2.2069957945
C       -2.2614428023   -0.5062402368    1.7556827167
H       -2.8610394508   -1.5664961214    1.8448829785
13   
From optimize.out: Frame 9 / 41, Energy=    -286.8216676987
C        1.9289489978    0.2091626368   -0.0185706429
C        0.9933905156   -0.8528816862   -0.4642445715
C       -0.4551378439   -0.3156262912   -0.7271006084
C       -1.1788787644    0.2523816647    1.3651648748
C       -0.0059708575    1.1108014370   -1.1563688027
N        1.3095751166    1.5317678414   -0.7186762071
H        3.1033547703    0.3469064759   -0.0161773709
H        1.1321100279   -1.8347814977   -0.1354241719
H       -1.1429375769   -0.8733230289   -1.2681795237
H       -0.2845285011    0.9550620631    1.7983423636
H       -0.3138592490    1.4892412247   -2.2126183116
C       -2.2560023589   -0.4838820247    1.7526159614
H       -2.8300642766   -1.5348288150    1.8012370109
13   
From optimize.out: Frame 11 / 41, Energy=    -286.8301625134
C        1.8698499645    0.2152342379   -0.0271604516
C        0.9856232309   -0.8563869131   -0.4448512862
C       -0.4207082406   -0.3222166155   -0.7279396969
C       -1.1551184305    0.2431188359    1.3436988538
C       -0.0013845924    1.0998277662   -1.1439202914
N        1.2662077543    1.5160986252   -0.7082146067
H        3.0162870637    0.3522695079   -0.0049347656
H        1.1283987434   -1.8465034398   -0.0990640087
H       -1.1178779141   -0.8906740213   -1.2726935655
H       -0.2906870194    0.9298895863    1.7573911472
H       -0.3155923690    1.4988693604   -2.1680715713
C       -2.1997379202   -0.4620725448    1.7213608794
H       -2.7652602706   -1.4774543853    1.7743993637
13   
From optimize.out: Frame 13 / 41, Energy=    -286.8345178012
C        1.8196058301    0.2251336017   -0.0437851720
C        0.9832407002   -0.8557814891   -0.4227958173
C       -0.3778765540   -0.3313391136   -0.7335623135
C       -1.1334610245    0.2300152920    1.3263168191
C        0.0057217413    1.0863037570   -1.1304273823
N        1.2209601097    1.4874110402   -0.6981499375
H        2.9378732800    0.3562987479    0.0035823973
H        1.1329193490   -1.8487730288   -0.0601744768
H       -1.0863911571   -0.9068916108   -1.2763192227
H       -0.2984306352    0.8991409718    1.7070851400
H       -0.3281052920    1.5151597739   -2.1132219048
C       -2.1489269690   -0.4470831007    1.6875786520
H       -2.7271293786   -1.4095948415    1.7538732186
13   
From optimize.out: Frame 14 / 41, Energy=    -286.8357048406
C        1.7951005827    0.2423110743   -0.0823692801
C        0.9883900700   -0.8572333396   -0.3937851382
C       -0.3273397914   -0.3456360598   -0.7450564918
C       -1.1165660064    0.2134306152    1.3118954251
C        0.0132254827    1.0725595363   -1.1190821822
N        1.1979950897    1.4613076390   -0.6968071104
H        2.8890918718    0.3547544404    0.0016697022
H        1.1462513358   -1.8487820990   -0.0050763249
H       -1.0568158613   -0.9280549989   -1.2732133101
H       -0.3047551304    0.8724654589    1.6489080773
H       -0.3722201461    1.5488048260   -2.0393391987
C       -2.1192647976   -0.4433493255    1.6530846174
H       -2.7330926996   -1.3425777673    1.7391712143
13   
From optimize.out: Frame 16 / 41, Energy=    -286.8362173905
C        1.8004937773    0.2609872518   -0.1368098788
C        1.0041074834   -0.8593095943   -0.3716844391
C       -0.2775822261   -0.3648576647   -0.7643131866
C       -1.1153945451    0.1983323660    1.3084683768
C        0.0182259341    1.0567780345   -1.1142407269
N        1.2022570416    1.4435392120   -0.7058317495
H        2.8792050169    0.3437080065    0.0025049695
H        1.1755116715   -1.8444151058    0.0411112875
H       -1.0337738240   -0.9524576068   -1.2623293850
H       -0.3128423082    0.8624144116    1.5991784263
H       -0.4432738126    1.5867961022   -1.9523028578
C       -2.1170740887   -0.4446953978    1.6256130822
H       -2.7798601198   -1.2868200154    1.7306360815
13   
From optimize.out: Frame 18 / 41, Energy=    -286.8365485126
C        1.8184150984    0.2764496426   -0.1907723696
C        1.0289619718   -0.8635565730   -0.3645070200
C       -0.2265594902   -0.3889555289   -0.7917537823
C       -1.1302377126    0.1902689179    1.3233847347
C        0.0264449574    1.0380938744   -1.1167592503
N        1.2114983480    1.4335887939   -0.7194079256
H        2.8823242806    0.3377886682    0.0143547573
H        1.2202719973   -1.8430528019    0.0587247116
H       -1.0089032881   -0.9810161928   -1.2508886972
H       -0.3304749563    0.8624594959    1.5633045614
H       -0.5108930589    1.6130618850   -1.8670210299
C       -2.1342193349   -0.4436441333    1.6112090068
H       -2.8466288126   -1.2314860480    1.7301323031
13   
From optimize.out: Frame 19 / 41, Energy=    -286.8366283542
C        1.8430240627    0.2881705739   -0.2367350330
C        1.0578948232   -0.8692112308   -0.3697243281
C       -0.1753776724   -0.4157321402   -0.8252726366
C       -1.1593769918    0.1905733996    1.3562894042
C        0.0395949659    1.0171409102   -1.1253783573
N        1.2227879054    1.4286368987   -0.7329345066
H        2.8910465119    0.3435757352    0.0281378012
H        1.2719395949   -1.8464170588    0.0502268204
H       -0.9810112552   -1.0120820237   -1.2412388899
H       -0.3571028755    0.8678562526    1.5405195983
H       -0.5651342374    1.6242647371   -1.7896849457
C       -2.1657824549   -0.4394658405    1.6102543723
H       -2.9225023766   -1.1773102135    1.7355407008
13   
From optimize.out: Frame 21 / 41, Energy=    -286.8368383316
C        1.8721831729    0.2976908835   -0.2729282317
C        1.0881456369   -0.8756715659   -0.3820288791
C       -0.1286916691   -0.4418040400   -0.8612633778
C       -1.1995212793    0.1981163549    1.4013184013
C        0.0551752812    0.9959204149   -1.1377959620
N        1.2374167473    1.4250426398   -0.7472489953
H        2.9058598391    0.3595284137    0.0383183743
H        1.3251112769   -1.8533123229    0.0246708231
H       -0.9539039263   -1.0422326844   -1.2311041028
H       -0.3887048297    0.8738800641    1.5258561060
H       -0.6059565403    1.6240284077   -1.7207454130
C       -2.2070580215   -0.4327501474    1.6196140635
H       -3.0000556881   -1.1284364180    1.7433371936
13   
From optimize.out: Frame 23 / 41, Energy=    -286.8370712758
C        1.9026317772    0.3068632197   -0.3025437874
C        1.1194209188   -0.8816656153   -0.3975065014
C       -0.0861670379   -0.4655509585   -0.8969552937
C       -1.2465660838    0.2101748242    1.4524561858
C        0.0716405192    0.9756794798   -1.1517586135
N        1.2545041504    1.4217286871   -0.7633926240
H        2.9241671917    0.3794798494    0.0451914091
H        1.3789525376   -1.8612262383   -0.0105787095
H       -0.9273744075   -1.0699253843   -1.2198112185
H       -0.4228787083    0.8773455376    1.5160221606
H       -0.6357167011    1.6175968720   -1.6600353528
C       -2.2547048665   -0.4250326162    1.6357415343
H       -3.0779092898   -1.0854676572    1.7531708110
13   
From optimize.out: Frame 25 / 41, Energy=    -286.8372691178
C        1.9310510359    0.3172276482   -0.3275688564
C        1.1517894340   -0.8864417317   -0.4156329963
C       -0.0457643488   -0.4874885420   -0.9308224068
C       -1.2996151754    0.2263092968    1.5075952704
C        0.0895427809    0.9560497267   -1.1670492732
N        1.2674866809    1.4209848141   -0.7676038801
H        2.9433475496    0.3990771913    0.0458046678
H        1.4362080565   -1.8687914382   -0.0556975743
H       -0.8999041905   -1.0945061143   -1.2091362677
H       -0.4597553002    0.8756275099    1.5118025872
H       -0.6506720634    1.6045249209   -1.6180750152
C       -2.3077576119   -0.4163284997    1.6587025903
H       -3.1559568476   -1.0462447821    1.7676811543
13   
From optimize.out: Frame 26 / 41, Energy=    -286.8373435776
C        1.9649800648    0.3228662637   -0.3486295176
C        1.1836319713   -0.8901577339   -0.4300822488
C       -0.0132362824   -0.5021617129   -0.9578998839
C       -1.3581461909    0.2422795491    1.5580189314
C        0.1043160321    0.9432641045   -1.1750021197
N        1.2994636095    1.4148540776   -0.8136892823
H        2.9721259061    0.4203777313    0.0401004933
H        1.4802654929   -1.8741826441   -0.0873868307
H       -0.8730302950   -1.1134743266   -1.2024842694
H       -0.5010622701    0.8717307668    1.5181004626
H       -0.6664488457    1.5988975306   -1.5639195367
C       -2.3642521630   -0.4104893210    1.6824743469
H       -3.2286070297   -1.0238042850    1.7803994550
13   
From optimize.out: Frame 28 / 41, Energy=    -286.8374512176
C        1.9892759558    0.3335470053   -0.3638487498
C        1.2183720435   -0.8935086818   -0.4514778672
C        0.0213839173   -0.5199962969   -0.9869648598
C       -1.4194727203    0.2623483275    1.6096925756
C        0.1199479436    0.9263411732   -1.1896166151
N        1.3037917652    1.4168680549   -0.7968509559
H        2.9925933245    0.4363876749    0.0345511483
H        1.5416405438   -1.8805119862   -0.1444775284
H       -0.8458947024   -1.1322806199   -1.1989592940
H       -0.5409711420    0.8577364554    1.5279656796
H       -0.6645808891    1.5779311235   -1.5583890673
C       -2.4170732107   -0.3977865526    1.7136353989
H       -3.2990128290   -0.9870756772    1.8047401351
13   
From optimize.out: Frame 30 / 41, Energy=    -286.8374994420
C        2.0169183687    0.3419206607   -0.3780686045
C        1.2538632258   -0.8963208493   -0.4740913995
C        0.0554239893   -0.5359480340   -1.0139655757
C       -1.4821193638    0.2854503288    1.6634629331
C        0.1369768283    0.9117977064   -1.1999744608
N        1.3190743550    1.4170017660   -0.8043872431
H        3.0199774659    0.4548077405    0.0263163519
H        1.5979648518   -1.8864583519   -0.1971588040
H       -0.8184988652   -1.1498199837   -1.1968473725
H       -0.5841703403    0.8460739435    1.5429207800
H       -0.6635937893    1.5597982342   -1.5434211788
C       -2.4793725785   -0.3892295423    1.7470070819
H       -3.3724441476   -0.9590736190    1.8282074919
13   
From optimize.out: Frame 31 / 41, Energy=    -286.8375205631
C        2.0272909629    0.3471394356   -0.3697403618
C        1.2882183350   -0.8994082423   -0.5118511038
C        0.0760426679   -0.5423080792   -1.0214842415
C       -1.5350998748    0.2980673249    1.7012364776
C        0.1486758375    0.9076550372   -1.1914588564
N        1.3225435243    1.4235379878   -0.7884485386
H        3.0397155527    0.4611693816    0.0067964395
H        1.6376872494   -1.8862737336   -0.2465324130
H       -0.7925232342   -1.1561347642   -1.2180726912
H       -0.6206470497    0.8373221658    1.5854036522
H       -0.6347165869    1.5409759940   -1.5954733593
C       -2.5321344202   -0.3758802271    1.7869182115
H       -3.4250529637   -0.9558622807    1.8627067849
13   
From optimize.out: Frame 33 / 41, Energy=    -286.8375585693
C        2.0526705207    0.3518793021   -0.3905198374
C        1.3312180741   -0.9057884405   -0.5444307509
C        0.1095214182   -0.5535084317   -1.0385311753
C       -1.5884579768    0.2972968415    1.7389608739
C        0.1542799312    0.9032171779   -1.1873014852
N        1.3315965431    1.4229428372   -0.7852322463
H        3.0608544686    0.4710357514   -0.0068354591
H        1.6958056831   -1.8937240998   -0.2835740520
H       -0.7492130410   -1.1803062047   -1.2417950530
H       -0.6725291473    0.8374661140    1.6230740058
H       -0.6318724109    1.5349679985   -1.6025789976
C       -2.5979816498   -0.3575873931    1.8223367445
H       -3.4958924133   -0.9278914528    1.8964274327
13   
From optimize.out: Frame 35 / 41, Energy=    -286.8375758291
C        2.0789052489    0.3511491740   -0.4192982834
C        1.3669917024   -0.9107834545   -0.5704129756
C        0.1399924896   -0.5649878480   -1.0567688867
C       -1.6350253032    0.2888651620    1.7708687420
C        0.1676960690    0.8943006507   -1.1895209955
N        1.3376943278    1.4215236266   -0.7950458508
H        3.0807815768    0.4868513365   -0.0187726029
H        1.7485560351   -1.8944714364   -0.3177148901
H       -0.6991506924   -1.2104936452   -1.2703997444
H       -0.7311010299    0.8447065790    1.6630962537
H       -0.6261017962    1.5265914955   -1.5794397719
C       -2.6621284734   -0.3362829505    1.8547354305
H       -3.5671101547   -0.8969686897    1.9286735751
13   
From optimize.out: Frame 37 / 41, Energy=    -286.8375861324
C        2.1023396343    0.3566714987   -0.4323116055
C        1.4039503026   -0.9093260278   -0.5967062678
C        0.1701698128   -0.5787770397   -1.0728022871
C       -1.6915227861    0.2915720819    1.8066668761
C        0.1881167705    0.8800942245   -1.1962952042
N        1.3507847281    1.4199040841   -0.8006367808
H        3.1037655349    0.5020428527   -0.0379693172
H        1.7962524373   -1.8900523130   -0.3652730525
H       -0.6603484748   -1.2346539767   -1.2977908133
H       -0.7850045088    0.8454715908    1.7054089304
H       -0.6138925150    1.5088653302   -1.5669824892
C       -2.7273121287   -0.3196238274    1.8911070500
H       -3.6372988072   -0.8721884784    1.9635849611
13   
From optimize.out: Frame 38 / 41, Energy=    -286.8375905481
C        2.1266721354    0.3659803359   -0.4446561257
C        1.4424902105   -0.9100608353   -0.6208796900
C        0.2029545038   -0.5914753898   -1.0903480897
C       -1.7506885927    0.2970676874    1.8385809849
C        0.2018851546    0.8673912118   -1.2004822427
N        1.3646151591    1.4186395541   -0.7995317082
H        3.1311240524    0.5117258800   -0.0602566700
H        1.8484472571   -1.8903832327   -0.4085969527
H       -0.6203980104   -1.2548355124   -1.3269191356
H       -0.8376287226    0.8419900409    1.7483658808
H       -0.6103083440    1.4925450746   -1.5626312109
C       -2.7914044156   -0.3043367015    1.9260433959