13   
From optimize.out: Frame 1 / 2, Energy=    -286.8516486485
C        0.0922060000   -0.0087790000   -0.0000000000
C       -0.2459350000   -0.0439730000    0.0000000000
C       -0.0960180000    0.9759590000   -0.0000000000
C       -0.0874490000    0.0402510000    0.0000000000
C       -0.0950410000   -0.0451140000   -0.0000000000
N       -0.3251060000    0.0220660000   -0.0000000000
H        0.1496990000   -0.0001790000   -0.0000000000
H        0.1337800000    0.0028590000    0.0000000000
H        0.1388220000   -0.0264930000   -0.0000000000
H        0.1460620000    0.0008450000    0.0000000000
H        0.1398020000    0.0030050000   -0.0000000000
C       -0.0964550000    0.0792040000    0.0000000000
H        0.1456320000    0.0003460000    0.0000000000
