13   
From optimize.out: Frame 33 / 34, Energy=    -286.9243409348
C        1.3391982006    0.8949661606   -0.5132029640
C        0.2986262970   -1.4060198555   -0.2409339399
C       -0.9094341894   -1.0965453261    0.3087215996
C       -1.4023215397    0.2190729393    0.6293318866
C       -0.7723250425    1.4351560426    0.4481363436
N        0.4355386852    1.7898203683   -0.0521552341
H        2.2496294514    1.3812045761   -0.8709498022
H        0.5110239971   -2.4584455753   -0.4185099411
H       -1.5814082475   -1.9223273493    0.5336194848
H       -2.3961128600    0.2657600052    1.0682431779
H       -1.3513514400    2.3037290084    0.7693430691
C        1.3396267696   -0.4842078085   -0.6180921256
H        2.2393099178   -0.9221631860   -1.0435515545
13   
From optimize.out: Frame 32 / 34, Energy=    -286.9243386428
C        1.3386248498    0.8954700006   -0.5139401933
C        0.2989210676   -1.4055432482   -0.2405968341
C       -0.9098526588   -1.0964669666    0.3084874159
C       -1.4019696107    0.2190398229    0.6294874114
C       -0.7722122737    1.4348758283    0.4496313857
N        0.4352935617    1.7894771259   -0.0534037678
H        2.2487867547    1.3815528114   -0.8728977346
H        0.5107613541   -2.4580240318   -0.4188426798
H       -1.5816850485   -1.9227413339    0.5314516869
H       -2.3957045775    0.2661804450    1.0688233646
H       -1.3510746917    2.3036672974    0.7699845879
C        1.3401272488   -0.4843629427   -0.6169102441
H        2.2399840243   -0.9231248082   -1.0412743986
13   
From optimize.out: Frame 31 / 34, Energy=    -286.9243294068
C        1.3379591833    0.8963236958   -0.5155900675
C        0.3003105473   -1.4046491881   -0.2386054853
C       -0.9114674010   -1.0962913527    0.3058752363
C       -1.4037371840    0.2196265255    0.6259184786
C       -0.7721074675    1.4343463647    0.4519683971
N        0.4362153375    1.7886127133   -0.0534553046
H        2.2451309907    1.3822725626   -0.8824266794
H        0.5126532766   -2.4575155372   -0.4137852819
H       -1.5828806809   -1.9233041812    0.5271276056
H       -2.3973371037    0.2665992314    1.0655589190
H       -1.3471851827    2.3029140849    0.7795123863
C        1.3408857911   -0.4842907241   -0.6155585927
H        2.2415598933   -0.9246441950   -1.0365396116
13   
From optimize.out: Frame 30 / 34, Energy=    -286.9243124870
C        1.3376001873    0.8976685691   -0.5161140937
C        0.3018503697   -1.4034026031   -0.2377105127
C       -0.9115561978   -1.0956410603    0.3048139125
C       -1.4064436884    0.2209055897    0.6219346383
C       -0.7729881412    1.4334562459    0.4536829563
N        0.4389241579    1.7868764926   -0.0490377430
H        2.2455606147    1.3842285070   -0.8801226836
H        0.5149598273   -2.4572967735   -0.4059094380
H       -1.5809138970   -1.9230969991    0.5306925400
H       -2.4008968779    0.2667283847    1.0594592545
H       -1.3460536281    2.3025887501    0.7831785373
C        1.3405198559   -0.4850049739   -0.6215729833
H        2.2394374175   -0.9280101291   -1.0432943846
13   
From optimize.out: Frame 29 / 34, Energy=    -286.9242802050
C        1.3372651168    0.8982363497   -0.5161485749
C        0.3018199405   -1.4042954547   -0.2357551383
C       -0.9126100724   -1.0960486807    0.2998468969
C       -1.4091195956    0.2223091413    0.6180723685
C       -0.7712454997    1.4321112716    0.4582109933
N        0.4425243912    1.7869690655   -0.0434053711
H        2.2412421280    1.3856835265   -0.8891458523
H        0.5202450295   -2.4584189132   -0.3966846098
H       -1.5822567809   -1.9220158476    0.5302036360
H       -2.4049325642    0.2667432757    1.0523130512
H       -1.3417605537    2.3020137844    0.7900154221
C        1.3389519982   -0.4860671504   -0.6244019669
H        2.2398764623   -0.9272203680   -1.0431208546
13   
From optimize.out: Frame 28 / 34, Energy=    -286.9242218479
C        1.3386894012    0.8990820034   -0.5127746846
C        0.3007258565   -1.4047705073   -0.2359391920
C       -0.9100080679   -1.0975655095    0.3060513316
C       -1.4102524660    0.2230605069    0.6173165624
C       -0.7736224859    1.4314226063    0.4568960198
N        0.4497359060    1.7851897603   -0.0315790393
H        2.2472503642    1.3851187628   -0.8780516914
H        0.5209719524   -2.4589153154   -0.3961533439
H       -1.5772497673   -1.9227302780    0.5451065533
H       -2.4104350253    0.2670860353    1.0417173406
H       -1.3442926436    2.3036835186    0.7813576890
C        1.3329131749   -0.4885220100   -0.6356161640
H        2.2355738008   -0.9221395732   -1.0583313813
13   
From optimize.out: Frame 27 / 34, Energy=    -286.9239932986
C        1.3376734349    0.9012267264   -0.5110751724
C        0.2928997769   -1.4024381460   -0.2485943358
C       -0.9035954970   -1.1024053278    0.3197476323
C       -1.4036793902    0.2238570682    0.6238820285
C       -0.7752126567    1.4291758047    0.4579412504
N        0.4603624700    1.7873463911   -0.0146700281
H        2.2480761423    1.3854069014   -0.8751515715
H        0.5086761036   -2.4565026049   -0.4159441042
H       -1.5664429193   -1.9284461356    0.5663473045
H       -2.4118927252    0.2713843376    1.0295365818
H       -1.3547764559    2.3024722553    0.7615276082
C        1.3318808666   -0.4846533893   -0.6410582615
H        2.2360308500   -0.9264238811   -1.0524889321
13   
From optimize.out: Frame 26 / 34, Energy=    -286.9232951082
C        1.3497897991    0.9034165867   -0.4730096863
C        0.2898094937   -1.3951066311   -0.2685022683
C       -0.8881332633   -1.1045553505    0.3652178500
C       -1.3979967151    0.2229906815    0.6335534729
C       -0.7870296893    1.4287877514    0.4426024994
N        0.4884900102    1.7769212997    0.0369515791
H        2.2739188744    1.3768794340   -0.8179616432
H        0.4985868650   -2.4466295280   -0.4617268905
H       -1.5323630720   -1.9360356147    0.6386777627
H       -2.4191404294    0.2726533217    1.0081851773
H       -1.3868772166    2.3089693514    0.6744453657
C        1.3124356866   -0.4842677371   -0.6640364394
H        2.1985096567   -0.9240235651   -1.1143967794
13   
From optimize.out: Frame 25 / 34, Energy=    -286.9223965633
C        1.3599575435    0.9051039835   -0.4382094004
C        0.2915457432   -1.3841692891   -0.2828938497
C       -0.8711771200   -1.0988378222    0.4023840823
C       -1.3990560977    0.2221249900    0.6356347015
C       -0.8037851011    1.4292106384    0.4144135472
N        0.5012673186    1.7623019891    0.0741778184
H        2.3142609087    1.3662333859   -0.7105649906
H        0.4883239538   -2.4371753787   -0.4828354052
H       -1.4910336589   -1.9353445220    0.7131834333
H       -2.4240543664    0.2666669026    1.0018587856
H       -1.4140627867    2.3144851911    0.5889174911
C        1.2974981832   -0.4837618492   -0.7043096165
H        2.1503154797   -0.9268382194   -1.2117565970
13   
From optimize.out: Frame 24 / 34, Energy=    -286.9218580238
C        1.3634309356    0.9060891770   -0.4297330418
C        0.2906253137   -1.3854148472   -0.2840199284
C       -0.8668616810   -1.0989508336    0.4212228122
C       -1.4015494767    0.2201791154    0.6362603835
C       -0.8066905571    1.4268082149    0.4023689676
N        0.5134781434    1.7501013500    0.0889432072
H        2.3469174178    1.3414989121   -0.6351006618
H        0.4865856134   -2.4402871034   -0.4767244006
H       -1.4730361294   -1.9362031095    0.7553076376
H       -2.4297481478    0.2635314296    0.9940484979
H       -1.4187482479    2.3165234986    0.5415950774
C        1.2676368524   -0.4843460299   -0.7401634892
H        2.1279599636   -0.8795297739   -1.2740050616
13   
From optimize.out: Frame 23 / 34, Energy=    -286.9209874643
C        1.3686562617    0.8990513384   -0.3973727749
C        0.3006637594   -1.3840451952   -0.2803334887
C       -0.8584031654   -1.0914296267    0.4249915930
C       -1.4074984714    0.2228364986    0.6190332006
C       -0.8157665469    1.4296070107    0.3801843572
N        0.5153922000    1.7390869595    0.1100513251
H        2.3704289807    1.3159161445   -0.5474015565
H        0.5088883893   -2.4431578654   -0.4342868545
H       -1.4481499276   -1.9280266174    0.7891497163
H       -2.4330840219    0.2616107139    0.9842390939
H       -1.4247424339    2.3224018040    0.5117124764
C        1.2480087282   -0.4846424243   -0.7816298751
H        2.0756062477   -0.8592087407   -1.3783372127
13   
From optimize.out: Frame 22 / 34, Energy=    -286.9192136563
C        1.3711538415    0.8929201725   -0.3845189141
C        0.3104447061   -1.3866688844   -0.2675283572
C       -0.8572807060   -1.0885683309    0.4179961339
C       -1.4136430099    0.2245525880    0.6009197479
C       -0.8169933232    1.4305280330    0.3709302894
N        0.5156657967    1.7303837264    0.1113856179
H        2.3893036524    1.2873910431   -0.4744008175
H        0.5378210136   -2.4484547453   -0.3706288491
H       -1.4387456827   -1.9232281087    0.7999870468
H       -2.4369379095    0.2626327265    0.9715431729
H       -1.4202794408    2.3259633265    0.5105552354
C        1.2257490874   -0.4833772406   -0.8218049952
H        2.0337419743   -0.8240743061   -1.4644353111
13   
From optimize.out: Frame 21 / 34, Energy=    -286.9164596438
C        1.3759021165    0.8849067799   -0.3720584812
C        0.3230333454   -1.3863567102   -0.2482803802
C       -0.8577114769   -1.0869406777    0.4068498179
C       -1.4197404887    0.2256712788    0.5807871742
C       -0.8160079707    1.4308090047    0.3658831891
N        0.5141982505    1.7224109182    0.1078275152
H        2.4026414329    1.2647197352   -0.4169818089
H        0.5753197527   -2.4467537384   -0.3007664539
H       -1.4355263238   -1.9204235649    0.7973162069
H       -2.4409236100    0.2653813031    0.9559568841
H       -1.4128214388    2.3278341996    0.5227008845
C        1.2071400079   -0.4805632038   -0.8548220332
H        1.9844964031   -0.8006953246   -1.5444125145
13   
From optimize.out: Frame 20 / 34, Energy=    -286.9127492784
C        1.3832134561    0.8787450755   -0.3665857963
C        0.3362409040   -1.3815859693   -0.2225180530
C       -0.8602411246   -1.0876918923    0.3963330586
C       -1.4254135695    0.2249044753    0.5629229938
C       -0.8123561963    1.4289536581    0.3652704442
N        0.5122108403    1.7147771188    0.0959138704
H        2.4151146043    1.2470819804   -0.3655216859
H        0.6163340131   -2.4369146084   -0.2322491948
H       -1.4382800375   -1.9216663001    0.7858461161
H       -2.4455806472    0.2686566879    0.9393612493
H       -1.4029101539    2.3267266396    0.5409245937
C        1.1909187065   -0.4747096032   -0.8833981587
H        1.9307492048   -0.7872772622   -1.6162994374
13   
From optimize.out: Frame 19 / 34, Energy=    -286.9080541727
C        1.3931384223    0.8736256285   -0.3629807096
C        0.3519962035   -1.3704006284   -0.1893513193
C       -0.8625926579   -1.0890428647    0.3890823955
C       -1.4308303128    0.2227027883    0.5476450460
C       -0.8075261217    1.4260307229    0.3670836428
N        0.5098053722    1.7071201600    0.0803734024
H        2.4270684955    1.2347705685   -0.3201779838
H        0.6638627405   -2.4172544451   -0.1715431682
H       -1.4436015768   -1.9259842000    0.7684002285
H       -2.4518295323    0.2713303782    0.9200637290
H       -1.3923822016    2.3239390270    0.5608295397
C        1.1778503344   -0.4662205018   -0.9062749160
H        1.8650408347   -0.7906166335   -1.6831498870
13   
From optimize.out: Frame 18 / 34, Energy=    -286.9020129151
C        1.4030895036    0.8711510629   -0.3631416091
C        0.3714279336   -1.3519154225   -0.1502747826
C       -0.8613137590   -1.0885118741    0.3880587622
C       -1.4354527918    0.2197481228    0.5372961040
C       -0.8020374697    1.4230378868    0.3714429548
N        0.5065878755    1.7001890214    0.0624855837
H        2.4370488063    1.2249553675   -0.2711665601
H        0.7157839222   -2.3886442122   -0.1240492971
H       -1.4462345575   -1.9313201228    0.7492047652
H       -2.4604699137    0.2714917792    0.8969308909
H       -1.3837029270    2.3206463311    0.5768968738
C        1.1709634711   -0.4541030799   -0.9271605885
H        1.7843099063   -0.8167248601   -1.7465230971
13   
From optimize.out: Frame 17 / 34, Energy=    -286.8932674535
C        1.4110457793    0.8664116828   -0.3534266924
C        0.3976778547   -1.3275748628   -0.1130965711
C       -0.8489947358   -1.0820171149    0.3938730870
C       -1.4362150336    0.2177304714    0.5307543224
C       -0.7987754953    1.4235493593    0.3715464277
N        0.5000161697    1.6963068935    0.0480302003
H        2.4405255973    1.2172534532   -0.2087596698
H        0.7691657835   -2.3548298325   -0.0965878300
H       -1.4356431456   -1.9327513668    0.7353476485
H       -2.4667258059    0.2679413410    0.8734617319
H       -1.3833272349    2.3194375795    0.5784958805
C        1.1782149207   -0.4361337349   -0.9501590508
H        1.6730353459   -0.8753238688   -1.8094794841
13   
From optimize.out: Frame 16 / 34, Energy=    -286.8798040679
C        1.4159916730    0.8570477947   -0.3380603391
C        0.4260028196   -1.3051828489   -0.0828101264
C       -0.8298321687   -1.0716766486    0.4022007290
C       -1.4319931138    0.2162777740    0.5280292042
C       -0.7957551244    1.4273945055    0.3688315177
N        0.4904697143    1.6972528656    0.0370500281
H        2.4369529666    1.2132903016   -0.1506198423
H        0.8196155145   -2.3230981047   -0.0910814796
H       -1.4183942329   -1.9299935446    0.7243790658
H       -2.4676672651    0.2626807125    0.8544631819
H       -1.3894009811    2.3191861446    0.5714844812
C        1.1992316505   -0.4130256110   -0.9747544188
H        1.5447785475   -0.9501533408   -1.8491120017
13   
From optimize.out: Frame 15 / 34, Energy=    -286.8615169798
C        1.4195232063    0.8462473827   -0.3334990853
C        0.4484022994   -1.2920095960   -0.0548394336
C       -0.8153423668   -1.0639837326    0.4089709054
C       -1.4247839177    0.2131213530    0.5288216044
C       -0.7886724484    1.4325871590    0.3700356801
N        0.4801074298    1.7053183157    0.0257129191
H        2.4315484609    1.2113807447   -0.1162786461
H        0.8665165204   -2.2972109349   -0.0981386060
H       -1.4110410850   -1.9272502931    0.7088396603
H       -2.4651689561    0.2580044114    0.8399400143
H       -1.3953661234    2.3171124000    0.5711110853
C        1.2230602105   -0.3875226158   -0.9987186387
H        1.4312167701   -1.0157945941   -1.8519574591
13   
From optimize.out: Frame 14 / 34, Energy=    -286.8389500322
C        1.4227261325    0.8366602996   -0.3426283801
C        0.4647529530   -1.2917543926   -0.0255190003
C       -0.8075262454   -1.0617251765    0.4146094648
C       -1.4137561808    0.2072951985    0.5333223609
C       -0.7774681313    1.4420216130    0.3766353062
N        0.4682627611    1.7249152720    0.0123224486
H        2.4280431274    1.2080717752   -0.1048349475
H        0.9103549184   -2.2796218406   -0.1140331345
H       -1.4187504791   -1.9255317614    0.6865835230
H       -2.4589354192    0.2531528943    0.8287871907
H       -1.4022387584    2.3146237058    0.5795600092
C        1.2439775038   -0.3621815068   -1.0183016325
H        1.3405578179   -1.0659260804   -1.8265032086
13   
From optimize.out: Frame 13 / 34, Energy=    -286.8119787678
C        1.4228008816    0.8298922040   -0.3602108629
C        0.4807436952   -1.3039247429    0.0038066434
C       -0.8007082490   -1.0661366905    0.4194576268
C       -1.3956783265    0.1987680397    0.5401461762
C       -0.7626575160    1.4604973098    0.3842402211
N        0.4561895676    1.7585694413   -0.0058310123
H        2.4275462303    1.1952959836   -0.1064890905
H        0.9559221394   -2.2691592452   -0.1399779229
H       -1.4350283501   -1.9259323833    0.6572144736
H       -2.4458559612    0.2448212967    0.8204563036
H       -1.4100398607    2.3159592105    0.5936959726
C        1.2522977013   -0.3374061041   -1.0279346824
H        1.2544680480   -1.1012443195   -1.7785738465
13   
From optimize.out: Frame 12 / 34, Energy=    -286.7821844500
C        1.4075714280    0.8257666795   -0.3840286663
C        0.5032416278   -1.3116965560    0.0331616732
C       -0.7827931231   -1.0738171332    0.4255736796
C       -1.3669674002    0.1914584412    0.5517442481
C       -0.7447788158    1.4845755208    0.3958640607
N        0.4435773713    1.7959295016   -0.0377535599
H        2.4176786349    1.1590175034   -0.1118092290
H        0.9995595498   -2.2520344342   -0.1818995876
H       -1.4407503172   -1.9311659661    0.6122024366
H       -2.4238422230    0.2332556446    0.8111216266
H       -1.4125828212    2.3242096724    0.6097503587
C        1.2329614163   -0.3160103300   -1.0179875293
H        1.1671246724   -1.1294885439   -1.7059395114
13   
From optimize.out: Frame 10 / 34, Energy=    -286.7193449164
C        1.5475498926    0.9737363189   -0.4214782021
C        0.3115424698   -1.6735915461    0.2777113250
C       -0.9442247370   -1.1942440464    0.4995601059
C       -1.3792232732    0.1418810902    0.5223981467
C       -0.6979593266    1.4199722504    0.3865048598
N        0.4939837178    1.7931339676    0.0243243969
H        2.5083160567    1.2996993230   -0.0023448376
H        0.6751355496   -2.6888474229    0.1679921622
H       -1.7360519590   -1.9345279614    0.6653492089
H       -2.4432364642    0.2767165915    0.7108114364
H       -1.3688134930    2.2583678860    0.5988042801
C        1.5032515301    0.0010543733   -1.3014527693
H        1.5297300365   -0.6733508241   -2.1281801128
13   
From optimize.out: Frame 9 / 34, Energy=    -286.7161700209
C        1.5448465877    0.9109305051   -0.4050530903
C        0.3111075126   -1.6809165973    0.3913557902
C       -0.9527114826   -1.1997227458    0.5125376413
C       -1.3920364888    0.1373949786    0.4482183475
C       -0.6795888760    1.3992542303    0.3866086154
N        0.5412335504    1.7384254548    0.1196977777
H        2.5065343888    1.0694213288    0.0988861792
H        0.7137745516   -2.6866074604    0.4117240854
H       -1.7529508848   -1.9312722280    0.6807976730
H       -2.4658960132    0.2737403569    0.5626479343
H       -1.3254416929    2.2496231669    0.6285452072
C        1.4598268023    0.1020961817   -1.4422300978
H        1.4913020448   -0.3823671716   -2.3937360631
13   
From optimize.out: Frame 8 / 34, Energy=    -286.7144616900
C        1.5470535490    0.8617811044   -0.3994041908
C        0.2914110184   -1.6996517786    0.4604008582
C       -0.9686265829   -1.2090027836    0.5207845335
C       -1.3971297811    0.1284709148    0.3743806714
C       -0.6592765968    1.3714754542    0.3834348981
N        0.5804933658    1.6743537007    0.2013722490
H        2.5004639753    0.8821942578    0.1424963641
H        0.7140283439   -2.6867135356    0.6031590816
H       -1.7796735826   -1.9216636676    0.7197770449
H       -2.4743587776    0.2710252938    0.4314114048
H       -1.2800074124    2.2268938786    0.6700061419
C        1.4382928054    0.2054565774   -1.5429654816
H        1.4873296756   -0.1046194163   -2.5648535751
13   
From optimize.out: Frame 7 / 34, Energy=    -286.7121061411
C        1.5269837192    0.7914005737   -0.3741855564
C        0.3027911451   -1.6714775401    0.3883272527
C       -0.9509387251   -1.1920149004    0.5096380895
C       -1.4137264922    0.1424031273    0.3245093510
C       -0.6731626382    1.3774753240    0.3664959643
N        0.5977231549    1.6343768031    0.2402672077
H        2.4785128978    0.7399124371    0.1711176381
H        0.7628682608   -2.6224607569    0.6271396537
H       -1.7333975644   -1.9004368329    0.8123383343
H       -2.4922779005    0.2708239484    0.3855585234
H       -1.2745545336    2.2308175196    0.6961663315
C        1.3964759699    0.2005758868   -1.5501175990
H        1.4727027063   -0.0013955897   -2.5972551907
13   
From optimize.out: Frame 6 / 34, Energy=    -286.7088383087
C        1.5307745099    0.7250280300   -0.3733664618
C        0.2567403863   -1.7090934531    0.4090393425
C       -0.9832853869   -1.2040264382    0.5286078572
C       -1.4241202096    0.1322247572    0.2802004932
C       -0.6521889668    1.3375786580    0.3628368649
N        0.6338184529    1.5289296377    0.3272435591
H        2.4513329633    0.5228951673    0.1884331472
H        0.7260541619   -2.6296093997    0.7341738459
H       -1.7711379583   -1.8777101079    0.8933149906
H       -2.5019261420    0.2800740807    0.2975461808
H       -1.2300729510    2.2106199678    0.6828370626
C        1.4167732319    0.3428647169   -1.6348152253
H        1.5472379084    0.3402243834   -2.6960516569
13   
From optimize.out: Frame 5 / 34, Energy=    -286.7035063669
C        1.5207635193    0.6553504549   -0.3663177130
C        0.2269066361   -1.7270438075    0.3446094551
C       -0.9945229652   -1.2009457478    0.5195686474
C       -1.4441400067    0.1355642871    0.2401291162
C       -0.6559330499    1.3235881655    0.3434796994
N        0.6469173759    1.4487357332    0.3767125358
H        2.4294780949    0.3780692757    0.1844677768
H        0.7199294038   -2.5985568936    0.7572653899
H       -1.7503127823   -1.8411356718    0.9939291705
H       -2.5210045813    0.2896204346    0.2635261958
H       -1.2043051799    2.2016192039    0.6966998018
C        1.4227010921    0.4009855932   -1.6547684514
H        1.6035224431    0.5341489725   -2.6993016243
13   
From optimize.out: Frame 4 / 34, Energy=    -286.6941057721
C        1.5200477128    0.5668423348   -0.4033021653
C        0.1731449123   -1.7704922751    0.3309669846
C       -1.0336423795   -1.2117100861    0.5064828449
C       -1.4730644539    0.1345396837    0.1990050942
C       -0.6507421675    1.2913164875    0.3438489567
N        0.6779734588    1.3046949081    0.4387557225
H        2.3812936239    0.1122631524    0.1101705046
H        0.6528929842   -2.5929056460    0.8454940605
H       -1.7739581774   -1.8124181694    1.0476869637
H       -2.5462051831    0.3147298433    0.2147305853
H       -1.1535102674    2.1735858968    0.7480971714
C        1.4740590845    0.5717171506   -1.7061478730
H        1.7517108524    0.9178367194   -2.6757888501
13   
From optimize.out: Frame 3 / 34, Energy=    -286.6796416140
C        1.5248130128    0.4880065835   -0.4852915256
C        0.0819089844   -1.8289901237    0.3101462285
C       -1.1079317252   -1.2286186325    0.4913825774
C       -1.5195450822    0.1328930553    0.1708823357
C       -0.6412179361    1.2515412681    0.3508761778
N        0.7077176265    1.1266222101    0.4716057221
H        2.3063565521   -0.1604911137   -0.0529002024
H        0.5330474693   -2.6186630136    0.8938411710
H       -1.8374925980   -1.7857451647    1.0858929320
H       -2.5840762989    0.3559707822    0.2038900026
H       -1.0862427678    2.1204553477    0.8389433980
C        1.5999922051    0.8007568614   -1.7347108051
H        2.0226705581    1.3462619400   -2.5445580119
13   
From optimize.out: Frame 2 / 34, Energy=    -286.6503979615
C        1.5807688470    0.4755777920   -0.5987361039
C       -0.0277703817   -1.9193334774    0.2700577473
C       -1.2055235359   -1.2656842926    0.4829640833
C       -1.6018018427    0.1249922234    0.1680577410
C       -0.6488583619    1.2319659104    0.3792816828
N        0.7567711577    0.9931586438    0.4509281246
H        2.3332997729   -0.2684030453   -0.2822253388
H        0.3854081315   -2.6885780662    0.8947617576
H       -1.9172641986   -1.7909603848    1.1170428223
H       -2.6575183383    0.3816952877    0.2382476135
H       -1.0515427159    2.0708729513    0.9525704814
C        1.7592474070    0.9942786531   -1.7271566502
H        2.2947840589    1.6604178046   -2.3457939609
13   
From optimize.out: Frame 1 / 34, Energy=    -286.5987907109
C        1.4817629331    0.2933216292   -0.6512438931
C        0.0658502245   -1.6632909476    0.1323112673
C       -1.1902396095   -1.1532641483    0.4337792503
C       -1.7268311860    0.2092400425    0.1678672014
C       -0.7147572869    1.2864105590    0.4316304444
N        0.6905177164    0.8220738852    0.4417106064
H        2.1229552540   -0.5721783582   -0.4152999659
H        0.5939430945   -2.3611491864    0.7390523042
H       -1.7885369686   -1.7471494793    1.1138430100
H       -2.7857181451    0.4353282944    0.2967341942
H       -1.0481292514    2.0816408940    1.1090510491
C        1.8042903524    0.8698619372   -1.6668426024
H        2.4948928726    1.4991548782   -2.1325928659
13   
C5H5N+CH->C6H6N atoms 1-13 frame 197 charge -0.000 sz -1.000 sz^2 2.376
C        1.4817629331    0.2933216292   -0.6512438931
C        0.0658502245   -1.6632909476    0.1323112673
C       -1.1902396095   -1.1532641483    0.4337792503
C       -1.7268311860    0.2092400425    0.1678672014
C       -0.7147572869    1.2864105590    0.4316304444
N        0.6905177164    0.8220738852    0.4417106064
H        2.1229552540   -0.5721783582   -0.4152999659
H        0.5939430945   -2.3611491864    0.7390523042
H       -1.7885369686   -1.7471494793    1.1138430100
H       -2.7857181451    0.4353282944    0.2967341942
H       -1.0481292514    2.0816408940    1.1090510491
C        1.8042903524    0.8698619372   -1.6668426024
H        2.4948928726    1.4991548782   -2.1325928659
13   
C5H5N+CH->C6H6N atoms 1-13 frame 198 charge -0.000 sz -1.000 sz^2 2.415
C        1.4973565226    0.2944120915   -0.6576752174
C        0.0592642829   -1.6565875661    0.1340783407
C       -1.1888203413   -1.1539277600    0.4245236792
C       -1.7493873880    0.2131281959    0.1620922077
C       -0.7188764215    1.2846774486    0.4292893283
N        0.6824656038    0.8143352493    0.4375347688
H        2.1271466088   -0.5801953064   -0.4162337773
H        0.5850497436   -2.3481381435    0.7176430212
H       -1.7741545299   -1.7342448435    1.1317853816
H       -2.8072068939    0.4269504740    0.3165990455
H       -1.0483089649    2.0811334449    1.1099110540
C        1.8249938414    0.8654404895   -1.6597378617
H        2.5104779365    1.4930162260   -2.1298099705
13   
C5H5N+CH->C6H6N atoms 1-13 frame 199 charge -0.000 sz -1.000 sz^2 2.448
C        1.5123313129    0.2944872902   -0.6621786536
C        0.0515771822   -1.6492860478    0.1360400861
C       -1.1873738491   -1.1543279464    0.4152900526
C       -1.7713932127    0.2177730137    0.1566134853
C       -0.7230143381    1.2823175585    0.4268481086
N        0.6738950111    0.8070441150    0.4334003316
H        2.1299060523   -0.5884908992   -0.4151593664
H        0.5783750606   -2.3382234054    0.6973726644
H       -1.7615221562   -1.7218336528    1.1498959157
H       -2.8286722934    0.4189741884    0.3365445606
H       -1.0470466597    2.0815393874    1.1093648185
C        1.8458161433    0.8621136211   -1.6540181851
H        2.5271217469    1.4879127773   -2.1300138184
13   
C5H5N+CH->C6H6N atoms 1-13 frame 200 charge +0.000 sz -1.000 sz^2 2.491
C        1.5264991673    0.2934821299   -0.6646330707
C        0.0426514167   -1.6412945050    0.1379253618
C       -1.1861641098   -1.1543481218    0.4060472096
C       -1.7928240436    0.2232844766    0.1514893282
C       -0.7272100706    1.2793928934    0.4244230272
N        0.6648123413    0.8001587724    0.4293329276
H        2.1310567171   -0.5970125851   -0.4122278736
H        0.5744542924   -2.3323764808    0.6787312728
H       -1.7506403654   -1.7097591258    1.1677619199
H       -2.8500301881    0.4116722256    0.3565737719
H       -1.0442191114    2.0827630308    1.1075750424
C        1.8667886746    0.8600531943   -1.6497982232
H        2.5448252796    1.4839840955   -2.1332006941
13   
C5H5N+CH->C6H6N atoms 1-13 frame 201 charge +0.000 sz -1.000 sz^2 2.528
C        1.5397089865    0.2913664135   -0.6649837323
C        0.0324727330   -1.6325834471    0.1396120855
C       -1.1854230097   -1.1539123345    0.3968613703
C       -1.8136564679    0.2296994927    0.1467885318
C       -0.7315247596    1.2759458644    0.4220853693
N        0.6552158097    0.7936584673    0.4253442900
H        2.1304883581   -0.6057080605   -0.4075287162
H        0.5735653983   -2.3310938028    0.6619916205
H       -1.7413783984   -1.6978323633    1.1849931319
H       -2.8711100090    0.4052020228    0.3766716774
H       -1.0397777125    2.0847072959    1.1046180404
C        1.8879222528    0.8593244940   -1.6471312127
H        2.5634968189    1.4812259575   -2.1393224559
13   
From optimize.out: Frame 1 / 28, Energy=    -286.5594986578
C        1.5518638298    0.2881490666   -0.6632490755
C        0.0211825286   -1.6232049005    0.1411527762
C       -1.1853298815   -1.1529958879    0.3879056099
C       -1.8338577918    0.2369579847    0.1425864663
C       -0.7360419124    1.2719878546    0.4198476634
N        0.6451020046    0.7875392650    0.4214273919
H        2.1281818091   -0.6145234714   -0.4010722909
H        0.5756462307   -2.3342585111    0.6471676074
H       -1.7334991693   -1.6858773244    1.2012748819
H       -2.8916632431    0.3995875378    0.3968007938
H       -1.0337597509    2.0872802948    1.1004596944
C        1.9092061173    0.8598711738   -1.6460017586
H        2.5829692289    1.4794869179   -2.1482997602
13   
From optimize.out: Frame 2 / 28, Energy=    -286.6134299727
C        1.6288345507    0.4368393024   -0.6313003429
C       -0.0542765862   -1.8513374369    0.2696950437
C       -1.2197112968   -1.2597689994    0.4289842696
C       -1.6973524910    0.1603507481    0.1403999811
C       -0.6589150293    1.1992151363    0.3900848774
N        0.7238588764    0.8745132104    0.4430116682
H        2.3013413496   -0.3977090029   -0.3644129460
H        0.3962291463   -2.6391556507    0.8044819018
H       -1.8922713644   -1.7430892807    1.1712735330
H       -2.7548538362    0.3739257696    0.3210362599
H       -1.0096930303    2.0604980479    0.9738054686
C        1.8503216922    1.0466526993   -1.6792128170