13   
From optimize.out: Frame 1 / 2, Energy=    -286.9243409348
C        1.3391982006    0.8949661606   -0.5132029640
C        0.2986262970   -1.4060198555   -0.2409339399
C       -0.9094341894   -1.0965453261    0.3087215996
C       -1.4023215397    0.2190729393    0.6293318866
C       -0.7723250425    1.4351560426    0.4481363436
N        0.4355386852    1.7898203683   -0.0521552341
H        2.2496294514    1.3812045761   -0.8709498022
H        0.5110239971   -2.4584455753   -0.4185099411
H       -1.5814082475   -1.9223273493    0.5336194848
H       -2.3961128600    0.2657600052    1.0682431779
H       -1.3513514400    2.3037290084    0.7693430691
C        1.3396267696   -0.4842078085   -0.6180921256
H        2.2393099178   -0.9221631860   -1.0435515545
13   
From optimize.out: Frame 33 / 34, Energy=    -286.9243409348
C        1.3446370664    0.9024785493   -0.4890694198
C        0.2913182943   -1.3980094467   -0.2599319775
C       -0.8945299834   -1.1033029376    0.3458361549
C       -1.4006753394    0.2233528989    0.6291692540
C       -0.7823116309    1.4289864223    0.4484371818
N        0.4760415862    1.7810909148    0.0147245625
H        2.2637672054    1.3803490534   -0.8396128646
H        0.5027967859   -2.4507757191   -0.4414787542
H       -1.5462840468   -1.9324907164    0.6085383508
H       -2.4160056909    0.2717967336    1.0177862739
H       -1.3732368296    2.3062091882    0.7109192736
C        1.3207671918   -0.4844235519   -0.6552079294
H        2.2137153910   -0.9252613889   -1.0901101059
13   
From optimize.out: Frame 32 / 34, Energy=    -286.9243386428
C        1.3546227425    0.9042186420   -0.4564683763
C        0.2906347697   -1.3899078817   -0.2753428905
C       -0.8800736507   -1.1018376887    0.3828837442
C       -1.3985002620    0.2225792001    0.6345427248
C       -0.7949938900    1.4289887585    0.4292036958
N        0.4945633344    1.7699724330    0.0546459959
H        2.2930942943    1.3718191428   -0.7669137488
H        0.4937086868   -2.4421357714   -0.4717602128
H       -1.5127183301   -1.9357071237    0.6740918796
H       -2.4214761273    0.2698078505    1.0051781099
H       -1.3997990915    2.3115911464    0.6337921627
C        1.3053355761   -0.4840272779   -0.6831791300
H        2.1756019477   -0.9253614297   -1.1606739544
13   
From optimize.out: Frame 32 / 34, Energy=    -286.9243386428
C        1.3614263171    0.9051346939   -0.4340187346
C        0.2915637984   -1.3850995127   -0.2826646202
C       -0.8694208921   -1.0987308133    0.4098034587
C       -1.4004651319    0.2213974584    0.6349672397
C       -0.8049311367    1.4282298218    0.4088385452
N        0.5064902964    1.7566934922    0.0805991303
H        2.3289224786    1.3539581562   -0.6755425554
H        0.4890554074   -2.4391225308   -0.4770443077
H       -1.4830918725   -1.9353517877    0.7313986954
H       -2.4266544975    0.2653586078    0.9980103145
H       -1.4154657860    2.3155074326    0.5689386545
C        1.2833312931   -0.4840656456   -0.7213578634
H        2.1392397256   -0.9039093728   -1.2419279570
13   
From optimize.out: Frame 31 / 34, Energy=    -286.9243294068
C        1.3663638206    0.9019598410   -0.4117389564
C        0.2965822479   -1.3848582871   -0.2812359930
C       -0.8623031021   -1.0947767990    0.4227687592
C       -1.4051022163    0.2216995224    0.6259515962
C       -0.8115833621    1.4283521560    0.3900044901
N        0.5145109615    1.7436965876    0.1002241400
H        2.3606083615    1.3260848617   -0.5838647464
H        0.5002865177   -2.4421524529   -0.4500974261
H       -1.4592291581   -1.9315561558    0.7739570667
H       -2.4317667644    0.2625789424    0.9880243534
H       -1.4216383475    2.3198715544    0.5256721092
C        1.2557863644   -0.4844213278   -0.7647554086
H        2.0974846768   -0.8664784429   -1.3349099843
13   
From optimize.out: Frame 30 / 34, Energy=    -286.9243124870
C        1.3707100101    0.8945368672   -0.3885362435
C        0.3078374028   -1.3854356539   -0.2705413999
C       -0.8578513133   -1.0896284429    0.4195508335
C       -1.4117430092    0.2239373954    0.6062084892
C       -0.8162952260    1.4301516360    0.3743903433
N        0.5153295392    1.7331709746    0.1102665342
H        2.3826869466    1.2970269968   -0.4991478615
H        0.5301461940   -2.4458100665   -0.3893446524
H       -1.4425382309   -1.9249951202    0.7946932035
H       -2.4357695646    0.2625676847    0.9750366436
H       -1.4212211255    2.3246213348    0.5128368451
C        1.2331357648   -0.4835429222   -0.8083908172
H        2.0455726121   -0.8366006836   -1.4370219176
13   
From optimize.out: Frame 29 / 34, Energy=    -286.9242802050
C        1.3760351028    0.8862545824   -0.3751999397
C        0.3218139228   -1.3852560555   -0.2487276908
C       -0.8581985680   -1.0877241837    0.4082292423
C       -1.4189655255    0.2250690174    0.5835666382
C       -0.8154370877    1.4302345333    0.3675638812
N        0.5142264548    1.7233692723    0.1060900381
H        2.4009624793    1.2684806793   -0.4247789881
H        0.5721128999   -2.4448684692   -0.3087503982
H       -1.4373987332   -1.9217604460    0.7953687472
H       -2.4406585219    0.2652147465    0.9574048189
H       -1.4130127853    2.3268714879    0.5229193843
C        1.2097832175   -0.4800973704   -0.8500803085
H        1.9887371444   -0.8057877941   -1.5336054249
13   
From optimize.out: Frame 29 / 34, Energy=    -286.9242802050
C        1.3851497381    0.8783275222   -0.3665673955
C        0.3389253081   -1.3785603190   -0.2163707879
C       -0.8605060167   -1.0880147818    0.3961768920
C       -1.4260611783    0.2242670336    0.5615494421
C       -0.8114366563    1.4283109925    0.3660979386
N        0.5117939243    1.7137679427    0.0929952516
H        2.4165550595    1.2467634706   -0.3610659622
H        0.6241472236   -2.4319499712   -0.2261921180
H       -1.4396018437   -1.9229799221    0.7821066308
H       -2.4467866922    0.2688608124    0.9361751114
H       -1.4013803891    2.3259527935    0.5439421792
C        1.1899725370   -0.4729561917   -0.8850106975
H        1.9192289857   -0.7917893816   -1.6238364845
13   
From optimize.out: Frame 28 / 34, Energy=    -286.9242218479
C        1.3966487168    0.8730530281   -0.3634639845
C        0.3592614897   -1.3630585340   -0.1749090984
C       -0.8617306893   -1.0886425472    0.3894269293
C       -1.4323695772    0.2215761052    0.5445557776
C       -0.8055170078    1.4249679569    0.3689085089
N        0.5085793637    1.7047594379    0.0738028217
H        2.4303625912    1.2315938642   -0.3024880897
H        0.6826602904   -2.4061567908   -0.1563000922
H       -1.4442250646   -1.9279801969    0.7614364669
H       -2.4551457816    0.2711027040    0.9114759616
H       -1.3895325189    2.3227212810    0.5660579198
C        1.1761231709   -0.4615386501   -0.9134107091
H        1.8348850167   -0.8023976582   -1.7050924118
13   
From optimize.out: Frame 27 / 34, Energy=    -286.9239932986
C        1.4066729126    0.8689630136   -0.3585754153
C        0.3834581454   -1.3407674944   -0.1334151839
C       -0.8555465576   -1.0854691066    0.3908059694
C       -1.4357392588    0.2188460761    0.5343833341
C       -0.8005901402    1.4233245184    0.3714240337
N        0.5035505773    1.6984727123    0.0559720846
H        2.4385274697    1.2214893430   -0.2426093781
H        0.7400564119   -2.3732026845   -0.1118846487
H       -1.4412183250   -1.9319098101    0.7429925655
H       -2.4632748503    0.2698214170    0.8862643090
H       -1.3836608890    2.3201295113    0.5773991327
C        1.1744766108   -0.4458494667   -0.9376408650
H        1.7332878934   -0.8438480293   -1.7751159379
13   
From optimize.out: Frame 26 / 34, Energy=    -286.9232951082
C        1.4131998329    0.8622220628   -0.3465723418
C        0.4102225154   -1.3176965436   -0.0997815320
C       -0.8404492398   -1.0774041621    0.3975818042
C       -1.4342947594    0.2170943417    0.5295907599
C       -0.7974428185    1.4252852510    0.3703157668
N        0.4957636436    1.6967772102    0.0432134521
H        2.4388700791    1.2155417242   -0.1831025206
H        0.7914376037   -2.3408239397   -0.0943904711
H       -1.4279456705   -1.9314869411    0.7305296920
H       -2.4670846601    0.2655971968    0.8651108592
H       -1.3860820029    2.3193367542    0.5753032596
C        1.1876548344   -0.4258623357   -0.9610497229
H        1.6161506421   -0.9085806186   -1.8267490054
13   
From optimize.out: Frame 25 / 34, Energy=    -286.9223965633
C        1.4177016622    0.8516724848   -0.3367391655
C        0.4367384834   -1.2994790560   -0.0688342008
C       -0.8230443291   -1.0681692568    0.4054857159
C       -1.4281253785    0.2145251630    0.5287003674
C       -0.7919067950    1.4302310885    0.3698012182
N        0.4851990681    1.7020348767    0.0312770653
H        2.4342958561    1.2123238998   -0.1352206291
H        0.8428004672   -2.3107272478   -0.0953760746
H       -1.4157204272   -1.9286733210    0.7161662651
H       -2.4661446997    0.2603519196    0.8474928208
H       -1.3924220707    2.3180807503    0.5719061419
C        1.2110699482   -0.4002285142   -0.9864959562
H        1.4895582151   -0.9819427869   -1.8481635685
13   
From optimize.out: Frame 24 / 34, Energy=    -286.9218580238
C        1.4212586535    0.8396813219   -0.3420856690
C        0.4605327518   -1.2944230588   -0.0329504326
C       -0.8097167504   -1.0636955247    0.4130144891
C       -1.4150741696    0.2082060491    0.5326682849
C       -0.7795525895    1.4415247825    0.3751730217
N        0.4712174105    1.7228934953    0.0147186780
H        2.4295621709    1.2069266515   -0.1104807074
H        0.8996044946   -2.2855740247   -0.1121101761
H       -1.4185918635   -1.9264114998    0.6907346730
H       -2.4590809046    0.2536534132    0.8322057353
H       -1.4006911688    2.3160559945    0.5786100765
C        1.2360351934   -0.3687238530   -1.0112523107
H        1.3644967717   -1.0501137469   -1.8282456627
13   
From optimize.out: Frame 24 / 34, Energy=    -286.9218580238
C        1.4182525205    0.8306006375   -0.3622645626
C        0.4828600816   -1.3027558667    0.0041493486
C       -0.7973319540   -1.0671586275    0.4198897230
C       -1.3923117428    0.1990328524    0.5416430477
C       -0.7615768519    1.4623730784    0.3855214638
N        0.4558918542    1.7600542913   -0.0101306452
H        2.4247551080    1.1881642559   -0.1075976547
H        0.9558674329   -2.2670597336   -0.1450225570
H       -1.4320759591   -1.9273735554    0.6522300922
H       -2.4430512710    0.2437650830    0.8200630497
H       -1.4085657065    2.3180299079    0.5944272135
C        1.2441714961   -0.3381285567   -1.0222241226
H        1.2531149920   -1.0995437667   -1.7706843964
13   
From optimize.out: Frame 23 / 34, Energy=    -286.9209874643
C        1.4199279537    0.8385772927   -0.3867490261
C        0.4862850319   -1.3426530301    0.0535744904
C       -0.7970507947   -1.0840115120    0.4318074452
C       -1.3686239542    0.1873486829    0.5489773040
C       -0.7411280609    1.4785148205    0.3948152637
N        0.4481765882    1.7949048974   -0.0317453549
H        2.4256797397    1.1718763451   -0.1022846339
H        0.9707461169   -2.2899557587   -0.1509321793
H       -1.4660234092   -1.9313452099    0.6177174004
H       -2.4259720318    0.2372356539    0.8026918228
H       -1.4087656867    2.3183747068    0.6084721046
C        1.2566097396   -0.2891948211   -1.0425717066
H        1.2001387675   -1.0896720675   -1.7437729302
13   
From optimize.out: Frame 22 / 34, Energy=    -286.9192136563
C        1.4400057610    0.8600526432   -0.3927060776
C        0.4588231213   -1.3955510451    0.0898261385
C       -0.8201983535   -1.1017211870    0.4427170337
C       -1.3698072018    0.1799709005    0.5449444791
C       -0.7339302977    1.4696063326    0.3936954454
N        0.4552569981    1.7952817499   -0.0233695107
H        2.4386801820    1.1916148104   -0.0864452951
H        0.9243874432   -2.3532481315   -0.1008263627
H       -1.5091744982   -1.9319449722    0.6245170460
H       -2.4283360520    0.2433259567    0.7878788076
H       -1.4024410543    2.3089535083    0.6072140488
C        1.2955901899   -0.2425434420   -1.0836691042
H        1.2511437618   -1.0237971237   -1.8037766489
13   
From optimize.out: Frame 22 / 34, Energy=    -286.9192136563
C        1.4602850864    0.8814896869   -0.3981315645
C        0.4310507808   -1.4479804403    0.1252551737
C       -0.8435856955   -1.1191679890    0.4534357883
C       -1.3715827666    0.1727884011    0.5406929741
C       -0.7271473425    1.4602469590    0.3923395348
N        0.4625595979    1.7948767480   -0.0143759910
H        2.4518112431    1.2119960340   -0.0705866842
H        0.8773866430   -2.4165312425   -0.0501359323
H       -1.5519562081   -1.9324320400    0.6322166638
H       -2.4311457851    0.2496223444    0.7733464080
H       -1.3960999900    2.2994147052    0.6056282400
C        1.3347483644   -0.1966088171   -1.1247360200
H        1.3036760722   -0.9577143499   -1.8649485909
13   
From optimize.out: Frame 21 / 34, Energy=    -286.9164596438
C        1.4805470608    0.9029083892   -0.4035524093
C        0.4033022021   -1.5003649772    0.1606538960
C       -0.8669530274   -1.1365998636    0.4641453720
C       -1.3733568122    0.1656120471    0.5364451067
C       -0.7203701908    1.4508955933    0.3909847844
N        0.4698559495    1.7944720927   -0.0053901661
H        2.4649310693    1.2323598196   -0.0547416418
H        0.8304260564   -2.4797602088    0.0005111277
H       -1.5947013142   -1.9329186910    0.6399096939
H       -2.4339531142    0.2559133449    0.7588264423
H       -1.3897643510    2.2898840635    0.6040437880
C        1.3738730355   -0.1507134936   -1.1657677992
H        1.3561634362   -0.8916881161   -1.9260681946
13   
From optimize.out: Frame 20 / 34, Energy=    -286.9127492784
C        1.5007921615    0.9243092543   -0.4089687398
C        0.3755767318   -1.5527058893    0.1960231390
C       -0.8903008994   -1.1540172212    0.4748460369
C       -1.3751293805    0.1584416694    0.5322007768
C       -0.7135986829    1.4415520152    0.3896311621
N        0.4771462250    1.7940677743    0.0035881756
H        2.4780399695    1.2527066466   -0.0389097949
H        0.7835045777   -2.5429365192    0.0511160099
H       -1.6374108230   -1.9334049367    0.6475963174
H       -2.4367581054    0.2621991065    0.7443185685
H       -1.3834339883    2.2803613587    0.6024606554
C        1.4129651243   -0.1048563908   -1.2067654079
H        1.4086070898   -0.8257168677   -1.9871368991
13   
From optimize.out: Frame 19 / 34, Energy=    -286.9080541727
C        1.5210209135    0.9456928375   -0.4143806964
C        0.3478736510   -1.6050045342    0.2313638200
C       -0.9136299171   -1.1714205137    0.4855380607
C       -1.3769005174    0.1512770820    0.5279598744
C       -0.7068326433    1.4322159824    0.3882786330
N        0.4844306132    1.7936637824    0.0125592670
H        2.4911382838    1.2730370427   -0.0230907328
H        0.7366209898   -2.6060618124    0.1016800267
H       -1.6800858423   -1.9338907898    0.6552767337
H       -2.4395608315    0.2684797920    0.7298224103
H       -1.3771087376    2.2708463439    0.6008788013
C        1.4520256447   -0.0590363193   -1.2477299096
H        1.4610083931   -0.7597988936   -2.0481562883
13   
From optimize.out: Frame 19 / 34, Energy=    -286.9080541727
C        1.5412338762    0.9670597300   -0.4197884287
C        0.3201921934   -1.6572623579    0.2666769161
C       -0.9369407256   -1.1888102223    0.4962217389
C       -1.3786702718    0.1441180869    0.5237222822
C       -0.7000718849    1.4228872368    0.3869271595
N        0.4917093157    1.7932601058    0.0215233560
H        2.5042263744    1.2933515702   -0.0072840180
H        0.6897739965   -2.6691378338    0.1522045763
H       -1.7227275521   -1.9343762637    0.6629511551
H       -2.4423613700    0.2747555752    0.7153375670
H       -1.3707884239    2.2613387559    0.5992981819
C        1.4910556769   -0.0132520122   -1.2886624368
H        1.5133687952   -0.6939323710   -2.1091280495
13   
From optimize.out: Frame 18 / 34, Energy=    -286.9020129151
C        1.5469065996    0.9587907083   -0.4175695938
C        0.3114389651   -1.6753346549    0.3047547757
C       -0.9462442888   -1.1955477873    0.5026483103
C       -1.3822723752    0.1408135508    0.5047459210
C       -0.6935877950    1.4150420785    0.3865295500
N        0.5052275432    1.7801152344    0.0470199617
H        2.5078920814    1.2449011277    0.0217446419
H        0.6843302952   -2.6883143893    0.2259919271
H       -1.7400733186   -1.9337532095    0.6690254088
H       -2.4486286529    0.2760083507    0.6755536492
H       -1.3584925052    2.2562869454    0.6058815918
C        1.4929179473    0.0250988277   -1.3349529028
H        1.5205855040   -0.6041067826   -2.1913732410
13   
From optimize.out: Frame 17 / 34, Energy=    -286.8932674535
C        1.5460929941    0.9398882327   -0.4126261776
C        0.3113080573   -1.6775392533    0.3389580062
C       -0.9487985189   -1.1971966949    0.5065541198
C       -1.3861287299    0.1394633794    0.4824202515
C       -0.6880588961    1.4088066387    0.3865607770
N        0.5194481822    1.7636497790    0.0757241993
H        2.5073558582    1.1755950573    0.0522118344
H        0.6959593586   -2.6876402346    0.2993471858
H       -1.7451593372   -1.9327733413    0.6736748863
H       -2.4554484287    0.2751126023    0.6309613288
H       -1.3454390259    2.2536550738    0.6148326285
C        1.4798485385    0.0555090748   -1.3773222289
H        1.5090199478   -0.5165303140   -2.2712968110
13   
From optimize.out: Frame 17 / 34, Energy=    -286.8932674535
C        1.5453104610    0.9209955471   -0.4077364115
C        0.3110399612   -1.6798349147    0.3730024893
C       -0.9514171869   -1.1988801516    0.5104443708
C       -1.3899481009    0.1380755203    0.4599941947
C       -0.6824907660    1.4024924152    0.3865689070
N        0.5336776515    1.7470421019    0.1044634842
H        2.5067867537    1.1062750995    0.0824107382
H        0.7073697824   -2.6869796113    0.3726694146
H       -1.7503384390   -1.9317439121    0.6785126354
H       -2.4621989399    0.2742145809    0.5862836842
H       -1.3323108080    2.2509119160    0.6239079940
C        1.4668741723    0.0860758073   -1.4196027313
H        1.4976454585   -0.4286443986   -2.3509187697
13   
From optimize.out: Frame 16 / 34, Energy=    -286.8798040679
C        1.5452335801    0.9023121193   -0.4040625514
C        0.3076537169   -1.6842018260    0.4034628968
C       -0.9555022079   -1.2013500077    0.5139837403
C       -1.3929296016    0.1358301370    0.4352708533
C       -0.6760271020    1.3943832002    0.3860521016
N        0.5481177897    1.7271904227    0.1340194601
H        2.5054699370    1.0365909156    0.1065332592
H        0.7138190543   -2.6866260608    0.4452923616
H       -1.7576367307   -1.9295873594    0.6876327363
H       -2.4673799655    0.2732642684    0.5396355063
H       -1.3174747563    2.2456375684    0.6358154145
C        1.4560507991    0.1202205078   -1.4598941261
H        1.4906054868   -0.3336638857   -2.4237416525
13   
From optimize.out: Frame 15 / 34, Energy=    -286.8615169798
C        1.5460512596    0.8841022594   -0.4019696333
C        0.3003561631   -1.6911432133    0.4290441042
C       -0.9613987548   -1.2047882630    0.5170392150
C       -1.3948166671    0.1325237702    0.4079139839
C       -0.6685013997    1.3840911597    0.3848762389
N        0.5626635568    1.7034518288    0.1642798632
H        2.5032208480    0.9672232595    0.1226908389
H        0.7139130844   -2.6866653616    0.5162190546
H       -1.7675374940   -1.9260273865    0.7020745991
H       -2.4705154209    0.2722583372    0.4910123537
H       -1.3006413490    2.2372163639    0.6511766966
C        1.4480724502    0.1585155490   -1.4972166000
H        1.4891337234   -0.2307583032   -2.4871407148
13   
From optimize.out: Frame 14 / 34, Energy=    -286.8389500322
C        1.5464071143    0.8648874567   -0.3993873963
C        0.2935197406   -1.6972673575    0.4523065516
C       -0.9667373679   -1.2077555394    0.5197623495
C       -1.3970108981    0.1296178528    0.3802664533
C       -0.6614981676    1.3742301516    0.3833650050
N        0.5771611999    1.6795329966    0.1945067292
H        2.5005583014    0.8967732332    0.1390018926
H        0.7150702031   -2.6853013323    0.5856009784
H       -1.7761396901   -1.9221079841    0.7181153221
H       -2.4739504999    0.2712773431    0.4428063208
H       -1.2841797760    2.2291263321    0.6666609633
C        1.4394141697    0.1955874641   -1.5336068973
H        1.4873856706   -0.1286006169   -2.5493982720
13   
From optimize.out: Frame 13 / 34, Energy=    -286.8119787678
C        1.5359045160    0.8217653536   -0.3853305720
C        0.2972266532   -1.6843729889    0.4204449457
C       -0.9591351885   -1.1996673025    0.5147869888
C       -1.4065054326    0.1361234152    0.3460570827
C       -0.6667788828    1.3743615287    0.3739460398
N        0.5905184068    1.6508432319    0.2240663709
H        2.4879087103    0.8003430217    0.1586577970
H        0.7408414161   -2.6509628376    0.6177668607
H       -1.7543010504   -1.9095636491    0.7723311577
H       -2.4844633296    0.2710196556    0.4048249759
H       -1.2764535438    2.2288491839    0.6844417318
C        1.4152060019    0.2043751959   -1.5479306721
H        1.4800317234   -0.0431138085   -2.5840627067
13   
From optimize.out: Frame 12 / 34, Energy=    -286.7821844500
C        1.5275909139    0.7807692663   -0.3740543569
C        0.2954149057   -1.6775027172    0.3916448383
C       -0.9561198932   -1.1939388639    0.5126765964
C       -1.4153913192    0.1407727938    0.3174121228
C       -0.6698031534    1.3710848243    0.3659098634
N        0.6035047656    1.6174866681    0.2541987564
H        2.4741593169    0.7051514174    0.1738911720
H        0.7569715153   -2.6236057999    0.6442839928
H       -1.7394426805   -1.8967965506    0.8253088741
H       -2.4938233200    0.2723056002    0.3714610335
H       -1.2674296390    2.2275823508    0.6940312987
C        1.3997271099    0.2233671828   -1.5636841499
H        1.4846414779    0.0533238279   -2.6130800415
13   
From optimize.out: Frame 12 / 34, Energy=    -286.7821844500
C        1.5289854917    0.7563517548   -0.3737530237
C        0.2784734888   -1.6913410747    0.3992645205
C       -0.9680197684   -1.1983577372    0.5196553032
C       -1.4192150195    0.1370283167    0.3011115264
C       -0.6620872391    1.3564074103    0.3645637329
N        0.6167837105    1.5786941609    0.2861961148
H        2.4641602069    0.6253138611    0.1802613006
H        0.7434281337   -2.6262356836    0.6836603445
H       -1.7533268327   -1.8884357128    0.8550990303
H       -2.4973727703    0.2757085919    0.3390825487
H       -1.2510654996    2.2201519597    0.6891276509
C        1.4071941829    0.2757132126   -1.5948431978
H        1.5120619150    0.1790009404   -2.6494258514
13   
From optimize.out: Frame 10 / 34, Energy=    -286.7193449164
C        1.5296408539    0.7300300139   -0.3730530804
C        0.2613327816   -1.7049531658    0.4022554263
C       -0.9794706126   -1.2021702226    0.5254233628
C       -1.4238889876    0.1338418678    0.2839302729
C       -0.6553310453    1.3422759581    0.3621721992
N        0.6295954695    1.5387252359    0.3181529823
H        2.4537860909    0.5442806110    0.1857861073
H        0.7307997594   -2.6267336970    0.7206966646
H       -1.7646301661   -1.8786521204    0.8881582512
H       -2.5017414781    0.2793670062    0.3077171215
H       -1.2346936861    2.2128817016    0.6855299358
C        1.4143113891    0.3266106088   -1.6242524068
H        1.5402896314    0.3044962024   -2.6825168367
13   
From optimize.out: Frame 9 / 34, Energy=    -286.7161700209
C        1.5262617994    0.6936190781   -0.3701890577
C        0.2432920592   -1.7171850352    0.3799959203
C       -0.9883510132   -1.2026377381    0.5245332018
C       -1.4331446460    0.1337301359    0.2621372935
C       -0.6538767081    1.3312720851    0.3541111267
N        0.6397231280    1.4927801810    0.3495429676
H        2.4414813215    0.4576111867    0.1866456549
H        0.7232932703   -2.6156116871    0.7445829509
H       -1.7617504767   -1.8612232439    0.9386694096
H       -2.5105262372    0.2843773443    0.2822108010
H       -1.2184574681    2.2065626429    0.6890860474
C        1.4194453667    0.3690641908   -1.6438096531
H        1.5726096043    0.4276408597   -2.6975166630
13   
From optimize.out: Frame 8 / 34, Energy=    -286.7144616900
C        1.5212905286    0.6537800004   -0.3690399414
C        0.2252391924   -1.7287433037    0.3474345572
C       -0.9963344403   -1.2017968461    0.5192643332
C       -1.4448103790    0.1353092483    0.2398391199
C       -0.6553936037    1.3223634263    0.3446086838
N        0.6481168098    1.4442832094    0.3777776569
H        2.4277046260    0.3696722677    0.1800346116
H        0.7160749773   -2.5999764156    0.7614796598
H       -1.7529854383   -1.8414240030    0.9915528614
H       -2.5214951828    0.2906498606    0.2624093604
H       -1.2025915264    2.2003752318    0.6991313438
C        1.4255834640    0.4083730539   -1.6568509337
H        1.6096009723    0.5471342699   -2.6976413130
13   
From optimize.out: Frame 8 / 34, Energy=    -286.7144616900
C        1.5204966378    0.6223510670   -0.3801070047
C        0.2068621026   -1.7432431441    0.3395229932
C       -1.0091082566   -1.2049591262    0.5146897338
C       -1.4549242042    0.1351822738    0.2247964264
C       -0.6539976801    1.3115559856    0.3436173734
N        0.6584963330    1.3950315189    0.3998447318
H        2.4115129856    0.2789660595    0.1567667647
H        0.6949355297   -2.5964498811    0.7901605877
H       -1.7591287368   -1.8304286316    1.0139722385
H       -2.5304003795    0.2989822323    0.2453332292
H       -1.1853667930    2.1911672593    0.7158628089
C        1.4418494178    0.4646411864   -1.6739247668
H        1.6587730437    0.6772032004   -2.6905351162
13   
From optimize.out: Frame 7 / 34, Energy=    -286.7121061411
C        1.5202536610    0.5923074414   -0.3926611866
C        0.1886129623   -1.7579915028    0.3348921269
C       -1.0223871404   -1.2086130254    0.5102478255
C       -1.4647424589    0.1348344774    0.2108370888
C       -0.6522356618    1.3006015307    0.3437427159
N        0.6690381604    1.3461376024    0.4209049721
H        2.3951570150    0.1887395395    0.1315469382
H        0.6721803622   -2.5945315942    0.8201093557
H       -1.7671550445   -1.8206806233    1.0322200446
H       -2.5389545940    0.3075054918    0.2287698104
H       -1.1681247215    2.1816514975    0.7333093814
C        1.4592826239    0.5225951345   -1.6913652469
H        1.7090748363    0.8074440306   -2.6825538260
13   
From optimize.out: Frame 6 / 34, Energy=    -286.7088383087
C        1.5203243790    0.5637790020   -0.4073186654
C        0.1688656023   -1.7731006150    0.3300111331
C       -1.0371970705   -1.2124910811    0.5058377572
C       -1.4752214123    0.1344632699    0.1980563960
C       -0.6502890888    1.2895841333    0.3442354535
N        0.6791644915    1.2969325823    0.4396526063
H        2.3778395382    0.1010550891    0.1021931182
H        0.6472177158   -2.5944279639    0.8468605682
H       -1.7771462442   -1.8113632081    1.0490076537
H       -2.5479379676    0.3166520145    0.2148618283
H       -1.1505234648    2.1710444794    0.7523904045
C        1.4803105007    0.5819204368   -1.7069664300
H        1.7645930208    0.9359518607   -2.6688218236
13   
From optimize.out: Frame 6 / 34, Energy=    -286.7088383087
C        1.5216044562    0.5410880212   -0.4300867099
C        0.1433396696   -1.7896025381    0.3241651939
C       -1.0579114589   -1.2172338238    0.5015498416
C       -1.4882488932    0.1340017579    0.1898178621
C       -0.6476307614    1.2783225925    0.3461446316
N        0.6876903780    1.2465215536    0.4494872647
H        2.3568129433    0.0231589225    0.0568980482
H        0.6137414708   -2.6013201446    0.8612882481
H       -1.7947138037   -1.8037045475    1.0601682108
H       -2.5585770395    0.3282025642    0.2111891493
H       -1.1315351070    2.1562290403    0.7777751052
C        1.5151993163    0.6465405707   -1.7154789024
H        1.8402288295    1.0577960311   -2.6329179431
13   
From optimize.out: Frame 5 / 34, Energy=    -286.7035063669
C        1.5229521987    0.5187913571   -0.4532752912
C        0.1175359346   -1.8061471496    0.3182765786
C       -1.0789222891   -1.2220159711    0.4972791194
C       -1.5013947431    0.1335360514    0.1818640634
C       -0.6449370775    1.2670731949    0.3481321003
N        0.6961027506    1.1961582721    0.4587780420
H        2.3356189204   -0.0539826046    0.0107776939
H        0.5798462501   -2.6086049534    0.8749619845
H       -1.8126828801   -1.7961607743    1.0709737860
H       -2.5692879103    0.3398665028    0.2081231694
H       -1.1125102253    2.1412024313    0.8034686233
C        1.5508162596    0.7113185606   -1.7235571929
H        1.9168628115    1.1789650829   -2.5958026766
13   
From optimize.out: Frame 4 / 34, Energy=    -286.6941057721
C        1.5257149176    0.4979686495   -0.4776696252
C        0.0908416277   -1.8238082262    0.3117744450
C       -1.1008839949   -1.2274192280    0.4931262157
C       -1.5157130343    0.1328929426    0.1744799031
C       -0.6426705405    1.2562049667    0.3507319195
N        0.7051677318    1.1462529511    0.4667501656
H        2.3168819225   -0.1277930971   -0.0378414122
H        0.5446840113   -2.6172024157    0.8875492106
H       -1.8313645892   -1.7893723551    1.0817496248
H       -2.5811290107    0.3512831084    0.2062425223
H       -1.0940865342    2.1260465020    0.8301692303
C        1.5878767344    0.7761030724   -1.7307729512
H        1.9946807585    1.2988431294   -2.5562892484
13   