13   
From optimize.out: Frame 33 / 34, Energy=    -286.9243409348
C        1.3391982006    0.8949661606   -0.5132029640
C        0.2986262970   -1.4060198555   -0.2409339399
C       -0.9094341894   -1.0965453261    0.3087215996
C       -1.4023215397    0.2190729393    0.6293318866
C       -0.7723250425    1.4351560426    0.4481363436
N        0.4355386852    1.7898203683   -0.0521552341
H        2.2496294514    1.3812045761   -0.8709498022
H        0.5110239971   -2.4584455753   -0.4185099411
H       -1.5814082475   -1.9223273493    0.5336194848
H       -2.3961128600    0.2657600052    1.0682431779
H       -1.3513514400    2.3037290084    0.7693430691
C        1.3396267696   -0.4842078085   -0.6180921256
H        2.2393099178   -0.9221631860   -1.0435515545
13   
From optimize.out: Frame 32 / 34, Energy=    -286.9243386428
C        1.3395295297    0.9015621891   -0.5052439554
C        0.2924263792   -1.4013150380   -0.2516440138
C       -0.9012268515   -1.1027346878    0.3267131735
C       -1.4028088664    0.2237243472    0.6253635883
C       -0.7770228972    1.4291163592    0.4555915211
N        0.4646713022    1.7857493808   -0.0067621612
H        2.2520349668    1.3841005865   -0.8663906985
H        0.5071305423   -2.4549901573   -0.4229575275
H       -1.5612222585   -1.9296087610    0.5774275414
H       -2.4130029944    0.2715787321    1.0262657796
H       -1.3596939421    2.3034675395    0.7481875589
C        1.3289020772   -0.4845943116   -0.6445782676
H        2.2302830126   -0.9260561789   -1.0619725387
13   
From optimize.out: Frame 32 / 34, Energy=    -286.9243386428
C        1.3507980495    0.9035839118   -0.4695588322
C        0.2899816631   -1.3940220661   -0.2699293614
C       -0.8864518640   -1.1039883909    0.3689033152
C       -1.3981017652    0.2229048381    0.6337598510
C       -0.7886911838    1.4288296856    0.4398072361
N        0.4897570293    1.7754716246    0.0406429947
H        2.2779192575    1.3758237542   -0.8073120130
H        0.4975691777   -2.4456920389   -0.4638200458
H       -1.5282647789   -1.9359670848    0.6460658686
H       -2.4196277035    0.2720596985    1.0075578418
H       -1.3895729828    2.3095163112    0.6659642798
C        1.3109544590   -0.4842175724   -0.6680299944
H        2.1937306422   -0.9243026709   -1.1240511404
13   
From optimize.out: Frame 31 / 34, Energy=    -286.9243294068
C        1.3592232189    0.9049821180   -0.4407227114
C        0.2914203495   -1.3849591947   -0.2818544755
C       -0.8724017094   -1.0992507478    0.3996999002
C       -1.3989795881    0.2221875111    0.6354843931
C       -0.8025750086    1.4291800971    0.4164493812
N        0.5003445288    1.7633578102    0.0714893025
H        2.3113473670    1.3670022540   -0.7183212831
H        0.4890651514   -2.4378581667   -0.4813109274
H       -1.4940185100   -1.9353944334    0.7078025601
H       -2.4236994770    0.2670992478    1.0023156839
H       -1.4120994180    2.3140868317    0.5950943988
C        1.2985769845   -0.4837983849   -0.7014010478
H        2.1537961109   -0.9266349423   -1.2047251746
13   
From optimize.out: Frame 30 / 34, Energy=    -286.9243124870
C        1.3640069105    0.9053134132   -0.4261660488
C        0.2917318270   -1.3852638738   -0.2836135812
C       -0.8659293195   -1.0981217893    0.4216382357
C       -1.4022052199    0.2204720322    0.6343614733
C       -0.8076909813    1.4271167193    0.3999236123
N        0.5136891252    1.7488872607    0.0912699034
H        2.3495090398    1.3386789862   -0.6254338041
H        0.4890439938   -2.4406035404   -0.4720466138
H       -1.4702929843   -1.9353018348    0.7590379671
H       -2.4301158530    0.2633197138    0.9929672313
H       -1.4194089723    2.3171714498    0.5383011914
C        1.2654732923   -0.4843787007   -0.7447342274
H        2.1221891417   -0.8772898362   -1.2855053393
13   
From optimize.out: Frame 29 / 34, Energy=    -286.9242802050
C        1.3689986527    0.8982108222   -0.3956106504
C        0.3020046207   -1.3844048744   -0.2785780445
C       -0.8582492884   -1.0910373741    0.4240325916
C       -1.4083408208    0.2230717558    0.6165500434
C       -0.8159347245    1.4297332728    0.3789157252
N        0.5154297071    1.7378938409    0.1102342421
H        2.3730164928    1.3120056635   -0.5373939495
H        0.5128547373   -2.4438840100   -0.4255600346
H       -1.4468607080   -1.9273687940    0.7906353964
H       -2.4336123479    0.2617508207    0.9824986213
H       -1.4241306061    2.3228900500    0.5115538312
C        1.2449571737   -0.4844689814   -0.7871374469
H        2.0698671114   -0.8543921920   -1.3901403252
13   
From optimize.out: Frame 29 / 34, Energy=    -286.9242802050
C        1.3725996711    0.8904801283   -0.3807247649
C        0.3142778936   -1.3865738286   -0.2616674295
C       -0.8574118739   -1.0880727174    0.4146021277
C       -1.4154996664    0.2248932246    0.5947894643
C       -0.8166932875    1.4306135877    0.3693934687
N        0.5152189351    1.7279560400    0.1103021907
H        2.3933649502    1.2804877256   -0.4569169720
H        0.5492392213   -2.4479367959   -0.3493560449
H       -1.4377654015   -1.9223741370    0.7991737873
H       -2.4381515384    0.2634696564    0.9667972138
H       -1.4180085107    2.3265329995    0.5142535342
C        1.2200827013   -0.4825203783   -0.8318585438
H        2.0187469059   -0.8169555050   -1.4887880317
13   
From optimize.out: Frame 28 / 34, Energy=    -286.9242218479
C        1.3798051585    0.8816174523   -0.3691369756
C        0.3300839899   -1.3838099262   -0.2345275727
C       -0.8590618890   -1.0873417016    0.4012356137
C       -1.4227689724    0.2252619330    0.5712506665
C       -0.8140585292    1.4298185575    0.3655560850
N        0.5131373032    1.7183357362    0.1014676060
H        2.4093000365    1.2553041012   -0.3895106431
H        0.5972145614   -2.4415012758   -0.2641896081
H       -1.4369963500   -1.9210869793    0.7911930819
H       -2.4434096950    0.2671298150    0.9470975692
H       -1.4075304574    2.3272429464    0.5324293210
C        1.1984805249   -0.4774383525   -0.8700769420
H        1.9558043186   -0.7935323060   -1.5827882016
13   
From optimize.out: Frame 27 / 34, Energy=    -286.9239932986
C        1.3909764743    0.8747407939   -0.3637660030
C        0.3485642383   -1.3728371229   -0.1965760044
C       -0.8620804251   -1.0887485834    0.3906618021
C       -1.4296503876    0.2231823802    0.5509730301
C       -0.8085782533    1.4266674237    0.3666886751
N        0.5103293536    1.7087880697    0.0837585711
H        2.4244645882    1.2374523543   -0.3300551689
H        0.6535095929   -2.4215370039   -0.1847667171
H       -1.4424423899   -1.9250436351    0.7722004533
H       -2.4504683423    0.2707479702    0.9242672936
H       -1.3946754977    2.3245462506    0.5564936600
C        1.1806970083   -0.4680696765   -0.9012916889
H        1.8793540404   -0.7898892207   -1.6685879030
13   
From optimize.out: Frame 27 / 34, Energy=    -286.9239932986
C        1.4027932492    0.8712247334   -0.3631368189
C        0.3708494302   -1.3524657469   -0.1514381329
C       -0.8613518332   -1.0885276822    0.3880892368
C       -1.4353151757    0.2198360864    0.5376042031
C       -0.8022008727    1.4231269867    0.3713131734
N        0.5066836639    1.7003953688    0.0630181232
H        2.4367516818    1.2252475765   -0.2726256827
H        0.7142381731   -2.3894959695   -0.1254632405
H       -1.4461561708   -1.9311612667    0.7497762347
H       -2.4602126803    0.2714869741    0.8976195803
H       -1.3839613183    2.3207443582    0.5764185321
C        1.1711685004   -0.4544638285   -0.9265387997
H        1.7867133524   -0.8159475903   -1.7446364088
13   
From optimize.out: Frame 26 / 34, Energy=    -286.9232951082
C        1.4108813919    0.8665096048   -0.3536274157
C        0.3971354958   -1.3280777717   -0.1138647233
C       -0.8492492635   -1.0821513054    0.3937529552
C       -1.4361992846    0.2177721588    0.5308894845
C       -0.7988428921    1.4235387916    0.3715442898
N        0.5001519500    1.6963871035    0.0483288681
H        2.4404537621    1.2174125852   -0.2100490806
H        0.7680628421   -2.3555284833   -0.0971552211
H       -1.4358619785   -1.9327217954    0.7356339553
H       -2.4665965507    0.2680146979    0.8739466365
H       -1.3833349972    2.3194625539    0.5784628428
C        1.1780650959   -0.4365050058   -0.9496838715
H        1.6753344288   -0.8741131340   -1.8081787200
13   
From optimize.out: Frame 25 / 34, Energy=    -286.9223965633
C        1.4157354591    0.8575328756   -0.3388563679
C        0.4245354911   -1.3063428306   -0.0843790661
C       -0.8308248541   -1.0722123195    0.4017693292
C       -1.4322118235    0.2163530286    0.5281703745
C       -0.7959115897    1.4271953139    0.3689721591
N        0.4909642528    1.6972038611    0.0376188380
H        2.4371380409    1.2134956062   -0.1536316809
H        0.8170020487   -2.3247419149   -0.0913667270
H       -1.4192877846   -1.9301364090    0.7249472753
H       -2.4676184944    0.2629532308    0.8554473707
H       -1.3890863406    2.3191991698    0.5718476953
C        1.1981429132   -0.4142226895   -0.9734802960
H        1.5514226810   -0.9462769225   -1.8470589040
13   
From optimize.out: Frame 24 / 34, Energy=    -286.9218580238
C        1.4198488022    0.8452728005   -0.3344271307
C        0.4500644374   -1.2919836531   -0.0518588429
C       -0.8145478131   -1.0637541374    0.4095440974
C       -1.4236628848    0.2125290909    0.5292791322
C       -0.7875334651    1.4335462256    0.3707065701
N        0.4789033511    1.7073104591    0.0243517007
H        2.4311921236    1.2110443689   -0.1151153283
H        0.8709729458   -2.2954229023   -0.0997543763
H       -1.4118247893   -1.9270755945    0.7065771959
H       -2.4645352812    0.2575112267    0.8388062656
H       -1.3960647663    2.3168594099    0.5719699670
C        1.2251865737   -0.3849465463   -1.0007093627
H        1.4220007660   -1.0208907480   -1.8493698881
13   
From optimize.out: Frame 24 / 34, Energy=    -286.9218580238
C        1.4227584618    0.8337330738   -0.3502328674
C        0.4716690067   -1.2970181131   -0.0128355536
C       -0.8045774374   -1.0636331722    0.4167063124
C       -1.4059374436    0.2036071716    0.5362736856
C       -0.7710624867    1.4500124186    0.3799244594
N        0.4630410614    1.7394708217    0.0044710113
H        2.4278282176    1.2025461992   -0.1055503703
H        0.9300629059   -2.2750967304   -0.1252543491
H       -1.4257907171   -1.9257050318    0.6738813032
H       -2.4532785064    0.2495494483    0.8251840520
H       -1.4056127633    2.3152013164    0.5856738644
C        1.2475760193   -0.3514660557   -1.0224679613
H        1.3033236817   -1.0812013463   -1.8057735865
13   
From optimize.out: Frame 23 / 34, Energy=    -286.9209874643
C        1.4136788709    0.8274211318   -0.3744770515
C        0.4942193186   -1.3085798385    0.0213894736
C       -0.7899775968   -1.0707370578    0.4231209690
C       -1.3784812961    0.1943897975    0.5470930923
C       -0.7519486817    1.4749194752    0.3912025713
N        0.4486352198    1.7809470576   -0.0249517128
H        2.4216358205    1.1735662030   -0.1096757025
H        0.9820597104   -2.2589019692   -0.1650878109
H       -1.4384556461   -1.9290671509    0.6302535403
H       -2.4326703565    0.2378937992    0.8148650969
H       -1.4115630219    2.3209010031    0.6033120945
C        1.2407158151   -0.3245906423   -1.0219766199
H        1.2021518436   -1.1181618087   -1.7350679401
13   
From optimize.out: Frame 22 / 34, Energy=    -286.9192136563
C        1.4202731108    0.8391934836   -0.3874268471
C        0.4858467956   -1.3445350029    0.0553521732
C       -0.7974414703   -1.0847447031    0.4322872275
C       -1.3680795013    0.1869597793    0.5490813751
C       -0.7405304030    1.4787134030    0.3950148044
N        0.4481512565    1.7956758341   -0.0321205897
H        2.4259030984    1.1717830088   -0.1018764012
H        0.9701212304   -2.2916709601   -0.1501503179
H       -1.4675460661   -1.9314710345    0.6170249888
H       -2.4256020616    0.2371993024    0.8020194534
H       -1.4086111808    2.3182351713    0.6087571086
C        1.2574876126   -0.2872397952   -1.0437092400
H        1.2000275788   -1.0880984868   -1.7442537350
13   
From optimize.out: Frame 22 / 34, Energy=    -286.9192136563
C        1.4405964520    0.8606770559   -0.3928641098
C        0.4580141758   -1.3970781949    0.0908581063
C       -0.8208795740   -1.1022293729    0.4430292469
C       -1.3698589200    0.1797616905    0.5448206423
C       -0.7337327255    1.4693337152    0.3936559508
N        0.4554697064    1.7952699531   -0.0231075498
H        2.4390626602    1.1922084694   -0.0859833696
H        0.9230184161   -2.3550914256   -0.0993498650
H       -1.5104206327   -1.9319591594    0.6247413185
H       -2.4284178932    0.2435093563    0.7874555116
H       -1.4022563534    2.3086756645    0.6071678578
C        1.2967307790   -0.2412054702   -1.0848652906
H        1.2526739093   -1.0218722818   -1.8055584494
13   
From optimize.out: Frame 21 / 34, Energy=    -286.9164596438
C        1.4609197931    0.8821606282   -0.3983013726
C        0.4301815560   -1.4496213869    0.1263640394
C       -0.8443176776   -1.1197140428    0.4537712662
C       -1.3716383386    0.1725636017    0.5405599096
C       -0.7269350481    1.4599540273    0.3922970973
N        0.4627881562    1.7948640722   -0.0140945098
H        2.4522222219    1.2126339300   -0.0700903379
H        0.8759156017   -2.4185118911   -0.0485494121
H       -1.5532951993   -1.9324472843    0.6324576482
H       -2.4312337247    0.2498194101    0.7728915698
H       -1.3959015259    2.2991161577    0.6055786070
C        1.3359739455   -0.1951711452   -1.1260213413
H        1.3053202399   -0.9556460769   -1.8668631637
13   
From optimize.out: Frame 20 / 34, Energy=    -286.9127492784
C        1.4812431343    0.9036442005   -0.4037386353
C        0.4023489362   -1.5021645790    0.1618699725
C       -0.8677557813   -1.1371987127    0.4645132856
C       -1.3734177572    0.1653655129    0.5362991768
C       -0.7201373707    1.4505743395    0.3909382437
N        0.4701066061    1.7944581913   -0.0050814699
H        2.4653817836    1.2330593906   -0.0541973062
H        0.8288127873   -2.4819323566    0.0022510408
H       -1.5961697660   -1.9329354092    0.6401739779
H       -2.4340495563    0.2561294640    0.7583276280
H       -1.3895466985    2.2895566509    0.6039893562
C        1.3752171120   -0.1491368202   -1.1671773919
H        1.3579665704   -0.8894198719   -1.9281678781
13   
From optimize.out: Frame 19 / 34, Energy=    -286.9080541727
C        1.5015664754    0.9251277727   -0.4091758981
C        0.3745163164   -1.5547077710    0.1973759056
C       -0.8911938849   -1.1546833825    0.4752553050
C       -1.3751971759    0.1581674241    0.5320384440
C       -0.7133396932    1.4411946516    0.3895793902
N        0.4774250560    1.7940523103    0.0039315701
H        2.4785413453    1.2534848512   -0.0383042746
H        0.7817099730   -2.5453528221    0.0530514937
H       -1.6390443326   -1.9334235342    0.6478903075
H       -2.4368653879    0.2624395178    0.7437636861
H       -1.3831918710    2.2799971441    0.6024001054
C        1.4144602785   -0.1031024952   -1.2083334425
H        1.4106129010   -0.8231936669   -1.9894725925
13   
From optimize.out: Frame 19 / 34, Energy=    -286.9080541727
C        1.5218898166    0.9466113450   -0.4146131608
C        0.3466836966   -1.6072509630    0.2328818388
C       -0.9146319886   -1.1721680524    0.4859973244
C       -1.3769765945    0.1509693353    0.5277777113
C       -0.7065420158    1.4318149638    0.3882205366
N        0.4847435058    1.7936464294    0.0129446100
H        2.4917009070    1.2739103118   -0.0224112429
H        0.7346071586   -2.6087732877    0.1038519466
H       -1.6819188993   -1.9339116591    0.6556066372
H       -2.4396812194    0.2687495717    0.7291997443
H       -1.3768370436    2.2704376373    0.6008108546
C        1.4537034450   -0.0570681702   -1.2494894932
H        1.4632592315   -0.7569674619   -2.0507773068
13   
From optimize.out: Frame 18 / 34, Energy=    -286.9020129151
C        1.5422131577    0.9680949173   -0.4200504236
C        0.3188510768   -1.6597941551    0.2683877719
C       -0.9380700922   -1.1896527223    0.4967393438
C       -1.3787560132    0.1437712465    0.5235169785
C       -0.6997443383    1.4224352759    0.3868616830
N        0.4920619557    1.7932405484    0.0219576500
H        2.5048604688    1.2943357724   -0.0065182113
H        0.6875043442   -2.6721937532    0.1546523995
H       -1.7247934659   -1.9343997840    0.6633229669
H       -2.4424970510    0.2750596256    0.7146358025
H       -1.3704822161    2.2608781305    0.5992216038
C        1.4929466115   -0.0110338452   -1.2906455438
H        1.5159055621   -0.6907412569   -2.1120820212
13   
From optimize.out: Frame 17 / 34, Energy=    -286.8932674535
C        1.5469480907    0.9597546717   -0.4178216916
C        0.3114456409   -1.6752222277    0.3030105246
C       -0.9461140315   -1.1954636985    0.5024491270
C       -1.3820757139    0.1408824051    0.5058844560
C       -0.6938697504    1.4153600652    0.3865279575
N        0.5045023378    1.7809549179    0.0455561409
H        2.5079194270    1.2484355070    0.0201909163
H        0.6837372516   -2.6883487690    0.2222510526
H       -1.7398139486   -1.9338031795    0.6687883009
H       -2.4482808670    0.2760540308    0.6778277094
H       -1.3591581893    2.2564211622    0.6054251187
C        1.4935844437    0.0235480062   -1.3327922079
H        1.5211753090   -0.6085728914   -2.1872974045
13   
From optimize.out: Frame 17 / 34, Energy=    -286.8932674535
C        1.5461319871    0.9407941558   -0.4128630966
C        0.3113143312   -1.6774335954    0.3373187767
C       -0.9486761045   -1.1971176691    0.5063669294
C       -1.3859439096    0.1395280880    0.4834902352
C       -0.6883238750    1.4091054794    0.3865592804
N        0.5187666415    1.7644389051    0.0743485153
H        2.5073815573    1.1789166313    0.0507516588
H        0.6954020223   -2.6876725442    0.2958315498
H       -1.7449155838   -1.9328203026    0.6734520547
H       -2.4551215830    0.2751555321    0.6330984675
H       -1.3460646291    2.2537812093    0.6144036397
C        1.4804749051    0.0540516284   -1.3752916298
H        1.5095742405   -0.5207275180   -2.2674663811
13   
From optimize.out: Frame 16 / 34, Energy=    -286.8798040679
C        1.5453158834    0.9218336399   -0.4079045016
C        0.3111830215   -1.6796449631    0.3716270287
C       -0.9512381774   -1.1987716396    0.5102847318
C       -1.3898121053    0.1381737708    0.4610960144
C       -0.6827779995    1.4028508936    0.3865906033
N        0.5330309452    1.7479228923    0.1031408897
H        2.5068436876    1.1093977555    0.0813124013
H        0.7070667929   -2.6869963195    0.3694120469
H       -1.7500172190   -1.9318374257    0.6781158084
H       -2.4619622990    0.2742570334    0.5883692256
H       -1.3329710689    2.2511412565    0.6233821607
C        1.4673653665    0.0845552505   -1.4177910516
H        1.4979731720   -0.4328821446   -2.3476353577
13   
From optimize.out: Frame 15 / 34, Energy=    -286.8615169798
C        1.5451951220    0.9031685881   -0.4041609881
C        0.3079969446   -1.6838753500    0.4022597296
C       -0.9552248741   -1.2011882953    0.5138400314
C       -1.3928408467    0.1359856462    0.4365575356
C       -0.6763810602    1.3948672683    0.3861074062
N        0.5474336551    1.7283069258    0.1325962151
H        2.5055757190    1.0398535016    0.1057733158
H        0.7138146318   -2.6866242123    0.4419564490
H       -1.7571710657   -1.9297547965    0.6869534887
H       -2.4672324949    0.2733115806    0.5419224110
H       -1.3182664861    2.2460336450    0.6350929236
C        1.4564260468    0.1184193678   -1.4581387290
H        1.4906747086   -0.3385038692   -2.4207597889
13   
From optimize.out: Frame 14 / 34, Energy=    -286.8389500322
C        1.5460152879    0.8849033541   -0.4020617057
C        0.3006771997   -1.6908378453    0.4279187264
C       -0.9611393517   -1.2046370060    0.5169047975
C       -1.3947336506    0.1326692251    0.4091174772
C       -0.6688324731    1.3845439309    0.3849279679
N        0.5620236542    1.7044961456    0.1629486366
H        2.5033197907    0.9702749066    0.1219800287
H        0.7139089478   -2.6866636327    0.5130988218
H       -1.7671019361   -1.9261839981    0.7014392675
H       -2.4703774848    0.2723025905    0.4931514010
H       -1.3013818904    2.2375868326    0.6505009175
C        1.4484234367    0.1568308596   -1.4955746961
H        1.4891984698   -0.2352853629   -2.4843516403
13   
From optimize.out: Frame 14 / 34, Energy=    -286.8389500322
C        1.5468354538    0.8666381202   -0.3999624233
C        0.2933574548   -1.6978003405    0.4535777233
C       -0.9670538294   -1.2080857167    0.5199695636
C       -1.3966264545    0.1293528039    0.3816774188
C       -0.6612838861    1.3742205935    0.3837485295
N        0.5766136532    1.6806853654    0.1933010580
H        2.5010638625    0.9006963115    0.1381867417
H        0.7140032638   -2.6867030531    0.5842411946
H       -1.7770328064   -1.9226131996    0.7159250463
H       -2.4735224748    0.2712936003    0.4443803910
H       -1.2844972946    2.2291400202    0.6659089115
C        1.4404208266    0.1952423515   -1.5330106633
H        1.4877222309   -0.1320668566   -2.5479434917
13   
From optimize.out: Frame 13 / 34, Energy=    -286.8119787678
C        1.5371478360    0.8270439222   -0.3869572216
C        0.2970278208   -1.6857460344    0.4248280379
C       -0.9598965217   -1.2006182035    0.5152830681
C       -1.4053212933    0.1353473308    0.3497660638
C       -0.6661302244    1.3744367642    0.3750744776
N        0.5889973415    1.6546226080    0.2205693374
H        2.4896297492    0.8119693038    0.1566227482
H        0.7381338895   -2.6550007812    0.6149949898
H       -1.7568334809   -1.9111869005    0.7654618152
H       -2.4832029825    0.2709259172    0.4087801475
H       -1.2773160766    2.2288304402    0.6829178273
C        1.4176535886    0.2030476521   -1.5464954977
H        1.4801103538   -0.0536720187   -2.5808457936
13   
From optimize.out: Frame 12 / 34, Energy=    -286.7821844500
C        1.5273288831    0.7853571362   -0.3741109752
C        0.2985980727   -1.6749025921    0.3902131563
C       -0.9538839946   -1.1931085902    0.5113653490
C       -1.4146728742    0.1414763534    0.3204748843
C       -0.6712529167    1.3738426019    0.3661627914
N        0.6010097500    1.6247754933    0.2481866894
H        2.4760380757    0.7201523039    0.1726942719
H        0.7595162165   -2.6231116643    0.6368854675
H       -1.7368339509   -1.8983674901    0.8197115240
H       -2.4931564045    0.2716662032    0.3775447113
H       -1.2705043398    2.2289784663    0.6949526579
C        1.3983241021    0.2135317508   -1.5578295952
H        1.4794893806    0.0297100278   -2.6062509326
13   
From optimize.out: Frame 12 / 34, Energy=    -286.7821844500
C        1.5287276312    0.7608666071   -0.3738087409
C        0.2816059946   -1.6887823316    0.3978556242
C       -0.9658194549   -1.1975406777    0.5183649247
C       -1.4185080088    0.1377206789    0.3041255431
C       -0.6635139288    1.3591212969    0.3648126355
N        0.6143284040    1.5858669820    0.2802797318
H        2.4660090646    0.6400760034    0.1790834497
H        0.7459323352   -2.6257494123    0.6763795692
H       -1.7507596220   -1.8899816504    0.8495907639
H       -2.4967164690    0.2750793711    0.3450694028
H       -1.2540912655    2.2215258556    0.6900343464
C        1.4058135044    0.2660343149   -1.5890818204
H        1.5069918150    0.1557629619   -2.6427054300
13   
From optimize.out: Frame 10 / 34, Energy=    -286.7193449164
C        1.5301263793    0.7363760781   -0.3735065065
C        0.2646139165   -1.7026620710    0.4054980922
C       -0.9777549152   -1.2019727651    0.5253645005
C       -1.4223431434    0.1339650044    0.2877762018
C       -0.6557749410    1.3443999919    0.3634624796
N        0.6276470580    1.5469584707    0.3123727742
H        2.4559800536    0.5599997030    0.1854726274
H        0.7323484539   -2.6283871603    0.7158736709
H       -1.7646852930   -1.8815958106    0.8794700038
H       -2.5002765335    0.2784925390    0.3125940943
H       -1.2376781912    2.2140732449    0.6851160348
C        1.4133029067    0.3185368789   -1.6203340455
H        1.5344942495    0.2818158960   -2.6791599275
13   
From optimize.out: Frame 9 / 34, Energy=    -286.7161700209
C        1.5275309512    0.7024525118   -0.3710826688
C        0.2470742582   -1.7149093637    0.3881640739
C       -0.9869263596   -1.2030282953    0.5256791553
C       -1.4306066192    0.1333067642    0.2672173764
C       -0.6534020488    1.3330457416    0.3565651478
N        0.6380625009    1.5029468313    0.3432714961
H        2.4442519910    0.4759716120    0.1871483681
H        0.7240697417   -2.6195483949    0.7416555008
H       -1.7643906061   -1.8658599991    0.9259139616
H       -2.5081075519    0.2831670972    0.2865237135
H       -1.2217241991    2.2077037224    0.6873285869
C        1.4186938572    0.3616958673   -1.6412800659
H        1.5654740846    0.4030559054   -2.6971046456
13   
From optimize.out: Frame 8 / 34, Energy=    -286.7144616900
C        1.5214866992    0.6603838653   -0.3668269047
C        0.2290617845   -1.7257470990    0.3492637799
C       -0.9937111782   -1.2011682926    0.5202216273
C       -1.4426938046    0.1353230442    0.2430238164
C       -0.6556625826    1.3245988191    0.3448780339
N        0.6459711281    1.4545288286    0.3731389662
H        2.4310568600    0.3885312953    0.1847542296
H        0.7203718477   -2.6008000832    0.7555972891
H       -1.7518171638   -1.8437777579    0.9866609430
H       -2.5196263815    0.2889308194    0.2659837519
H       -1.2061666076    2.2022694065    0.6956983769
C        1.4222728717    0.3967870225   -1.6533270582
H        1.5994565271    0.5201401317   -2.6990668512
13   
From optimize.out: Frame 8 / 34, Energy=    -286.7144616900
C        1.5205489080    0.6288141748   -0.3774062977
C        0.2107879325   -1.7400704168    0.3405192042
C       -1.0062516487   -1.2041730844    0.5156452953
C       -1.4528120611    0.1352570931    0.2277994162
C       -0.6543767327    1.3139125528    0.3435904092
N        0.6562285319    1.4055497784    0.3953141667
H        2.4150315490    0.2983759580    0.1621921571
H        0.6998307145   -2.5968625509    0.7837178861
H       -1.7574020847   -1.8325256631    1.0100466957
H       -2.5285601618    0.2971486738    0.2488964196
H       -1.1890759781    2.1932143289    0.7121096308
C        1.4380991151    0.4521738957   -1.6701728993
H        1.6479519161    0.6491852596   -2.6922520840
13   
From optimize.out: Frame 7 / 34, Energy=    -286.7121061411
C        1.5203051292    0.5986713836   -0.3900019174
C        0.1924785568   -1.7548674556    0.3358730526
C       -1.0195743624   -1.2078390441    0.5111887255
C       -1.4626627231    0.1349081488    0.2137940029
C       -0.6526088985    1.3029219404    0.3437161654
N        0.6668051549    1.3564944769    0.4164439209
H        2.3986215920    0.2078516257    0.1368890871
H        0.6770004386   -2.5949379322    0.8137655065
H       -1.7654548849   -1.8227454793    1.0283547327
H       -2.5371426114    0.3057000662    0.2322783297
H       -1.1717769953    2.1836671583    0.7296137895
C        1.4555898633    0.5103191334   -1.6876709455
H        1.6984197407    0.7798559780   -2.6842444499
13   
From optimize.out: Frame 6 / 34, Energy=    -286.7088383087
C        1.5200613504    0.5685285925   -0.4025975371
C        0.1741691812   -1.7696644944    0.3312269011
C       -1.0328970760   -1.2115050039    0.5067321558
C       -1.4725133850    0.1345592045    0.1997885895
C       -0.6508410643    1.2919313279    0.3438419216
N        0.6773817780    1.3074391754    0.4375736750
H        2.3822116349    0.1173272935    0.1115860171
H        0.6541701628   -2.5930133136    0.8438131269
H       -1.7735076851   -1.8129652956    1.0466627697
H       -2.5457250610    0.3142514586    0.2156602398
H       -1.1544780126    2.1741199877    0.7471179481
C        1.4730806115    0.5684643711   -1.7051689918
H        1.7488875652    0.9105266964   -2.6762368157
13   
From optimize.out: Frame 6 / 34, Energy=    -286.7088383087
C        1.5213244803    0.5457198606   -0.4252695864
C        0.1487000570   -1.7861656121    0.3253884764
C       -1.0535467346   -1.2162403954    0.5024370281
C       -1.4855180154    0.1340985023    0.1914701594
C       -0.6481903388    1.2806595072    0.3457317611
N        0.6859428179    1.2569838645    0.4475572276
H        2.3612157234    0.0391840626    0.0664789466
H        0.6207827582   -2.5998068212    0.8584477088
H       -1.7909809639   -1.8052716674    1.0579234943
H       -2.5563519966    0.3257795340    0.2118260664
H       -1.1354872765    2.1593506211    0.7724376139
C        1.5078003637    0.6330837933   -1.7138007436
H        1.8243091253    1.0326247505   -2.6406281527
13   
From optimize.out: Frame 5 / 34, Energy=    -286.7035063669
C        1.5226769057    0.5233457254   -0.4485387378
C        0.1228066653   -1.8027677089    0.3194794008
C       -1.0746305682   -1.2210391586    0.4981514670
C       -1.4987095414    0.1336311777    0.1834887247
C       -0.6454872956    1.2693710230    0.3477261354
N        0.6943844199    1.2064455927    0.4568802863
H        2.3399480606   -0.0382254975    0.0201983444
H        0.5867697664   -2.6071169415    0.8721689554
H       -1.8090124749   -1.7977016829    1.0687666141
H       -2.5671000830    0.3374839997    0.2087494336
H       -1.1163962917    2.1442718013    0.7982204057
C        1.5435410602    0.6980868582   -1.7219071026
H        1.9012093767    1.1542148115   -2.6033839270
13   