13   
From optimize.out: Frame 1 / 38, Energy=    -286.8417987779
C        0.0666320000    0.5421110000    0.0000000000
C       -0.1705280000   -0.0014110000   -0.0000000000
C       -0.2675940000    0.0017560000   -0.0000000000
C       -0.1535130000    0.1010030000    0.0000000000
C        0.0646240000    0.5231740000   -0.0000000000
N       -0.4196000000   -0.1658680000   -0.0000000000
H        0.1653880000   -0.0267030000    0.0000000000
H        0.2246190000    0.0009190000   -0.0000000000
H        0.1778980000   -0.0000700000   -0.0000000000
H        0.1504220000   -0.0066630000    0.0000000000
H        0.1592810000   -0.0261180000   -0.0000000000
C       -0.1487220000    0.0628830000    0.0000000000
H        0.1510940000   -0.0050140000    0.0000000000
13   
From optimize.out: Frame 2 / 38, Energy=    -286.8420421431
C        0.0663480000    0.5397180000    0.0000000000
C       -0.1667740000   -0.0013050000   -0.0000000000
C       -0.2705450000    0.0015660000   -0.0000000000
C       -0.1522430000    0.0952310000    0.0000000000
C        0.0645220000    0.5243110000   -0.0000000000
N       -0.4196070000   -0.1656280000   -0.0000000000
H        0.1657740000   -0.0265510000    0.0000000000
H        0.2244360000    0.0008930000   -0.0000000000
H        0.1768010000   -0.0000620000   -0.0000000000
H        0.1507390000   -0.0064100000    0.0000000000
H        0.1584480000   -0.0260750000   -0.0000000000
C       -0.1485530000    0.0696140000    0.0000000000
H        0.1506560000   -0.0053030000    0.0000000000
13   
From optimize.out: Frame 3 / 38, Energy=    -286.8421977493
C        0.0663010000    0.5378620000    0.0000000000
C       -0.1658030000   -0.0011700000   -0.0000000000
C       -0.2716630000    0.0013300000   -0.0000000000
C       -0.1519680000    0.0911090000    0.0000000000
C        0.0649270000    0.5259260000   -0.0000000000
N       -0.4200100000   -0.1656910000   -0.0000000000
H        0.1661480000   -0.0264540000    0.0000000000
H        0.2247220000    0.0008840000   -0.0000000000
H        0.1763160000   -0.0000520000   -0.0000000000
H        0.1507380000   -0.0062410000    0.0000000000
H        0.1586500000   -0.0261110000   -0.0000000000
C       -0.1488810000    0.0740960000    0.0000000000
H        0.1505230000   -0.0054900000    0.0000000000
13   
From optimize.out: Frame 4 / 38, Energy=    -286.8423749798
C        0.0659220000    0.5356290000    0.0000000000
C       -0.1625280000   -0.0009720000   -0.0000000000
C       -0.2763200000    0.0010070000   -0.0000000000
C       -0.1524630000    0.0866000000    0.0000000000
C        0.0653330000    0.5287320000   -0.0000000000
N       -0.4194760000   -0.1659670000   -0.0000000000
H        0.1664100000   -0.0263770000    0.0000000000
H        0.2251070000    0.0008850000   -0.0000000000
H        0.1763740000   -0.0000380000   -0.0000000000
H        0.1506830000   -0.0060620000    0.0000000000
H        0.1592230000   -0.0262130000   -0.0000000000
C       -0.1491260000    0.0784450000    0.0000000000
H        0.1508600000   -0.0056690000    0.0000000000
13   
From optimize.out: Frame 5 / 38, Energy=    -286.8426817248
C        0.0655420000    0.5309270000    0.0000000000
C       -0.1539700000   -0.0006620000   -0.0000000000
C       -0.2883110000    0.0005300000   -0.0000000000
C       -0.1535110000    0.0775570000    0.0000000000
C        0.0660180000    0.5343740000   -0.0000000000
N       -0.4177550000   -0.1663280000   -0.0000000000
H        0.1660740000   -0.0262170000    0.0000000000
H        0.2262950000    0.0009360000   -0.0000000000
H        0.1762810000   -0.0000160000   -0.0000000000
H        0.1509640000   -0.0057040000    0.0000000000
H        0.1600240000   -0.0264210000   -0.0000000000
C       -0.1491480000    0.0870580000    0.0000000000
H        0.1514990000   -0.0060340000    0.0000000000
13   
From optimize.out: Frame 6 / 38, Energy=    -286.8429856564
C        0.0658860000    0.5262020000    0.0000000000
C       -0.1425550000   -0.0004630000   -0.0000000000
C       -0.3039640000    0.0002470000   -0.0000000000
C       -0.1549050000    0.0687980000    0.0000000000
C        0.0675150000    0.5397360000   -0.0000000000
N       -0.4168330000   -0.1667090000   -0.0000000000
H        0.1654230000   -0.0260410000    0.0000000000
H        0.2282990000    0.0010420000   -0.0000000000
H        0.1757670000   -0.0000020000   -0.0000000000
H        0.1514430000   -0.0053560000    0.0000000000
H        0.1609040000   -0.0265830000   -0.0000000000
C       -0.1488870000    0.0955160000    0.0000000000
H        0.1519060000   -0.0063880000    0.0000000000
13   
From optimize.out: Frame 7 / 38, Energy=    -286.8432247352
C        0.0668250000    0.5227230000    0.0000000000
C       -0.1289180000   -0.0003390000   -0.0000000000
C       -0.3217240000    0.0000960000   -0.0000000000
C       -0.1565530000    0.0630940000    0.0000000000
C        0.0695080000    0.5434570000   -0.0000000000
N       -0.4165680000   -0.1670130000   -0.0000000000
H        0.1648280000   -0.0258940000    0.0000000000
H        0.2302320000    0.0011690000   -0.0000000000
H        0.1750760000    0.0000060000   -0.0000000000
H        0.1518990000   -0.0051320000    0.0000000000
H        0.1618210000   -0.0266540000   -0.0000000000
C       -0.1486350000    0.1011070000    0.0000000000
H        0.1522100000   -0.0066200000    0.0000000000
13   
From optimize.out: Frame 8 / 38, Energy=    -286.8433739825
C        0.0679260000    0.5222890000    0.0000000000
C       -0.1147500000   -0.0002570000   -0.0000000000
C       -0.3391650000    0.0000140000   -0.0000000000
C       -0.1581300000    0.0621910000    0.0000000000
C        0.0715610000    0.5443430000   -0.0000000000
N       -0.4161890000   -0.1672590000   -0.0000000000
H        0.1644130000   -0.0258570000    0.0000000000
H        0.2315160000    0.0012880000   -0.0000000000
H        0.1742740000    0.0000120000   -0.0000000000
H        0.1523510000   -0.0051050000    0.0000000000
H        0.1626300000   -0.0265980000   -0.0000000000
C       -0.1487900000    0.1015720000    0.0000000000
H        0.1523520000   -0.0066330000    0.0000000000
13   
From optimize.out: Frame 9 / 38, Energy=    -286.8434482811
C        0.0687240000    0.5256780000    0.0000000000
C       -0.1070260000   -0.0002230000   -0.0000000000
C       -0.3481030000   -0.0000170000   -0.0000000000
C       -0.1591960000    0.0670120000    0.0000000000
C        0.0730310000    0.5417760000   -0.0000000000
N       -0.4159150000   -0.1675190000   -0.0000000000
H        0.1645830000   -0.0259610000    0.0000000000
H        0.2316180000    0.0013520000   -0.0000000000
H        0.1737640000    0.0000140000   -0.0000000000
H        0.1524860000   -0.0053060000    0.0000000000
H        0.1631640000   -0.0264410000   -0.0000000000
C       -0.1494210000    0.0960300000    0.0000000000
H        0.1522900000   -0.0063960000    0.0000000000
13   
From optimize.out: Frame 10 / 38, Energy=    -286.8434617051
C        0.0685920000    0.5307250000    0.0000000000
C       -0.1061050000   -0.0001970000   -0.0000000000
C       -0.3515010000   -0.0000370000   -0.0000000000
C       -0.1597230000    0.0742010000    0.0000000000
C        0.0734720000    0.5386320000   -0.0000000000
N       -0.4153120000   -0.1681950000   -0.0000000000
H        0.1648080000   -0.0261680000    0.0000000000
H        0.2325500000    0.0013890000   -0.0000000000
H        0.1742960000    0.0000160000   -0.0000000000
H        0.1528330000   -0.0056120000    0.0000000000
H        0.1635260000   -0.0263140000   -0.0000000000
C       -0.1499400000    0.0876160000    0.0000000000
H        0.1525060000   -0.0060560000    0.0000000000
13   
From optimize.out: Frame 12 / 38, Energy=    -286.8435007544
C        0.0689260000    0.5372900000    0.0000000000
C       -0.0980200000   -0.0001890000   -0.0000000000
C       -0.3587650000   -0.0000470000   -0.0000000000
C       -0.1603040000    0.0862960000    0.0000000000
C        0.0744480000    0.5322970000   -0.0000000000
N       -0.4141740000   -0.1679370000   -0.0000000000
H        0.1650170000   -0.0264130000    0.0000000000
H        0.2310350000    0.0014280000   -0.0000000000
H        0.1739010000    0.0000170000   -0.0000000000
H        0.1528600000   -0.0061080000    0.0000000000
H        0.1636180000   -0.0260420000   -0.0000000000
C       -0.1508560000    0.0749380000    0.0000000000
H        0.1523150000   -0.0055280000    0.0000000000
13   
From optimize.out: Frame 14 / 38, Energy=    -286.8435464120
C        0.0688020000    0.5339110000    0.0000000000
C       -0.1014830000   -0.0002030000   -0.0000000000
C       -0.3541610000   -0.0000390000   -0.0000000000
C       -0.1597330000    0.0816330000    0.0000000000
C        0.0740040000    0.5345730000   -0.0000000000
N       -0.4146240000   -0.1677280000   -0.0000000000
H        0.1647050000   -0.0262730000    0.0000000000
H        0.2310800000    0.0014080000   -0.0000000000
H        0.1733050000    0.0000160000   -0.0000000000
H        0.1526360000   -0.0059130000    0.0000000000
H        0.1633620000   -0.0261380000   -0.0000000000
C       -0.1502740000    0.0805070000    0.0000000000
H        0.1523810000   -0.0057540000    0.0000000000
13   
From optimize.out: Frame 15 / 38, Energy=    -286.8435607128
C        0.0688960000    0.5361860000    0.0000000000
C       -0.1002530000   -0.0001960000   -0.0000000000
C       -0.3558120000   -0.0000460000   -0.0000000000
C       -0.1597780000    0.0858200000    0.0000000000
C        0.0741390000    0.5325990000   -0.0000000000
N       -0.4143230000   -0.1678510000   -0.0000000000
H        0.1648230000   -0.0263580000    0.0000000000
H        0.2311530000    0.0014250000   -0.0000000000
H        0.1731510000    0.0000160000   -0.0000000000
H        0.1527730000   -0.0060830000    0.0000000000
H        0.1634770000   -0.0260600000   -0.0000000000
C       -0.1506620000    0.0761230000    0.0000000000
H        0.1524170000   -0.0055760000    0.0000000000
13   
From optimize.out: Frame 16 / 38, Energy=    -286.8435924696
C        0.0689770000    0.5380060000    0.0000000000
C       -0.0999880000   -0.0001980000   -0.0000000000
C       -0.3562550000   -0.0000490000   -0.0000000000
C       -0.1594470000    0.0895190000    0.0000000000
C        0.0738730000    0.5308960000   -0.0000000000
N       -0.4134910000   -0.1677630000   -0.0000000000
H        0.1647720000   -0.0264170000    0.0000000000
H        0.2307760000    0.0014360000   -0.0000000000
H        0.1733680000    0.0000160000   -0.0000000000
H        0.1527930000   -0.0062320000    0.0000000000
H        0.1633750000   -0.0260110000   -0.0000000000
C       -0.1512920000    0.0722170000    0.0000000000
H        0.1525380000   -0.0054200000    0.0000000000
13   
From optimize.out: Frame 17 / 38, Energy=    -286.8436133714
C        0.0692140000    0.5374000000    0.0000000000
C       -0.1005830000   -0.0001990000   -0.0000000000
C       -0.3557200000   -0.0000520000   -0.0000000000
C       -0.1589740000    0.0887470000    0.0000000000
C        0.0735290000    0.5313740000   -0.0000000000
N       -0.4133190000   -0.1678340000   -0.0000000000
H        0.1646940000   -0.0263810000    0.0000000000
H        0.2307380000    0.0014440000   -0.0000000000
H        0.1731860000    0.0000170000   -0.0000000000
H        0.1527690000   -0.0061980000    0.0000000000
H        0.1634010000   -0.0260430000   -0.0000000000
C       -0.1516370000    0.0731890000    0.0000000000
H        0.1527000000   -0.0054630000    0.0000000000
13   
From optimize.out: Frame 18 / 38, Energy=    -286.8436293186
C        0.0696150000    0.5350080000    0.0000000000
C       -0.1012890000   -0.0002010000   -0.0000000000
C       -0.3548310000   -0.0000540000   -0.0000000000
C       -0.1584710000    0.0844970000    0.0000000000
C        0.0731010000    0.5334690000   -0.0000000000
N       -0.4132240000   -0.1677570000   -0.0000000000
H        0.1645620000   -0.0262780000    0.0000000000
H        0.2305630000    0.0014440000   -0.0000000000
H        0.1731210000    0.0000170000   -0.0000000000
H        0.1526660000   -0.0060180000    0.0000000000
H        0.1633710000   -0.0261380000   -0.0000000000
C       -0.1519430000    0.0776610000    0.0000000000
H        0.1527580000   -0.0056500000    0.0000000000
13   
From optimize.out: Frame 19 / 38, Energy=    -286.8436460629
C        0.0702140000    0.5327270000    0.0000000000
C       -0.1012410000   -0.0001960000   -0.0000000000
C       -0.3550850000   -0.0000590000   -0.0000000000
C       -0.1580080000    0.0797330000    0.0000000000
C        0.0727450000    0.5357890000   -0.0000000000
N       -0.4133810000   -0.1678900000   -0.0000000000
H        0.1645570000   -0.0261760000    0.0000000000
H        0.2306670000    0.0014520000   -0.0000000000
H        0.1729110000    0.0000170000   -0.0000000000
H        0.1526190000   -0.0058170000    0.0000000000
H        0.1635490000   -0.0262370000   -0.0000000000
C       -0.1524250000    0.0825160000    0.0000000000
H        0.1528780000   -0.0058580000    0.0000000000
13   
From optimize.out: Frame 20 / 38, Energy=    -286.8436644083
C        0.0709590000    0.5302820000    0.0000000000
C       -0.1009830000   -0.0001920000   -0.0000000000
C       -0.3552610000   -0.0000630000   -0.0000000000
C       -0.1574820000    0.0748190000    0.0000000000
C        0.0723490000    0.5380760000   -0.0000000000
N       -0.4134130000   -0.1677760000   -0.0000000000
H        0.1645600000   -0.0260760000    0.0000000000
H        0.2304810000    0.0014530000   -0.0000000000
H        0.1728520000    0.0000170000   -0.0000000000
H        0.1525770000   -0.0056050000    0.0000000000
H        0.1636160000   -0.0263360000   -0.0000000000
C       -0.1530300000    0.0874700000    0.0000000000
H        0.1527770000   -0.0060700000    0.0000000000
13   
From optimize.out: Frame 21 / 38, Energy=    -286.8436786777
C        0.0714240000    0.5306770000    0.0000000000
C       -0.1003590000   -0.0001850000   -0.0000000000
C       -0.3563010000   -0.0000690000   -0.0000000000
C       -0.1572470000    0.0743130000    0.0000000000
C        0.0723380000    0.5380490000   -0.0000000000
N       -0.4136540000   -0.1679620000    0.0000000000
H        0.1647290000   -0.0260870000    0.0000000000
H        0.2306140000    0.0014610000   -0.0000000000
H        0.1728300000    0.0000170000   -0.0000000000
H        0.1526420000   -0.0055810000    0.0000000000
H        0.1637940000   -0.0263410000   -0.0000000000
C       -0.1535720000    0.0878000000    0.0000000000
H        0.1527630000   -0.0060930000    0.0000000000
13   
From optimize.out: Frame 22 / 38, Energy=    -286.8436892262
C        0.0716060000    0.5319100000    0.0000000000
C       -0.0999690000   -0.0001830000   -0.0000000000
C       -0.3565030000   -0.0000690000   -0.0000000000
C       -0.1570690000    0.0763790000    0.0000000000
C        0.0724890000    0.5366380000   -0.0000000000
N       -0.4137830000   -0.1678290000    0.0000000000
H        0.1647990000   -0.0261340000    0.0000000000
H        0.2303780000    0.0014570000   -0.0000000000
H        0.1729310000    0.0000170000   -0.0000000000
H        0.1526590000   -0.0056610000    0.0000000000
H        0.1636860000   -0.0262850000   -0.0000000000
C       -0.1537370000    0.0857720000    0.0000000000
H        0.1525150000   -0.0060120000    0.0000000000
13   
From optimize.out: Frame 23 / 38, Energy=    -286.8436966992
C        0.0714510000    0.5343780000    0.0000000000
C       -0.0995950000   -0.0001770000   -0.0000000000
C       -0.3572530000   -0.0000730000   -0.0000000000
C       -0.1570190000    0.0804890000    0.0000000000
C        0.0725530000    0.5345390000   -0.0000000000
N       -0.4136740000   -0.1680030000    0.0000000000
H        0.1648740000   -0.0262410000    0.0000000000
H        0.2304640000    0.0014650000   -0.0000000000
H        0.1730600000    0.0000180000   -0.0000000000
H        0.1528230000   -0.0058320000    0.0000000000
H        0.1636940000   -0.0262130000   -0.0000000000
C       -0.1538850000    0.0814910000    0.0000000000
H        0.1525060000   -0.0058390000    0.0000000000
13   
From optimize.out: Frame 24 / 38, Energy=    -286.8437041288
C        0.0712400000    0.5358200000    0.0000000000
C       -0.0994670000   -0.0001770000   -0.0000000000
C       -0.3571890000   -0.0000740000   -0.0000000000
C       -0.1569980000    0.0836870000    0.0000000000
C        0.0726830000    0.5328270000   -0.0000000000
N       -0.4136340000   -0.1679180000    0.0000000000
H        0.1647870000   -0.0262940000    0.0000000000
H        0.2303350000    0.0014630000   -0.0000000000
H        0.1730740000    0.0000180000   -0.0000000000
H        0.1528310000   -0.0059660000    0.0000000000
H        0.1635710000   -0.0261420000   -0.0000000000
C       -0.1537230000    0.0784720000    0.0000000000
H        0.1524870000   -0.0057160000    0.0000000000
13   
From optimize.out: Frame 25 / 38, Energy=    -286.8437115974
C        0.0711250000    0.5360690000    0.0000000000
C       -0.0992880000   -0.0001740000   -0.0000000000
C       -0.3572700000   -0.0000770000   -0.0000000000
C       -0.1569160000    0.0850090000    0.0000000000
C        0.0725410000    0.5324020000   -0.0000000000
N       -0.4133910000   -0.1678730000    0.0000000000
H        0.1646140000   -0.0263050000    0.0000000000
H        0.2302310000    0.0014650000   -0.0000000000
H        0.1730790000    0.0000180000   -0.0000000000
H        0.1528900000   -0.0060220000    0.0000000000
H        0.1634990000   -0.0261300000   -0.0000000000
C       -0.1536540000    0.0772890000    0.0000000000
H        0.1525400000   -0.0056700000    0.0000000000
13   
From optimize.out: Frame 26 / 38, Energy=    -286.8437195197
C        0.0712330000    0.5350760000    0.0000000000
C       -0.0989980000   -0.0001700000   -0.0000000000
C       -0.3573940000   -0.0000810000   -0.0000000000
C       -0.1568860000    0.0840390000    0.0000000000
C        0.0723840000    0.5331430000   -0.0000000000
N       -0.4131910000   -0.1677960000    0.0000000000
H        0.1643970000   -0.0262610000    0.0000000000
H        0.2300980000    0.0014670000   -0.0000000000
H        0.1730260000    0.0000180000   -0.0000000000
H        0.1528960000   -0.0059840000    0.0000000000
H        0.1634940000   -0.0261610000   -0.0000000000
C       -0.1537050000    0.0784310000    0.0000000000
H        0.1526460000   -0.0057230000    0.0000000000
13   
From optimize.out: Frame 27 / 38, Energy=    -286.8437274703
C        0.0715000000    0.5335730000    0.0000000000
C       -0.0986390000   -0.0001650000   -0.0000000000
C       -0.3577270000   -0.0000850000   -0.0000000000
C       -0.1569010000    0.0820050000    0.0000000000
C        0.0722270000    0.5344510000   -0.0000000000
N       -0.4130160000   -0.1677290000    0.0000000000
H        0.1642230000   -0.0261960000    0.0000000000
H        0.2300680000    0.0014710000   -0.0000000000
H        0.1729570000    0.0000180000   -0.0000000000
H        0.1529110000   -0.0059000000    0.0000000000
H        0.1635640000   -0.0262140000   -0.0000000000
C       -0.1538970000    0.0805880000    0.0000000000
H        0.1527310000   -0.0058180000    0.0000000000
13   
From optimize.out: Frame 28 / 38, Energy=    -286.8437355889
C        0.0718500000    0.5321950000    0.0000000000
C       -0.0983060000   -0.0001610000   -0.0000000000
C       -0.3580980000   -0.0000880000   -0.0000000000
C       -0.1570040000    0.0798340000    0.0000000000
C        0.0722350000    0.5356100000   -0.0000000000
N       -0.4129440000   -0.1676380000    0.0000000000
H        0.1641250000   -0.0261340000    0.0000000000
H        0.2301000000    0.0014750000   -0.0000000000
H        0.1728870000    0.0000180000   -0.0000000000
H        0.1528740000   -0.0058100000    0.0000000000
H        0.1636870000   -0.0262550000   -0.0000000000
C       -0.1541990000    0.0828710000    0.0000000000
H        0.1527930000   -0.0059180000    0.0000000000
13   
From optimize.out: Frame 29 / 38, Energy=    -286.8437423071
C        0.0720800000    0.5320320000    0.0000000000
C       -0.0981490000   -0.0001580000   -0.0000000000
C       -0.3585070000   -0.0000900000   -0.0000000000
C       -0.1570860000    0.0793700000    0.0000000000
C        0.0723550000    0.5357630000   -0.0000000000
N       -0.4129890000   -0.1676570000    0.0000000000
H        0.1641460000   -0.0261240000    0.0000000000
H        0.2302840000    0.0014800000   -0.0000000000
H        0.1728650000    0.0000180000   -0.0000000000
H        0.1528460000   -0.0057900000    0.0000000000
H        0.1638380000   -0.0262570000   -0.0000000000
C       -0.1545040000    0.0833530000    0.0000000000
H        0.1528210000   -0.0059400000    0.0000000000
13   
From optimize.out: Frame 30 / 38, Energy=    -286.8437473217
C        0.0721960000    0.5325630000    0.0000000000
C       -0.0979580000   -0.0001580000   -0.0000000000
C       -0.3585770000   -0.0000900000   -0.0000000000
C       -0.1571360000    0.0801350000    0.0000000000
C        0.0726570000    0.5349930000   -0.0000000000
N       -0.4130960000   -0.1675590000    0.0000000000
H        0.1641680000   -0.0261410000    0.0000000000
H        0.2302930000    0.0014800000   -0.0000000000
H        0.1727720000    0.0000180000   -0.0000000000
H        0.1527170000   -0.0058190000    0.0000000000
H        0.1638860000   -0.0262170000   -0.0000000000
C       -0.1546900000    0.0827040000    0.0000000000
H        0.1527690000   -0.0059100000    0.0000000000
13   
From optimize.out: Frame 31 / 38, Energy=    -286.8437497454
C        0.0720490000    0.5347990000    0.0000000000
C       -0.0987140000   -0.0001540000   -0.0000000000
C       -0.3586020000   -0.0000930000   -0.0000000000
C       -0.1570010000    0.0829700000    0.0000000000
C        0.0726920000    0.5334270000   -0.0000000000
N       -0.4131800000   -0.1679180000    0.0000000000
H        0.1642890000   -0.0262410000    0.0000000000
H        0.2307630000    0.0014890000   -0.0000000000
H        0.1730110000    0.0000180000   -0.0000000000
H        0.1527680000   -0.0059410000    0.0000000000
H        0.1640960000   -0.0261660000   -0.0000000000
C       -0.1550770000    0.0795950000    0.0000000000
H        0.1529060000   -0.0057840000    0.0000000000
13   
From optimize.out: Frame 32 / 38, Energy=    -286.8437562219
C        0.0719840000    0.5352480000    0.0000000000
C       -0.0984320000   -0.0001570000   -0.0000000000
C       -0.3582630000   -0.0000900000   -0.0000000000
C       -0.1568750000    0.0841290000    0.0000000000
C        0.0728220000    0.5326240000   -0.0000000000
N       -0.4132010000   -0.1677350000    0.0000000000
H        0.1642200000   -0.0262550000    0.0000000000
H        0.2304910000    0.0014840000   -0.0000000000
H        0.1728180000    0.0000180000   -0.0000000000
H        0.1526470000   -0.0059870000    0.0000000000
H        0.1639500000   -0.0261270000   -0.0000000000
C       -0.1549550000    0.0785840000    0.0000000000
H        0.1527950000   -0.0057350000    0.0000000000
13   
From optimize.out: Frame 33 / 38, Energy=    -286.8437627762
C        0.0718400000    0.5360830000    0.0000000000
C       -0.0987170000   -0.0001590000   -0.0000000000
C       -0.3574960000   -0.0000890000   -0.0000000000
C       -0.1565760000    0.0857720000    0.0000000000
C        0.0727950000    0.5316330000   -0.0000000000
N       -0.4131290000   -0.1676370000    0.0000000000
H        0.1640910000   -0.0262880000    0.0000000000
H        0.2302720000    0.0014790000   -0.0000000000
H        0.1727970000    0.0000180000   -0.0000000000
H        0.1525510000   -0.0060560000    0.0000000000
H        0.1638110000   -0.0260900000   -0.0000000000
C       -0.1549950000    0.0769970000    0.0000000000
H        0.1527570000   -0.0056630000    0.0000000000
13   
From optimize.out: Frame 34 / 38, Energy=    -286.8437704842
C        0.0716890000    0.5367330000    0.0000000000
C       -0.0996690000   -0.0001620000   -0.0000000000
C       -0.3561430000   -0.0000870000   -0.0000000000
C       -0.1560490000    0.0870510000    0.0000000000
C        0.0725510000    0.5309900000   -0.0000000000
N       -0.4130490000   -0.1676230000    0.0000000000
H        0.1638930000   -0.0263150000    0.0000000000
H        0.2301410000    0.0014730000   -0.0000000000
H        0.1728900000    0.0000180000   -0.0000000000
H        0.1524900000   -0.0061110000    0.0000000000
H        0.1636670000   -0.0260750000   -0.0000000000
C       -0.1551640000    0.0757150000    0.0000000000
H        0.1527550000   -0.0056060000    0.0000000000
13   
From optimize.out: Frame 35 / 38, Energy=    -286.8437754040
C        0.0716660000    0.5365680000    0.0000000000
C       -0.1008560000   -0.0001630000   -0.0000000000
C       -0.3548900000   -0.0000860000   -0.0000000000
C       -0.1556650000    0.0865400000    0.0000000000
C        0.0722680000    0.5313100000   -0.0000000000
N       -0.4130170000   -0.1676910000    0.0000000000
H        0.1637690000   -0.0263100000    0.0000000000
H        0.2301990000    0.0014670000   -0.0000000000
H        0.1730580000    0.0000180000   -0.0000000000
H        0.1525010000   -0.0060910000    0.0000000000
H        0.1636170000   -0.0260970000   -0.0000000000
C       -0.1554230000    0.0761610000    0.0000000000
H        0.1527740000   -0.0056250000    0.0000000000
13   
From optimize.out: Frame 36 / 38, Energy=    -286.8437791893
C        0.0717930000    0.5354830000    0.0000000000
C       -0.1018300000   -0.0001640000   -0.0000000000
C       -0.3538980000   -0.0000850000   -0.0000000000
C       -0.1554470000    0.0843890000    0.0000000000
C        0.0720250000    0.5325000000   -0.0000000000
N       -0.4130630000   -0.1677440000    0.0000000000
H        0.1637010000   -0.0262650000    0.0000000000
H        0.2302900000    0.0014620000   -0.0000000000
H        0.1731720000    0.0000180000   -0.0000000000
H        0.1525450000   -0.0060000000    0.0000000000
H        0.1635980000   -0.0261470000   -0.0000000000
C       -0.1556220000    0.0782690000    0.0000000000
H        0.1527370000   -0.0057160000    0.0000000000
13   
From optimize.out: Frame 37 / 38, Energy=    -286.8437821882
C        0.0720160000    0.5338540000    0.0000000000
C       -0.1023480000   -0.0001640000   -0.0000000000
C       -0.3532950000   -0.0000840000   -0.0000000000
C       -0.1554420000    0.0813160000    0.0000000000
C        0.0719200000    0.5340560000   -0.0000000000
N       -0.4131650000   -0.1677170000    0.0000000000
H        0.1636840000   -0.0261960000    0.0000000000
H        0.2303410000    0.0014570000   -0.0000000000
H        0.1731690000    0.0000180000   -0.0000000000
H        0.1525890000   -0.0058660000    0.0000000000
H        0.1635870000   -0.0262040000   -0.0000000000
C       -0.1557000000    0.0813800000    0.0000000000
H        0.1526450000   -0.0058490000    0.0000000000
