13   
From optimize.out: Frame 1 / 2, Energy=    -286.8516345402
C        0.0920350000   -0.0088860000   -0.0000000000
C       -0.2458870000   -0.0441040000   -0.0000000000
C       -0.0965760000    0.9763220000   -0.0000000000
C       -0.0882410000    0.0401510000    0.0000000000
C       -0.0946320000   -0.0452910000   -0.0000000000
N       -0.3249500000    0.0223630000   -0.0000000000
H        0.1496590000   -0.0001700000   -0.0000000000
H        0.1338940000    0.0028570000   -0.0000000000
H        0.1389530000   -0.0267450000   -0.0000000000
H        0.1460140000    0.0009150000    0.0000000000
H        0.1398190000    0.0030190000   -0.0000000000
C       -0.0956830000    0.0792520000    0.0000000000
H        0.1455930000    0.0003170000    0.0000000000
