13   
From optimize.out: Frame 1 / 1, Energy=    -286.9243386648
C        0.0355950000   -0.1122710000    0.0000000000
C       -0.1314020000    0.3464130000    0.0000000000
C       -0.1113070000    0.0944220000   -0.0000000000
C       -0.1315630000    0.3472580000   -0.0000000000
C        0.0355200000   -0.1128630000   -0.0000000000
N       -0.4233940000    0.3870480000    0.0000000000
H        0.1425880000    0.0033840000    0.0000000000
H        0.1343170000   -0.0183070000    0.0000000000
H        0.1419680000   -0.0066680000   -0.0000000000
H        0.1343730000   -0.0183470000   -0.0000000000
H        0.1426240000    0.0034140000   -0.0000000000
C       -0.1112550000    0.0931240000   -0.0000000000
H        0.1419350000   -0.0066060000   -0.0000000000
