13   
From optimize.out: Frame 2 / 3, Energy=    -286.8249551859
C        1.3118553965    0.3025645483    0.2420680501
C        0.6068016140   -1.0007437408   -0.1830377253
C       -0.6883432701   -0.4654887350   -0.8439833543
C       -1.0780816294    0.1914248105    0.4506992150
C       -0.5189778790    1.0592796455   -0.6927874810
N        0.8291126319    1.4230372465   -0.4714120611
H        2.3483758206    0.2894064774    0.5607696643
H        1.1233254710   -1.9344691093   -0.3753888304
H       -1.2958121827   -0.9367535784   -1.6085309573
H       -2.0520569287    0.3366788924    0.9044507954
H       -1.1651298397    1.7418607690   -1.2337022453
C        0.2167204484   -0.3451412793    1.1120381956
H        0.3622103476   -0.6616559464    2.1388167342
13   
From optimize.out: Frame 1 / 2, Energy=    -286.8364672944
C        1.5760032086    0.4907371161   -0.1800286475
C        0.8451774152   -0.7986862903   -0.0034036254
C       -0.4632148507   -0.6151172297   -0.7009119622
C       -0.9624493212    0.6740916191    0.9121032665
C       -0.5545319747    0.9502471302   -0.5408531976
N        0.8334671192    1.4757489118   -0.5242110084
H        2.6434292726    0.6151226340   -0.0006015000
H        1.3464904271   -1.7618108841    0.0060231859
H       -0.9179475460   -1.2629878096   -1.4447232441
H       -1.9033628835    0.9727973629    1.3602304171
H       -1.2164994495    1.5364855537   -1.1779908331
C       -0.4782360189   -0.7177882781    0.8321180994
H       -0.7483253983   -1.5588398360    1.4622490495
