13   
Frame   0 IRC: Energy =  -286.8734940000 ; +0.0000 kcal/mol
C        1.5157495165    0.4444648067   -0.1101777649
C        0.6818932554   -0.8508745617   -0.0533936825
C       -0.2650212575   -0.4767056933   -1.1988886020
C       -1.0970490856    0.4074320596    0.7431289970
C       -0.5846099721    0.8972037938   -0.6217978296
N        0.8116154373    1.4626217597   -0.4264690190
H        2.5783909382    0.5144159589    0.1119430306
H        1.2215802609   -1.7970991539   -0.0737660402
H       -1.0169569158   -1.1599751305   -1.5887408770
H       -1.9024212022    0.8642625520    1.3067584500
H       -1.2249706912    1.5845764800   -1.1708004473
C       -0.3351889730   -0.6459652175    1.0896661741
H       -0.3830113104   -1.2443576537    1.9925376112
13   
Frame   1 IRC: Energy =  -286.8734930000 ; +0.0006 kcal/mol
C        1.5158980498    0.4444588087   -0.1102125000
C        0.6820623856   -0.8507845050   -0.0534876755
C       -0.2649515298   -0.4766552190   -1.1988876907
C       -1.0972243894    0.4076535428    0.7431380893
C       -0.5845062516    0.8972959091   -0.6219990099
N        0.8116206162    1.4627718443   -0.4265053338
H        2.5783891182    0.5145035625    0.1118629004
H        1.2217111917   -1.7971129920   -0.0736788518
H       -1.0171231899   -1.1601421051   -1.5884654107
H       -1.9023113229    0.8643444222    1.3068191833
H       -1.2250158705    1.5845640980   -1.1708137234
C       -0.3352068380   -0.6459874204    1.0895592566
H       -0.3833419692   -1.2449099459    1.9926707661
13   
Frame   2 IRC: Energy =  -286.8734490000 ; +0.0282 kcal/mol
C        1.5161531794    0.4464168514   -0.1105479541
C        0.6833813909   -0.8498706885   -0.0521494646
C       -0.2643428918   -0.4778960567   -1.1974446576
C       -1.0951354225    0.4094584261    0.7439451300
C       -0.5838909205    0.8972916079   -0.6215398148
N        0.8114409736    1.4636093043   -0.4284786038
H        2.5792627489    0.5181631342    0.1086242181
H        1.2253427050   -1.7947075413   -0.0713045955
H       -1.0178443496   -1.1630129237   -1.5809035049
H       -1.8970772464    0.8696289924    1.3095663008
H       -1.2254097698    1.5828078461   -1.1713069217
C       -0.3367490907   -0.6471708759    1.0879928163
H       -0.3951313066   -1.2547180764    1.9835470516
13   
Frame   3 IRC: Energy =  -286.8734440000 ; +0.0314 kcal/mol
C        1.5162416294    0.4464664631   -0.1105434389
C        0.6833578148   -0.8498424811   -0.0520147742
C       -0.2641221623   -0.4778612007   -1.1972038401
C       -1.0953680443    0.4096713870    0.7444583223
C       -0.5838226716    0.8972672192   -0.6216278919
N        0.8113687886    1.4637488143   -0.4286575538
H        2.5793177462    0.5184316211    0.1083866299
H        1.2256283810   -1.7945386167   -0.0711461692
H       -1.0179967751   -1.1633107039   -1.5804215599
H       -1.8964063363    0.8698622067    1.3095354432
H       -1.2254206461    1.5826688931   -1.1713153381
C       -0.3367778499   -0.6471020438    1.0875756796
H       -0.3959998744   -1.2554615583    1.9829744910
13   
Frame   4 IRC: Energy =  -286.8733820000 ; +0.0703 kcal/mol
C        1.5164800093    0.4482180058   -0.1110070322
C        0.6846749902   -0.8490371108   -0.0511598525
C       -0.2635664005   -0.4788984267   -1.1965731773
C       -1.0937086188    0.4110335443    0.7446378777
C       -0.5833163852    0.8973911590   -0.6216165154
N        0.8112547762    1.4646579791   -0.4302264965
H        2.5800170236    0.5215197233    0.1055235893
H        1.2286924167   -1.7927533716   -0.0690083649
H       -1.0180135563   -1.1657053556   -1.5751537793
H       -1.8918822241    0.8752560802    1.3126871825
H       -1.2262202357    1.5812835475   -1.1719289955
C       -0.3386242812   -0.6487010538    1.0870947560
H       -0.4057875143   -1.2642647206    1.9767308082
13   
Frame   5 IRC: Energy =  -286.8733710000 ; +0.0772 kcal/mol
C        1.5168226297    0.4481473440   -0.1109375721
C        0.6847974890   -0.8488216219   -0.0511603616
C       -0.2637206679   -0.4791824115   -1.1966997885
C       -1.0932667668    0.4112192760    0.7441104673
C       -0.5833332864    0.8974382996   -0.6214662141
N        0.8110606160    1.4649544249   -0.4304249582
H        2.5799723599    0.5217704783    0.1052647413
H        1.2289531513   -1.7926401496   -0.0688137929
H       -1.0178691134   -1.1657736295   -1.5746524965
H       -1.8917789717    0.8758525812    1.3131801277
H       -1.2262892179    1.5811759964   -1.1720077975
C       -0.3387838460   -0.6493808741    1.0877567959
H       -0.4065643757   -1.2647597137    1.9758508492
13   
Frame   6 IRC: Energy =  -286.8729470000 ; +0.3432 kcal/mol
C        1.5167222927    0.4539563640   -0.1130417014
C        0.6879945721   -0.8463364722   -0.0471439776
C       -0.2610768857   -0.4825237577   -1.1928889725
C       -1.0881418659    0.4182788167    0.7493919406
C       -0.5824629061    0.8971269390   -0.6213675156
N        0.8099956064    1.4676143684   -0.4377589832
H        2.5814152199    0.5324482759    0.0960540202
H        1.2375945513   -1.7867832811   -0.0584563770
H       -1.0137993234   -1.1763023311   -1.5630982372
H       -1.8713640649    0.8952233821    1.3266946641
H       -1.2311203694    1.5749190461   -1.1726806114
C       -0.3440594628   -0.6518715576    1.0836229234
H       -0.4416973641   -1.2957497926    1.9506728276
13   
Frame   7 IRC: Energy =  -286.8728850000 ; +0.3822 kcal/mol
C        1.5169811783    0.4545134472   -0.1131858394
C        0.6883606690   -0.8458334324   -0.0468934510
C       -0.2612161247   -0.4832879795   -1.1928686548
C       -1.0867793501    0.4186784628    0.7489423666
C       -0.5827166806    0.8974490846   -0.6212278688
N        0.8098603535    1.4678333115   -0.4384287192
H        2.5814226834    0.5334202560    0.0951880051
H        1.2383996821   -1.7863213573   -0.0574576799
H       -1.0131038170   -1.1770050259   -1.5619240115
H       -1.8700302144    0.8973571864    1.3284362692
H       -1.2314751085    1.5742273186   -1.1727107028
C       -0.3448655999   -0.6529399757    1.0845678907
H       -0.4448376712   -1.2980912962    1.9475623958
13   
Frame   8 IRC: Energy =  -286.8725760000 ; +0.5761 kcal/mol
C        1.5166452443    0.4570936593   -0.1143152019
C        0.6896865341   -0.8448574885   -0.0448907362
C       -0.2598842887   -0.4845571352   -1.1907714906
C       -1.0848503490    0.4222183724    0.7522582992
C       -0.5821406677    0.8969658850   -0.6211438762
N        0.8093728751    1.4690039477   -0.4420650939
H        2.5820322787    0.5382286461    0.0912414534
H        1.2419564499   -1.7836588120   -0.0524388116
H       -1.0108841295   -1.1822087219   -1.5575753407
H       -1.8601822940    0.9059931928    1.3347578446
H       -1.2339737699    1.5713986319   -1.1729671118
C       -0.3469579533   -0.6531973844    1.0819381028
H       -0.4608199300   -1.3124227932    1.9359719631
13   
Frame   9 IRC: Energy =  -286.8724770000 ; +0.6382 kcal/mol
C        1.5172628511    0.4574320212   -0.1144118533
C        0.6900630262   -0.8442284693   -0.0445411755
C       -0.2599508412   -0.4853890644   -1.1905957130
C       -1.0838115634    0.4233537480    0.7521534585
C       -0.5822980776    0.8971747427   -0.6209971638
N        0.8089351764    1.4696343700   -0.4431331116
H        2.5819366836    0.5394632214    0.0901809326
H        1.2429020515   -1.7830708850   -0.0510717311
H       -1.0099576021   -1.1832795650   -1.5563331758
H       -1.8580601256    0.9085113883    1.3368425796
H       -1.2345335198    1.5705533576   -1.1729978418
C       -0.3476361149   -0.6546899558    1.0829540426
H       -0.4648519442   -1.3154649096    1.9319507528
13   
Frame  10 IRC: Energy =  -286.8721380000 ; +0.8509 kcal/mol
C        1.5165674533    0.4599751073   -0.1156445664
C        0.6911853816   -0.8433772714   -0.0427228258
C       -0.2589500692   -0.4865754157   -1.1886399262
C       -1.0815678241    0.4261685323    0.7551848334
C       -0.5819739538    0.8968711331   -0.6208691599
N        0.8087767173    1.4702252839   -0.4464002770
H        2.5824534462    0.5435629153    0.0870129373
H        1.2456857247   -1.7807926572   -0.0465480737
H       -1.0076501371   -1.1879499674   -1.5531035599
H       -1.8497084777    0.9160290395    1.3427471529
H       -1.2367310666    1.5680184600   -1.1731819508
C       -0.3495149016   -0.6542786169    1.0806865115
H       -0.4785722930   -1.3278765429    1.9214789047
13   
Frame  11 IRC: Energy =  -286.8719860000 ; +0.9463 kcal/mol
C        1.5173720871    0.4602619313   -0.1157934522
C        0.6916115606   -0.8426147929   -0.0422146072
C       -0.2589533657   -0.4874808197   -1.1882268751
C       -1.0806427251    0.4279102870    0.7556091765
C       -0.5820159117    0.8969460449   -0.6207071646
N        0.8081430024    1.4711499585   -0.4479273149
H        2.5822967530    0.5451313006    0.0857469990
H        1.2467910255   -1.7800354307   -0.0447267242
H       -1.0064285343   -1.1895177803   -1.5517775710
H       -1.8466903672    0.9190595044    1.3453196435
H       -1.2375346434    1.5669860870   -1.1732469791
C       -0.3502123887   -0.6558909430    1.0816266869
H       -0.4837364925   -1.3319053471    1.9163181824
13   
Frame  12 IRC: Energy =  -286.8716150000 ; +1.1791 kcal/mol
C        1.5164530618    0.4627722033   -0.1171219729
C        0.6925879770   -0.8418360616   -0.0404965922
C       -0.2582143439   -0.4886528110   -1.1862915420
C       -1.0781837851    0.4303887837    0.7584384805
C       -0.5818843406    0.8968022782   -0.6205166470
N        0.8081908485    1.4713478495   -0.4510211615
H        2.5827385980    0.5487760596    0.0831342642
H        1.2490409572   -1.7779714181   -0.0405332530
H       -1.0040371676   -1.1938900986   -1.5492924936
H       -1.8393966952    0.9258514471    1.3510217981
H       -1.2394748399    1.5646271155   -1.1734239085
C       -0.3518197126   -0.6550552184    1.0796450223
H       -0.4960005578   -1.3431601290    1.9064580056
13   
Frame  13 IRC: Energy =  -286.8713760000 ; +1.3291 kcal/mol
C        1.5174162348    0.4631230676   -0.1174218697
C        0.6931180009   -0.8408342204   -0.0397406322
C       -0.2582215348   -0.4897219931   -1.1855160428
C       -1.0771332739    0.4328352027    0.7596139049
C       -0.5818295592    0.8967527168   -0.6203503176
N        0.8073855268    1.4725569490   -0.4532127747
H        2.5825028825    0.5508404484    0.0816006693
H        1.2503726899   -1.7769662993   -0.0380505467
H       -1.0023245174   -1.1961939475   -1.5478396565
H       -1.8352094663    0.9297011335    1.3544271431
H       -1.2405780324    1.5632926329   -1.1735670554
C       -0.3526700950   -0.6567284919    1.0806085027
H       -0.5028288559   -1.3486571989    1.8994486756
13   
Frame  14 IRC: Energy =  -286.8709660000 ; +1.5863 kcal/mol
C        1.5162872039    0.4656564651   -0.1188783827
C        0.6939621752   -0.8401347366   -0.0380577169
C       -0.2577034152   -0.4909545266   -1.1835016990
C       -1.0744438111    0.4351870182    0.7622559701
C       -0.5818847170    0.8968138908   -0.6200009411
N        0.8075906190    1.4724110442   -0.4562690842
H        2.5828973652    0.5541741877    0.0794470905
H        1.2522058541   -1.7750036778   -0.0340984690
H       -0.9998313115   -1.2004309775   -1.5459387224
H       -1.8287683789    0.9360147633    1.3600954940
H       -1.2422759050    1.5610440201   -1.1738151395
C       -0.3539439672   -0.6555147996    1.0788375368
H       -0.5140917116   -1.3592626714    1.8899240635
13   
Frame  15 IRC: Energy =  -286.8705780000 ; +1.8298 kcal/mol
C        1.5173991996    0.4661706030   -0.1194481595
C        0.6947428288   -0.8386816642   -0.0369838139
C       -0.2579381679   -0.4922967354   -1.1820103661
C       -1.0730083433    0.4385988700    0.7646560765
C       -0.5816647964    0.8966067496   -0.6199866958
N        0.8066487074    1.4739568167   -0.4594922506
H        2.5824738473    0.5569788365    0.0775707743
H        1.2538297826   -1.7736325421   -0.0306222584
H       -0.9972719030   -1.2038812287   -1.5443766483
H       -1.8230223804    0.9411500311    1.3648978597
H       -1.2437636462    1.5592605701   -1.1741516600
C       -0.3550281986   -0.6571912179    1.0799933176
H       -0.5233969300   -1.3670390886    1.8799538246
13   
Frame  16 IRC: Energy =  -286.8701020000 ; +2.1285 kcal/mol
C        1.5160204061    0.4690612851   -0.1212815845
C        0.6948180590   -0.8385662422   -0.0346846589
C       -0.2574869873   -0.4934834334   -1.1804122276
C       -1.0701476423    0.4410937454    0.7668982565
C       -0.5822850413    0.8973039429   -0.6184788323
N        0.8071577749    1.4738802630   -0.4629128283
H        2.5830310375    0.5601754844    0.0759338225
H        1.2556773728   -1.7720345791   -0.0268963994
H       -0.9947807665   -1.2085147490   -1.5430391594
H       -1.8170007376    0.9471078527    1.3706273933
H       -1.2450736516    1.5568705263   -1.1746633003
C       -0.3558734720   -0.6552913767    1.0787252084
H       -0.5340563518   -1.3776027193    1.8701843100
13   
Frame  17 IRC: Energy =  -286.8682840000 ; +3.2693 kcal/mol
C        1.5169471409    0.4716754714   -0.1260529765
C        0.6979691980   -0.8333633156   -0.0307973923
C       -0.2610259474   -0.5000637178   -1.1706438626
C       -1.0622376522    0.4551577314    0.7805622057
C       -0.5820062305    0.8962665486   -0.6175898383
N        0.8046967530    1.4746019959   -0.4740760732
H        2.5814843156    0.5702959004    0.0723737556
H        1.2600715951   -1.7655449386   -0.0162781414
H       -0.9847217109   -1.2234822770   -1.5424408696
H       -1.8020844554    0.9654154196    1.3902435492
H       -1.2468572573    1.5502160891   -1.1783061488
C       -0.3570060079   -0.6531473619    1.0816844040
H       -0.5652297408   -1.4080275454    1.8313213882
13   
Frame  18 IRC: Energy =  -286.8658670000 ; +4.7860 kcal/mol
C        1.5189903604    0.4737141135   -0.1310319083
C        0.7001156592   -0.8304346511   -0.0251496567
C       -0.2699927572   -0.5088049480   -1.1570374507
C       -1.0568199467    0.4712970314    0.7958760541
C       -0.5833734912    0.8964184350   -0.6130113101
N        0.8044551109    1.4730731068   -0.4839647525
H        2.5834845035    0.5815695195    0.0718735982
H        1.2674093615   -1.7603883528   -0.0097608151
H       -0.9765795572   -1.2419446190   -1.5477351271
H       -1.7936231178    0.9840630398    1.4115531433
H       -1.2457682035    1.5430619927   -1.1843803198
C       -0.3567317092   -0.6451365844    1.0853866831
H       -0.5915662127   -1.4364880833    1.7873818617
13   
Frame  19 IRC: Energy =  -286.8627340000 ; +6.7520 kcal/mol
C        1.5239671530    0.4761342000   -0.1356325627
C        0.7087858631   -0.8281386026   -0.0195590809
C       -0.2921271188   -0.5210972124   -1.1227683523
C       -1.0547478996    0.4878361382    0.8075649653
C       -0.5848225163    0.8980215095   -0.6072476393
N        0.8043796298    1.4714091177   -0.4907435692
H        2.5882576781    0.5905404053    0.0740104913
H        1.2771867231   -1.7603586886   -0.0075401783
H       -0.9677504747   -1.2560255839   -1.5566854667
H       -1.7895638395    0.9987175699    1.4278317454
H       -1.2436409829    1.5377241922   -1.1907213142
C       -0.3632120626   -0.6422654802    1.0756147065
H       -0.6067121527   -1.4524975651    1.7458762551
13   
Frame  20 IRC: Energy =  -286.8580230000 ; +9.7082 kcal/mol
C        1.5293553455    0.4784514810   -0.1394058030
C        0.7238205025   -0.8248594735   -0.0160467476
C       -0.3190356716   -0.5365522724   -1.0770702474
C       -1.0537265619    0.5035588839    0.8143691251
C       -0.5861286273    0.9005076408   -0.6022988947
N        0.8039811119    1.4696889564   -0.4945211542
H        2.5923698921    0.5964714557    0.0765852873
H        1.2853034921   -1.7622065389   -0.0071651892
H       -0.9582341654   -1.2632385614   -1.5638634078
H       -1.7879319442    1.0094329638    1.4386991245
H       -1.2420566840    1.5345509724   -1.1959269836
C       -0.3731333729   -0.6452487626    1.0522743428
H       -0.6145833168   -1.4605567453    1.7143705480
13   
Frame  21 IRC: Energy =  -286.8517930000 ; +13.6176 kcal/mol
C        1.5343413392    0.4802410463   -0.1425251746
C        0.7418456768   -0.8209425325   -0.0147651766
C       -0.3452985975   -0.5536082402   -1.0273083231
C       -1.0534840326    0.5200413757    0.8175691194
C       -0.5875074727    0.9036931915   -0.5980193962
N        0.8031841660    1.4682689570   -0.4965047977
H        2.5952781133    0.6004970261    0.0788806305
H        1.2913046929   -1.7640853735   -0.0073943886
H       -0.9488370195   -1.2660622240   -1.5679179999
H       -1.7874582038    1.0175888750    1.4460119300
H       -1.2410313737    1.5325713927   -1.2001619728
C       -0.3832784301   -0.6527346913    1.0209297680
H       -0.6190588582   -1.4654688027    1.6912057816
13   
Frame  22 IRC: Energy =  -286.8461030000 ; +17.1881 kcal/mol
C        1.5388697874    0.4815115720   -0.1453075995
C        0.7603167573   -0.8168682584   -0.0157420291
C       -0.3688675582   -0.5708564844   -0.9759353944
C       -1.0536959437    0.5382593334    0.8182609011
C       -0.5889063106    0.9074620849   -0.5941705203
N        0.8019790053    1.4674843378   -0.4975504809
H        2.5973256118    0.6035705744    0.0807439968
H        1.2958595481   -1.7655187333   -0.0077260542
H       -0.9400189719   -1.2667772001   -1.5688945822
H       -1.7875844337    1.0241512148    1.4511441844
H       -1.2403113956    1.5310311667   -1.2038062305
C       -0.3929214718   -0.6642156682    0.9858422023
H       -0.6220446246   -1.4692339396    1.6731416066
13   
Frame  23 IRC: Energy =  -286.8438520000 ; +18.6007 kcal/mol (Transition State)
C        1.5429150280    0.4827608904   -0.1482620566
C        0.7780456680   -0.8130527253   -0.0185259114
C       -0.3900597503   -0.5874356298   -0.9241074650
C       -1.0534024941    0.5576077221    0.8186294194
C       -0.5898495489    0.9112965370   -0.5907775506
N        0.8005778368    1.4674586355   -0.4981113358
H        2.5989705037    0.6063818200    0.0821572916
H        1.3000036006   -1.7667205511   -0.0080206233
H       -0.9314533561   -1.2665503768   -1.5666020710
H       -1.7878437903    1.0296815884    1.4547631588
H       -1.2396621945    1.5294652950   -1.2073335549
C       -0.4037331739   -0.6782671733    0.9491122656
H       -0.6245083290   -1.4726260321    1.6570784331
13   
Frame  24 IRC: Energy =  -286.8457380000 ; +17.4172 kcal/mol
C        1.5464404901    0.4844604775   -0.1515516950
C        0.7951245098   -0.8094709131   -0.0222926206
C       -0.4103126431   -0.6037382661   -0.8719691220
C       -1.0514990866    0.5760101262    0.8190694887
C       -0.5907000084    0.9150029892   -0.5877346957
N        0.7993921338    1.4675431397   -0.4984293795
H        2.6007169067    0.6092315279    0.0834050107
H        1.3042904886   -1.7679500126   -0.0082806115
H       -0.9227373857   -1.2659592855   -1.5629020743
H       -1.7884976021    1.0352370477    1.4583203138
H       -1.2389704421    1.5278818117   -1.2109406447
C       -0.4164757697   -0.6925858498    0.9125415072
H       -0.6267715913   -1.4756627928    1.6407645229
13   
Frame  25 IRC: Energy =  -286.8496960000 ; +14.9335 kcal/mol
C        1.5495944474    0.4865660021   -0.1554368562
C        0.8110793042   -0.8065974886   -0.0270254527
C       -0.4295243876   -0.6194543453   -0.8215330120
C       -1.0468301456    0.5932333047    0.8223377617
C       -0.5907168360    0.9180476320   -0.5851612579
N        0.7982505070    1.4685724237   -0.4988049464
H        2.6025563449    0.6125753855    0.0840555489
H        1.3096225048   -1.7693146733   -0.0085781172
H       -0.9132353665   -1.2647408826   -1.5548650814
H       -1.7892434112    1.0407030907    1.4612766164
H       -1.2380087319    1.5258833051   -1.2150469089
C       -0.4340399050   -0.7065855945    0.8765661973
H       -0.6295043246   -1.4788881595    1.6222155084
13   
Frame  26 IRC: Energy =  -286.8534010000 ; +12.6086 kcal/mol
C        1.5524995881    0.4887874360   -0.1599993005
C        0.8263953474   -0.8043586354   -0.0311909629
C       -0.4479097114   -0.6342934823   -0.7769079911
C       -1.0381952515    0.6096743083    0.8306278912
C       -0.5900893444    0.9206649475   -0.5819924028
N        0.7971417391    1.4699633213   -0.5001276860
H        2.6045109147    0.6172940289    0.0835662833
H        1.3174520909   -1.7707351429   -0.0089302057
H       -0.9029252967   -1.2642633002   -1.5411423603
H       -1.7905288328    1.0473628198    1.4645801598
H       -1.2362772508    1.5225027304   -1.2199579966
C       -0.4570591445   -0.7180243866    0.8444583455
H       -0.6350148480   -1.4845746449    1.5970162261
13   
Frame  27 IRC: Energy =  -286.8555020000 ; +11.2902 kcal/mol
C        1.5544482894    0.4908558657   -0.1651484605
C        0.8376752603   -0.8035596557   -0.0340884546
C       -0.4604555411   -0.6440444984   -0.7429879559
C       -1.0260836091    0.6257568092    0.8432136203
C       -0.5890250967    0.9226889060   -0.5777403846
N        0.7962783535    1.4709048055   -0.5032274300
H        2.6062435284    0.6238347039    0.0808569041
H        1.3279088050   -1.7709266583   -0.0086988455
H       -0.8940444772   -1.2676906474   -1.5229158771
H       -1.7924996679    1.0563337468    1.4688599451
H       -1.2338413303    1.5169202605   -1.2250323302
C       -0.4803344349   -0.7241888444    0.8208864711
H       -0.6462700794   -1.4968847932    1.5660227978
13   
Frame  28 IRC: Energy =  -286.8567140000 ; +10.5296 kcal/mol
C        1.5551105143    0.4920197922   -0.1699325762
C        0.8397115127   -0.8036320856   -0.0327958162
C       -0.4595035267   -0.6410836669   -0.7359711533
C       -1.0140066185    0.6393349295    0.8615668907
C       -0.5859975976    0.9239783226   -0.5727650131
N        0.7967596629    1.4714517041   -0.5102152650
H        2.6067715997    0.6329817462    0.0727674914
H        1.3413335579   -1.7678062222   -0.0065406341
H       -0.8908211240   -1.2801147860   -1.5002932920
H       -1.7925628683    1.0689952879    1.4728387649
H       -1.2316970857    1.5080021670   -1.2289151929
C       -0.4946047050   -0.7213229721    0.8219117948
H       -0.6704933217   -1.5228042167    1.5283440010
13   
Frame  29 IRC: Energy =  -286.8569520000 ; +10.3803 kcal/mol
C        1.5552339671    0.4930469941   -0.1700625143
C        0.8415011876   -0.8026012303   -0.0296713884
C       -0.4603935185   -0.6416475677   -0.7308034247
C       -1.0126372755    0.6413572509    0.8610084887
C       -0.5853289862    0.9252865261   -0.5719808066
N        0.7978767493    1.4718409197   -0.5119546926
H        2.6071400664    0.6346057446    0.0698471492
H        1.3424678466   -1.7651376302   -0.0052751307
H       -0.8915520538   -1.2827091360   -1.4958653237
H       -1.7920199997    1.0723141607    1.4736732435
H       -1.2320589610    1.5062437100   -1.2282789429
C       -0.4916528205   -0.7238058706    0.8181862950
H       -0.6785762017   -1.5287938712    1.5211770475
13   
Frame  30 IRC: Energy =  -286.8575570000 ; +10.0006 kcal/mol
C        1.5578733226    0.4985316334   -0.1705879328
C        0.8437256170   -0.7990132584   -0.0204067277
C       -0.4581101778   -0.6399719878   -0.7237309690
C       -1.0063273344    0.6416329002    0.8685503098
C       -0.5826561554    0.9245698222   -0.5700330331
N        0.8000446204    1.4747090719   -0.5201923856
H        2.6119745465    0.6415371274    0.0564109781
H        1.3525363383   -1.7593918410   -0.0001948252
H       -0.8941654551   -1.2925259703   -1.4745260923
H       -1.7833436473    1.0829960935    1.4741478517
H       -1.2345916250    1.5021738031   -1.2266143533
C       -0.4949374095   -0.7236006256    0.8221890777
H       -0.7120226402   -1.5516467685    1.4849881018
13   
Frame  31 IRC: Energy =  -286.8576160000 ; +9.9636 kcal/mol
C        1.5573405683    0.4984619139   -0.1708610818
C        0.8451514929   -0.7993113653   -0.0196417144
C       -0.4574044016   -0.6403189275   -0.7230268169
C       -1.0065676907    0.6441213645    0.8671503105
C       -0.5828216788    0.9255662377   -0.5693654680
N        0.7998841310    1.4741681112   -0.5206237846
H        2.6124694458    0.6422967271    0.0550770072
H        1.3530710121   -1.7581303813    0.0008446578
H       -0.8942020296   -1.2931260704   -1.4729201577
H       -1.7831514399    1.0842202315    1.4754356622
H       -1.2346077587    1.5013052362   -1.2256595235
C       -0.4943393158   -0.7257773424    0.8196567055
H       -0.7148223351   -1.5534757353    1.4839342039
13   
Frame  32 IRC: Energy =  -286.8578340000 ; +9.8268 kcal/mol
C        1.5605877691    0.5008839864   -0.1713912170
C        0.8523568191   -0.7979204060   -0.0118347676
C       -0.4507066487   -0.6403190798   -0.7198418991
C       -1.0081517684    0.6448471592    0.8685228886
C       -0.5792802922    0.9263084078   -0.5675679859
N        0.8008345319    1.4750111765   -0.5259441831
H        2.6164694219    0.6510496379    0.0349353086
H        1.3681543189   -1.7523240054    0.0132043211
H       -0.8950749674   -1.3016147629   -1.4553474429
H       -1.7710384369    1.0985872598    1.4869565225
H       -1.2388162341    1.4980346436   -1.2187412046
C       -0.5036842148   -0.7319130117    0.8125098556
H       -0.7516502984   -1.5706310054    1.4545398039
13   
Frame  33 IRC: Energy =  -286.8578580000 ; +9.8117 kcal/mol
C        1.5596202678    0.5016508562   -0.1716280542
C        0.8516518656   -0.7981031656   -0.0118991270
C       -0.4507275698   -0.6404830392   -0.7197625201
C       -1.0082909496    0.6435882027    0.8684614260
C       -0.5797136208    0.9260103975   -0.5672467878
N        0.8012492077    1.4748713819   -0.5257296005
H        2.6172290310    0.6510012775    0.0349585367
H        1.3682703264   -1.7523514835    0.0133517318
H       -0.8949035620   -1.3016800251   -1.4560164169
H       -1.7700799685    1.0987116434    1.4869995929
H       -1.2386937761    1.4982293858   -1.2190185125
C       -0.5038556528   -0.7308010638    0.8135776227
H       -0.7517555990   -1.5706443680    1.4539521089
13   
Frame  34 IRC: Energy =  -286.8578770000 ; +9.7998 kcal/mol
C        1.5594699959    0.5021868855   -0.1715094878
C        0.8506203824   -0.7980782285   -0.0118061143
C       -0.4510751397   -0.6410411926   -0.7197438266
C       -1.0094920698    0.6420484298    0.8679991486
C       -0.5806794617    0.9255069673   -0.5668460077
N        0.8006816012    1.4754466811   -0.5255109989
H        2.6178887058    0.6507489181    0.0347188890
H        1.3683444341   -1.7520289685    0.0140277551
H       -0.8942074212   -1.3017754447   -1.4575587622
H       -1.7673889153    1.0993705286    1.4876459052
H       -1.2383035026    1.4984332299   -1.2196023140
C       -0.5036524875   -0.7300054376    0.8153535296
H       -0.7522061215   -1.5708123682    1.4528322841
13   
Frame  35 IRC: Energy =  -286.8578940000 ; +9.7892 kcal/mol
C        1.5588626204    0.5027168211   -0.1714044194
C        0.8505092250   -0.7975773177   -0.0113454758
C       -0.4512653349   -0.6415405917   -0.7197788181
C       -1.0110024014    0.6409102343    0.8667050862
C       -0.5814830693    0.9249632566   -0.5670108355
N        0.7998910017    1.4754246111   -0.5248622378
H        2.6178995854    0.6505292333    0.0341480943
H        1.3682347260   -1.7512820482    0.0152137446
H       -0.8929988143   -1.3018726060   -1.4591087532
H       -1.7643199640    1.1013443472    1.4900212514
H       -1.2380456071    1.4983587807   -1.2203457301
C       -0.5032775981   -0.7303041490    0.8153668986
H       -0.7530043694   -1.5716705718    1.4524011946
13   
Frame  36 IRC: Energy =  -286.8579040000 ; +9.7829 kcal/mol
C        1.5588196425    0.5027811481   -0.1711330357
C        0.8504000374   -0.7975652798   -0.0112471925
C       -0.4509327263   -0.6417445524   -0.7201767315
C       -1.0121405967    0.6403736325    0.8664988864
C       -0.5817838566    0.9247461057   -0.5672327585
N        0.7994139620    1.4756855673   -0.5246660773
H        2.6176350283    0.6505654527    0.0338247717
H        1.3683860300   -1.7510861995    0.0157881153
H       -0.8922711721   -1.3019152728   -1.4596838019
H       -1.7622990993    1.1025157043    1.4914630481
H       -1.2380887607    1.4982434973   -1.2207993543
C       -0.5039134834   -0.7307239902    0.8153492306
H       -0.7532250051   -1.5718758130    1.4520148995
13   
Frame  37 IRC: Energy =  -286.8579160000 ; +9.7754 kcal/mol
C        1.5583283137    0.5029771116   -0.1709404757
C        0.8504522424   -0.7974091693   -0.0111051007
C       -0.4507221241   -0.6419473331   -0.7203478644
C       -1.0131288944    0.6395714543    0.8656407935
C       -0.5821524293    0.9245161661   -0.5672775227
N        0.7990133221    1.4756701234   -0.5243356748
H        2.6175038282    0.6506885923    0.0335694851
H        1.3685581316   -1.7508938185    0.0164417505
H       -0.8914655427   -1.3020675868   -1.4604051928
H       -1.7601567598    1.1041402017    1.4934503275
H       -1.2381327273    1.4979858534   -1.2212863396
C       -0.5045002474   -0.7307979006    0.8147944997
H       -0.7535971129   -1.5724336946    1.4518013143
13   
Frame  38 IRC: Energy =  -286.8579290000 ; +9.7672 kcal/mol
C        1.5582070777    0.5031854635   -0.1706658602
C        0.8504411836   -0.7973996420   -0.0110602727
C       -0.4504585479   -0.6422348898   -0.7207371345
C       -1.0146674802    0.6390278416    0.8652278635
C       -0.5825027452    0.9242786365   -0.5675722790
N        0.7985185150    1.4758135731   -0.5240043454
H        2.6172164735    0.6508539437    0.0333805965
H        1.3687486940   -1.7506698288    0.0170663619
H       -0.8906294187   -1.3022121084   -1.4611001380
H       -1.7575156983    1.1057206042    1.4953177621
H       -1.2382122510    1.4977099398   -1.2217849605
C       -0.5052401881   -0.7313777108    0.8146480126
H       -0.7539056143   -1.5726958226    1.4512843936
13   