13   
Frame   0 IRC: Energy =  -286.8734940000 ; +0.0000 kcal/mol
C        1.5157495165    0.4444648067   -0.1101777649
C        0.6818932554   -0.8508745617   -0.0533936825
C       -0.2650212575   -0.4767056933   -1.1988886020
C       -1.0970490856    0.4074320596    0.7431289970
C       -0.5846099721    0.8972037938   -0.6217978296
N        0.8116154373    1.4626217597   -0.4264690190
H        2.5783909382    0.5144159589    0.1119430306
H        1.2215802609   -1.7970991539   -0.0737660402
H       -1.0169569158   -1.1599751305   -1.5887408770
H       -1.9024212022    0.8642625520    1.3067584500
H       -1.2249706912    1.5845764800   -1.1708004473
C       -0.3351889730   -0.6459652175    1.0896661741
H       -0.3830113104   -1.2443576537    1.9925376112
13   
Frame   1 IRC: Energy =  -286.8718583982 ; +1.0264 kcal/mol
C        1.5170559973    0.4611253148   -0.1162503839
C        0.6919473894   -0.8423469559   -0.0416237127
C       -0.2586991864   -0.4878839146   -1.1875612362
C       -1.0797969967    0.4287627417    0.7565822879
C       -0.5819706591    0.8968965978   -0.6206416380
N        0.8081594586    1.4712180212   -0.4489914132
H        2.5824487213    0.5463848798    0.0848483744
H        1.2475648675   -1.7793255338   -0.0432844208
H       -1.0056060471   -1.1910215965   -1.5509228529
H       -1.8441817800    0.9213955266    1.3472808438
H       -1.2382019550    1.5661747418   -1.1733078322
C       -0.3507652120   -0.6556035037    1.0809451127
H       -0.4879545978   -1.3357763193    1.9129268710
13   
Frame   2 IRC: Energy =  -286.8671757215 ; +3.9648 kcal/mol
C        1.5178840281    0.4726102596   -0.1283359897
C        0.6989534250   -0.8320204211   -0.0282077093
C       -0.2651375412   -0.5040718756   -1.1644048500
C       -1.0597534460    0.4625581613    0.7875841373
C       -0.5826331670    0.8963361938   -0.6154904240
N        0.8045859517    1.4739009471   -0.4786103763
H        2.5824014712    0.5754652465    0.0721444160
H        1.2634362160   -1.7631804648   -0.0132897208
H       -0.9809882505   -1.2319479024   -1.5448684706
H       -1.7982046381    0.9739660014    1.4000147386
H       -1.2463578883    1.5469356873   -1.1810913672
C       -0.3568802324   -0.6494741421    1.0833820276
H       -0.5773059283   -1.4210776910    1.8111735884
13   
Frame   3 IRC: Energy =  -286.8568410279 ; +10.4499 kcal/mol
C        1.5303013014    0.4787910021   -0.1399976184
C        0.7272402862   -0.8241163411   -0.0158036046
C       -0.3240183434   -0.5397881757   -1.0676292836
C       -1.0536805486    0.5066859858    0.8149762364
C       -0.5863902255    0.9011120119   -0.6014869769
N        0.8038299132    1.4694195504   -0.4948974963
H        2.5929216475    0.5972351975    0.0770207658
H        1.2864420558   -1.7625629964   -0.0072086735
H       -0.9564513141   -1.2637742742   -1.5646326558
H       -1.7878420649    1.0109803248    1.4400865293
H       -1.2418621594    1.5341754013   -1.1967304570
C       -0.3750581200   -0.6466690128    1.0463275672
H       -0.6154324283   -1.4614886738    1.7099756673
13   
Frame   4 IRC: Energy =  -286.8441197453 ; +18.4326 kcal/mol (Transition State)
C        1.5424338667    0.4826122901   -0.1479106386
C        0.7759369019   -0.8135065641   -0.0181947824
C       -0.3875390440   -0.5854636226   -0.9302721405
C       -1.0534373985    0.5553063271    0.8185855860
C       -0.5897373554    0.9108404479   -0.5911811275
N        0.8007444988    1.4674616927   -0.4980446249
H        2.5987748519    0.6060474362    0.0819891872
H        1.2995106861   -1.7665776008   -0.0079855858
H       -0.9324721937   -1.2665773563   -1.5668747539
H       -1.7878129411    1.0290237779    1.4543326997
H       -1.2397394137    1.5296515477   -1.2069139971
C       -0.4024471755   -0.6765958163    0.9534811096
H       -0.6242152836   -1.4722225595    1.6589890680
13   
Frame   5 IRC: Energy =  -286.8518270709 ; +13.5962 kcal/mol
C        1.5512654490    0.4878437439   -0.1580611187
C        0.8198889059   -0.8053097275   -0.0294214035
C       -0.4400994023   -0.6279896364   -0.7958652427
C       -1.0418634596    0.6026899700    0.8271061434
C       -0.5903559104    0.9195530800   -0.5833385710
N        0.7976127572    1.4693724511   -0.4995657701
H        2.6036805897    0.6152894918    0.0837741293
H        1.3141259875   -1.7701317101   -0.0087806342
H       -0.9073051398   -1.2644661830   -1.5469719391
H       -1.7899827701    1.0445336859    1.4631767744
H       -1.2370128050    1.5239388397   -1.2178717068
C       -0.4472802916   -0.7131650486    0.8580981514
H       -0.6326739106   -1.4821589567    1.6077211877
13   
Frame   6 IRC: Energy =  -286.8571172401 ; +10.2766 kcal/mol
C        1.5559548387    0.4945449812   -0.1702060188
C        0.8421087328   -0.8016212687   -0.0271409864
C       -0.4597698832   -0.6411899264   -0.7288717667
C       -1.0109138786    0.6414325374    0.8630683417
C       -0.5845989717    0.9250907770   -0.5714488228
N        0.7984688471    1.4726242811   -0.5142046050
H        2.6084604794    0.6364988722    0.0661774072
H        1.3452177942   -1.7635683168   -0.0038875768
H       -0.8922658366   -1.2853903500   -1.4900370655
H       -1.7896502789    1.0752316539    1.4738028704
H       -1.2327506926    1.5051321204   -1.2278243034
C       -0.4925499209   -0.7237498133    0.8192795514
H       -0.6877112298   -1.5350355480    1.5112929746
13   
Frame   7 IRC: Energy =  -286.8581569324 ; +9.6242 kcal/mol
C        1.5544197001    0.5056083459   -0.1669576955
C        0.8510486828   -0.7966671516   -0.0116065699
C       -0.4474011078   -0.6459107055   -0.7246474737
C       -1.0321830806    0.6294326738    0.8555218538
C       -0.5872104037    0.9204794978   -0.5704145739
N        0.7920140722    1.4768047987   -0.5192232803
H        2.6134333427    0.6550922948    0.0362300103
H        1.3714112163   -1.7487404773    0.0220822749
H       -0.8826143444   -1.3054801983   -1.4681133465
H       -1.7210970172    1.1291879522    1.5206277959
H       -1.2397723382    1.4932264080   -1.2288927576
C       -0.5137357612   -0.7349310516    0.8095131493
H       -0.7583129610   -1.5781023871    1.4458806131
13   
Frame   8 IRC: Energy =  -286.8593319402 ; +8.8868 kcal/mol
C        1.5388334136    0.5148507790   -0.1509038379
C        0.8508085837   -0.7951852731   -0.0154185357
C       -0.4413757009   -0.6580432052   -0.7386526566
C       -1.0876228918    0.6032182827    0.8286659412
C       -0.6040290843    0.9071735652   -0.5827588346
N        0.7672212192    1.4801525465   -0.5027273956
H        2.5949347536    0.6740566277    0.0627028543
H        1.3789129238   -1.7428581194    0.0317678676
H       -0.8647669104   -1.3198214679   -1.4878852475
H       -1.5753429589    1.2012392219    1.5907240483
H       -1.2462734511    1.4768665946   -1.2547219482
C       -0.5400719648   -0.7468546792    0.7917114431
H       -0.7712279319   -1.5947948728    1.4274963018
13   
Frame   9 IRC: Energy =  -286.8601770000 ; +8.3566 kcal/mol
C        1.5168689536    0.5242223402   -0.1335668539
C        0.8415326074   -0.7932127849   -0.0142302045
C       -0.4452606402   -0.6680305937   -0.7493828780
C       -1.1064418319    0.5935781039    0.8179148133
C       -0.6203954917    0.8945633707   -0.5947820104
N        0.7410428610    1.4824581010   -0.4963198761
H        2.5655501337    0.6963469999    0.1000888853
H        1.3787902587   -1.7345614065    0.0423412576
H       -0.8431953738   -1.3317403152   -1.5099801617
H       -1.4065317548    1.2498629148    1.6288610041
H       -1.2639401505    1.4566370593   -1.2723532311
C       -0.5653792354   -0.7596080337    0.7740319359
H       -0.7926403361   -1.6105157558    1.4073773196
