
Running Job 1 of 1 irc_reactant.in
qchem irc_reactant.in_60443.0 ./irc_reactant.d/ 1
/home/leeping/opt/qchem/5.0.2-openmp/exe/qcprog.exe_s irc_reactant.in_60443.0 ./irc_reactant.d/
Check license passed

                  Welcome to Q-Chem
     A Quantum Leap Into The Future Of Chemistry


 Q-Chem 5.0, Q-Chem, Inc., Pleasanton, CA (2017)

 Yihan Shao,  Zhengting Gan,  E. Epifanovsky,  A. T. B. Gilbert,  M. Wormit,  
 J. Kussmann,  A. W. Lange,  A. Behn,  Jia Deng,  Xintian Feng,  D. Ghosh,  
 M. Goldey,  P. R. Horn,  L. D. Jacobson,  I. Kaliman,  T. Kus,  A. Landau,  
 Jie Liu,  E. I. Proynov,  R. M. Richard,  R. P. Steele,  E. J. Sundstrom,  
 H. L. Woodcock III,  P. M. Zimmerman,  D. Zuev,  B. Albrecht,  E. Alguire,  
 S. A. Baeppler,  D. Barton,  Z. Benda,  Y. A. Bernard,  E. J. Berquist,  
 K. B. Bravaya,  H. Burton,  D. Casanova,  Chun-Min Chang,  Yunqing Chen,  
 A. Chien,  K. D. Closser,  M. P. Coons,  S. Dasgupta,  A. L. Dempwolff,  
 M. Diedenhofen,  Hainam Do,  R. G. Edgar,  Po-Tung Fang,  S. Fatehi,  
 Qingguo Feng,  J. Fosso-Tande,  Qinghui Ge,  A. Ghysels,  G. Gidofalvi,  
 J. Gomes,  J. Gonthier,  A. Gunina,  M. W. D. Hanson-Heine,  
 P. H. P. Harbach,  A. W. Hauser,  J. E. Herr,  E. G. Hohenstein,  
 Z. C. Holden,  Kerwin Hui,  T.-C. Jagau,  Hyunjun Ji,  B. Kaduk,  
 K. Khistyaev,  Jaehoon Kim,  P. Klunzinger,  K. Koh,  D. Kosenkov,  
 L. Koulias,  T. Kowalczyk,  C. M. Krauter,  A. Kunitsa,  Ka Un Lao,  
 A. Laurent,  K. V. Lawler,  Joonho Lee,  D. Lefrancois,  S. Lehtola,  
 D. S. Levine,  Yi-Pei Li,  You-Sheng Lin,  Fenglai Liu,  E. Livshits,  
 A. Luenser,  P. Manohar,  E. Mansoor,  S. F. Manzer,  Shan-Ping Mao,  
 Yuezhi Mao,  N. Mardirossian,  A. V. Marenich,  T. Markovich,  
 L. A. Martinez-Martinez,  S. A. Maurer,  N. J. Mayhall,  S. C. McKenzie,  
 J.-M. Mewes,  A. F. Morrison,  J. W. Mullinax,  K. Nanda,  
 T. S. Nguyen-Beck,  R. Olivares-Amaya,  J. A. Parkhill,  T. M. Perrine,  
 F. Plasser,  S. Prager,  A. Prociuk,  E. Ramos,  D. R. Rehn,  F. Rob,  
 M. Schneider,  N. Sergueev,  S. M. Sharada,  S. Sharma,  D. W. Small,  
 T. Stauch,  T. Stein,  Yu-Chuan Su,  A. J. W. Thom,  A. Tkatchenko,  
 T. Tsuchimochi,  L. Vogt,  O. Vydrov,  M. A. Watson,  J. Wenzel,  
 M. de Wergifosse,  T. A. Wesolowski,  A. White,  J. Witte,  A. Yamada,  
 Jun Yang,  K. Yao,  S. Yeganeh,  S. R. Yost,  Zhi-Qiang You,  A. Zech,  
 Igor Ying Zhang,  Xing Zhang,  Yan Zhao,  Ying Zhu,  B. R. Brooks,  
 G. K. L. Chan,  C. J. Cramer,  M. S. Gordon,  W. J. Hehre,  A. Klamt,  
 M. W. Schmidt,  C. D. Sherrill,  D. G. Truhlar,  A. Aspuru-Guzik,  R. Baer,  
 A. T. Bell,  N. A. Besley,  Jeng-Da Chai,  R. A. DiStasio Jr.,  A. Dreuw,  
 B. D. Dunietz,  T. R. Furlani,  Chao-Ping Hsu,  Yousung Jung,  Jing Kong,  
 D. S. Lambrecht,  WanZhen Liang,  C. Ochsenfeld,  V. A. Rassolov,  
 L. V. Slipchenko,  J. E. Subotnik,  T. Van Voorhis,  J. M. Herbert,  
 A. I. Krylov,  P. M. W. Gill,  M. Head-Gordon

 Contributors to earlier versions of Q-Chem not listed above: 
 R. D. Adamson,  B. Austin,  J. Baker,  G. J. O. Beran,  K. Brandhorst,  
 S. T. Brown,  E. F. C. Byrd,  A. K. Chakraborty,  C.-L. Cheng,  
 Siu Hung Chien,  D. M. Chipman,  D. L. Crittenden,  H. Dachsel,  
 R. J. Doerksen,  A. D. Dutoi,  L. Fusti-Molnar,  W. A. Goddard III,  
 A. Golubeva-Zadorozhnaya,  S. R. Gwaltney,  G. Hawkins,  A. Heyden,  
 S. Hirata,  G. Kedziora,  F. J. Keil,  C. Kelley,  Jihan Kim,  R. A. King,  
 R. Z. Khaliullin,  P. P. Korambath,  W. Kurlancheek,  A. M. Lee,  M. S. Lee,  
 S. V. Levchenko,  Ching Yeh Lin,  D. Liotard,  R. C. Lochan,  I. Lotan,  
 P. E. Maslen,  N. Nair,  D. P. O'Neill,  D. Neuhauser,  E. Neuscamman,  
 C. M. Oana,  R. Olson,  B. Peters,  R. Peverati,  P. A. Pieniazek,  
 Y. M. Rhee,  J. Ritchie,  M. A. Rohrdanz,  E. Rosta,  N. J. Russ,  
 H. F. Schaefer III,  N. E. Schultz,  N. Shenvi,  A. C. Simmonett,  A. Sodt,  
 D. Stuck,  K. S. Thanthiriwatte,  V. Vanovschi,  Tao Wang,  A. Warshel,  
 C. F. Williams,  Q. Wu,  X. Xu,  W. Zhang

 Please cite Q-Chem as follows:
 Y. Shao et al., Mol. Phys. 113, 184-215 (2015)
 DOI: 10.1080/00268976.2014.952696

 Q-Chem 5.0.2 for Intel X86 EM64T Linux

 Parts of Q-Chem use Armadillo 5.200.1 (Boston Tea Smuggler).
 http://arma.sourceforge.net/

 Q-Chem begins on Thu Mar  3 10:30:37 2022  

Host: 
0

     Scratch files written to ./irc_reactant.d//
 Dec517 15110_ 26548  26544 5633   
Processing $rem in /home/leeping/opt/qchem/5.0.2-openmp/config/preferences.
 MEM_STATIC 2000
 MEM_TOTAL  8000
 SYMMETRY   OFF
 SYM_IGNORE TRUE 

Checking the input file for inconsistencies... 	...done.

--------------------------------------------------------------
User input:
--------------------------------------------------------------
$molecule
0 2
C        1.5157495165    0.4444648067   -0.1101777649
C        0.6818932554   -0.8508745617   -0.0533936825
C       -0.2650212575   -0.4767056933   -1.1988886020
C       -1.0970490856    0.4074320596    0.7431289970
C       -0.5846099721    0.8972037938   -0.6217978296
N        0.8116154373    1.4626217597   -0.4264690190
H        2.5783909382    0.5144159589    0.1119430306
H        1.2215802609   -1.7970991539   -0.0737660402
H       -1.0169569158   -1.1599751305   -1.5887408770
H       -1.9024212022    0.8642625520    1.3067584500
H       -1.2249706912    1.5845764800   -1.1708004473
C       -0.3351889730   -0.6459652175    1.0896661741
H       -0.3830113104   -1.2443576537    1.9925376112
$end

$rem
method                b3lyp
basis                 6-31+g(d,p)
unrestricted          true
symmetry              off
sym_ignore            true
incdft                false
incfock               0
scf_convergence       6
thresh                14
jobtype               sp
scf_guess             read
scf_algorithm         diis
max_scf_cycles        100
stability_analysis    true
max_cis_cycles        100
cis_n_roots           4
$end

--------------------------------------------------------------
 ----------------------------------------------------------------
             Standard Nuclear Orientation (Angstroms)
    I     Atom           X                Y                Z
 ----------------------------------------------------------------
    1      C       1.5157495165     0.4444648067    -0.1101777649
    2      C       0.6818932554    -0.8508745617    -0.0533936825
    3      C      -0.2650212575    -0.4767056933    -1.1988886020
    4      C      -1.0970490856     0.4074320596     0.7431289970
    5      C      -0.5846099721     0.8972037938    -0.6217978296
    6      N       0.8116154373     1.4626217597    -0.4264690190
    7      H       2.5783909382     0.5144159589     0.1119430306
    8      H       1.2215802609    -1.7970991539    -0.0737660402
    9      H      -1.0169569158    -1.1599751305    -1.5887408770
   10      H      -1.9024212022     0.8642625520     1.3067584500
   11      H      -1.2249706912     1.5845764800    -1.1708004473
   12      C      -0.3351889730    -0.6459652175     1.0896661741
   13      H      -0.3830113104    -1.2443576537     1.9925376112
 ----------------------------------------------------------------
 Nuclear Repulsion Energy =   279.0007400203 hartrees
 There are       25 alpha and       24 beta electrons
 Requested basis set is 6-31+G(d,p)
 There are 53 shells and 163 basis functions

 Total QAlloc Memory Limit   8000 MB
 Mega-Array Size      1956 MB
 MEM_STATIC part      2000 MB

                       Distance Matrix (Angstroms)
             C (  1)   C (  2)   C (  3)   C (  4)   C (  5)   N (  6)
   C (  2)  1.541572
   C (  3)  2.281445  1.532582
   C (  4)  2.748858  2.320004  2.290284
   C (  5)  2.208673  2.232239  1.524073  1.538017
   N (  6)  1.277689  2.346972  2.348780  2.474749  1.518979
   H (  7)  1.087859  2.342660  3.284143  3.730777  3.269477  2.076169
   H (  8)  2.261077  1.089504  2.284584  3.302017  3.289670  3.304278
   H (  9)  3.342900  2.310612  1.088232  2.810836  2.313847  3.401848
   H ( 10)  3.723953  3.386796  3.279869  1.083973  2.336031  3.275379
   H ( 11)  3.152193  3.288792  2.274022  2.250591  1.088093  2.171770
   C ( 12)  2.460617  1.543707  2.295878  1.345424  2.317906  2.839008
   H ( 13)  3.298307  2.339805  3.284572  2.190726  3.385510  3.821840
             H (  7)   H (  8)   H (  9)   H ( 10)   H ( 11)   C ( 12)
   H (  8)  2.686731
   H (  9)  4.315372  2.777071
   H ( 10)  4.650554  4.329905  3.642184
   H ( 11)  4.154062  4.315649  2.783973  2.667600
   C ( 12)  3.285023  2.258808  2.811206  2.187266  3.297990
   H ( 13)  3.924261  2.673920  3.637934  2.687969  4.326485  1.084222

 
 A cutoff of  1.0D-14 yielded   1410 shell pairs
 There are     13528 function pairs
 Smallest overlap matrix eigenvalue = 2.23E-05

 Scale SEOQF with 1.000000e-01/1.000000e-01/1.000000e-01

 Standard Electronic Orientation quadrupole field applied
 Nucleus-field energy     =     0.0000000010 hartrees
 Guess MOs from SCF MO coefficient file
 Reading MOs from coefficient file
 Reading MOs from coefficient file
 An unrestricted hybrid HF-DFT SCF calculation will be
 performed using Pulay DIIS extrapolation
 Exchange:     0.2000 Hartree-Fock + 0.0800 Slater + 0.7200 B88
 Correlation:  0.1900 VWN1RPA + 0.8100 LYP
 Using SG-1 standard quadrature grid
 SCF converges when DIIS error is below 1.0E-06
Using Q-Chem read-in guess as SCF_GUESS READ specified.

 -------------------------------------------------------
 OpenMP BLAS3 based DFT computing Module                
 -------------------------------------------------------
 ---------------------------------------
  Cycle       Energy         DIIS Error
 ---------------------------------------
    1    -286.8734943539      1.66E-09
    2    -286.8734943539      2.13E-09 Convergence criterion met
 ---------------------------------------
 <S^2> = 0.7539
 SCF time:  CPU 6.43 s  wall 10.44 s
 SCF   energy in the final basis set = -286.87349435
 Total energy in the final basis set = -286.87349435
 
 Direct TDDFT/TDA calculation will be performed
 Exchange:     0.2000 Hartree-Fock + 0.0800 Slater + 0.7200 B88
 Correlation:  0.1900 VWN1RPA + 0.8100 LYP
 Using SG-1 standard quadrature grid
 CIS energy converged when residual is below 10e- 6
 ---------------------------------------------------
 Iter    Rts Conv    Rts Left    Ttl Dev     Max Dev
 ---------------------------------------------------
   1         0           4      0.002881    0.001039
   2         0           4      0.001051    0.000336
   3         0           4      0.000955    0.000396
   4         0           4      0.001221    0.000612
   5         0           4      0.000693    0.000465
   6         0           4      0.000234    0.000138
   7         0           4      0.000065    0.000034
   8         1           3      0.000024    0.000013
   9         1           3      0.000009    0.000006
  10         3           1      0.000003    0.000002
  11         4           0      0.000002    0.000001    Roots Converged
 ---------------------------------------------------
 
 ---------------------------------------------------
         TDDFT/TDA Excitation Energies              
 ---------------------------------------------------

 Excited state   1: excitation energy (eV) =    3.1014
 Total energy for state  1:                  -286.75951980 au
    <S**2>     :  1.1521
    Trans. Mom.:  0.0985 X  -0.0446 Y   0.0446 Z
    Strength   :     0.0010395511
    S(  1) --> V(  1) amplitude =  0.9402 alpha
    D( 23) --> V(  1) amplitude =  0.1772 beta
    D( 24) --> V(  1) amplitude = -0.1561 beta

 Excited state   2: excitation energy (eV) =    4.1383
 Total energy for state  2:                  -286.72141500 au
    <S**2>     :  1.7055
    Trans. Mom.: -0.0020 X  -0.0176 Y  -0.0632 Z
    Strength   :     0.0004370977
    D( 22) --> V(  1) amplitude =  0.2012 alpha
    D( 23) --> V(  2) amplitude =  0.1536 alpha
    D( 24) --> V(  1) amplitude =  0.3014 alpha
    S(  1) --> V(  1) amplitude = -0.1759 alpha
    S(  1) --> V(  2) amplitude =  0.5289 alpha
    S(  1) --> V(  3) amplitude =  0.1883 alpha
    D( 22) --> V(  1) amplitude = -0.1827 beta
    D( 23) --> S(  1) amplitude = -0.2240 beta
    D( 23) --> V(  3) amplitude = -0.2024 beta
    D( 24) --> S(  1) amplitude = -0.4285 beta
    D( 24) --> V(  1) amplitude = -0.3390 beta

 Excited state   3: excitation energy (eV) =    4.2590
 Total energy for state  3:                  -286.71698010 au
    <S**2>     :  1.7070
    Trans. Mom.: -0.0433 X  -0.0316 Y   0.1267 Z
    Strength   :     0.0019743442
    D( 22) --> V(  1) amplitude =  0.1602 alpha
    D( 24) --> V(  1) amplitude = -0.3342 alpha
    S(  1) --> V(  2) amplitude =  0.4659 alpha
    S(  1) --> V(  3) amplitude =  0.1592 alpha
    D( 22) --> V(  1) amplitude = -0.1701 beta
    D( 23) --> S(  1) amplitude =  0.2258 beta
    D( 23) --> V(  1) amplitude =  0.2912 beta
    D( 24) --> S(  1) amplitude =  0.5446 beta
    D( 24) --> V(  3) amplitude =  0.2270 beta

 Excited state   4: excitation energy (eV) =    4.3715
 Total energy for state  4:                  -286.71284405 au
    <S**2>     :  2.2195
    Trans. Mom.: -0.0314 X  -0.0196 Y  -0.2093 Z
    Strength   :     0.0048387801
    D( 22) --> V(  1) amplitude = -0.2062 alpha
    D( 22) --> V(  2) amplitude =  0.1641 alpha
    D( 23) --> V(  1) amplitude =  0.5323 alpha
    S(  1) --> V(  1) amplitude = -0.2085 alpha
    D( 22) --> S(  1) amplitude =  0.1605 beta
    D( 22) --> V(  1) amplitude =  0.2701 beta
    D( 22) --> V(  3) amplitude =  0.1671 beta
    D( 23) --> S(  1) amplitude =  0.3839 beta
    D( 23) --> V(  1) amplitude =  0.4010 beta
    D( 24) --> S(  1) amplitude = -0.2408 beta
    D( 24) --> V(  1) amplitude = -0.2014 beta
 
 ---------------------------------------------------

 Stability analysis will be performed
 ---------------------------------------------------
 Iter    Rts Conv    Rts Left    Ttl Dev     Max Dev
 ---------------------------------------------------
   1         0           8      0.004529    0.000693
   2         0           8      0.002831    0.000785
   3         0           8      0.000940    0.000257
   4         0           8      0.000441    0.000113
   5         1           7      0.000184    0.000049
   6         1           7      0.000051    0.000015
   7         4           4      0.000016    0.000005
   8         5           3      0.000005    0.000001
   9         8           0      0.000002    0.000000    Roots Converged
 UKS-> UKS   stable,    smallest eigenvalue:      0.0843823
 UKS->CUKS   stable,    smallest eigenvalue:      0.1183839
 ---------------------------------------------------
  SETman timing summary (seconds)
  CPU time               202.71s
  System time              0.00s
  Wall time              214.05s
 
 --------------------------------------------------------------
 
                    Orbital Energies (a.u.)
 --------------------------------------------------------------
 
 Alpha MOs
 -- Occupied --
-14.337 -10.235 -10.231 -10.221 -10.216 -10.213 -10.209  -0.965
 -0.833  -0.737  -0.715  -0.589  -0.583  -0.539  -0.520  -0.481
 -0.429  -0.420  -0.391  -0.383  -0.358  -0.305  -0.283  -0.271
 -0.206
 -- Virtual --
 -0.041   0.002   0.002   0.020   0.026   0.032   0.048   0.049
  0.065   0.072   0.075   0.094   0.104   0.107   0.109   0.120
  0.121   0.131   0.138   0.150   0.169   0.171   0.185   0.190
  0.193   0.199   0.204   0.219   0.230   0.234   0.239   0.248
  0.257   0.268   0.279   0.287   0.303   0.325   0.337   0.342
  0.353   0.392   0.420   0.455   0.616   0.668   0.681   0.701
  0.707   0.717   0.727   0.737   0.746   0.764   0.777   0.789
  0.805   0.832   0.859   0.892   0.898   0.951   0.959   0.994
  1.011   1.026   1.053   1.070   1.083   1.107   1.122   1.144
  1.210   1.287   1.310   1.329   1.359   1.406   1.430   1.481
  1.499   1.576   1.623   1.685   1.743   1.753   1.809   1.830
  1.890   1.899   1.972   1.988   2.032   2.047   2.092   2.112
  2.122   2.172   2.216   2.265   2.290   2.324   2.354   2.396
  2.403   2.449   2.453   2.477   2.495   2.513   2.516   2.558
  2.590   2.605   2.625   2.636   2.685   2.742   2.776   2.790
  2.817   2.866   2.916   3.044   3.109   3.285   3.329   3.387
  3.447   3.541   3.716   4.141   4.375   4.473   4.554   4.613
  4.763   4.826
 
 Beta MOs
 -- Occupied --
-14.336 -10.235 -10.231 -10.221 -10.212 -10.208 -10.202  -0.961
 -0.827  -0.735  -0.700  -0.587  -0.571  -0.536  -0.517  -0.472
 -0.425  -0.416  -0.389  -0.379  -0.352  -0.298  -0.273  -0.268
 -- Virtual --
 -0.064  -0.036   0.003   0.003   0.021   0.029   0.032   0.048
  0.050   0.068   0.073   0.076   0.094   0.105   0.107   0.109
  0.120   0.127   0.132   0.140   0.152   0.170   0.171   0.185
  0.191   0.197   0.200   0.208   0.222   0.233   0.238   0.241
  0.250   0.261   0.270   0.280   0.291   0.308   0.327   0.340
  0.345   0.362   0.393   0.422   0.457   0.619   0.682   0.687
  0.710   0.714   0.725   0.733   0.740   0.750   0.770   0.791
  0.795   0.807   0.835   0.861   0.898   0.905   0.953   0.967
  0.999   1.013   1.029   1.058   1.077   1.084   1.109   1.126
  1.148   1.213   1.292   1.313   1.334   1.363   1.409   1.434
  1.486   1.509   1.584   1.630   1.692   1.747   1.759   1.817
  1.840   1.895   1.911   1.975   1.991   2.047   2.056   2.096
  2.123   2.131   2.174   2.222   2.271   2.305   2.326   2.359
  2.398   2.407   2.453   2.456   2.479   2.497   2.517   2.520
  2.565   2.601   2.610   2.636   2.638   2.689   2.745   2.779
  2.796   2.821   2.870   2.918   3.045   3.111   3.286   3.329
  3.396   3.450   3.542   3.717   4.142   4.385   4.477   4.570
  4.620   4.766   4.827
 --------------------------------------------------------------
 
          Ground-State Mulliken Net Atomic Charges

     Atom                 Charge (a.u.)    Spin (a.u.)
  --------------------------------------------------------
      1 C                    -0.092231      -0.030834
      2 C                     0.008680      -0.061081
      3 C                    -0.271266       1.033956
      4 C                    -0.147380       0.047868
      5 C                     0.024645      -0.089634
      6 N                    -0.202757       0.024819
      7 H                     0.137344      -0.000119
      8 H                     0.124679       0.003491
      9 H                     0.138980      -0.026003
     10 H                     0.138907       0.000629
     11 H                     0.129345       0.003583
     12 C                    -0.127586       0.093144
     13 H                     0.138641       0.000182
  --------------------------------------------------------
  Sum of atomic charges =    -0.000000
  Sum of spin   charges =     1.000000

 -----------------------------------------------------------------
                    Cartesian Multipole Moments
 -----------------------------------------------------------------
    Charge (ESU x 10^10)
                 0.0000
    Dipole Moment (Debye)
         X      -0.7280      Y      -2.2428      Z       1.0833
       Tot       2.5950
    Quadrupole Moments (Debye-Ang)
        XX     -38.2048     XY      -4.3060     YY     -44.9920
        XZ       1.4410     YZ       0.1861     ZZ     -42.2924
    Octopole Moments (Debye-Ang^2)
       XXX      -3.5564    XXY      -4.8109    XYY     -10.4850
       YYY     -32.0304    XXZ       4.6668    XYZ       0.5845
       YYZ       5.0568    XZZ      -8.8453    YZZ      -8.7228
       ZZZ      15.1907
    Hexadecapole Moments (Debye-Ang^3)
      XXXX    -248.1531   XXXY     -11.4419   XXYY     -87.5938
      XYYY     -26.4523   YYYY    -267.5341   XXXZ      18.8379
      XXYZ      11.2190   XYYZ      11.0543   YYYZ      22.0011
      XXZZ     -78.6374   XYZZ      -4.0687   YYZZ     -73.4799
      XZZZ      19.3470   YZZZ      12.5079   ZZZZ    -220.9675
 -----------------------------------------------------------------
Archival summary:
1\1\c8-66\SP\ProcedureUnspecified\6-31+G**\166(2)\hpark21\ThuMar310:34:242022ThuMar310:34:242022\0\\#,ProcedureUnspecified,6-31+G**,\\0,2\N\C,1,1.27769\H,2,1.08786,1,122.522\C,1,1.51898,2,103.991,3,-179.201,0\H,4,1.08809,1,111.758,2,-163.26,0\C,4,1.52407,1,101.041,2,-34.3285,0\H,6,1.08823,4,123.832,1,-172.484,0\C,6,1.53258,4,93.8207,1,53.2518,0\H,8,1.0895,6,120.273,4,-176.693,0\C,4,1.53802,1,108.1,2,66.6915,0\H,10,1.08397,4,125.085,1,111.149,0\C,10,1.34542,4,106.812,1,-67.2382,0\H,12,1.08422,10,128.435,4,178.804,0\\\@

 Total job time:  227.46s(wall), 209.36s(cpu) 
 Thu Mar  3 10:34:24 2022

        *************************************************************
        *                                                           *
        *  Thank you very much for using Q-Chem.  Have a nice day.  *
        *                                                           *
        *************************************************************


