
Running Job 1 of 1 irc_product.in
qchem irc_product.in_60890.0 ./irc_product.d/ 1
/home/leeping/opt/qchem/5.0.2-openmp/exe/qcprog.exe_s irc_product.in_60890.0 ./irc_product.d/
Check license passed

                  Welcome to Q-Chem
     A Quantum Leap Into The Future Of Chemistry


 Q-Chem 5.0, Q-Chem, Inc., Pleasanton, CA (2017)

 Yihan Shao,  Zhengting Gan,  E. Epifanovsky,  A. T. B. Gilbert,  M. Wormit,  
 J. Kussmann,  A. W. Lange,  A. Behn,  Jia Deng,  Xintian Feng,  D. Ghosh,  
 M. Goldey,  P. R. Horn,  L. D. Jacobson,  I. Kaliman,  T. Kus,  A. Landau,  
 Jie Liu,  E. I. Proynov,  R. M. Richard,  R. P. Steele,  E. J. Sundstrom,  
 H. L. Woodcock III,  P. M. Zimmerman,  D. Zuev,  B. Albrecht,  E. Alguire,  
 S. A. Baeppler,  D. Barton,  Z. Benda,  Y. A. Bernard,  E. J. Berquist,  
 K. B. Bravaya,  H. Burton,  D. Casanova,  Chun-Min Chang,  Yunqing Chen,  
 A. Chien,  K. D. Closser,  M. P. Coons,  S. Dasgupta,  A. L. Dempwolff,  
 M. Diedenhofen,  Hainam Do,  R. G. Edgar,  Po-Tung Fang,  S. Fatehi,  
 Qingguo Feng,  J. Fosso-Tande,  Qinghui Ge,  A. Ghysels,  G. Gidofalvi,  
 J. Gomes,  J. Gonthier,  A. Gunina,  M. W. D. Hanson-Heine,  
 P. H. P. Harbach,  A. W. Hauser,  J. E. Herr,  E. G. Hohenstein,  
 Z. C. Holden,  Kerwin Hui,  T.-C. Jagau,  Hyunjun Ji,  B. Kaduk,  
 K. Khistyaev,  Jaehoon Kim,  P. Klunzinger,  K. Koh,  D. Kosenkov,  
 L. Koulias,  T. Kowalczyk,  C. M. Krauter,  A. Kunitsa,  Ka Un Lao,  
 A. Laurent,  K. V. Lawler,  Joonho Lee,  D. Lefrancois,  S. Lehtola,  
 D. S. Levine,  Yi-Pei Li,  You-Sheng Lin,  Fenglai Liu,  E. Livshits,  
 A. Luenser,  P. Manohar,  E. Mansoor,  S. F. Manzer,  Shan-Ping Mao,  
 Yuezhi Mao,  N. Mardirossian,  A. V. Marenich,  T. Markovich,  
 L. A. Martinez-Martinez,  S. A. Maurer,  N. J. Mayhall,  S. C. McKenzie,  
 J.-M. Mewes,  A. F. Morrison,  J. W. Mullinax,  K. Nanda,  
 T. S. Nguyen-Beck,  R. Olivares-Amaya,  J. A. Parkhill,  T. M. Perrine,  
 F. Plasser,  S. Prager,  A. Prociuk,  E. Ramos,  D. R. Rehn,  F. Rob,  
 M. Schneider,  N. Sergueev,  S. M. Sharada,  S. Sharma,  D. W. Small,  
 T. Stauch,  T. Stein,  Yu-Chuan Su,  A. J. W. Thom,  A. Tkatchenko,  
 T. Tsuchimochi,  L. Vogt,  O. Vydrov,  M. A. Watson,  J. Wenzel,  
 M. de Wergifosse,  T. A. Wesolowski,  A. White,  J. Witte,  A. Yamada,  
 Jun Yang,  K. Yao,  S. Yeganeh,  S. R. Yost,  Zhi-Qiang You,  A. Zech,  
 Igor Ying Zhang,  Xing Zhang,  Yan Zhao,  Ying Zhu,  B. R. Brooks,  
 G. K. L. Chan,  C. J. Cramer,  M. S. Gordon,  W. J. Hehre,  A. Klamt,  
 M. W. Schmidt,  C. D. Sherrill,  D. G. Truhlar,  A. Aspuru-Guzik,  R. Baer,  
 A. T. Bell,  N. A. Besley,  Jeng-Da Chai,  R. A. DiStasio Jr.,  A. Dreuw,  
 B. D. Dunietz,  T. R. Furlani,  Chao-Ping Hsu,  Yousung Jung,  Jing Kong,  
 D. S. Lambrecht,  WanZhen Liang,  C. Ochsenfeld,  V. A. Rassolov,  
 L. V. Slipchenko,  J. E. Subotnik,  T. Van Voorhis,  J. M. Herbert,  
 A. I. Krylov,  P. M. W. Gill,  M. Head-Gordon

 Contributors to earlier versions of Q-Chem not listed above: 
 R. D. Adamson,  B. Austin,  J. Baker,  G. J. O. Beran,  K. Brandhorst,  
 S. T. Brown,  E. F. C. Byrd,  A. K. Chakraborty,  C.-L. Cheng,  
 Siu Hung Chien,  D. M. Chipman,  D. L. Crittenden,  H. Dachsel,  
 R. J. Doerksen,  A. D. Dutoi,  L. Fusti-Molnar,  W. A. Goddard III,  
 A. Golubeva-Zadorozhnaya,  S. R. Gwaltney,  G. Hawkins,  A. Heyden,  
 S. Hirata,  G. Kedziora,  F. J. Keil,  C. Kelley,  Jihan Kim,  R. A. King,  
 R. Z. Khaliullin,  P. P. Korambath,  W. Kurlancheek,  A. M. Lee,  M. S. Lee,  
 S. V. Levchenko,  Ching Yeh Lin,  D. Liotard,  R. C. Lochan,  I. Lotan,  
 P. E. Maslen,  N. Nair,  D. P. O'Neill,  D. Neuhauser,  E. Neuscamman,  
 C. M. Oana,  R. Olson,  B. Peters,  R. Peverati,  P. A. Pieniazek,  
 Y. M. Rhee,  J. Ritchie,  M. A. Rohrdanz,  E. Rosta,  N. J. Russ,  
 H. F. Schaefer III,  N. E. Schultz,  N. Shenvi,  A. C. Simmonett,  A. Sodt,  
 D. Stuck,  K. S. Thanthiriwatte,  V. Vanovschi,  Tao Wang,  A. Warshel,  
 C. F. Williams,  Q. Wu,  X. Xu,  W. Zhang

 Please cite Q-Chem as follows:
 Y. Shao et al., Mol. Phys. 113, 184-215 (2015)
 DOI: 10.1080/00268976.2014.952696

 Q-Chem 5.0.2 for Intel X86 EM64T Linux

 Parts of Q-Chem use Armadillo 5.200.1 (Boston Tea Smuggler).
 http://arma.sourceforge.net/

 Q-Chem begins on Thu Mar  3 10:34:42 2022  

Host: 
0

     Scratch files written to ./irc_product.d//
 Dec517 15110_ 26548  26544 5633   
Processing $rem in /home/leeping/opt/qchem/5.0.2-openmp/config/preferences.
 MEM_STATIC 2000
 MEM_TOTAL  8000
 SYMMETRY   OFF
 SYM_IGNORE TRUE 

Checking the input file for inconsistencies... 	...done.

--------------------------------------------------------------
User input:
--------------------------------------------------------------
$molecule
0 2
C        1.5168689536    0.5242223402   -0.1335668539
C        0.8415326074   -0.7932127849   -0.0142302045
C       -0.4452606402   -0.6680305937   -0.7493828780
C       -1.1064418319    0.5935781039    0.8179148133
C       -0.6203954917    0.8945633707   -0.5947820104
N        0.7410428610    1.4824581010   -0.4963198761
H        2.5655501337    0.6963469999    0.1000888853
H        1.3787902587   -1.7345614065    0.0423412576
H       -0.8431953738   -1.3317403152   -1.5099801617
H       -1.4065317548    1.2498629148    1.6288610041
H       -1.2639401505    1.4566370593   -1.2723532311
C       -0.5653792354   -0.7596080337    0.7740319359
H       -0.7926403361   -1.6105157558    1.4073773196
$end

$rem
method                b3lyp
basis                 6-31+g(d,p)
unrestricted          true
symmetry              off
sym_ignore            true
incdft                false
incfock               0
scf_convergence       8
thresh                14
jobtype               sp
scf_guess             core
scf_guess_mix         5
scf_algorithm         diis
max_scf_cycles        100
$end

--------------------------------------------------------------
 ----------------------------------------------------------------
             Standard Nuclear Orientation (Angstroms)
    I     Atom           X                Y                Z
 ----------------------------------------------------------------
    1      C       1.5168689536     0.5242223402    -0.1335668539
    2      C       0.8415326074    -0.7932127849    -0.0142302045
    3      C      -0.4452606402    -0.6680305937    -0.7493828780
    4      C      -1.1064418319     0.5935781039     0.8179148133
    5      C      -0.6203954917     0.8945633707    -0.5947820104
    6      N       0.7410428610     1.4824581010    -0.4963198761
    7      H       2.5655501337     0.6963469999     0.1000888853
    8      H       1.3787902587    -1.7345614065     0.0423412576
    9      H      -0.8431953738    -1.3317403152    -1.5099801617
   10      H      -1.4065317548     1.2498629148     1.6288610041
   11      H      -1.2639401505     1.4566370593    -1.2723532311
   12      C      -0.5653792354    -0.7596080337     0.7740319359
   13      H      -0.7926403361    -1.6105157558     1.4073773196
 ----------------------------------------------------------------
 Nuclear Repulsion Energy =   281.5964904995 hartrees
 There are       25 alpha and       24 beta electrons
 Requested basis set is 6-31+G(d,p)
 There are 53 shells and 163 basis functions

 Total QAlloc Memory Limit   8000 MB
 Mega-Array Size      1956 MB
 MEM_STATIC part      2000 MB

                       Distance Matrix (Angstroms)
             C (  1)   C (  2)   C (  3)   C (  4)   C (  5)   N (  6)
   C (  2)  1.485246
   C (  3)  2.377109  1.487265
   C (  4)  2.791395  2.531849  2.117838
   C (  5)  2.217605  2.307133  1.579960  1.523990
   N (  6)  1.285189  2.328344  2.468999  2.435266  1.486213
   H (  7)  1.088097  2.281248  3.412933  3.742908  3.266862  2.074247
   H (  8)  2.269827  1.085349  2.256430  3.492582  3.363773  3.323566
   H (  9)  3.302880  2.316374  1.085067  3.032366  2.417365  3.384824
   H ( 10)  3.489839  3.453650  3.202874  1.085540  2.385128  3.030276
   H ( 11)  3.146288  3.328320  2.336225  2.266914  1.090495  2.150082
   C ( 12)  2.609160  1.613037  1.530885  1.458008  2.147781  2.889186
   H ( 13)  3.502206  2.315054  2.379194  2.303034  3.211500  3.942427
             H (  7)   H (  8)   H (  9)   H ( 10)   H ( 11)   C ( 12)
   H (  8)  2.705744
   H (  9)  4.280772  2.740290
   H ( 10)  4.291964  4.379709  4.102968
   H ( 11)  4.138434  4.346975  2.829937  2.912067
   C ( 12)  3.518057  2.294711  2.370913  2.340138  3.096356
   H ( 13)  4.278792  2.567844  2.931083  2.933885  4.100062  1.084812

 
 A cutoff of  1.0D-14 yielded   1405 shell pairs
 There are     13517 function pairs
 
 -------------------------------------------------------
 OpenMP Integral Computing Module                       
 Release: version 1.0, May 2013, Q-Chem Inc. Pittsburgh 
 -------------------------------------------------------
 Integral Job Info:
 Integral job number is                      11
 Integral operator is                         1
 short-range coefficients                     0
 long-range coefficients              100000000
 Omega coefficients                           0
 if combine SR and LR in K                    0
 Integral screening is                        0
 Integral computing path is                   2
 max size of driver memory is            800000
 size of driver memory is                593474
 size of scratch memory is              2361544
 max col of scratch BK array               1296
 max len of scratch array in speh3          155
 max len of scratch index in speh4           18
 max int batch size is                      520
 min int batch size is                       52
 fixed nKL is                                52
 max L of basis functions is                  2
 order of int derivative is                   0
 number of shells is                         53
 number of basis is                         163
 number of cartesian basis is               163
 number of contracted shell pairs          1405
 number of primitive shell pairs           4834
 maxK2 (contraction) of shell pair           36
 max number of K2 of shell pair               1
 max number of CS2 of shell pair            126
 max number of PS2 of shell pair            708
 mem total for path MDJ                  535308
 -------------------------------------------------------
 Smallest overlap matrix eigenvalue = 1.89E-05

 Scale SEOQF with 1.000000e-01/1.000000e-01/1.000000e-01

 Standard Electronic Orientation quadrupole field applied
 Nucleus-field energy     =     0.0000000024 hartrees
 Guess MOs from core Hamiltonian diagonalization
 Mixing HOMO and LUMO in initial guess
 Adding  50% of the LUMO to the HOMO
 An unrestricted hybrid HF-DFT SCF calculation will be
 performed using Pulay DIIS extrapolation
 Exchange:     0.2000 Hartree-Fock + 0.0800 Slater + 0.7200 B88
 Correlation:  0.1900 VWN1RPA + 0.8100 LYP
 Using SG-1 standard quadrature grid
 SCF converges when DIIS error is below 1.0E-08
 using 4 threads for integral computing
 -------------------------------------------------------
 OpenMP Integral computing Module                
 Release: version 1.0, May 2013, Q-Chem Inc. Pittsburgh 
 -------------------------------------------------------
 -------------------------------------------------------
 OpenMP BLAS3 based DFT computing Module                
 Release: version 1.0, May 2013, Q-Chem Inc. Pittsburgh 
 -------------------------------------------------------
 ---------------------------------------
  Cycle       Energy         DIIS Error
 ---------------------------------------
    1    -236.4897499856      9.82E-02
    2    -213.9187503208      7.09E-02
    3    -265.0083046913      6.57E-02
    4    -268.7195242764      6.25E-02
    5    -273.7000188080      5.25E-02
    6    -283.5880443545      2.59E-02
    7    -285.7494866698      1.69E-02
    8    -286.2033891493      1.17E-02
    9    -286.7483852519      5.61E-03
   10    -286.8392236862      2.40E-03
   11    -286.8566605520      9.77E-04
   12    -286.8597885795      2.49E-04
   13    -286.8601375594      4.43E-05
   14    -286.8601676740      2.01E-05
   15    -286.8601717212      1.10E-05
   16    -286.8601730808      3.43E-06
   17    -286.8601733112      6.96E-07
   18    -286.8601733447      2.87E-07
   19    -286.8601733550      1.67E-07
   20    -286.8601733612      6.24E-08
   21    -286.8601733672      2.43E-08
   22    -286.8601733685      1.09E-08
   23    -286.8601733688      3.12E-09 Convergence criterion met
 ---------------------------------------
 <S^2> = 0.7557
 SCF time:  CPU 117.27 s  wall 36.80 s
 SCF   energy in the final basis set = -286.86017337
 Total energy in the final basis set = -286.86017337
 
 --------------------------------------------------------------
 
                    Orbital Energies (a.u.)
 --------------------------------------------------------------
 
 Alpha MOs
 -- Occupied --
-14.332 -10.230 -10.230 -10.224 -10.222 -10.219 -10.211  -0.974
 -0.866  -0.757  -0.667  -0.618  -0.581  -0.545  -0.528  -0.473
 -0.441  -0.421  -0.398  -0.371  -0.346  -0.315  -0.274  -0.268
 -0.193
 -- Virtual --
 -0.019   0.001   0.017   0.021   0.026   0.046   0.048   0.063
  0.068   0.075   0.086   0.097   0.102   0.106   0.113   0.117
  0.120   0.133   0.154   0.165   0.167   0.173   0.181   0.186
  0.187   0.197   0.207   0.214   0.226   0.238   0.249   0.253
  0.261   0.271   0.280   0.294   0.299   0.314   0.326   0.335
  0.360   0.387   0.440   0.453   0.614   0.650   0.668   0.698
  0.718   0.724   0.732   0.746   0.748   0.759   0.785   0.792
  0.805   0.813   0.848   0.880   0.898   0.912   0.935   0.980
  0.986   0.999   1.032   1.047   1.087   1.128   1.146   1.152
  1.202   1.278   1.319   1.359   1.413   1.438   1.471   1.499
  1.569   1.587   1.638   1.669   1.749   1.760   1.810   1.841
  1.890   1.923   1.949   1.969   2.002   2.023   2.083   2.155
  2.181   2.189   2.260   2.297   2.331   2.348   2.378   2.402
  2.415   2.447   2.479   2.482   2.489   2.515   2.533   2.546
  2.550   2.603   2.641   2.666   2.699   2.737   2.757   2.803
  2.817   2.881   2.967   3.045   3.106   3.271   3.325   3.361
  3.473   3.621   3.658   4.157   4.365   4.485   4.603   4.661
  4.665   4.883
 
 Beta MOs
 -- Occupied --
-14.331 -10.231 -10.229 -10.225 -10.220 -10.217 -10.198  -0.970
 -0.862  -0.747  -0.657  -0.612  -0.577  -0.542  -0.517  -0.470
 -0.436  -0.416  -0.394  -0.368  -0.334  -0.306  -0.269  -0.266
 -- Virtual --
 -0.073  -0.012   0.002   0.018   0.023   0.026   0.046   0.049
  0.065   0.068   0.080   0.087   0.099   0.102   0.107   0.116
  0.117   0.123   0.135   0.155   0.167   0.168   0.175   0.182
  0.187   0.189   0.200   0.211   0.215   0.234   0.239   0.251
  0.255   0.264   0.271   0.284   0.298   0.301   0.319   0.328
  0.337   0.362   0.390   0.449   0.455   0.617   0.664   0.674
  0.701   0.725   0.733   0.734   0.753   0.753   0.772   0.794
  0.798   0.811   0.819   0.851   0.882   0.900   0.914   0.938
  0.982   0.989   1.003   1.034   1.049   1.090   1.130   1.152
  1.163   1.203   1.283   1.324   1.362   1.416   1.446   1.480
  1.506   1.574   1.591   1.640   1.672   1.752   1.773   1.818
  1.850   1.901   1.932   1.955   1.979   2.008   2.027   2.092
  2.161   2.185   2.201   2.263   2.299   2.334   2.351   2.382
  2.408   2.420   2.452   2.482   2.487   2.500   2.519   2.540
  2.554   2.560   2.608   2.648   2.668   2.702   2.740   2.763
  2.807   2.820   2.884   2.969   3.049   3.107   3.272   3.327
  3.364   3.477   3.624   3.662   4.159   4.373   4.498   4.605
  4.666   4.670   4.888
 --------------------------------------------------------------
 
          Ground-State Mulliken Net Atomic Charges

     Atom                 Charge (a.u.)    Spin (a.u.)
  --------------------------------------------------------
      1 C                    -0.091791       0.042373
      2 C                    -0.097819       0.109792
      3 C                    -0.126752       0.066419
      4 C                    -0.075291       1.021292
      5 C                    -0.074244      -0.124383
      6 N                    -0.210343       0.029851
      7 H                     0.132417       0.004616
      8 H                     0.137862       0.001353
      9 H                     0.133171      -0.000368
     10 H                     0.130615      -0.024384
     11 H                     0.135250       0.018734
     12 C                    -0.133508      -0.149918
     13 H                     0.140431       0.004622
  --------------------------------------------------------
  Sum of atomic charges =    -0.000000
  Sum of spin   charges =     1.000000

 -----------------------------------------------------------------
                    Cartesian Multipole Moments
 -----------------------------------------------------------------
    Charge (ESU x 10^10)
                -0.0000
    Dipole Moment (Debye)
         X      -0.3116      Y      -2.6915      Z       0.4083
       Tot       2.7401
    Quadrupole Moments (Debye-Ang)
        XX     -39.9517     XY      -3.0491     YY     -44.2548
        XZ       1.4627     YZ       1.2790     ZZ     -40.8698
    Octopole Moments (Debye-Ang^2)
       XXX       6.8069    XXY      -6.4821    XYY      -8.7352
       YYY     -36.4180    XXZ       2.1301    XYZ       1.5771
       YYZ       5.4673    XZZ      -7.2632    YZZ      -7.9067
       ZZZ       6.0000
    Hexadecapole Moments (Debye-Ang^3)
      XXXX    -276.7422   XXXY      -7.6825   XXYY     -92.1899
      XYYY     -27.1252   YYYY    -294.4917   XXXZ      27.1179
      XXYZ       7.4178   XYYZ      10.4422   YYYZ      20.4160
      XXZZ     -74.4434   XYZZ      -5.4499   YYZZ     -68.8012
      XZZZ      21.3522   YZZZ      18.0740   ZZZZ    -159.3332
 -----------------------------------------------------------------
Archival summary:
1\1\c8-66\SP\ProcedureUnspecified\6-31+G**\166(2)\hpark21\ThuMar310:35:212022ThuMar310:35:212022\0\\#,ProcedureUnspecified,6-31+G**,\\0,2\N\C,1,1.28519\H,2,1.0881,1,121.632\C,2,1.48525,1,114.177,3,177.624,0\H,4,1.08535,2,123.26,1,164.639,0\C,1,1.48621,2,106.066,3,-174.578,0\H,6,1.09049,1,112.202,2,-155.776,0\C,4,1.48726,2,106.202,1,16.7575,0\H,8,1.08507,4,127.756,2,129.424,0\C,6,1.52399,1,107.991,2,70.715,0\H,10,1.08554,6,131.396,1,70.3741,0\C,10,1.45801,6,92.123,1,-91.0693,0\H,12,1.08481,10,129.248,6,-162.852,0\\\@

 Total job time:  38.88s(wall), 119.01s(cpu) 
 Thu Mar  3 10:35:21 2022

        *************************************************************
        *                                                           *
        *  Thank you very much for using Q-Chem.  Have a nice day.  *
        *                                                           *
        *************************************************************


