
Running Job 1 of 1 qcopt_rct.in
qchem qcopt_rct.in_43923.0 ./qcopt_rct.d/ 1
/home/leeping/opt/qchem/5.0.2-openmp/exe/qcprog.exe_s qcopt_rct.in_43923.0 ./qcopt_rct.d/
Check license passed

                  Welcome to Q-Chem
     A Quantum Leap Into The Future Of Chemistry


 Q-Chem 5.0, Q-Chem, Inc., Pleasanton, CA (2017)

 Yihan Shao,  Zhengting Gan,  E. Epifanovsky,  A. T. B. Gilbert,  M. Wormit,  
 J. Kussmann,  A. W. Lange,  A. Behn,  Jia Deng,  Xintian Feng,  D. Ghosh,  
 M. Goldey,  P. R. Horn,  L. D. Jacobson,  I. Kaliman,  T. Kus,  A. Landau,  
 Jie Liu,  E. I. Proynov,  R. M. Richard,  R. P. Steele,  E. J. Sundstrom,  
 H. L. Woodcock III,  P. M. Zimmerman,  D. Zuev,  B. Albrecht,  E. Alguire,  
 S. A. Baeppler,  D. Barton,  Z. Benda,  Y. A. Bernard,  E. J. Berquist,  
 K. B. Bravaya,  H. Burton,  D. Casanova,  Chun-Min Chang,  Yunqing Chen,  
 A. Chien,  K. D. Closser,  M. P. Coons,  S. Dasgupta,  A. L. Dempwolff,  
 M. Diedenhofen,  Hainam Do,  R. G. Edgar,  Po-Tung Fang,  S. Fatehi,  
 Qingguo Feng,  J. Fosso-Tande,  Qinghui Ge,  A. Ghysels,  G. Gidofalvi,  
 J. Gomes,  J. Gonthier,  A. Gunina,  M. W. D. Hanson-Heine,  
 P. H. P. Harbach,  A. W. Hauser,  J. E. Herr,  E. G. Hohenstein,  
 Z. C. Holden,  Kerwin Hui,  T.-C. Jagau,  Hyunjun Ji,  B. Kaduk,  
 K. Khistyaev,  Jaehoon Kim,  P. Klunzinger,  K. Koh,  D. Kosenkov,  
 L. Koulias,  T. Kowalczyk,  C. M. Krauter,  A. Kunitsa,  Ka Un Lao,  
 A. Laurent,  K. V. Lawler,  Joonho Lee,  D. Lefrancois,  S. Lehtola,  
 D. S. Levine,  Yi-Pei Li,  You-Sheng Lin,  Fenglai Liu,  E. Livshits,  
 A. Luenser,  P. Manohar,  E. Mansoor,  S. F. Manzer,  Shan-Ping Mao,  
 Yuezhi Mao,  N. Mardirossian,  A. V. Marenich,  T. Markovich,  
 L. A. Martinez-Martinez,  S. A. Maurer,  N. J. Mayhall,  S. C. McKenzie,  
 J.-M. Mewes,  A. F. Morrison,  J. W. Mullinax,  K. Nanda,  
 T. S. Nguyen-Beck,  R. Olivares-Amaya,  J. A. Parkhill,  T. M. Perrine,  
 F. Plasser,  S. Prager,  A. Prociuk,  E. Ramos,  D. R. Rehn,  F. Rob,  
 M. Schneider,  N. Sergueev,  S. M. Sharada,  S. Sharma,  D. W. Small,  
 T. Stauch,  T. Stein,  Yu-Chuan Su,  A. J. W. Thom,  A. Tkatchenko,  
 T. Tsuchimochi,  L. Vogt,  O. Vydrov,  M. A. Watson,  J. Wenzel,  
 M. de Wergifosse,  T. A. Wesolowski,  A. White,  J. Witte,  A. Yamada,  
 Jun Yang,  K. Yao,  S. Yeganeh,  S. R. Yost,  Zhi-Qiang You,  A. Zech,  
 Igor Ying Zhang,  Xing Zhang,  Yan Zhao,  Ying Zhu,  B. R. Brooks,  
 G. K. L. Chan,  C. J. Cramer,  M. S. Gordon,  W. J. Hehre,  A. Klamt,  
 M. W. Schmidt,  C. D. Sherrill,  D. G. Truhlar,  A. Aspuru-Guzik,  R. Baer,  
 A. T. Bell,  N. A. Besley,  Jeng-Da Chai,  R. A. DiStasio Jr.,  A. Dreuw,  
 B. D. Dunietz,  T. R. Furlani,  Chao-Ping Hsu,  Yousung Jung,  Jing Kong,  
 D. S. Lambrecht,  WanZhen Liang,  C. Ochsenfeld,  V. A. Rassolov,  
 L. V. Slipchenko,  J. E. Subotnik,  T. Van Voorhis,  J. M. Herbert,  
 A. I. Krylov,  P. M. W. Gill,  M. Head-Gordon

 Contributors to earlier versions of Q-Chem not listed above: 
 R. D. Adamson,  B. Austin,  J. Baker,  G. J. O. Beran,  K. Brandhorst,  
 S. T. Brown,  E. F. C. Byrd,  A. K. Chakraborty,  C.-L. Cheng,  
 Siu Hung Chien,  D. M. Chipman,  D. L. Crittenden,  H. Dachsel,  
 R. J. Doerksen,  A. D. Dutoi,  L. Fusti-Molnar,  W. A. Goddard III,  
 A. Golubeva-Zadorozhnaya,  S. R. Gwaltney,  G. Hawkins,  A. Heyden,  
 S. Hirata,  G. Kedziora,  F. J. Keil,  C. Kelley,  Jihan Kim,  R. A. King,  
 R. Z. Khaliullin,  P. P. Korambath,  W. Kurlancheek,  A. M. Lee,  M. S. Lee,  
 S. V. Levchenko,  Ching Yeh Lin,  D. Liotard,  R. C. Lochan,  I. Lotan,  
 P. E. Maslen,  N. Nair,  D. P. O'Neill,  D. Neuhauser,  E. Neuscamman,  
 C. M. Oana,  R. Olson,  B. Peters,  R. Peverati,  P. A. Pieniazek,  
 Y. M. Rhee,  J. Ritchie,  M. A. Rohrdanz,  E. Rosta,  N. J. Russ,  
 H. F. Schaefer III,  N. E. Schultz,  N. Shenvi,  A. C. Simmonett,  A. Sodt,  
 D. Stuck,  K. S. Thanthiriwatte,  V. Vanovschi,  Tao Wang,  A. Warshel,  
 C. F. Williams,  Q. Wu,  X. Xu,  W. Zhang

 Please cite Q-Chem as follows:
 Y. Shao et al., Mol. Phys. 113, 184-215 (2015)
 DOI: 10.1080/00268976.2014.952696

 Q-Chem 5.0.2 for Intel X86 EM64T Linux

 Parts of Q-Chem use Armadillo 5.200.1 (Boston Tea Smuggler).
 http://arma.sourceforge.net/

 Q-Chem begins on Thu Mar  3 06:31:39 2022  

Host: 
0

     Scratch files written to ./qcopt_rct.d//
 Dec517 15110_ 26548  26544 5633   
Processing $rem in /home/leeping/opt/qchem/5.0.2-openmp/config/preferences.
 MEM_STATIC 2000
 MEM_TOTAL  8000
 SYMMETRY   OFF
 SYM_IGNORE TRUE 

Checking the input file for inconsistencies... 	...done.

--------------------------------------------------------------
User input:
--------------------------------------------------------------
$molecule
0 2
C        1.3118553965    0.3025645483    0.2420680501
C        0.6068016140   -1.0007437408   -0.1830377253
C       -0.6883432701   -0.4654887350   -0.8439833543
C       -1.0780816294    0.1914248105    0.4506992150
C       -0.5189778790    1.0592796455   -0.6927874810
N        0.8291126319    1.4230372465   -0.4714120611
H        2.3483758206    0.2894064774    0.5607696643
H        1.1233254710   -1.9344691093   -0.3753888304
H       -1.2958121827   -0.9367535784   -1.6085309573
H       -2.0520569287    0.3366788924    0.9044507954
H       -1.1651298397    1.7418607690   -1.2337022453
C        0.2167204484   -0.3451412793    1.1120381956
H        0.3622103476   -0.6616559464    2.1388167342
$end

$rem
method                b3lyp
basis                 6-31g(d)
unrestricted          true
symmetry              off
sym_ignore            true
incdft                false
incfock               0
scf_convergence       8
thresh                14
jobtype               opt
scf_guess             core
scf_guess_mix         5
scf_algorithm         diis
max_scf_cycles        100
geom_opt_max_cycles   300
$end

--------------------------------------------------------------
 ----------------------------------------------------------------
             Standard Nuclear Orientation (Angstroms)
    I     Atom           X                Y                Z
 ----------------------------------------------------------------
    1      C       1.3118553965     0.3025645483     0.2420680501
    2      C       0.6068016140    -1.0007437408    -0.1830377253
    3      C      -0.6883432701    -0.4654887350    -0.8439833543
    4      C      -1.0780816294     0.1914248105     0.4506992150
    5      C      -0.5189778790     1.0592796455    -0.6927874810
    6      N       0.8291126319     1.4230372465    -0.4714120611
    7      H       2.3483758206     0.2894064774     0.5607696643
    8      H       1.1233254710    -1.9344691093    -0.3753888304
    9      H      -1.2958121827    -0.9367535784    -1.6085309573
   10      H      -2.0520569287     0.3366788924     0.9044507954
   11      H      -1.1651298397     1.7418607690    -1.2337022453
   12      C       0.2167204484    -0.3451412793     1.1120381956
   13      H       0.3622103476    -0.6616559464     2.1388167342
 ----------------------------------------------------------------
 Nuclear Repulsion Energy =   288.0365979344 hartrees
 There are       25 alpha and       24 beta electrons
 Requested basis set is 6-31G(d)
 There are 40 shells and 117 basis functions

 Total QAlloc Memory Limit   8000 MB
 Mega-Array Size      1956 MB
 MEM_STATIC part      2000 MB
 A cutoff of  1.0D-14 yielded    812 shell pairs
 There are      7084 function pairs
 
 -------------------------------------------------------
 OpenMP Integral Computing Module                       
 Release: version 1.0, May 2013, Q-Chem Inc. Pittsburgh 
 -------------------------------------------------------
 Integral Job Info:
 Integral job number is                      11
 Integral operator is                         1
 short-range coefficients                     0
 long-range coefficients              100000000
 Omega coefficients                           0
 if combine SR and LR in K                    0
 Integral screening is                        0
 Integral computing path is                   2
 max size of driver memory is            800000
 size of driver memory is                593474
 size of scratch memory is              2361544
 max col of scratch BK array               1296
 max len of scratch array in speh3          155
 max len of scratch index in speh4           18
 max int batch size is                      520
 min int batch size is                       52
 fixed nKL is                                52
 max L of basis functions is                  2
 order of int derivative is                   0
 number of shells is                         40
 number of basis is                         117
 number of cartesian basis is               117
 number of contracted shell pairs           812
 number of primitive shell pairs           3655
 maxK2 (contraction) of shell pair           36
 max number of K2 of shell pair               1
 max number of CS2 of shell pair             84
 max number of PS2 of shell pair            402
 mem total for path MDJ                  535308
 -------------------------------------------------------
 Smallest overlap matrix eigenvalue = 1.00E-03

 Scale SEOQF with 1.000000e-01/1.000000e-01/1.000000e-01

 Standard Electronic Orientation quadrupole field applied
 Nucleus-field energy     =     0.0000000013 hartrees
 Guess MOs from core Hamiltonian diagonalization
 Mixing HOMO and LUMO in initial guess
 Adding  50% of the LUMO to the HOMO
 An unrestricted hybrid HF-DFT SCF calculation will be
 performed using Pulay DIIS extrapolation
 Exchange:     0.2000 Hartree-Fock + 0.0800 Slater + 0.7200 B88
 Correlation:  0.1900 VWN1RPA + 0.8100 LYP
 Using SG-1 standard quadrature grid
 SCF converges when DIIS error is below 1.0E-08
 using 4 threads for integral computing
 -------------------------------------------------------
 OpenMP Integral computing Module                
 Release: version 1.0, May 2013, Q-Chem Inc. Pittsburgh 
 -------------------------------------------------------
 -------------------------------------------------------
 OpenMP BLAS3 based DFT computing Module                
 Release: version 1.0, May 2013, Q-Chem Inc. Pittsburgh 
 -------------------------------------------------------
 ---------------------------------------
  Cycle       Energy         DIIS Error
 ---------------------------------------
    1    -239.7200154023      1.31E-01
    2    -233.1145924820      1.03E-01
    3    -266.5194481309      9.24E-02
    4    -280.1492995512      6.26E-02
    5    -283.9406986818      3.96E-02
    6    -286.1859372127      1.62E-02
    7    -286.7919758260      3.93E-03
    8    -286.8104315045      2.79E-03
    9    -286.8243070555      4.47E-04
   10    -286.8248731827      1.50E-04
   11    -286.8249346466      6.01E-05
   12    -286.8249516561      1.74E-05
   13    -286.8249545644      7.75E-06
   14    -286.8249549402      4.55E-06
   15    -286.8249551320      1.43E-06
   16    -286.8249551824      6.41E-07
   17    -286.8249551850      3.74E-07
   18    -286.8249551857      1.67E-07
   19    -286.8249551859      2.42E-08
   20    -286.8249551859      1.36E-08
   21    -286.8249551859      3.54E-09 Convergence criterion met
 ---------------------------------------
 <S^2> = 0.7558
 SCF time:  CPU 51.92 s  wall 15.28 s
 SCF   energy in the final basis set = -286.82495519
 Total energy in the final basis set = -286.82495519
 
 --------------------------------------------------------------
 
                    Orbital Energies (a.u.)
 --------------------------------------------------------------
 
 Alpha MOs
 -- Occupied --
-14.335 -10.215 -10.215 -10.207 -10.207 -10.207 -10.206  -0.986
 -0.837  -0.793  -0.649  -0.588  -0.574  -0.542  -0.533  -0.455
 -0.427  -0.415  -0.395  -0.384  -0.337  -0.275  -0.274  -0.248
 -0.212
 -- Virtual --
  0.090   0.094   0.117   0.147   0.150   0.156   0.167   0.180
  0.184   0.197   0.217   0.251   0.255   0.301   0.364   0.378
  0.477   0.520   0.537   0.541   0.561   0.565   0.574   0.608
  0.621   0.630   0.676   0.728   0.729   0.742   0.743   0.781
  0.786   0.801   0.828   0.831   0.848   0.856   0.918   0.938
  0.983   1.005   1.137   1.161   1.195   1.235   1.399   1.455
  1.490   1.538   1.622   1.630   1.653   1.658   1.667   1.691
  1.754   1.824   1.854   1.942   1.968   1.974   1.978   1.984
  2.043   2.128   2.134   2.242   2.273   2.404   2.413   2.489
  2.517   2.522   2.536   2.560   2.570   2.638   2.710   2.719
  2.757   2.769   2.837   2.881   2.932   3.847   4.233   4.317
  4.370   4.460   4.639   4.673
 
 Beta MOs
 -- Occupied --
-14.319 -10.217 -10.216 -10.205 -10.205 -10.205 -10.205  -0.976
 -0.812  -0.789  -0.644  -0.585  -0.568  -0.537  -0.529  -0.453
 -0.423  -0.392  -0.390  -0.378  -0.322  -0.269  -0.257  -0.244
 -- Virtual --
 -0.078   0.091   0.101   0.120   0.147   0.152   0.157   0.176
  0.182   0.188   0.202   0.225   0.259   0.259   0.302   0.367
  0.384   0.479   0.522   0.540   0.542   0.568   0.568   0.576
  0.613   0.621   0.639   0.679   0.732   0.733   0.743   0.782
  0.787   0.794   0.801   0.830   0.839   0.849   0.857   0.919
  0.944   1.003   1.007   1.140   1.164   1.205   1.236   1.401
  1.474   1.507   1.541   1.626   1.634   1.658   1.660   1.691
  1.696   1.758   1.827   1.858   1.946   1.970   1.979   1.982
  1.987   2.058   2.130   2.156   2.247   2.282   2.403   2.431
  2.502   2.523   2.529   2.541   2.565   2.603   2.639   2.714
  2.720   2.761   2.772   2.839   2.887   2.937   3.873   4.239
  4.320   4.369   4.462   4.641   4.676
 --------------------------------------------------------------
 
          Ground-State Mulliken Net Atomic Charges

     Atom                 Charge (a.u.)    Spin (a.u.)
  --------------------------------------------------------
      1 C                    -0.044700      -0.080467
      2 C                    -0.124820       0.089613
      3 C                    -0.124814       0.089585
      4 C                    -0.124766       0.088871
      5 C                    -0.044860      -0.080285
      6 N                    -0.285841       0.810981
      7 H                     0.149294       0.001046
      8 H                     0.144004      -0.002509
      9 H                     0.144007      -0.002527
     10 H                     0.143987      -0.002460
     11 H                     0.149333       0.001046
     12 C                    -0.124740       0.089597
     13 H                     0.143919      -0.002490
  --------------------------------------------------------
  Sum of atomic charges =     0.000000
  Sum of spin   charges =     1.000000

 -----------------------------------------------------------------
                    Cartesian Multipole Moments
 -----------------------------------------------------------------
    Charge (ESU x 10^10)
                 0.0000
    Dipole Moment (Debye)
         X      -1.1245      Y      -1.9290      Z       0.6402
       Tot       2.3228
    Quadrupole Moments (Debye-Ang)
        XX     -37.9745     XY      -3.8517     YY     -43.4396
        XZ       2.4102     YZ       0.8324     ZZ     -39.2019
    Octopole Moments (Debye-Ang^2)
       XXX      -9.6394    XXY      -7.2197    XYY      -7.9022
       YYY     -25.6794    XXZ       4.0769    XYZ       1.8955
       YYZ       1.0237    XZZ      -6.2124    YZZ      -7.8444
       ZZZ       8.4128
    Hexadecapole Moments (Debye-Ang^3)
      XXXX    -228.2199   XXXY      -6.0817   XXYY     -80.8813
      XYYY     -18.0703   YYYY    -233.4667   XXXZ     -10.2204
      XXYZ       8.8700   XYYZ       1.2350   YYYZ      23.1364
      XXZZ     -66.7868   XYZZ      -2.7107   YYZZ     -64.7913
      XZZZ     -10.3940   YZZZ      17.0308   ZZZZ    -165.4208
 -----------------------------------------------------------------
 Calculating analytic gradient of the SCF energy
 Gradient of SCF Energy
            1           2           3           4           5           6
    1   0.0000103  -0.0002515  -0.0000367  -0.0000061   0.0001138  -0.0000187
    2   0.0002198  -0.0000826  -0.0000523   0.0001128   0.0000562  -0.0001038
    3  -0.0000447  -0.0000649   0.0000945  -0.0001217  -0.0000019   0.0000376
            7           8           9          10          11          12
    1  -0.0000070   0.0001302   0.0000005   0.0000096  -0.0000008   0.0002043
    2  -0.0000045   0.0000625  -0.0000142  -0.0000173  -0.0000169  -0.0002270
    3   0.0000264   0.0000436   0.0000030   0.0000286  -0.0000286  -0.0000183
           13
    1  -0.0001477
    2   0.0000672
    3   0.0000465
 Max gradient component =       2.515E-04
 RMS gradient           =       9.365E-05
 Gradient time:  CPU 7.51 s  wall 2.00 s
 Geometry Optimization Parameters
   NAtoms,    NIC,     NZ,  NCons,   NDum,   NFix, NCnnct, MaxDiis
       13     151       0       0       0       0       0       0


** GEOMETRY OPTIMIZATION IN DELOCALIZED INTERNAL COORDINATES **
   Searching for a Minimum

   Optimization Cycle:   1

                       Coordinates (Angstroms)
     ATOM                X               Y               Z
      1  C         1.3118553965    0.3025645483    0.2420680501
      2  C         0.6068016140   -1.0007437408   -0.1830377253
      3  C        -0.6883432701   -0.4654887350   -0.8439833543
      4  C        -1.0780816294    0.1914248105    0.4506992150
      5  C        -0.5189778790    1.0592796455   -0.6927874810
      6  N         0.8291126319    1.4230372465   -0.4714120611
      7  H         2.3483758206    0.2894064774    0.5607696643
      8  H         1.1233254710   -1.9344691093   -0.3753888304
      9  H        -1.2958121827   -0.9367535784   -1.6085309573
     10  H        -2.0520569287    0.3366788924    0.9044507954
     11  H        -1.1651298397    1.7418607690   -1.2337022453
     12  C         0.2167204484   -0.3451412793    1.1120381956
     13  H         0.3622103476   -0.6616559464    2.1388167342
   Point Group: c1    Number of degrees of freedom:    33


   Energy is   -286.824955186


 Attempting to Generate Delocalized Internal Coordinates

 33 Hessian modes will be used to form the next step
  Hessian Eigenvalues:
     0.011260    0.013570    0.015602    0.017246    0.018156    0.018920
     0.020278    0.021588    0.054925    0.056027    0.064497    0.066316
     0.076601    0.084943    0.086861    0.114483    0.138934    0.139550
     0.145930    0.169334    0.210122    0.215343    0.257993    0.261378
     0.297972    0.354572    0.354627    0.354833    0.354834    0.354843
     0.354846    0.378403    0.384375

 Minimum Search - Taking Simple RFO Step
 Searching for Lamda that Minimizes Along All modes
 Value Taken    Lamda =  -0.00000106
 Step Taken.  Stepsize is  0.006960

                             Maximum     Tolerance    Cnvgd?
         Gradient           0.000101      0.000300     YES
         Displacement       0.005053      0.001200      NO
         Energy change     *********      0.000001      NO


 New Cartesian Coordinates Obtained by Inverse Iteration

 Displacement from previous Coordinates is:  0.004951
 ----------------------------------------------------------------
             Standard Nuclear Orientation (Angstroms)
    I     Atom           X                Y                Z
 ----------------------------------------------------------------
    1      C       1.3119832026     0.3024639842     0.2418450666
    2      C       0.6067813895    -1.0007324541    -0.1827277502
    3      C      -0.6879962090    -0.4652710104    -0.8442673523
    4      C      -1.0782594737     0.1910344549     0.4506508298
    5      C      -0.5191779217     1.0594042307    -0.6924931429
    6      N       0.8290508102     1.4231658196    -0.4713972156
    7      H       2.3485696173     0.2892655803     0.5603271077
    8      H       1.1221951757    -1.9351789616    -0.3745474573
    9      H      -1.2950975532    -0.9364177124    -1.6091722852
   10      H      -2.0524462796     0.3360300536     0.9040256583
   11      H      -1.1654104444     1.7420801816    -1.2331782202
   12      C       0.2167898071    -0.3445443101     1.1121710373
   13      H       0.3630178796    -0.6612998559     2.1387637239
 ----------------------------------------------------------------
 Nuclear Repulsion Energy =   288.0352975831 hartrees
 There are       25 alpha and       24 beta electrons
 Applying Cartesian multipole field
    Component          Value
    ---------          -----
     (2,0,0)        1.00000E-11
     (0,2,0)        2.00000E-11
     (0,0,2)       -3.00000E-11
 Nucleus-field energy     =     0.0000000013 hartrees
 Requested basis set is 6-31G(d)
 There are 40 shells and 117 basis functions
 A cutoff of  1.0D-14 yielded    812 shell pairs
 There are      7084 function pairs
 Smallest overlap matrix eigenvalue = 1.00E-03
 Guess MOs from SCF MO coefficient file
 Reading MOs from coefficient file
 Mixing HOMO and LUMO in initial guess
 Adding  50% of the LUMO to the HOMO
 Reading MOs from coefficient file
 An unrestricted hybrid HF-DFT SCF calculation will be
 performed using Pulay DIIS extrapolation
 Exchange:     0.2000 Hartree-Fock + 0.0800 Slater + 0.7200 B88
 Correlation:  0.1900 VWN1RPA + 0.8100 LYP
 Using SG-1 standard quadrature grid
 SCF converges when DIIS error is below 1.0E-08
 Geometry optimization detected.  Setting ReadMinima to 0
 Setting SaveMinima to 0
 using 4 threads for integral computing
 -------------------------------------------------------
 OpenMP Integral computing Module                
 Release: version 1.0, May 2013, Q-Chem Inc. Pittsburgh 
 -------------------------------------------------------
 -------------------------------------------------------
 OpenMP BLAS3 based DFT computing Module                
 Release: version 1.0, May 2013, Q-Chem Inc. Pittsburgh 
 -------------------------------------------------------
 ---------------------------------------
  Cycle       Energy         DIIS Error
 ---------------------------------------
    1    -286.7701577084      1.70E-03
    2    -286.8126767644      2.48E-03
    3    -286.8242662270      3.76E-04
    4    -286.8247120667      3.46E-04
    5    -286.8249389274      8.25E-05
    6    -286.8249545277      1.61E-05
    7    -286.8249554921      6.99E-06
    8    -286.8249556688      2.55E-06
    9    -286.8249557072      4.45E-07
   10    -286.8249557146      3.31E-07
   11    -286.8249557159      1.63E-07
   12    -286.8249557164      4.51E-08
   13    -286.8249557164      1.03E-08
   14    -286.8249557164      2.70E-09 Convergence criterion met
 ---------------------------------------
 <S^2> = 0.7558
 SCF time:  CPU 33.90 s  wall 8.78 s
 SCF   energy in the final basis set = -286.82495572
 Total energy in the final basis set = -286.82495572
 
 --------------------------------------------------------------
 
                    Orbital Energies (a.u.)
 --------------------------------------------------------------
 
 Alpha MOs
 -- Occupied --
-14.335 -10.215 -10.215 -10.207 -10.207 -10.207 -10.206  -0.986
 -0.837  -0.793  -0.649  -0.588  -0.574  -0.542  -0.533  -0.455
 -0.427  -0.415  -0.395  -0.384  -0.337  -0.275  -0.274  -0.248
 -0.212
 -- Virtual --
  0.090   0.094   0.117   0.147   0.150   0.156   0.167   0.180
  0.184   0.197   0.217   0.251   0.255   0.302   0.364   0.378
  0.477   0.520   0.537   0.541   0.561   0.565   0.574   0.608
  0.621   0.630   0.676   0.728   0.729   0.742   0.743   0.781
  0.786   0.801   0.828   0.831   0.848   0.856   0.918   0.938
  0.983   1.005   1.137   1.161   1.195   1.235   1.399   1.455
  1.490   1.538   1.622   1.630   1.653   1.658   1.667   1.691
  1.754   1.824   1.854   1.942   1.968   1.974   1.978   1.984
  2.043   2.128   2.134   2.242   2.273   2.404   2.412   2.489
  2.517   2.522   2.536   2.560   2.570   2.638   2.710   2.719
  2.757   2.769   2.837   2.881   2.932   3.847   4.233   4.317
  4.370   4.460   4.639   4.673
 
 Beta MOs
 -- Occupied --
-14.319 -10.217 -10.216 -10.205 -10.205 -10.205 -10.205  -0.976
 -0.812  -0.789  -0.644  -0.585  -0.568  -0.537  -0.529  -0.453
 -0.423  -0.392  -0.390  -0.378  -0.322  -0.269  -0.257  -0.244
 -- Virtual --
 -0.078   0.091   0.101   0.120   0.147   0.152   0.157   0.176
  0.182   0.188   0.202   0.225   0.259   0.259   0.302   0.367
  0.384   0.479   0.522   0.540   0.542   0.568   0.568   0.576
  0.613   0.621   0.639   0.679   0.732   0.733   0.743   0.782
  0.787   0.794   0.801   0.830   0.839   0.849   0.857   0.919
  0.944   1.003   1.007   1.140   1.164   1.205   1.236   1.401
  1.474   1.507   1.541   1.626   1.634   1.658   1.660   1.691
  1.696   1.759   1.827   1.858   1.946   1.970   1.979   1.982
  1.987   2.058   2.130   2.156   2.247   2.282   2.403   2.431
  2.502   2.523   2.529   2.541   2.565   2.603   2.639   2.714
  2.720   2.761   2.772   2.839   2.887   2.937   3.873   4.239
  4.320   4.369   4.462   4.641   4.676
 --------------------------------------------------------------
 
          Ground-State Mulliken Net Atomic Charges

     Atom                 Charge (a.u.)    Spin (a.u.)
  --------------------------------------------------------
      1 C                    -0.044699      -0.080431
      2 C                    -0.124693       0.089485
      3 C                    -0.124936       0.089557
      4 C                    -0.124617       0.088874
      5 C                    -0.044896      -0.080278
      6 N                    -0.285847       0.811145
      7 H                     0.149304       0.001046
      8 H                     0.144001      -0.002500
      9 H                     0.144002      -0.002518
     10 H                     0.143991      -0.002467
     11 H                     0.149343       0.001045
     12 C                    -0.124888       0.089533
     13 H                     0.143935      -0.002490
  --------------------------------------------------------
  Sum of atomic charges =     0.000000
  Sum of spin   charges =     1.000000

 -----------------------------------------------------------------
                    Cartesian Multipole Moments
 -----------------------------------------------------------------
    Charge (ESU x 10^10)
                -0.0000
    Dipole Moment (Debye)
         X      -1.1245      Y      -1.9293      Z       0.6400
       Tot       2.3230
    Quadrupole Moments (Debye-Ang)
        XX     -37.9741     XY      -3.8519     YY     -43.4382
        XZ       2.4113     YZ       0.8314     ZZ     -39.2036
    Octopole Moments (Debye-Ang^2)
       XXX      -9.6421    XXY      -7.2178    XYY      -7.9037
       YYY     -25.6953    XXZ       4.0781    XYZ       1.8938
       YYZ       1.0248    XZZ      -6.2104    YZZ      -7.8484
       ZZZ       8.4052
    Hexadecapole Moments (Debye-Ang^3)
      XXXX    -228.2139   XXXY      -6.0751   XXYY     -80.8906
      XYYY     -18.0767   YYYY    -233.4474   XXXZ     -10.2281
      XXYZ       8.8596   XYYZ       1.2372   YYYZ      23.1338
      XXZZ     -66.7899   XYZZ      -2.7097   YYZZ     -64.7968
      XZZZ     -10.3884   YZZZ      17.0355   ZZZZ    -165.4204
 -----------------------------------------------------------------
 Calculating analytic gradient of the SCF energy
 Gradient of SCF Energy
            1           2           3           4           5           6
    1   0.0000268  -0.0002344   0.0000518  -0.0000400   0.0000276  -0.0000023
    2   0.0001349  -0.0001318   0.0000224  -0.0000399   0.0000660  -0.0000676
    3  -0.0000510   0.0000279  -0.0000286  -0.0000807   0.0000356   0.0000300
            7           8           9          10          11          12
    1   0.0000003   0.0000677   0.0000135  -0.0000009  -0.0000019   0.0001825
    2  -0.0000236   0.0000283  -0.0000046  -0.0000230  -0.0000099   0.0000022
    3   0.0000017   0.0000493  -0.0000101   0.0000037  -0.0000120   0.0000014
           13
    1  -0.0000906
    2   0.0000467
    3   0.0000329
 Max gradient component =       2.344E-04
 RMS gradient           =       6.688E-05
 Gradient time:  CPU 7.90 s  wall 2.02 s
 Geometry Optimization Parameters
   NAtoms,    NIC,     NZ,  NCons,   NDum,   NFix, NCnnct, MaxDiis
       13     151       0       0       0       0       0       0

 Cartesian Hessian Update
 Hessian Updated using BFGS Update


** GEOMETRY OPTIMIZATION IN DELOCALIZED INTERNAL COORDINATES **
   Searching for a Minimum

   Optimization Cycle:   2

                       Coordinates (Angstroms)
     ATOM                X               Y               Z
      1  C         1.3119832026    0.3024639842    0.2418450666
      2  C         0.6067813895   -1.0007324541   -0.1827277502
      3  C        -0.6879962090   -0.4652710104   -0.8442673523
      4  C        -1.0782594737    0.1910344549    0.4506508298
      5  C        -0.5191779217    1.0594042307   -0.6924931429
      6  N         0.8290508102    1.4231658196   -0.4713972156
      7  H         2.3485696173    0.2892655803    0.5603271077
      8  H         1.1221951757   -1.9351789616   -0.3745474573
      9  H        -1.2950975532   -0.9364177124   -1.6091722852
     10  H        -2.0524462796    0.3360300536    0.9040256583
     11  H        -1.1654104444    1.7420801816   -1.2331782202
     12  C         0.2167898071   -0.3445443101    1.1121710373
     13  H         0.3630178796   -0.6612998559    2.1387637239
   Point Group: c1    Number of degrees of freedom:    33


   Energy is   -286.824955716

 Hessian Updated using BFGS Update

 33 Hessian modes will be used to form the next step
  Hessian Eigenvalues:
     0.010383    0.013438    0.015436    0.016943    0.018800    0.019885
     0.021344    0.032213    0.038137    0.055708    0.064116    0.066292
     0.076589    0.085077    0.086894    0.114803    0.139096    0.139532
     0.146768    0.169310    0.207943    0.211022    0.257325    0.261380
     0.297867    0.354572    0.354612    0.354806    0.354835    0.354840
     0.354851    0.372089    0.383866

 Minimum Search - Taking Simple RFO Step
 Searching for Lamda that Minimizes Along All modes
 Value Taken    Lamda =   0.00000000
 Step Taken.  Stepsize is  0.006354

                             Maximum     Tolerance    Cnvgd?
         Gradient           0.000073      0.000300     YES
         Displacement       0.002840      0.001200      NO
         Energy change     -0.000001      0.000001     YES


                       Distance Matrix (Angstroms)
             C (  1)   C (  2)   C (  3)   C (  4)   C (  5)   N (  6)
   C (  2)  1.541393
   C (  3)  2.401869  1.549452
   C (  4)  2.401932  2.158898  1.503282
   C (  5)  2.190684  2.402459  1.541483  1.540590
   N (  6)  1.413475  2.451126  2.450848  2.450745  1.413834
   H (  7)  1.084489  2.291299  3.429715  3.429991  3.222832  2.158500
   H (  8)  2.328735  1.084268  2.378667  3.169185  3.429683  3.372505
   H (  9)  3.428989  2.378240  1.084265  2.358185  2.329304  3.372562
   H ( 10)  3.429139  3.168510  2.358036  1.084257  2.328745  3.372933
   H ( 11)  3.222680  3.430325  2.291632  2.290986  1.084437  2.158678
   C ( 12)  1.541277  1.503143  2.158903  1.549712  2.401985  2.450990
   H ( 13)  2.329737  2.358804  3.168838  2.377705  3.428572  3.372703
             H (  7)   H (  8)   H (  9)   H ( 10)   H ( 11)   C ( 12)
   H (  8)  2.706684
   H (  9)  4.414220  2.892253
   H ( 10)  4.414664  4.107492  2.916996
   H ( 11)  4.204211  4.415045  2.707867  2.707665
   C ( 12)  2.291448  2.358010  3.168884  2.378222  3.430035
   H ( 13)  2.708773  2.918193  4.107561  2.890279  4.413878  1.084255

 
 Final energy is   -286.824955716412     


 ******************************
 **  OPTIMIZATION CONVERGED  **
 ******************************

                       Coordinates (Angstroms)
     ATOM                X               Y               Z
      1  C         1.3119832026    0.3024639842    0.2418450666
      2  C         0.6067813895   -1.0007324541   -0.1827277502
      3  C        -0.6879962090   -0.4652710104   -0.8442673523
      4  C        -1.0782594737    0.1910344549    0.4506508298
      5  C        -0.5191779217    1.0594042307   -0.6924931429
      6  N         0.8290508102    1.4231658196   -0.4713972156
      7  H         2.3485696173    0.2892655803    0.5603271077
      8  H         1.1221951757   -1.9351789616   -0.3745474573
      9  H        -1.2950975532   -0.9364177124   -1.6091722852
     10  H        -2.0524462796    0.3360300536    0.9040256583
     11  H        -1.1654104444    1.7420801816   -1.2331782202
     12  C         0.2167898071   -0.3445443101    1.1121710373
     13  H         0.3630178796   -0.6612998559    2.1387637239

Z-matrix Print:
$molecule
0 2
N 
C  1 1.413475
H  2 1.084489 1 118.973673
C  1 1.413834 2 101.579283 3 -179.997231 0
H  4 1.084437 1 118.964307 2 -179.982430 0
C  4 1.540590 1 112.027240 2 31.703701 0
H  6 1.084257 4 124.121729 1 135.420128 0
C  6 1.503282 4 60.836911 1 -103.009721 0
H  8 1.084265 6 130.694649 4 -111.475565 0
C  2 1.541277 1 112.024132 3 148.285595 0
H  10 1.084255 2 124.156357 1 -135.264095 0
C  10 1.503143 2 60.820193 1 103.060461 0
H  12 1.084268 10 130.689367 2 111.438280 0
$end

 
 --------------------------------------------------------------
 
                    Orbital Energies (a.u.)
 --------------------------------------------------------------
 
 Alpha MOs
 -- Occupied --
-14.335 -10.215 -10.215 -10.207 -10.207 -10.207 -10.206  -0.986
 -0.837  -0.793  -0.649  -0.588  -0.574  -0.542  -0.533  -0.455
 -0.427  -0.415  -0.395  -0.384  -0.337  -0.275  -0.274  -0.248
 -0.212
 -- Virtual --
  0.090   0.094   0.117   0.147   0.150   0.156   0.167   0.180
  0.184   0.197   0.217   0.251   0.255   0.302   0.364   0.378
  0.477   0.520   0.537   0.541   0.561   0.565   0.574   0.608
  0.621   0.630   0.676   0.728   0.729   0.742   0.743   0.781
  0.786   0.801   0.828   0.831   0.848   0.856   0.918   0.938
  0.983   1.005   1.137   1.161   1.195   1.235   1.399   1.455
  1.490   1.538   1.622   1.630   1.653   1.658   1.667   1.691
  1.754   1.824   1.854   1.942   1.968   1.974   1.978   1.984
  2.043   2.128   2.134   2.242   2.273   2.404   2.412   2.489
  2.517   2.522   2.536   2.560   2.570   2.638   2.710   2.719
  2.757   2.769   2.837   2.881   2.932   3.847   4.233   4.317
  4.370   4.460   4.639   4.673
 
 Beta MOs
 -- Occupied --
-14.319 -10.217 -10.216 -10.205 -10.205 -10.205 -10.205  -0.976
 -0.812  -0.789  -0.644  -0.585  -0.568  -0.537  -0.529  -0.453
 -0.423  -0.392  -0.390  -0.378  -0.322  -0.269  -0.257  -0.244
 -- Virtual --
 -0.078   0.091   0.101   0.120   0.147   0.152   0.157   0.176
  0.182   0.188   0.202   0.225   0.259   0.259   0.302   0.367
  0.384   0.479   0.522   0.540   0.542   0.568   0.568   0.576
  0.613   0.621   0.639   0.679   0.732   0.733   0.743   0.782
  0.787   0.794   0.801   0.830   0.839   0.849   0.857   0.919
  0.944   1.003   1.007   1.140   1.164   1.205   1.236   1.401
  1.474   1.507   1.541   1.626   1.634   1.658   1.660   1.691
  1.696   1.759   1.827   1.858   1.946   1.970   1.979   1.982
  1.987   2.058   2.130   2.156   2.247   2.282   2.403   2.431
  2.502   2.523   2.529   2.541   2.565   2.603   2.639   2.714
  2.720   2.761   2.772   2.839   2.887   2.937   3.873   4.239
  4.320   4.369   4.462   4.641   4.676
 --------------------------------------------------------------
 
          Ground-State Mulliken Net Atomic Charges

     Atom                 Charge (a.u.)    Spin (a.u.)
  --------------------------------------------------------
      1 C                    -0.044699      -0.080431
      2 C                    -0.124693       0.089485
      3 C                    -0.124936       0.089557
      4 C                    -0.124617       0.088874
      5 C                    -0.044896      -0.080278
      6 N                    -0.285847       0.811145
      7 H                     0.149304       0.001046
      8 H                     0.144001      -0.002500
      9 H                     0.144002      -0.002518
     10 H                     0.143991      -0.002467
     11 H                     0.149343       0.001045
     12 C                    -0.124888       0.089533
     13 H                     0.143935      -0.002490
  --------------------------------------------------------
  Sum of atomic charges =     0.000000
  Sum of spin   charges =     1.000000

 -----------------------------------------------------------------
                    Cartesian Multipole Moments
 -----------------------------------------------------------------
    Charge (ESU x 10^10)
                -0.0000
    Dipole Moment (Debye)
         X      -1.1245      Y      -1.9293      Z       0.6400
       Tot       2.3230
    Quadrupole Moments (Debye-Ang)
        XX     -37.9741     XY      -3.8519     YY     -43.4382
        XZ       2.4113     YZ       0.8314     ZZ     -39.2036
    Octopole Moments (Debye-Ang^2)
       XXX      -9.6421    XXY      -7.2178    XYY      -7.9037
       YYY     -25.6953    XXZ       4.0781    XYZ       1.8938
       YYZ       1.0248    XZZ      -6.2104    YZZ      -7.8484
       ZZZ       8.4052
    Hexadecapole Moments (Debye-Ang^3)
      XXXX    -228.2139   XXXY      -6.0751   XXYY     -80.8906
      XYYY     -18.0767   YYYY    -233.4474   XXXZ     -10.2281
      XXYZ       8.8596   XYYZ       1.2372   YYYZ      23.1338
      XXZZ     -66.7899   XYZZ      -2.7097   YYZZ     -64.7968
      XZZZ     -10.3884   YZZZ      17.0355   ZZZZ    -165.4204
 -----------------------------------------------------------------
Archival summary:
1\1\c8-66\OPT\ProcedureUnspecified\6-31G*\166(2)\hpark21\ThuMar306:32:092022ThuMar306:32:092022\0\\#,OPT,ProcedureUnspecified,6-31G*,\\0,2\N\C,1,1.41347\H,2,1.08449,1,118.974\C,1,1.41383,2,101.579,3,-179.997,0\H,4,1.08444,1,118.964,2,-179.982,0\C,4,1.54059,1,112.027,2,31.7037,0\H,6,1.08426,4,124.122,1,135.42,0\C,6,1.50328,4,60.8369,1,-103.01,0\H,8,1.08427,6,130.695,4,-111.476,0\C,2,1.54128,1,112.024,3,148.286,0\H,10,1.08426,2,124.156,1,-135.264,0\C,10,1.50314,2,60.8202,1,103.06,0\H,12,1.08427,10,130.689,2,111.438,0\\\@

 Total job time:  30.23s(wall), 104.59s(cpu) 
 Thu Mar  3 06:32:09 2022

        *************************************************************
        *                                                           *
        *  Thank you very much for using Q-Chem.  Have a nice day.  *
        *                                                           *
        *************************************************************


