
Running Job 1 of 1 qcts2.in
qchem qcts2.in_47949.0 ./qcts2.d/ 1
/home/leeping/opt/qchem/5.0.2-openmp/exe/qcprog.exe_s qcts2.in_47949.0 ./qcts2.d/
Check license passed

                  Welcome to Q-Chem
     A Quantum Leap Into The Future Of Chemistry


 Q-Chem 5.0, Q-Chem, Inc., Pleasanton, CA (2017)

 Yihan Shao,  Zhengting Gan,  E. Epifanovsky,  A. T. B. Gilbert,  M. Wormit,  
 J. Kussmann,  A. W. Lange,  A. Behn,  Jia Deng,  Xintian Feng,  D. Ghosh,  
 M. Goldey,  P. R. Horn,  L. D. Jacobson,  I. Kaliman,  T. Kus,  A. Landau,  
 Jie Liu,  E. I. Proynov,  R. M. Richard,  R. P. Steele,  E. J. Sundstrom,  
 H. L. Woodcock III,  P. M. Zimmerman,  D. Zuev,  B. Albrecht,  E. Alguire,  
 S. A. Baeppler,  D. Barton,  Z. Benda,  Y. A. Bernard,  E. J. Berquist,  
 K. B. Bravaya,  H. Burton,  D. Casanova,  Chun-Min Chang,  Yunqing Chen,  
 A. Chien,  K. D. Closser,  M. P. Coons,  S. Dasgupta,  A. L. Dempwolff,  
 M. Diedenhofen,  Hainam Do,  R. G. Edgar,  Po-Tung Fang,  S. Fatehi,  
 Qingguo Feng,  J. Fosso-Tande,  Qinghui Ge,  A. Ghysels,  G. Gidofalvi,  
 J. Gomes,  J. Gonthier,  A. Gunina,  M. W. D. Hanson-Heine,  
 P. H. P. Harbach,  A. W. Hauser,  J. E. Herr,  E. G. Hohenstein,  
 Z. C. Holden,  Kerwin Hui,  T.-C. Jagau,  Hyunjun Ji,  B. Kaduk,  
 K. Khistyaev,  Jaehoon Kim,  P. Klunzinger,  K. Koh,  D. Kosenkov,  
 L. Koulias,  T. Kowalczyk,  C. M. Krauter,  A. Kunitsa,  Ka Un Lao,  
 A. Laurent,  K. V. Lawler,  Joonho Lee,  D. Lefrancois,  S. Lehtola,  
 D. S. Levine,  Yi-Pei Li,  You-Sheng Lin,  Fenglai Liu,  E. Livshits,  
 A. Luenser,  P. Manohar,  E. Mansoor,  S. F. Manzer,  Shan-Ping Mao,  
 Yuezhi Mao,  N. Mardirossian,  A. V. Marenich,  T. Markovich,  
 L. A. Martinez-Martinez,  S. A. Maurer,  N. J. Mayhall,  S. C. McKenzie,  
 J.-M. Mewes,  A. F. Morrison,  J. W. Mullinax,  K. Nanda,  
 T. S. Nguyen-Beck,  R. Olivares-Amaya,  J. A. Parkhill,  T. M. Perrine,  
 F. Plasser,  S. Prager,  A. Prociuk,  E. Ramos,  D. R. Rehn,  F. Rob,  
 M. Schneider,  N. Sergueev,  S. M. Sharada,  S. Sharma,  D. W. Small,  
 T. Stauch,  T. Stein,  Yu-Chuan Su,  A. J. W. Thom,  A. Tkatchenko,  
 T. Tsuchimochi,  L. Vogt,  O. Vydrov,  M. A. Watson,  J. Wenzel,  
 M. de Wergifosse,  T. A. Wesolowski,  A. White,  J. Witte,  A. Yamada,  
 Jun Yang,  K. Yao,  S. Yeganeh,  S. R. Yost,  Zhi-Qiang You,  A. Zech,  
 Igor Ying Zhang,  Xing Zhang,  Yan Zhao,  Ying Zhu,  B. R. Brooks,  
 G. K. L. Chan,  C. J. Cramer,  M. S. Gordon,  W. J. Hehre,  A. Klamt,  
 M. W. Schmidt,  C. D. Sherrill,  D. G. Truhlar,  A. Aspuru-Guzik,  R. Baer,  
 A. T. Bell,  N. A. Besley,  Jeng-Da Chai,  R. A. DiStasio Jr.,  A. Dreuw,  
 B. D. Dunietz,  T. R. Furlani,  Chao-Ping Hsu,  Yousung Jung,  Jing Kong,  
 D. S. Lambrecht,  WanZhen Liang,  C. Ochsenfeld,  V. A. Rassolov,  
 L. V. Slipchenko,  J. E. Subotnik,  T. Van Voorhis,  J. M. Herbert,  
 A. I. Krylov,  P. M. W. Gill,  M. Head-Gordon

 Contributors to earlier versions of Q-Chem not listed above: 
 R. D. Adamson,  B. Austin,  J. Baker,  G. J. O. Beran,  K. Brandhorst,  
 S. T. Brown,  E. F. C. Byrd,  A. K. Chakraborty,  C.-L. Cheng,  
 Siu Hung Chien,  D. M. Chipman,  D. L. Crittenden,  H. Dachsel,  
 R. J. Doerksen,  A. D. Dutoi,  L. Fusti-Molnar,  W. A. Goddard III,  
 A. Golubeva-Zadorozhnaya,  S. R. Gwaltney,  G. Hawkins,  A. Heyden,  
 S. Hirata,  G. Kedziora,  F. J. Keil,  C. Kelley,  Jihan Kim,  R. A. King,  
 R. Z. Khaliullin,  P. P. Korambath,  W. Kurlancheek,  A. M. Lee,  M. S. Lee,  
 S. V. Levchenko,  Ching Yeh Lin,  D. Liotard,  R. C. Lochan,  I. Lotan,  
 P. E. Maslen,  N. Nair,  D. P. O'Neill,  D. Neuhauser,  E. Neuscamman,  
 C. M. Oana,  R. Olson,  B. Peters,  R. Peverati,  P. A. Pieniazek,  
 Y. M. Rhee,  J. Ritchie,  M. A. Rohrdanz,  E. Rosta,  N. J. Russ,  
 H. F. Schaefer III,  N. E. Schultz,  N. Shenvi,  A. C. Simmonett,  A. Sodt,  
 D. Stuck,  K. S. Thanthiriwatte,  V. Vanovschi,  Tao Wang,  A. Warshel,  
 C. F. Williams,  Q. Wu,  X. Xu,  W. Zhang

 Please cite Q-Chem as follows:
 Y. Shao et al., Mol. Phys. 113, 184-215 (2015)
 DOI: 10.1080/00268976.2014.952696

 Q-Chem 5.0.2 for Intel X86 EM64T Linux

 Parts of Q-Chem use Armadillo 5.200.1 (Boston Tea Smuggler).
 http://arma.sourceforge.net/

 Q-Chem begins on Thu Mar  3 07:21:25 2022  

Host: 
0

     Scratch files written to ./qcts2.d//
 Dec517 15110_ 26548  26544 5633   
Processing $rem in /home/leeping/opt/qchem/5.0.2-openmp/config/preferences.
 MEM_STATIC 2000
 MEM_TOTAL  8000
 SYMMETRY   OFF
 SYM_IGNORE TRUE 

Checking the input file for inconsistencies... 	...done.

--------------------------------------------------------------
User input:
--------------------------------------------------------------
$molecule
0 2
C        1.5371975125    0.4849760156   -0.1473826323
C        0.7765565379   -0.8139159279   -0.0211928841
C       -0.3851787580   -0.5876266771   -0.9345417515
C       -1.0615347245    0.5517249280    0.8091120967
C       -0.5917514514    0.9076941355   -0.5968027692
N        0.7969573414    1.4696070609   -0.4959373572
H        2.5927641320    0.6097071519    0.0889906793
H        1.3005874190   -1.7671034501   -0.0093837896
H       -0.9489029151   -1.2722554163   -1.5510746172
H       -1.7621832170    1.0453255935    1.4677938260
H       -1.2397514975    1.5254240083   -1.2177701301
C       -0.4085492315   -0.6805143467    0.9405927094
H       -0.6275737134   -1.4752240640    1.6501261555
$end

$rem
method                b3lyp
basis                 6-31+g(d,p)
unrestricted          true
symmetry              off
sym_ignore            true
incdft                false
incfock               0
scf_convergence       8
thresh                14
jobtype               freq
scf_guess             read
scf_algorithm         diis
max_scf_cycles        100
$end

--------------------------------------------------------------
 ----------------------------------------------------------------
             Standard Nuclear Orientation (Angstroms)
    I     Atom           X                Y                Z
 ----------------------------------------------------------------
    1      C       1.5371975125     0.4849760156    -0.1473826323
    2      C       0.7765565379    -0.8139159279    -0.0211928841
    3      C      -0.3851787580    -0.5876266771    -0.9345417515
    4      C      -1.0615347245     0.5517249280     0.8091120967
    5      C      -0.5917514514     0.9076941355    -0.5968027692
    6      N       0.7969573414     1.4696070609    -0.4959373572
    7      H       2.5927641320     0.6097071519     0.0889906793
    8      H       1.3005874190    -1.7671034501    -0.0093837896
    9      H      -0.9489029151    -1.2722554163    -1.5510746172
   10      H      -1.7621832170     1.0453255935     1.4677938260
   11      H      -1.2397514975     1.5254240083    -1.2177701301
   12      C      -0.4085492315    -0.6805143467     0.9405927094
   13      H      -0.6275737134    -1.4752240640     1.6501261555
 ----------------------------------------------------------------
 Nuclear Repulsion Energy =   280.6468617932 hartrees
 There are       25 alpha and       24 beta electrons
 Requested basis set is 6-31+G(d,p)
 There are 53 shells and 163 basis functions

 Total QAlloc Memory Limit   8000 MB
 Mega-Array Size      1956 MB
 MEM_STATIC part      2000 MB

                       Distance Matrix (Angstroms)
             C (  1)   C (  2)   C (  3)   C (  4)   C (  5)   N (  6)
   C (  2)  1.510503
   C (  3)  2.337868  1.495006
   C (  4)  2.769972  2.435767  2.189956
   C (  5)  2.216550  2.273221  1.546843  1.524469
   N (  6)  1.280213  2.332440  2.412888  2.449419  1.501477
   H (  7)  1.088876  2.310293  3.368883  3.725028  3.271123  2.075209
   H (  8)  2.268676  1.087802  2.255857  3.409769  3.328746  3.311597
   H (  9)  3.352448  2.351132  1.080099  2.984974  2.406319  3.417478
   H ( 10)  3.716006  3.481244  3.214637  1.080931  2.377270  3.253530
   H ( 11)  3.152730  3.312070  2.296845  2.255682  1.089539  2.161560
   C ( 12)  2.515549  1.532091  1.877579  1.400747  2.218007  2.853049
   H ( 13)  3.429236  2.280837  2.743555  2.236996  3.275404  3.912404
             H (  7)   H (  8)   H (  9)   H ( 10)   H ( 11)   C ( 12)
   H (  8)  2.707144
   H (  9)  4.333013  2.771623
   H ( 10)  4.588728  4.412751  3.891808
   H ( 11)  4.151426  4.330618  2.832436  2.777712
   C ( 12)  3.376060  2.237025  2.617355  2.255835  3.196184
   H ( 13)  4.141818  2.560659  3.223683  2.770154  4.195650  1.087646

 
 A cutoff of  1.0D-14 yielded   1404 shell pairs
 There are     13506 function pairs
 Smallest overlap matrix eigenvalue = 2.29E-05
 Guess MOs from SCF MO coefficient file
 Reading MOs from coefficient file
 Reading MOs from coefficient file
 An unrestricted hybrid HF-DFT SCF calculation will be
 performed using Pulay DIIS extrapolation
 Exchange:     0.2000 Hartree-Fock + 0.0800 Slater + 0.7200 B88
 Correlation:  0.1900 VWN1RPA + 0.8100 LYP
 Using SG-1 standard quadrature grid
 SCF converges when DIIS error is below 1.0E-08
Using Q-Chem read-in guess as SCF_GUESS READ specified.

 -------------------------------------------------------
 OpenMP BLAS3 based DFT computing Module                
 -------------------------------------------------------
 ---------------------------------------
  Cycle       Energy         DIIS Error
 ---------------------------------------
    1    -286.8438140450      1.13E-09
    2    -286.8438140450      1.54E-09 Convergence criterion met
 ---------------------------------------
 <S^2> = 0.7811
 SCF time:  CPU 6.45 s  wall 6.78 s
 SCF   energy in the final basis set = -286.84381405
 Total energy in the final basis set = -286.84381405
 
 --------------------------------------------------------------
 
                    Orbital Energies (a.u.)
 --------------------------------------------------------------
 
 Alpha MOs
 -- Occupied --
-14.334 -10.233 -10.231 -10.229 -10.226 -10.222 -10.199  -0.969
 -0.851  -0.750  -0.690  -0.601  -0.587  -0.546  -0.524  -0.475
 -0.435  -0.419  -0.409  -0.386  -0.352  -0.307  -0.286  -0.266
 -0.153
 -- Virtual --
 -0.025  -0.009   0.000   0.020   0.026   0.031   0.048   0.048
  0.068   0.071   0.074   0.091   0.103   0.106   0.109   0.115
  0.123   0.129   0.143   0.154   0.167   0.177   0.183   0.186
  0.190   0.199   0.208   0.212   0.228   0.233   0.241   0.246
  0.258   0.268   0.280   0.289   0.302   0.319   0.329   0.354
  0.373   0.385   0.414   0.459   0.617   0.655   0.690   0.698
  0.700   0.716   0.725   0.740   0.753   0.758   0.785   0.794
  0.798   0.816   0.862   0.899   0.912   0.933   0.971   0.986
  1.010   1.015   1.038   1.059   1.087   1.117   1.135   1.161
  1.188   1.252   1.294   1.301   1.386   1.420   1.438   1.513
  1.528   1.605   1.616   1.715   1.717   1.774   1.798   1.834
  1.888   1.920   1.944   1.992   1.997   2.077   2.110   2.138
  2.151   2.221   2.231   2.264   2.279   2.359   2.370   2.379
  2.406   2.423   2.470   2.490   2.499   2.519   2.524   2.554
  2.578   2.593   2.628   2.650   2.685   2.745   2.760   2.771
  2.825   2.876   2.953   3.059   3.111   3.296   3.312   3.337
  3.475   3.621   3.690   4.153   4.387   4.475   4.577   4.638
  4.713   4.851
 
 Beta MOs
 -- Occupied --
-14.334 -10.236 -10.232 -10.228 -10.225 -10.213 -10.190  -0.966
 -0.845  -0.743  -0.680  -0.596  -0.578  -0.543  -0.516  -0.469
 -0.431  -0.414  -0.407  -0.384  -0.346  -0.292  -0.276  -0.262
 -- Virtual --
 -0.044  -0.020  -0.001   0.002   0.021   0.027   0.035   0.048
  0.049   0.070   0.072   0.078   0.093   0.103   0.106   0.110
  0.116   0.128   0.130   0.144   0.155   0.167   0.177   0.184
  0.190   0.191   0.202   0.210   0.216   0.232   0.235   0.243
  0.247   0.261   0.272   0.281   0.291   0.304   0.323   0.330
  0.357   0.376   0.388   0.419   0.462   0.620   0.662   0.691
  0.703   0.709   0.735   0.742   0.747   0.753   0.768   0.789
  0.797   0.802   0.820   0.864   0.903   0.914   0.935   0.973
  0.989   1.010   1.020   1.040   1.063   1.090   1.121   1.142
  1.167   1.193   1.256   1.300   1.304   1.388   1.423   1.448
  1.519   1.534   1.613   1.619   1.720   1.724   1.780   1.802
  1.852   1.892   1.928   1.946   1.999   2.001   2.081   2.121
  2.138   2.160   2.229   2.235   2.271   2.286   2.362   2.374
  2.382   2.412   2.430   2.474   2.497   2.502   2.525   2.532
  2.558   2.588   2.599   2.631   2.656   2.691   2.749   2.764
  2.775   2.827   2.878   2.956   3.061   3.112   3.297   3.313
  3.339   3.477   3.625   3.693   4.153   4.394   4.481   4.590
  4.644   4.716   4.855
 --------------------------------------------------------------
 
          Ground-State Mulliken Net Atomic Charges

     Atom                 Charge (a.u.)    Spin (a.u.)
  --------------------------------------------------------
      1 C                    -0.063955       0.042127
      2 C                    -0.021018      -0.029481
      3 C                    -0.277144       0.642517
      4 C                    -0.138201       0.735845
      5 C                     0.018619      -0.124634
      6 N                    -0.206645      -0.002555
      7 H                     0.134768       0.001321
      8 H                     0.131554       0.003935
      9 H                     0.148586      -0.028989
     10 H                     0.138490      -0.028586
     11 H                     0.130553       0.008846
     12 C                    -0.135959      -0.233498
     13 H                     0.140353       0.013151
  --------------------------------------------------------
  Sum of atomic charges =    -0.000000
  Sum of spin   charges =     1.000000

 -----------------------------------------------------------------
                    Cartesian Multipole Moments
 -----------------------------------------------------------------
    Charge (ESU x 10^10)
                -0.0000
    Dipole Moment (Debye)
         X      -0.5632      Y      -2.8208      Z       0.5693
       Tot       2.9323
    Quadrupole Moments (Debye-Ang)
        XX     -39.1110     XY      -3.6949     YY     -44.5675
        XZ       1.4434     YZ       0.3681     ZZ     -41.7511
    Octopole Moments (Debye-Ang^2)
       XXX      -0.1374    XXY      -5.9378    XYY     -10.2898
       YYY     -36.2858    XXZ       3.6191    XYZ       1.1992
       YYZ       4.7334    XZZ      -9.2561    YZZ      -9.6598
       ZZZ       8.0956
    Hexadecapole Moments (Debye-Ang^3)
      XXXX    -263.5914   XXXY     -10.6015   XXYY     -89.8515
      XYYY     -26.5570   YYYY    -283.2950   XXXZ      23.0084
      XXYZ      10.1173   XYYZ      11.7015   YYYZ      19.9649
      XXZZ     -74.5927   XYZZ      -3.9102   YYZZ     -72.0232
      XZZZ      21.9577   YZZZ      13.9312   ZZZZ    -190.5504
 -----------------------------------------------------------------
 Calculating MO derivatives via CPSCF
   1         3          39      0.294374    0.058785
   2         3          39      0.037977    0.006996
   3         3          39      0.004488    0.000817
   4         3          39      0.000676    0.000143
   5        26          16      0.000060    0.000015
   6        40           2      0.000003    0.000001
   7        42           0      0.000000    0.000000    Roots Converged
 Time for AOints: 19.4 s (CPU) 20.1 s (wall)
 ------------------------------------------------------------------------------
                     AOints        : Timing summary (seconds)
 ------------------------------------------------------------------------------
     job step          cpu (% of tot)      sys (% of tot)     wall (% of tot)
 ------------------------------------------------------------------------------
  cpscf_lag         0.1176E+03 (28.0)   0.4700E-04 (39.8)   0.1186E+03 (28.0)
  iterzp            0.2821E+03 (67.3)   0.6700E-04 (56.8)   0.2840E+03 (67.1)
  make_fx           0.0000E+00 ( 0.0)   0.0000E+00 ( 0.0)   0.0000E+00 ( 0.0)
  AOints            0.1945E+02 ( 4.6)   0.1000E-05 ( 0.8)   0.2009E+02 ( 4.7)
 ------------------------------------------------------------------------------
   Grand Totals     0.4195E+03          0.1180E-03          0.4230E+03
 ------------------------------------------------------------------------------
 Calculating analytic Hessian of the SCF energy
 Polarizability Matrix (a.u.)
            1           2           3
    1 -71.9597016   2.6803649   4.2549750
    2   2.6803649 -71.9163715  -0.5501972
    3   4.2549750  -0.5501972 -70.7421419
 
 Direct stationary perturbation theory relativistic correction:
 
 rels  =       0.069331117141
 relv  =      -0.341325629461
 rel2e =       0.158974414264
 E_rel =      -0.113020098057
 
 Hessian of the SCF Energy
            1           2           3           4           5           6
    1   0.7966207  -0.1079050   0.1629586  -0.1149851  -0.0418212   0.0089487
    2  -0.1079050   0.5913557  -0.1107611  -0.0245931  -0.1421655  -0.0069562
    3   0.1629586  -0.1107611   0.2214553  -0.0002669   0.0031151  -0.0633979
    4  -0.1149851  -0.0245931  -0.0002669   0.4863849  -0.1455077   0.0359466
    5  -0.0418212  -0.1421655   0.0031151  -0.1455077   0.6470018  -0.0281031
    6   0.0089487  -0.0069562  -0.0633979   0.0359466  -0.0281031   0.2584218
    7  -0.0324265  -0.0267339  -0.0237112  -0.1332663   0.0199459  -0.0847909
    8  -0.0102192  -0.0057554  -0.0210657   0.0349631  -0.0646618  -0.0055234
    9  -0.0274559   0.0013560   0.0001029  -0.1617150  -0.0236049  -0.0684039
   10  -0.0068055   0.0031728   0.0055161  -0.0091228   0.0256318   0.0066099
   11  -0.0038282  -0.0069333   0.0045706  -0.0074375  -0.0142941  -0.0073371
   12   0.0017612   0.0045541   0.0017436   0.0097249  -0.0108844   0.0063912
   13  -0.0637112   0.0187400  -0.0136022  -0.0257797   0.0235399  -0.0007295
   14   0.0213338   0.0098051   0.0019109   0.0125328  -0.0344546   0.0115683
   15  -0.0141918  -0.0051630  -0.0015773  -0.0034263   0.0114881  -0.0118773
   16  -0.2550980   0.2193765  -0.0920458   0.0286569   0.0150758  -0.0152543
   17   0.1849326  -0.3798902   0.1049462  -0.0047186  -0.0608513   0.0181431
   18  -0.0814912   0.1123422  -0.0955174  -0.0056889   0.0201749   0.0174189
   19  -0.3123739  -0.0410031  -0.0583837  -0.0028538   0.0025202  -0.0034487
   20  -0.0479239  -0.0605113  -0.0042079  -0.0177823   0.0031880  -0.0036454
   21  -0.0620077  -0.0026191  -0.0513929   0.0015750   0.0008095   0.0083178
   22   0.0153256  -0.0119189  -0.0004151  -0.1162080   0.1152277  -0.0022538
   23   0.0156712  -0.0090710  -0.0002402   0.1188790  -0.2712742   0.0022894
   24  -0.0007547   0.0008841  -0.0029874  -0.0033632   0.0009698  -0.0402034
   25  -0.0028606  -0.0000797  -0.0030481  -0.0034640  -0.0156973  -0.0024115
   26   0.0002919  -0.0040621   0.0026977   0.0082261   0.0076563   0.0081476
   27   0.0028703   0.0014692  -0.0002891  -0.0003157  -0.0032474  -0.0069511
   28  -0.0006345   0.0013390  -0.0001781  -0.0015459   0.0024645   0.0034248
   29  -0.0016118   0.0005342   0.0000212  -0.0020382  -0.0025161   0.0027179
   30  -0.0000855   0.0010951  -0.0005336  -0.0025296   0.0032925   0.0014258
   31  -0.0059469  -0.0029154  -0.0015463  -0.0003721  -0.0001700  -0.0008820
   32  -0.0034064  -0.0013426   0.0000010   0.0002498  -0.0052247  -0.0007034
   33   0.0001095  -0.0002861   0.0006993   0.0013599  -0.0033045   0.0001707
   34  -0.0166326  -0.0306452   0.0222334  -0.1019802   0.0168010   0.0411055
   35  -0.0051062   0.0085372   0.0201116   0.0229269  -0.0667038   0.0160929
   36   0.0093185   0.0074460  -0.0068511   0.1212282   0.0191656  -0.0907275
   37  -0.0004714   0.0031661   0.0024892  -0.0054638  -0.0180105   0.0137353
   38  -0.0004075  -0.0005009  -0.0010996   0.0042999   0.0042999  -0.0066906
   39   0.0000200  -0.0033611  -0.0014544   0.0074710   0.0101288  -0.0105851
            7           8           9          10          11          12
    1  -0.0324265  -0.0102192  -0.0274559  -0.0068055  -0.0038282   0.0017612
    2  -0.0267339  -0.0057554   0.0013560   0.0031728  -0.0069333   0.0045541
    3  -0.0237112  -0.0210657   0.0001029   0.0055161   0.0045706   0.0017436
    4  -0.1332663   0.0349631  -0.1617150  -0.0091228  -0.0074375   0.0097249
    5   0.0199459  -0.0646618  -0.0236049   0.0256318  -0.0142941  -0.0108844
    6  -0.0847909  -0.0055234  -0.0684039   0.0066099  -0.0073371   0.0063912
    7   0.3708124   0.0698955   0.2603707  -0.0004963   0.0355953   0.0221191
    8   0.0698955   0.4437592   0.2176199   0.0108139   0.0095969  -0.0284586
    9   0.2603707   0.2176199   0.1836621   0.0534755  -0.1370605  -0.0302013
   10  -0.0004963   0.0108139   0.0534755   0.3716682  -0.2471631  -0.2233537
   11   0.0355953   0.0095969  -0.1370605  -0.2471631   0.4302029   0.0378708
   12   0.0221191  -0.0284586  -0.0302013  -0.2233537   0.0378708   0.4244450
   13  -0.0633093   0.0160330  -0.0123350  -0.0699770   0.0238084   0.0138655
   14   0.0315250  -0.1335142  -0.0273084   0.0081896  -0.0659553   0.0204445
   15  -0.0115895  -0.0264008  -0.0649410   0.0248388   0.0286753  -0.1560368
   16  -0.0150870  -0.0294495   0.0041482  -0.0222913  -0.0187809   0.0236052
   17  -0.0176149  -0.0291350  -0.0029484  -0.0051868  -0.0025468   0.0044544
   18  -0.0094148  -0.0045984   0.0017968   0.0213420   0.0078573  -0.0013420
   19  -0.0004600   0.0002886   0.0000969   0.0009957  -0.0002278  -0.0002974
   20  -0.0023921  -0.0017991  -0.0033002   0.0001952  -0.0011105   0.0001566
   21   0.0000456   0.0024918  -0.0050229  -0.0008401  -0.0012350   0.0009666
   22  -0.0063756   0.0151115   0.0037658  -0.0014907   0.0001552   0.0021477
   23  -0.0016197   0.0016577   0.0004751  -0.0000963   0.0003169  -0.0001168
   24  -0.0054895   0.0220598   0.0019449   0.0044503  -0.0002557  -0.0035048
   25  -0.1161278  -0.0986002  -0.1241066  -0.0006427  -0.0015283  -0.0005352
   26  -0.1052160  -0.1811258  -0.1214222  -0.0005589  -0.0009194  -0.0000206
   27  -0.1177121  -0.1217460  -0.1198238   0.0023827   0.0032987   0.0009059
   28   0.0003990  -0.0005886  -0.0078165  -0.1560628   0.1044495   0.1389596
   29   0.0013173  -0.0011697  -0.0066230   0.1105684  -0.1100459  -0.0698277
   30   0.0004949  -0.0034447  -0.0067261   0.1440761  -0.0749164  -0.1534615
   31   0.0000821   0.0004313   0.0001782   0.0095532  -0.0086193   0.0064747
   32   0.0140212  -0.0059253   0.0153848   0.0001969  -0.0006868   0.0021020
   33   0.0087202  -0.0046940   0.0098971  -0.0166130   0.0180320  -0.0109332
   34  -0.0038094  -0.0117825   0.0064685  -0.1182873   0.1087900   0.0191122
   35  -0.0221504  -0.0321935   0.0801431   0.1052849  -0.2373737   0.0249511
   36  -0.0417227  -0.0249646   0.0824526  -0.0168718   0.1078866  -0.0818648
   37   0.0000646   0.0031030   0.0049251   0.0029594   0.0147865  -0.0135838
   38   0.0034268   0.0002658   0.0072889  -0.0110486  -0.0002510   0.0147747
   39   0.0026804  -0.0012754   0.0152625  -0.0050128   0.0126134   0.0028921
           13          14          15          16          17          18
    1  -0.0637112   0.0213338  -0.0141918  -0.2550980   0.1849326  -0.0814912
    2   0.0187400   0.0098051  -0.0051630   0.2193765  -0.3798902   0.1123422
    3  -0.0136022   0.0019109  -0.0015773  -0.0920458   0.1049462  -0.0955174
    4  -0.0257797   0.0125328  -0.0034263   0.0286569  -0.0047186  -0.0056889
    5   0.0235399  -0.0344546   0.0114881   0.0150758  -0.0608513   0.0201749
    6  -0.0007295   0.0115683  -0.0118773  -0.0152543   0.0181431   0.0174189
    7  -0.0633093   0.0315250  -0.0115895  -0.0150870  -0.0176149  -0.0094148
    8   0.0160330  -0.1335142  -0.0264008  -0.0294495  -0.0291350  -0.0045984
    9  -0.0123350  -0.0273084  -0.0649410   0.0041482  -0.0029484   0.0017968
   10  -0.0699770   0.0081896   0.0248388  -0.0222913  -0.0051868   0.0213420
   11   0.0238084  -0.0659553   0.0286753  -0.0187809  -0.0025468   0.0078573
   12   0.0138655   0.0204445  -0.1560368   0.0236052   0.0044544  -0.0013420
   13   0.4489175  -0.1482891   0.1212503  -0.1061114   0.0020903  -0.0114522
   14  -0.1482891   0.4807699  -0.1428812  -0.0339193  -0.0822709  -0.0012206
   15   0.1212503  -0.1428812   0.4579315  -0.0175075   0.0033293  -0.0669895
   16  -0.1061114  -0.0339193  -0.0175075   0.4249381  -0.1798039   0.1080696
   17   0.0020903  -0.0822709   0.0033293  -0.1798039   0.5548568  -0.1296552
   18  -0.0114522  -0.0012206  -0.0669895   0.1080696  -0.1296552   0.1427265
   19   0.0002025   0.0018942  -0.0049112  -0.0182602   0.0032069  -0.0035373
   20   0.0015197  -0.0038690   0.0035935   0.0318175   0.0050860   0.0050785
   21  -0.0021079   0.0023046   0.0104653  -0.0074858  -0.0021903  -0.0056777
   22  -0.0042361  -0.0002730  -0.0023992  -0.0016077  -0.0057286   0.0021406
   23  -0.0017412  -0.0010121  -0.0001067  -0.0005757  -0.0055772   0.0018975
   24  -0.0040580   0.0025550  -0.0020721  -0.0010433   0.0004755   0.0013957
   25   0.0031154   0.0039588   0.0070779  -0.0011029  -0.0007300  -0.0000353
   26  -0.0122327   0.0026535  -0.0084576  -0.0032185  -0.0023904  -0.0026298
   27   0.0023116   0.0015913   0.0013536   0.0004836   0.0009488   0.0007720
   28  -0.0005237   0.0025070  -0.0024450   0.0001665  -0.0007012   0.0003551
   29  -0.0088075   0.0062505   0.0032554   0.0005156   0.0000338   0.0011209
   30   0.0092365  -0.0100112  -0.0021697   0.0000677  -0.0009539  -0.0009002
   31  -0.1397135   0.0921723  -0.0930763  -0.0198512   0.0160581  -0.0148265
   32   0.0978607  -0.1447506   0.0897596  -0.0105487   0.0095833  -0.0094511
   33  -0.0970081   0.0897277  -0.1413458  -0.0006923  -0.0007672   0.0010665
   34   0.0207661   0.0022672  -0.0051460  -0.0155087   0.0097218  -0.0047967
   35  -0.0168385  -0.0311228   0.0401090   0.0090311  -0.0083992  -0.0014309
   36  -0.0092223   0.0473152  -0.0244905  -0.0005125   0.0022560   0.0040730
   37   0.0003605   0.0061006   0.0015259   0.0011569  -0.0015257  -0.0006644
   38   0.0043169  -0.0025297   0.0027989   0.0004800   0.0015012   0.0005145
   39   0.0038514   0.0040039   0.0017499  -0.0018329   0.0019617   0.0011775
           19          20          21          22          23          24
    1  -0.3123739  -0.0479239  -0.0620077   0.0153256   0.0156712  -0.0007547
    2  -0.0410031  -0.0605113  -0.0026191  -0.0119189  -0.0090710   0.0008841
    3  -0.0583837  -0.0042079  -0.0513929  -0.0004151  -0.0002402  -0.0029874
    4  -0.0028538  -0.0177823   0.0015750  -0.1162080   0.1188790  -0.0033632
    5   0.0025202   0.0031880   0.0008095   0.1152277  -0.2712742   0.0009698
    6  -0.0034487  -0.0036454   0.0083178  -0.0022538   0.0022894  -0.0402034
    7  -0.0004600  -0.0023921   0.0000456  -0.0063756  -0.0016197  -0.0054895
    8   0.0002886  -0.0017991   0.0024918   0.0151115   0.0016577   0.0220598
    9   0.0000969  -0.0033002  -0.0050229   0.0037658   0.0004751   0.0019449
   10   0.0009957   0.0001952  -0.0008401  -0.0014907  -0.0000963   0.0044503
   11  -0.0002278  -0.0011105  -0.0012350   0.0001552   0.0003169  -0.0002557
   12  -0.0002974   0.0001566   0.0009666   0.0021477  -0.0001168  -0.0035048
   13   0.0002025   0.0015197  -0.0021079  -0.0042361  -0.0017412  -0.0040580
   14   0.0018942  -0.0038690   0.0023046  -0.0002730  -0.0010121   0.0025550
   15  -0.0049112   0.0035935   0.0104653  -0.0023992  -0.0001067  -0.0020721
   16  -0.0182602   0.0318175  -0.0074858  -0.0016077  -0.0005757  -0.0010433
   17   0.0032069   0.0050860  -0.0021903  -0.0057286  -0.0055772   0.0004755
   18  -0.0035373   0.0050785  -0.0056777   0.0021406   0.0018975   0.0013957
   19   0.3350140   0.0341513   0.0693616  -0.0001739  -0.0006808   0.0000755
   20   0.0341513   0.0573521   0.0010564   0.0009008   0.0001413  -0.0000537
   21   0.0693616   0.0010564   0.0403368   0.0000059  -0.0001009  -0.0002015
   22  -0.0001739   0.0009008   0.0000059   0.1207784  -0.1286889   0.0005425
   23  -0.0006808   0.0001413  -0.0001009  -0.1286889   0.2828266  -0.0042619
   24   0.0000755  -0.0000537  -0.0002015   0.0005425  -0.0042619   0.0410071
   25  -0.0002653  -0.0012155   0.0000562   0.0007657   0.0003053   0.0009810
   26   0.0000907   0.0004402  -0.0002977  -0.0004132   0.0001908  -0.0007231
   27   0.0003169   0.0004211   0.0000483  -0.0002419   0.0001910   0.0002899
   28  -0.0000368   0.0000720  -0.0000583  -0.0000990   0.0000461   0.0005285
   29   0.0000428   0.0001138  -0.0003159   0.0004178   0.0002220  -0.0007192
   30   0.0000368  -0.0000287   0.0002051  -0.0005447   0.0000436   0.0007378
   31  -0.0011526   0.0013126   0.0002747   0.0001709   0.0002029  -0.0001811
   32  -0.0004201   0.0008053   0.0003426   0.0006517   0.0002593   0.0011672
   33   0.0002139   0.0000331   0.0000378   0.0005800  -0.0000557   0.0007924
   34  -0.0005023  -0.0002005   0.0011924  -0.0075674  -0.0018816   0.0098749
   35   0.0001424   0.0000719  -0.0002836   0.0148994   0.0008167  -0.0225953
   36   0.0003976   0.0006266   0.0014565  -0.0031201   0.0002457   0.0021813
   37  -0.0001335  -0.0004547  -0.0000114   0.0007179   0.0001797  -0.0015628
   38  -0.0000053   0.0000912   0.0000375  -0.0003416   0.0005032   0.0004976
   39   0.0000792   0.0002700   0.0004610  -0.0002078  -0.0002603   0.0006202
           25          26          27          28          29          30
    1  -0.0028606   0.0002919   0.0028703  -0.0006345  -0.0016118  -0.0000855
    2  -0.0000797  -0.0040621   0.0014692   0.0013390   0.0005342   0.0010951
    3  -0.0030481   0.0026977  -0.0002891  -0.0001781   0.0000212  -0.0005336
    4  -0.0034640   0.0082261  -0.0003157  -0.0015459  -0.0020382  -0.0025296
    5  -0.0156973   0.0076563  -0.0032474   0.0024645  -0.0025161   0.0032925
    6  -0.0024115   0.0081476  -0.0069511   0.0034248   0.0027179   0.0014258
    7  -0.1161278  -0.1052160  -0.1177121   0.0003990   0.0013173   0.0004949
    8  -0.0986002  -0.1811258  -0.1217460  -0.0005886  -0.0011697  -0.0034447
    9  -0.1241066  -0.1214222  -0.1198238  -0.0078165  -0.0066230  -0.0067261
   10  -0.0006427  -0.0005589   0.0023827  -0.1560628   0.1105684   0.1440761
   11  -0.0015283  -0.0009194   0.0032987   0.1044495  -0.1100459  -0.0749164
   12  -0.0005352  -0.0000206   0.0009059   0.1389596  -0.0698277  -0.1534615
   13   0.0031154  -0.0122327   0.0023116  -0.0005237  -0.0088075   0.0092365
   14   0.0039588   0.0026535   0.0015913   0.0025070   0.0062505  -0.0100112
   15   0.0070779  -0.0084576   0.0013536  -0.0024450   0.0032554  -0.0021697
   16  -0.0011029  -0.0032185   0.0004836   0.0001665   0.0005156   0.0000677
   17  -0.0007300  -0.0023904   0.0009488  -0.0007012   0.0000338  -0.0009539
   18  -0.0000353  -0.0026298   0.0007720   0.0003551   0.0011209  -0.0009002
   19  -0.0002653   0.0000907   0.0003169  -0.0000368   0.0000428   0.0000368
   20  -0.0012155   0.0004402   0.0004211   0.0000720   0.0001138  -0.0000287
   21   0.0000562  -0.0002977   0.0000483  -0.0000583  -0.0003159   0.0002051
   22   0.0007657  -0.0004132  -0.0002419  -0.0000990   0.0004178  -0.0005447
   23   0.0003053   0.0001908   0.0001910   0.0000461   0.0002220   0.0000436
   24   0.0009810  -0.0007231   0.0002899   0.0005285  -0.0007192   0.0007378
   25   0.1184593   0.1085259   0.1176981  -0.0002055  -0.0000064   0.0007223
   26   0.1085259   0.1749066   0.1243072   0.0003076   0.0005957  -0.0004407
   27   0.1176981   0.1243072   0.1286874  -0.0002087  -0.0004021  -0.0007089
   28  -0.0002055   0.0003076  -0.0002087   0.1630080  -0.1128430  -0.1429094
   29  -0.0000064   0.0005957  -0.0004021  -0.1128430   0.1033870   0.0818942
   30   0.0007223  -0.0004407  -0.0007089  -0.1429094   0.0818942   0.1543646
   31   0.0001252   0.0003860   0.0000172   0.0001019   0.0006354  -0.0006194
   32  -0.0002908   0.0003025  -0.0003245  -0.0003512  -0.0000465   0.0000833
   33  -0.0004529   0.0005294   0.0000800   0.0002218  -0.0006375   0.0006788
   34   0.0022145   0.0041802  -0.0084660  -0.0035808   0.0130935  -0.0077809
   35   0.0059911   0.0018824  -0.0074161   0.0035213   0.0026950   0.0040518
   36   0.0045560  -0.0009567  -0.0051479   0.0112716  -0.0100312   0.0078053
   37  -0.0000113  -0.0003691   0.0008641  -0.0009865  -0.0012839  -0.0001649
   38  -0.0006328  -0.0001303   0.0009087  -0.0002231  -0.0000539  -0.0006649
   39  -0.0005018  -0.0007337   0.0007838  -0.0011455  -0.0004530  -0.0007174
           31          32          33          34          35          36
    1  -0.0059469  -0.0034064   0.0001095  -0.0166326  -0.0051062   0.0093185
    2  -0.0029154  -0.0013426  -0.0002861  -0.0306452   0.0085372   0.0074460
    3  -0.0015463   0.0000010   0.0006993   0.0222334   0.0201116  -0.0068511
    4  -0.0003721   0.0002498   0.0013599  -0.1019802   0.0229269   0.1212282
    5  -0.0001700  -0.0052247  -0.0033045   0.0168010  -0.0667038   0.0191656
    6  -0.0008820  -0.0007034   0.0001707   0.0411055   0.0160929  -0.0907275
    7   0.0000821   0.0140212   0.0087202  -0.0038094  -0.0221504  -0.0417227
    8   0.0004313  -0.0059253  -0.0046940  -0.0117825  -0.0321935  -0.0249646
    9   0.0001782   0.0153848   0.0098971   0.0064685   0.0801431   0.0824526
   10   0.0095532   0.0001969  -0.0166130  -0.1182873   0.1052849  -0.0168718
   11  -0.0086193  -0.0006868   0.0180320   0.1087900  -0.2373737   0.1078866
   12   0.0064747   0.0021020  -0.0109332   0.0191122   0.0249511  -0.0818648
   13  -0.1397135   0.0978607  -0.0970081   0.0207661  -0.0168385  -0.0092223
   14   0.0921723  -0.1447506   0.0897277   0.0022672  -0.0311228   0.0473152
   15  -0.0930763   0.0897596  -0.1413458  -0.0051460   0.0401090  -0.0244905
   16  -0.0198512  -0.0105487  -0.0006923  -0.0155087   0.0090311  -0.0005125
   17   0.0160581   0.0095833  -0.0007672   0.0097218  -0.0083992   0.0022560
   18  -0.0148265  -0.0094511   0.0010665  -0.0047967  -0.0014309   0.0040730
   19  -0.0011526  -0.0004201   0.0002139  -0.0005023   0.0001424   0.0003976
   20   0.0013126   0.0008053   0.0000331  -0.0002005   0.0000719   0.0006266
   21   0.0002747   0.0003426   0.0000378   0.0011924  -0.0002836   0.0014565
   22   0.0001709   0.0006517   0.0005800  -0.0075674   0.0148994  -0.0031201
   23   0.0002029   0.0002593  -0.0000557  -0.0018816   0.0008167   0.0002457
   24  -0.0001811   0.0011672   0.0007924   0.0098749  -0.0225953   0.0021813
   25   0.0001252  -0.0002908  -0.0004529   0.0022145   0.0059911   0.0045560
   26   0.0003860   0.0003025   0.0005294   0.0041802   0.0018824  -0.0009567
   27   0.0000172  -0.0003245   0.0000800  -0.0084660  -0.0074161  -0.0051479
   28   0.0001019  -0.0003512   0.0002218  -0.0035808   0.0035213   0.0112716
   29   0.0006354  -0.0000465  -0.0006375   0.0130935   0.0026950  -0.0100312
   30  -0.0006194   0.0000833   0.0006788  -0.0077809   0.0040518   0.0078053
   31   0.1583883  -0.0988862   0.1013934  -0.0015652   0.0003096   0.0028833
   32  -0.0988862   0.1473914  -0.0991631   0.0005198  -0.0003970   0.0005780
   33   0.1013934  -0.0991631   0.1452714   0.0027220  -0.0005291  -0.0069296
   34  -0.0015652   0.0005198   0.0027220   0.2958221  -0.0741257  -0.1213648
   35   0.0003096  -0.0003970  -0.0005291  -0.0741257   0.5755665  -0.2835956
   36   0.0028833   0.0005780  -0.0069296  -0.1213648  -0.2835956   0.2948350
   37   0.0001800   0.0004033  -0.0005544  -0.0493686  -0.0438858   0.0431590
   38  -0.0009174   0.0000319   0.0011151  -0.0367380  -0.2133798   0.1340282
   39  -0.0000898   0.0002235   0.0005148   0.0448455   0.1303911  -0.1767921
           37          38          39
    1  -0.0004714  -0.0004075   0.0000200
    2   0.0031661  -0.0005009  -0.0033611
    3   0.0024892  -0.0010996  -0.0014544
    4  -0.0054638   0.0042999   0.0074710
    5  -0.0180105   0.0042999   0.0101288
    6   0.0137353  -0.0066906  -0.0105851
    7   0.0000646   0.0034268   0.0026804
    8   0.0031030   0.0002658  -0.0012754
    9   0.0049251   0.0072889   0.0152625
   10   0.0029594  -0.0110486  -0.0050128
   11   0.0147865  -0.0002510   0.0126134
   12  -0.0135838   0.0147747   0.0028921
   13   0.0003605   0.0043169   0.0038514
   14   0.0061006  -0.0025297   0.0040039
   15   0.0015259   0.0027989   0.0017499
   16   0.0011569   0.0004800  -0.0018329
   17  -0.0015257   0.0015012   0.0019617
   18  -0.0006644   0.0005145   0.0011775
   19  -0.0001335  -0.0000053   0.0000792
   20  -0.0004547   0.0000912   0.0002700
   21  -0.0000114   0.0000375   0.0004610
   22   0.0007179  -0.0003416  -0.0002078
   23   0.0001797   0.0005032  -0.0002603
   24  -0.0015628   0.0004976   0.0006202
   25  -0.0000113  -0.0006328  -0.0005018
   26  -0.0003691  -0.0001303  -0.0007337
   27   0.0008641   0.0009087   0.0007838
   28  -0.0009865  -0.0002231  -0.0011455
   29  -0.0012839  -0.0000539  -0.0004530
   30  -0.0001649  -0.0006649  -0.0007174
   31   0.0001800  -0.0009174  -0.0000898
   32   0.0004033   0.0000319   0.0002235
   33  -0.0005544   0.0011151   0.0005148
   34  -0.0493686  -0.0367380   0.0448455
   35  -0.0438858  -0.2133798   0.1303911
   36   0.0431590   0.1340282  -0.1767921
   37   0.0509958   0.0377906  -0.0501569
   38   0.0377906   0.2101525  -0.1535090
   39  -0.0501569  -0.1535090   0.1660872
 Gradient time:  CPU 551.80 s  wall 556.56 s
 **********************************************************************
 **                                                                  **
 **                       VIBRATIONAL ANALYSIS                       **
 **                       --------------------                       **
 **                                                                  **
 **        VIBRATIONAL FREQUENCIES (CM**-1) AND NORMAL MODES         **
 **     FORCE CONSTANTS (mDYN/ANGSTROM) AND REDUCED MASSES (AMU)     **
 **                  INFRARED INTENSITIES (KM/MOL)                   **
 **                                                                  **
 **********************************************************************
 

 Mode:                 1                      2                      3
 Frequency:      -757.93                 300.92                 365.22
 Force Cnst:      1.7572                 0.0638                 0.0848
 Red. Mass:       5.1917                 1.1963                 1.0796
 IR Active:          YES                    YES                    YES
 IR Intens:       65.392                 14.696                 36.049
 Raman Active:       YES                    YES                    YES
               X      Y      Z        X      Y      Z        X      Y      Z
 C          0.038  0.022 -0.013   -0.006 -0.005  0.021   -0.017  0.003  0.030
 C          0.159  0.035 -0.035    0.028 -0.014 -0.022   -0.023 -0.006 -0.022
 C         -0.122 -0.119  0.410    0.023  0.006 -0.012   -0.006 -0.008 -0.022
 C         -0.017  0.151 -0.009   -0.063 -0.023 -0.063    0.009 -0.001 -0.009
 C          0.001  0.030  0.013   -0.004  0.001 -0.024   -0.015 -0.030 -0.025
 N         -0.009  0.006  0.002   -0.015  0.001  0.050   -0.022 -0.004  0.014
 H          0.015  0.089  0.061   -0.017  0.000  0.065   -0.032  0.024  0.087
 H          0.103  0.011 -0.016    0.033 -0.010 -0.016   -0.028 -0.009 -0.032
 H          0.310 -0.038 -0.097   -0.471 -0.110  0.575    0.403  0.074 -0.492
 H          0.197  0.226  0.151    0.481  0.307  0.282    0.541  0.362  0.294
 H          0.034 -0.051 -0.104    0.031 -0.003 -0.067   -0.022 -0.032 -0.019
 C         -0.090 -0.125 -0.326    0.032  0.017 -0.027   -0.005  0.003  0.030
 H         -0.182 -0.261 -0.511    0.040  0.012 -0.028    0.122  0.107  0.186
 TransDip   0.054 -0.128 -0.219    0.039  0.027  0.113    0.160  0.106 -0.004

 Mode:                 4                      5                      6
 Frequency:       452.96                 475.53                 589.98
 Force Cnst:      0.5358                 0.5218                 0.7553
 Red. Mass:       4.4325                 3.9168                 3.6830
 IR Active:          YES                    YES                    YES
 IR Intens:        9.879                 12.004                  3.533
 Raman Active:       YES                    YES                    YES
               X      Y      Z        X      Y      Z        X      Y      Z
 C         -0.028 -0.055  0.028   -0.137  0.072  0.242   -0.017 -0.005 -0.179
 C          0.027 -0.054 -0.193   -0.045 -0.029  0.002    0.010 -0.043  0.103
 C         -0.119 -0.132  0.016   -0.005 -0.005 -0.092    0.197 -0.063 -0.134
 C          0.123  0.150 -0.061    0.320  0.095  0.096    0.142  0.151  0.077
 C         -0.021 -0.050 -0.111   -0.007 -0.025 -0.058    0.004 -0.063  0.037
 N         -0.111 -0.022  0.296   -0.044  0.001 -0.156   -0.139  0.027  0.161
 H         -0.110  0.020  0.348   -0.234  0.148  0.623    0.079 -0.001 -0.616
 H         -0.027 -0.081 -0.118    0.067  0.033 -0.059    0.038 -0.026  0.254
 H         -0.023 -0.135 -0.073   -0.281 -0.069  0.232    0.043 -0.116  0.064
 H         -0.391 -0.151 -0.398    0.139 -0.009 -0.027    0.140  0.244 -0.002
 H          0.055 -0.042 -0.181   -0.153 -0.062  0.058   -0.040 -0.113  0.027
 C          0.168  0.176  0.000   -0.019 -0.100 -0.064   -0.164 -0.000 -0.051
 H          0.251  0.275  0.129   -0.178 -0.142 -0.162   -0.382 -0.084 -0.213
 TransDip  -0.054 -0.032 -0.079   -0.081 -0.012  0.075   -0.039  0.032 -0.032

 Mode:                 7                      8                      9
 Frequency:       716.13                 784.92                 812.07
 Force Cnst:      2.1149                 1.9100                 0.9026
 Red. Mass:       6.9995                 5.2618                 2.3232
 IR Active:          YES                    YES                    YES
 IR Intens:        0.699                  6.440                  5.095
 Raman Active:       YES                    YES                    YES
               X      Y      Z        X      Y      Z        X      Y      Z
 C         -0.033  0.153 -0.098   -0.173 -0.095  0.012    0.023  0.042 -0.084
 C         -0.173  0.012  0.067    0.016 -0.078  0.271    0.023 -0.108 -0.078
 C         -0.232 -0.221  0.049   -0.017  0.184  0.108    0.058  0.132  0.116
 C          0.157 -0.135 -0.167    0.152 -0.071 -0.248   -0.007 -0.001 -0.028
 C          0.162 -0.014 -0.094   -0.035  0.208 -0.080    0.109 -0.048 -0.045
 N          0.162  0.363  0.110   -0.142 -0.074  0.035   -0.085  0.005 -0.004
 H          0.051 -0.164 -0.271   -0.050 -0.111 -0.573   -0.097  0.300  0.314
 H          0.067  0.139  0.025    0.026 -0.074 -0.036   -0.073 -0.167 -0.427
 H         -0.264 -0.194  0.044    0.172  0.218 -0.099   -0.085  0.368  0.005
 H          0.216  0.090 -0.279    0.179 -0.186 -0.142   -0.042  0.161 -0.183
 H          0.095  0.009  0.003   -0.019  0.273 -0.040    0.037 -0.226 -0.149
 C         -0.077 -0.204  0.126    0.209 -0.074 -0.029   -0.052 -0.047  0.166
 H         -0.075 -0.040  0.317   -0.126  0.039 -0.007   -0.404 -0.153 -0.054
 TransDip   0.025 -0.004 -0.008    0.048 -0.003 -0.066   -0.026 -0.003 -0.068

 Mode:                10                     11                     12
 Frequency:       859.58                 877.49                 901.27
 Force Cnst:      1.3942                 1.2454                 0.8524
 Red. Mass:       3.2026                 2.7451                 1.7811
 IR Active:          YES                    YES                    YES
 IR Intens:        6.317                 26.089                  3.009
 Raman Active:       YES                    YES                    YES
               X      Y      Z        X      Y      Z        X      Y      Z
 C          0.235  0.100  0.059   -0.017  0.029 -0.025   -0.090 -0.055 -0.057
 C         -0.012  0.104  0.076    0.057 -0.008 -0.016    0.005 -0.048  0.038
 C         -0.128  0.130 -0.017   -0.040 -0.084 -0.032    0.063  0.083  0.052
 C          0.082 -0.001 -0.029   -0.006 -0.049  0.006   -0.003  0.000  0.090
 C         -0.065 -0.161 -0.055    0.250  0.145  0.069    0.016 -0.038 -0.083
 N         -0.036 -0.129  0.050   -0.154 -0.094 -0.035    0.033  0.085  0.012
 H          0.308  0.276 -0.338   -0.089  0.315  0.122   -0.121 -0.161  0.129
 H         -0.230 -0.018 -0.053    0.169  0.056  0.259    0.009 -0.042  0.130
 H         -0.331  0.277  0.011   -0.188  0.054 -0.061   -0.118  0.271  0.025
 H         -0.007  0.058 -0.176   -0.019  0.005 -0.048   -0.088 -0.246  0.189
 H          0.004 -0.108 -0.069    0.253  0.298  0.217    0.011 -0.303 -0.341
 C         -0.073 -0.077 -0.067   -0.105 -0.009 -0.038   -0.046 -0.020 -0.096
 H          0.295  0.172  0.329    0.361  0.273  0.421    0.514  0.237  0.367
 TransDip   0.005  0.080 -0.009    0.074  0.117  0.086   -0.005 -0.055  0.008

 Mode:                13                     14                     15
 Frequency:       912.39                 919.75                 940.01
 Force Cnst:      0.9166                 1.0569                 1.1119
 Red. Mass:       1.8687                 2.1204                 2.1357
 IR Active:          YES                    YES                    YES
 IR Intens:        6.191                 13.788                  3.228
 Raman Active:       YES                    YES                    YES
               X      Y      Z        X      Y      Z        X      Y      Z
 C          0.071 -0.017 -0.136    0.086  0.012 -0.101   -0.015 -0.105 -0.062
 C         -0.065  0.080  0.112    0.026 -0.122  0.055    0.004  0.200 -0.029
 C         -0.063  0.005 -0.035    0.039 -0.017 -0.006    0.065  0.034  0.034
 C          0.003 -0.048  0.063    0.040  0.003 -0.099    0.053 -0.012  0.002
 C          0.033  0.013 -0.100   -0.171  0.055  0.104   -0.040  0.052 -0.069
 N         -0.023 -0.030  0.040    0.047  0.042 -0.003   -0.002 -0.061  0.035
 H         -0.116  0.196  0.600   -0.092  0.272  0.593   -0.077 -0.191  0.237
 H         -0.163  0.033  0.366   -0.145 -0.224  0.027    0.096  0.253 -0.439
 H          0.006 -0.016 -0.078    0.034 -0.072  0.054    0.309 -0.421  0.328
 H          0.093 -0.175  0.259    0.018 -0.005 -0.126   -0.017  0.097 -0.155
 H          0.086  0.067 -0.102   -0.267  0.153  0.298   -0.033  0.172  0.041
 C          0.067  0.014 -0.007   -0.038 -0.015 -0.046   -0.103 -0.088  0.063
 H         -0.122 -0.252 -0.368    0.009  0.292  0.315    0.191 -0.025  0.226
 TransDip  -0.030  0.024  0.070   -0.066  0.043  0.089   -0.055 -0.014 -0.008

 Mode:                16                     17                     18
 Frequency:       962.64                1026.89                1086.41
 Force Cnst:      0.8872                 1.0821                 1.1556
 Red. Mass:       1.6251                 1.7417                 1.6618
 IR Active:          YES                    YES                    YES
 IR Intens:        7.352                  5.710                  5.451
 Raman Active:       YES                    YES                    YES
               X      Y      Z        X      Y      Z        X      Y      Z
 C         -0.069 -0.067 -0.044    0.014 -0.034 -0.005    0.014  0.007  0.009
 C          0.022  0.088  0.013    0.172 -0.010 -0.003    0.038 -0.084  0.013
 C         -0.017  0.044 -0.007   -0.078 -0.008 -0.047   -0.009 -0.007 -0.041
 C          0.007  0.007 -0.080    0.005  0.005  0.020   -0.059  0.067  0.073
 C          0.022 -0.110  0.118   -0.092  0.033 -0.073   -0.065  0.087 -0.081
 N          0.010  0.001 -0.001    0.035 -0.011  0.017    0.014  0.012  0.003
 H         -0.120 -0.220  0.250    0.013 -0.060  0.028    0.019  0.134 -0.066
 H          0.231  0.213  0.300    0.649  0.248  0.116    0.017 -0.103  0.217
 H         -0.204  0.334 -0.151   -0.244  0.244 -0.194   -0.034 -0.002 -0.038
 H         -0.006  0.376 -0.384    0.030 -0.169  0.188   -0.145  0.498 -0.326
 H         -0.134 -0.159  0.241   -0.015  0.095 -0.102    0.050  0.186 -0.119
 C          0.030  0.003 -0.010   -0.064 -0.013  0.075    0.029 -0.110  0.061
 H          0.154 -0.142 -0.140   -0.407  0.110  0.116    0.505 -0.405 -0.109
 TransDip  -0.049 -0.037  0.061   -0.069  0.020  0.026    0.035  0.038 -0.054

 Mode:                19                     20                     21
 Frequency:      1141.21                1184.33                1219.68
 Force Cnst:      1.3251                 1.7561                 1.1847
 Red. Mass:       1.7269                 2.1250                 1.3516
 IR Active:          YES                    YES                    YES
 IR Intens:        4.788                  5.355                  1.859
 Raman Active:       YES                    YES                    YES
               X      Y      Z        X      Y      Z        X      Y      Z
 C          0.023 -0.010  0.036   -0.037 -0.030  0.009    0.009 -0.003  0.013
 C         -0.009  0.023 -0.161    0.133 -0.056  0.039    0.002  0.031  0.029
 C          0.052  0.033  0.081   -0.108  0.109 -0.020    0.078 -0.102  0.038
 C          0.073 -0.077 -0.036   -0.025 -0.063  0.075   -0.003  0.017 -0.016
 C         -0.036  0.053 -0.049    0.084 -0.097 -0.120   -0.004  0.003 -0.086
 N         -0.010 -0.007  0.002    0.010  0.056  0.007   -0.007  0.003  0.003
 H          0.062 -0.049 -0.127   -0.030  0.037 -0.080    0.030 -0.130 -0.022
 H         -0.231 -0.081  0.858   -0.091 -0.186  0.007   -0.179 -0.072 -0.301
 H          0.052  0.044  0.089    0.263 -0.348  0.147   -0.324  0.429 -0.184
 H          0.080 -0.116 -0.011   -0.037  0.173 -0.112    0.023 -0.166  0.153
 H         -0.263 -0.056  0.073   -0.370  0.182  0.638   -0.270  0.265  0.444
 C         -0.065  0.014  0.055   -0.030  0.076 -0.037   -0.033  0.038  0.023
 H         -0.024 -0.067 -0.026   -0.074  0.086 -0.045    0.239 -0.176 -0.139
 TransDip  -0.044 -0.026  0.048   -0.046 -0.027  0.051   -0.040  0.006 -0.017

 Mode:                22                     23                     24
 Frequency:      1265.77                1283.98                1307.79
 Force Cnst:      1.1539                 1.3979                 2.0182
 Red. Mass:       1.2224                 1.4391                 2.0028
 IR Active:          YES                    YES                    YES
 IR Intens:        1.037                  3.741                 15.044
 Raman Active:       YES                    YES                    YES
               X      Y      Z        X      Y      Z        X      Y      Z
 C         -0.024  0.047 -0.014   -0.051 -0.019 -0.009   -0.053 -0.048  0.011
 C          0.019 -0.002 -0.023   -0.037 -0.036 -0.021    0.201  0.071  0.030
 C          0.029  0.020  0.027   -0.008  0.054  0.014   -0.076 -0.015 -0.071
 C          0.007 -0.002  0.013    0.010  0.075 -0.088    0.042  0.001 -0.062
 C         -0.044 -0.097 -0.006   -0.003 -0.089  0.022   -0.008  0.010  0.086
 N         -0.024  0.017 -0.019    0.055 -0.010  0.012   -0.003  0.041 -0.019
 H         -0.002 -0.337  0.087   -0.095  0.564 -0.129   -0.065 -0.018  0.009
 H         -0.147 -0.092  0.146    0.265  0.132  0.073   -0.628 -0.393 -0.091
 H          0.002  0.064  0.017    0.123 -0.106  0.086   -0.044 -0.078 -0.062
 H         -0.011  0.023 -0.027    0.044 -0.351  0.268    0.076 -0.179  0.097
 H          0.613  0.630  0.043    0.189  0.222  0.147    0.210 -0.184 -0.329
 C          0.013 -0.019 -0.004   -0.047  0.009  0.042   -0.080  0.023  0.072
 H         -0.123  0.086  0.074    0.328 -0.249 -0.131    0.181 -0.229 -0.133
 TransDip   0.019 -0.013  0.023    0.023 -0.039  0.043   -0.062 -0.105  0.025

 Mode:                25                     26                     27
 Frequency:      1323.34                1409.16                1651.07
 Force Cnst:      1.6027                 3.1190                12.6979
 Red. Mass:       1.5533                 2.6659                 7.9059
 IR Active:          YES                    YES                    YES
 IR Intens:       20.029                  2.012                 27.098
 Raman Active:       YES                    YES                    YES
               X      Y      Z        X      Y      Z        X      Y      Z
 C         -0.095 -0.071  0.001    0.038  0.023  0.005   -0.295  0.482 -0.160
 C          0.004  0.081 -0.015   -0.032 -0.085  0.035    0.065 -0.030  0.003
 C          0.043 -0.053  0.023   -0.006 -0.001  0.052   -0.011  0.006  0.000
 C          0.011 -0.076  0.065    0.111 -0.213  0.039    0.006 -0.019  0.007
 C         -0.036 -0.005 -0.018   -0.072  0.025  0.018    0.002  0.042 -0.019
 N          0.088 -0.009  0.018   -0.008  0.006 -0.009    0.273 -0.372  0.135
 H         -0.156  0.719 -0.196    0.052 -0.055  0.028   -0.283 -0.400  0.049
 H         -0.219 -0.029 -0.035    0.362  0.122 -0.254   -0.161 -0.167  0.005
 H         -0.159  0.202 -0.073    0.034  0.024 -0.010    0.040 -0.042  0.010
 H         -0.011  0.240 -0.202    0.117  0.186 -0.312    0.020  0.009 -0.002
 H          0.123  0.119 -0.064    0.267  0.065 -0.301   -0.255 -0.203  0.010
 C          0.027  0.013 -0.036   -0.129  0.231 -0.032   -0.037  0.024  0.009
 H         -0.267  0.201  0.076    0.338 -0.186 -0.412    0.061 -0.053 -0.039
 TransDip  -0.119  0.065 -0.045   -0.041  0.018  0.009    0.025  0.152 -0.065

 Mode:                28                     29                     30
 Frequency:      3150.83                3164.12                3174.46
 Force Cnst:      6.3785                 6.4296                 6.4943
 Red. Mass:       1.0905                 1.0900                 1.0938
 IR Active:          YES                    YES                    YES
 IR Intens:       23.608                  5.863                 16.602
 Raman Active:       YES                    YES                    YES
               X      Y      Z        X      Y      Z        X      Y      Z
 C         -0.005 -0.001 -0.001   -0.046 -0.003 -0.010   -0.068 -0.007 -0.015
 C          0.001 -0.001  0.000    0.034 -0.060  0.001   -0.015  0.032 -0.001
 C          0.002  0.001  0.002    0.001  0.002  0.001   -0.000 -0.001 -0.001
 C          0.002 -0.002 -0.001   -0.001  0.000  0.001    0.001  0.000 -0.002
 C         -0.051  0.050 -0.049    0.002 -0.001  0.002    0.004 -0.003  0.003
 N         -0.000 -0.000  0.000    0.001 -0.001  0.000    0.001 -0.002  0.001
 H          0.064  0.007  0.013    0.525  0.060  0.117    0.761  0.093  0.168
 H         -0.001  0.002  0.000   -0.389  0.701 -0.011    0.186 -0.351  0.007
 H         -0.019 -0.018 -0.020   -0.015 -0.021 -0.018    0.012  0.017  0.015
 H         -0.023  0.019  0.020    0.016 -0.011 -0.015   -0.022  0.014  0.022
 H          0.588 -0.565  0.566   -0.019  0.019 -0.018   -0.039  0.035 -0.035
 C         -0.001 -0.002  0.002    0.003  0.015 -0.012   -0.007 -0.030  0.026
 H          0.005  0.019 -0.017   -0.045 -0.172  0.151    0.090  0.339 -0.297
 TransDip  -0.102  0.087 -0.079   -0.011 -0.075 -0.015   -0.129 -0.005  0.016

 Mode:                31                     32                     33
 Frequency:      3182.05                3258.88                3277.03
 Force Cnst:      6.5223                 6.8556                 6.9313
 Red. Mass:       1.0933                 1.0956                 1.0955
 IR Active:          YES                    YES                    YES
 IR Intens:       20.105                  1.024                  0.607
 Raman Active:       YES                    YES                    YES
               X      Y      Z        X      Y      Z        X      Y      Z
 C          0.024  0.004  0.005    0.001  0.000  0.000    0.002  0.000  0.001
 C          0.019 -0.034  0.000    0.000 -0.000 -0.000    0.006 -0.004  0.002
 C          0.001  0.003  0.001    0.005  0.005  0.003   -0.047 -0.056 -0.050
 C          0.003 -0.001 -0.005   -0.058  0.041  0.052   -0.006  0.005  0.005
 C          0.000 -0.000  0.000   -0.000  0.002 -0.004   -0.002  0.004 -0.001
 N         -0.000  0.001 -0.000    0.000  0.000 -0.000   -0.000  0.000 -0.000
 H         -0.269 -0.035 -0.060   -0.008 -0.001 -0.002   -0.011 -0.001 -0.002
 H         -0.209  0.381 -0.003   -0.000  0.001  0.000   -0.025  0.043 -0.003
 H         -0.020 -0.025 -0.021   -0.051 -0.059 -0.052    0.520  0.628  0.561
 H         -0.059  0.039  0.056    0.646 -0.452 -0.594    0.059 -0.039 -0.053
 H         -0.006  0.006 -0.006    0.015 -0.016  0.019    0.020 -0.022  0.017
 C         -0.014 -0.056  0.048    0.001 -0.010  0.007   -0.000 -0.002  0.001
 H          0.169  0.622 -0.548    0.017  0.071 -0.056    0.004  0.015 -0.017
 TransDip   0.053 -0.111  0.073   -0.020  0.012  0.022   -0.018  0.007  0.015

 STANDARD THERMODYNAMIC QUANTITIES AT   298.15 K  AND     1.00 ATM

   This Molecule has  1 Imaginary Frequencies
   Zero point vibrational energy:       62.870 kcal/mol

   Atom    1 Element C  Has Mass   12.00000
   Atom    2 Element C  Has Mass   12.00000
   Atom    3 Element C  Has Mass   12.00000
   Atom    4 Element C  Has Mass   12.00000
   Atom    5 Element C  Has Mass   12.00000
   Atom    6 Element N  Has Mass   14.00307
   Atom    7 Element H  Has Mass    1.00783
   Atom    8 Element H  Has Mass    1.00783
   Atom    9 Element H  Has Mass    1.00783
   Atom   10 Element H  Has Mass    1.00783
   Atom   11 Element H  Has Mass    1.00783
   Atom   12 Element C  Has Mass   12.00000
   Atom   13 Element H  Has Mass    1.00783
   Molecular Mass:    92.050050 amu
   Principal axes and moments of inertia in amu*Bohr^2:
                             1           2           3
    Eigenvalues --      377.09748   457.66964   570.03004
          X               0.77165    -0.57396     0.27410
          Y               0.50428     0.81470     0.28629
          Z              -0.38763    -0.08269     0.91810
   Rotational Symmetry Number is   1
   The Molecule is an Asymmetric Top
   Translational Enthalpy:        0.889 kcal/mol
   Rotational Enthalpy:           0.889 kcal/mol
   Vibrational Enthalpy:         64.271 kcal/mol
   gas constant (RT):             0.592 kcal/mol
   Translational Entropy:        39.471  cal/mol.K
   Rotational Entropy:           26.089  cal/mol.K
   Vibrational Entropy:           6.558  cal/mol.K

   Total Enthalpy:               66.641 kcal/mol
   Total Entropy:                72.119  cal/mol.K
Archival summary:
1\1\c8-66\FREQ\ProcedureUnspecified\6-31+G**\166(2)\hpark21\ThuMar307:30:492022ThuMar307:30:492022\0\\#,FREQ,ProcedureUnspecified,6-31+G**,\\0,2\N\C,1,1.28021\H,2,1.08888,1,122.109\C,1,1.50148,2,105.382,3,-174.595,0\H,4,1.08954,1,112.098,2,-159.238,0\C,2,1.5105,1,113.138,3,176.424,0\H,6,1.0878,2,120.785,1,162.718,0\C,6,1.49501,2,102.129,1,25.0257,0\H,8,1.0801,6,131.175,2,147.676,0\C,4,1.52447,1,108.086,2,68.5719,0\H,10,1.08093,4,130.927,1,104.869,0\C,10,1.40075,4,98.5298,1,-80.5535,0\H,12,1.08765,10,127.599,4,-161.674,0\\\@

 Total job time:  564.10s(wall), 558.46s(cpu) 
 Thu Mar  3 07:30:49 2022

        *************************************************************
        *                                                           *
        *  Thank you very much for using Q-Chem.  Have a nice day.  *
        *                                                           *
        *************************************************************


