
Running Job 1 of 1 qcts1.in
qchem qcts1.in_46151.0 ./qcts1.d/ 1
/home/leeping/opt/qchem/5.0.2-openmp/exe/qcprog.exe_s qcts1.in_46151.0 ./qcts1.d/
Check license passed

                  Welcome to Q-Chem
     A Quantum Leap Into The Future Of Chemistry


 Q-Chem 5.0, Q-Chem, Inc., Pleasanton, CA (2017)

 Yihan Shao,  Zhengting Gan,  E. Epifanovsky,  A. T. B. Gilbert,  M. Wormit,  
 J. Kussmann,  A. W. Lange,  A. Behn,  Jia Deng,  Xintian Feng,  D. Ghosh,  
 M. Goldey,  P. R. Horn,  L. D. Jacobson,  I. Kaliman,  T. Kus,  A. Landau,  
 Jie Liu,  E. I. Proynov,  R. M. Richard,  R. P. Steele,  E. J. Sundstrom,  
 H. L. Woodcock III,  P. M. Zimmerman,  D. Zuev,  B. Albrecht,  E. Alguire,  
 S. A. Baeppler,  D. Barton,  Z. Benda,  Y. A. Bernard,  E. J. Berquist,  
 K. B. Bravaya,  H. Burton,  D. Casanova,  Chun-Min Chang,  Yunqing Chen,  
 A. Chien,  K. D. Closser,  M. P. Coons,  S. Dasgupta,  A. L. Dempwolff,  
 M. Diedenhofen,  Hainam Do,  R. G. Edgar,  Po-Tung Fang,  S. Fatehi,  
 Qingguo Feng,  J. Fosso-Tande,  Qinghui Ge,  A. Ghysels,  G. Gidofalvi,  
 J. Gomes,  J. Gonthier,  A. Gunina,  M. W. D. Hanson-Heine,  
 P. H. P. Harbach,  A. W. Hauser,  J. E. Herr,  E. G. Hohenstein,  
 Z. C. Holden,  Kerwin Hui,  T.-C. Jagau,  Hyunjun Ji,  B. Kaduk,  
 K. Khistyaev,  Jaehoon Kim,  P. Klunzinger,  K. Koh,  D. Kosenkov,  
 L. Koulias,  T. Kowalczyk,  C. M. Krauter,  A. Kunitsa,  Ka Un Lao,  
 A. Laurent,  K. V. Lawler,  Joonho Lee,  D. Lefrancois,  S. Lehtola,  
 D. S. Levine,  Yi-Pei Li,  You-Sheng Lin,  Fenglai Liu,  E. Livshits,  
 A. Luenser,  P. Manohar,  E. Mansoor,  S. F. Manzer,  Shan-Ping Mao,  
 Yuezhi Mao,  N. Mardirossian,  A. V. Marenich,  T. Markovich,  
 L. A. Martinez-Martinez,  S. A. Maurer,  N. J. Mayhall,  S. C. McKenzie,  
 J.-M. Mewes,  A. F. Morrison,  J. W. Mullinax,  K. Nanda,  
 T. S. Nguyen-Beck,  R. Olivares-Amaya,  J. A. Parkhill,  T. M. Perrine,  
 F. Plasser,  S. Prager,  A. Prociuk,  E. Ramos,  D. R. Rehn,  F. Rob,  
 M. Schneider,  N. Sergueev,  S. M. Sharada,  S. Sharma,  D. W. Small,  
 T. Stauch,  T. Stein,  Yu-Chuan Su,  A. J. W. Thom,  A. Tkatchenko,  
 T. Tsuchimochi,  L. Vogt,  O. Vydrov,  M. A. Watson,  J. Wenzel,  
 M. de Wergifosse,  T. A. Wesolowski,  A. White,  J. Witte,  A. Yamada,  
 Jun Yang,  K. Yao,  S. Yeganeh,  S. R. Yost,  Zhi-Qiang You,  A. Zech,  
 Igor Ying Zhang,  Xing Zhang,  Yan Zhao,  Ying Zhu,  B. R. Brooks,  
 G. K. L. Chan,  C. J. Cramer,  M. S. Gordon,  W. J. Hehre,  A. Klamt,  
 M. W. Schmidt,  C. D. Sherrill,  D. G. Truhlar,  A. Aspuru-Guzik,  R. Baer,  
 A. T. Bell,  N. A. Besley,  Jeng-Da Chai,  R. A. DiStasio Jr.,  A. Dreuw,  
 B. D. Dunietz,  T. R. Furlani,  Chao-Ping Hsu,  Yousung Jung,  Jing Kong,  
 D. S. Lambrecht,  WanZhen Liang,  C. Ochsenfeld,  V. A. Rassolov,  
 L. V. Slipchenko,  J. E. Subotnik,  T. Van Voorhis,  J. M. Herbert,  
 A. I. Krylov,  P. M. W. Gill,  M. Head-Gordon

 Contributors to earlier versions of Q-Chem not listed above: 
 R. D. Adamson,  B. Austin,  J. Baker,  G. J. O. Beran,  K. Brandhorst,  
 S. T. Brown,  E. F. C. Byrd,  A. K. Chakraborty,  C.-L. Cheng,  
 Siu Hung Chien,  D. M. Chipman,  D. L. Crittenden,  H. Dachsel,  
 R. J. Doerksen,  A. D. Dutoi,  L. Fusti-Molnar,  W. A. Goddard III,  
 A. Golubeva-Zadorozhnaya,  S. R. Gwaltney,  G. Hawkins,  A. Heyden,  
 S. Hirata,  G. Kedziora,  F. J. Keil,  C. Kelley,  Jihan Kim,  R. A. King,  
 R. Z. Khaliullin,  P. P. Korambath,  W. Kurlancheek,  A. M. Lee,  M. S. Lee,  
 S. V. Levchenko,  Ching Yeh Lin,  D. Liotard,  R. C. Lochan,  I. Lotan,  
 P. E. Maslen,  N. Nair,  D. P. O'Neill,  D. Neuhauser,  E. Neuscamman,  
 C. M. Oana,  R. Olson,  B. Peters,  R. Peverati,  P. A. Pieniazek,  
 Y. M. Rhee,  J. Ritchie,  M. A. Rohrdanz,  E. Rosta,  N. J. Russ,  
 H. F. Schaefer III,  N. E. Schultz,  N. Shenvi,  A. C. Simmonett,  A. Sodt,  
 D. Stuck,  K. S. Thanthiriwatte,  V. Vanovschi,  Tao Wang,  A. Warshel,  
 C. F. Williams,  Q. Wu,  X. Xu,  W. Zhang

 Please cite Q-Chem as follows:
 Y. Shao et al., Mol. Phys. 113, 184-215 (2015)
 DOI: 10.1080/00268976.2014.952696

 Q-Chem 5.0.2 for Intel X86 EM64T Linux

 Parts of Q-Chem use Armadillo 5.200.1 (Boston Tea Smuggler).
 http://arma.sourceforge.net/

 Q-Chem begins on Thu Mar  3 06:55:09 2022  

Host: 
0

     Scratch files written to ./qcts1.d//
 Dec517 15110_ 26548  26544 5633   
Processing $rem in /home/leeping/opt/qchem/5.0.2-openmp/config/preferences.
 MEM_STATIC 2000
 MEM_TOTAL  8000
 SYMMETRY   OFF
 SYM_IGNORE TRUE 

Checking the input file for inconsistencies... 	...done.

--------------------------------------------------------------
User input:
--------------------------------------------------------------
$molecule
0 2
C        1.5665938282    0.4363573417   -0.1784117570
C        0.7658214390   -0.8323425733   -0.0959700448
C       -0.5141689661   -0.5238099277   -0.7774836087
C       -1.0187979846    0.6040070646    0.8009124989
C       -0.5385142531    0.9772822943   -0.6013712753
N        0.8663819355    1.4651735378   -0.4897796556
H        2.5723112745    0.5075890493    0.2344216201
H        1.2112940433   -1.8149640501   -0.2024218305
H       -1.1522684720   -1.1202237650   -1.4253333037
H       -2.0787273175    0.6129867002    1.0082718811
H       -1.1741499514    1.6203001106   -1.2052515611
C       -0.2414396102   -0.6454373532    1.0162994894
H       -0.2856985313   -1.2890994174    1.8986470831
$end

$rem
method                b3lyp
basis                 6-31g(d)
unrestricted          true
symmetry              off
sym_ignore            true
incdft                false
incfock               0
scf_convergence       8
thresh                14
jobtype               sp
scf_guess             core
scf_guess_mix         5
scf_algorithm         diis
max_scf_cycles        100
$end

--------------------------------------------------------------
 ----------------------------------------------------------------
             Standard Nuclear Orientation (Angstroms)
    I     Atom           X                Y                Z
 ----------------------------------------------------------------
    1      C       1.5665938282     0.4363573417    -0.1784117570
    2      C       0.7658214390    -0.8323425733    -0.0959700448
    3      C      -0.5141689661    -0.5238099277    -0.7774836087
    4      C      -1.0187979846     0.6040070646     0.8009124989
    5      C      -0.5385142531     0.9772822943    -0.6013712753
    6      N       0.8663819355     1.4651735378    -0.4897796556
    7      H       2.5723112745     0.5075890493     0.2344216201
    8      H       1.2112940433    -1.8149640501    -0.2024218305
    9      H      -1.1522684720    -1.1202237650    -1.4253333037
   10      H      -2.0787273175     0.6129867002     1.0082718811
   11      H      -1.1741499514     1.6203001106    -1.2052515611
   12      C      -0.2414396102    -0.6454373532     1.0162994894
   13      H      -0.2856985313    -1.2890994174     1.8986470831
 ----------------------------------------------------------------
 Nuclear Repulsion Energy =   281.7956758221 hartrees
 There are       25 alpha and       24 beta electrons
 Requested basis set is 6-31G(d)
 There are 40 shells and 117 basis functions

 Total QAlloc Memory Limit   8000 MB
 Mega-Array Size      1956 MB
 MEM_STATIC part      2000 MB

                       Distance Matrix (Angstroms)
             C (  1)   C (  2)   C (  3)   C (  4)   C (  5)   N (  6)
   C (  2)  1.502542
   C (  3)  2.368625  1.482575
   C (  4)  2.769735  2.460155  2.004484
   C (  5)  2.214266  2.287239  1.511584  1.528531
   N (  6)  1.282852  2.333191  2.438186  2.441597  1.491383
   H (  7)  1.089483  2.273319  3.407946  3.636794  3.255211  2.086056
   H (  8)  2.279312  1.084123  2.230470  3.439682  3.319281  3.310716
   H (  9)  3.371939  2.351415  1.087469  2.819035  2.335624  3.410937
   H ( 10)  3.837679  3.376357  2.632313  1.080060  2.257414  3.412338
   H ( 11)  3.157182  3.318049  2.283806  2.254258  1.087279  2.167887
   C ( 12)  2.422106  1.512168  1.818470  1.487208  2.310483  2.819614
   H ( 13)  3.274502  2.300613  2.792766  2.307880  3.383858  3.823335
             H (  7)   H (  8)   H (  9)   H ( 10)   H ( 11)   C ( 12)
   H (  8)  2.727169
   H (  9)  4.390564  2.750383
   H ( 10)  4.716154  4.264383  3.128063
   H ( 11)  4.164944  4.300820  2.749434  2.594731
   C ( 12)  3.139745  2.227893  2.648887  2.226953  3.307386
   H ( 13)  3.763769  2.632871  3.439231  2.761458  4.346049  1.093068

 
 A cutoff of  1.0D-14 yielded    812 shell pairs
 There are      7084 function pairs
 
 -------------------------------------------------------
 OpenMP Integral Computing Module                       
 Release: version 1.0, May 2013, Q-Chem Inc. Pittsburgh 
 -------------------------------------------------------
 Integral Job Info:
 Integral job number is                      11
 Integral operator is                         1
 short-range coefficients                     0
 long-range coefficients              100000000
 Omega coefficients                           0
 if combine SR and LR in K                    0
 Integral screening is                        0
 Integral computing path is                   2
 max size of driver memory is            800000
 size of driver memory is                593474
 size of scratch memory is              2361544
 max col of scratch BK array               1296
 max len of scratch array in speh3          155
 max len of scratch index in speh4           18
 max int batch size is                      520
 min int batch size is                       52
 fixed nKL is                                52
 max L of basis functions is                  2
 order of int derivative is                   0
 number of shells is                         40
 number of basis is                         117
 number of cartesian basis is               117
 number of contracted shell pairs           812
 number of primitive shell pairs           3598
 maxK2 (contraction) of shell pair           36
 max number of K2 of shell pair               1
 max number of CS2 of shell pair             85
 max number of PS2 of shell pair            396
 mem total for path MDJ                  535308
 -------------------------------------------------------
 Smallest overlap matrix eigenvalue = 1.68E-03

 Scale SEOQF with 1.000000e-01/1.000000e-01/1.000000e-01

 Standard Electronic Orientation quadrupole field applied
 Nucleus-field energy     =     0.0000000019 hartrees
 Guess MOs from core Hamiltonian diagonalization
 Mixing HOMO and LUMO in initial guess
 Adding  50% of the LUMO to the HOMO
 An unrestricted hybrid HF-DFT SCF calculation will be
 performed using Pulay DIIS extrapolation
 Exchange:     0.2000 Hartree-Fock + 0.0800 Slater + 0.7200 B88
 Correlation:  0.1900 VWN1RPA + 0.8100 LYP
 Using SG-1 standard quadrature grid
 SCF converges when DIIS error is below 1.0E-08
 using 4 threads for integral computing
 -------------------------------------------------------
 OpenMP Integral computing Module                
 Release: version 1.0, May 2013, Q-Chem Inc. Pittsburgh 
 -------------------------------------------------------
 -------------------------------------------------------
 OpenMP BLAS3 based DFT computing Module                
 Release: version 1.0, May 2013, Q-Chem Inc. Pittsburgh 
 -------------------------------------------------------
 ---------------------------------------
  Cycle       Energy         DIIS Error
 ---------------------------------------
    1    -235.4264882708      1.36E-01
    2    -228.3541523745      1.04E-01
    3    -257.0848158220      9.75E-02
    4    -279.0290385998      5.88E-02
    5    -277.7502713194      5.85E-02
    6    -285.9851103831      1.88E-02
    7    -286.4073844419      1.24E-02
    8    -286.6072856017      7.57E-03
    9    -286.7402007061      4.61E-03
   10    -286.7729531846      2.98E-03
   11    -286.7866413414      1.59E-03
   12    -286.7911446966      1.03E-03
   13    -286.7940684519      1.33E-04
   14    -286.7941074014      1.29E-04
   15    -286.7941501913      3.69E-05
   16    -286.7941626406      2.29E-05
   17    -286.7941687987      1.60E-05
   18    -286.7941764256      8.35E-06
   19    -286.7941789564      4.11E-06
   20    -286.7941795271      5.57E-07
   21    -286.7941795300      2.11E-07
   22    -286.7941795336      4.47E-08
   23    -286.7941795345      1.28E-08
   24    -286.7941795348      6.44E-09 Convergence criterion met
 ---------------------------------------
 <S^2> = 0.7539
 SCF time:  CPU 58.52 s  wall 16.64 s
 SCF   energy in the final basis set = -286.79417953
 Total energy in the final basis set = -286.79417953
 
 --------------------------------------------------------------
 
                    Orbital Energies (a.u.)
 --------------------------------------------------------------
 
 Alpha MOs
 -- Occupied --
-14.320 -10.236 -10.223 -10.220 -10.219 -10.218 -10.180  -0.964
 -0.846  -0.749  -0.671  -0.596  -0.584  -0.543  -0.514  -0.464
 -0.429  -0.415  -0.398  -0.370  -0.340  -0.302  -0.272  -0.259
 -0.118
 -- Virtual --
 -0.009   0.007   0.092   0.138   0.143   0.151   0.155   0.169
  0.184   0.196   0.199   0.249   0.288   0.311   0.339   0.383
  0.487   0.505   0.513   0.536   0.559   0.583   0.594   0.604
  0.627   0.646   0.675   0.680   0.697   0.718   0.749   0.784
  0.800   0.825   0.831   0.846   0.872   0.884   0.920   0.931
  0.978   1.019   1.074   1.119   1.145   1.220   1.304   1.329
  1.340   1.430   1.475   1.519   1.555   1.637   1.709   1.761
  1.767   1.825   1.861   1.872   1.932   1.954   1.990   2.055
  2.076   2.127   2.176   2.225   2.272   2.314   2.355   2.386
  2.422   2.468   2.495   2.524   2.588   2.602   2.640   2.669
  2.714   2.744   2.824   2.896   2.959   3.952   4.170   4.253
  4.349   4.432   4.525   4.606
 
 Beta MOs
 -- Occupied --
-14.320 -10.233 -10.222 -10.220 -10.219 -10.219 -10.168  -0.961
 -0.842  -0.743  -0.661  -0.590  -0.580  -0.541  -0.504  -0.460
 -0.425  -0.411  -0.396  -0.366  -0.332  -0.288  -0.261  -0.251
 -- Virtual --
 -0.007   0.009   0.020   0.094   0.140   0.145   0.152   0.158
  0.175   0.187   0.199   0.202   0.253   0.295   0.315   0.349
  0.385   0.493   0.516   0.518   0.538   0.568   0.597   0.600
  0.609   0.632   0.663   0.679   0.689   0.701   0.722   0.753
  0.785   0.803   0.827   0.832   0.848   0.879   0.885   0.925
  0.935   0.983   1.024   1.077   1.135   1.150   1.226   1.309
  1.333   1.346   1.439   1.479   1.526   1.559   1.642   1.717
  1.767   1.777   1.829   1.865   1.883   1.944   1.959   1.996
  2.058   2.092   2.134   2.184   2.234   2.285   2.329   2.363
  2.397   2.437   2.479   2.503   2.528   2.596   2.606   2.645
  2.672   2.717   2.749   2.831   2.898   2.960   3.954   4.175
  4.262   4.359   4.443   4.527   4.608
 --------------------------------------------------------------
 
          Ground-State Mulliken Net Atomic Charges

     Atom                 Charge (a.u.)    Spin (a.u.)
  --------------------------------------------------------
      1 C                     0.097777       0.010560
      2 C                    -0.177793      -0.009981
      3 C                    -0.109148       0.164068
      4 C                    -0.098253       0.834441
      5 C                    -0.092090      -0.025405
      6 N                    -0.332859       0.015344
      7 H                     0.144710       0.004662
      8 H                     0.153809      -0.000080
      9 H                     0.164863      -0.001100
     10 H                     0.132508      -0.029141
     11 H                     0.147302      -0.000347
     12 C                    -0.190304       0.042337
     13 H                     0.159478      -0.005359
  --------------------------------------------------------
  Sum of atomic charges =     0.000000
  Sum of spin   charges =     1.000000

 -----------------------------------------------------------------
                    Cartesian Multipole Moments
 -----------------------------------------------------------------
    Charge (ESU x 10^10)
                -0.0000
    Dipole Moment (Debye)
         X      -0.5605      Y      -3.2614      Z      -0.3782
       Tot       3.3307
    Quadrupole Moments (Debye-Ang)
        XX     -37.7431     XY      -2.9455     YY     -44.0697
        XZ       2.6405     YZ      -0.7857     ZZ     -40.4040
    Octopole Moments (Debye-Ang^2)
       XXX      -7.7792    XXY      -8.3042    XYY      -8.6151
       YYY     -35.0610    XXZ       1.8998    XYZ       2.5929
       YYZ       1.0120    XZZ      -6.8356    YZZ     -11.9879
       ZZZ       4.1749
    Hexadecapole Moments (Debye-Ang^3)
      XXXX    -250.8565   XXXY      -7.2979   XXYY     -88.4954
      XYYY     -21.6120   YYYY    -259.7503   XXXZ      20.9491
      XXYZ       9.8800   XYYZ      12.8256   YYYZ      20.6661
      XXZZ     -72.7147   XYZZ      -0.7305   YYZZ     -67.1105
      XZZZ      20.9294   YZZZ      13.0884   ZZZZ    -163.2736
 -----------------------------------------------------------------
Archival summary:
1\1\c8-66\SP\ProcedureUnspecified\6-31G*\166(2)\hpark21\ThuMar306:55:272022ThuMar306:55:272022\0\\#,ProcedureUnspecified,6-31G*,\\0,2\N\C,1,1.28285\H,2,1.08948,1,122.915\C,1,1.49138,2,105.663,3,-162.912,0\H,4,1.08728,1,113.503,2,-158.32,0\C,2,1.50254,1,113.552,3,165.056,0\H,6,1.08412,2,122.747,1,157.283,0\C,6,1.48257,2,105.021,1,15.4749,0\H,8,1.08747,6,131.783,2,142.377,0\C,6,1.51217,2,106.917,1,-62.8322,0\H,10,1.09307,6,123.226,2,-120.288,0\C,10,1.48721,6,110.211,2,53.0823,0\H,12,1.08006,10,119.481,6,140.012,0\\\@

 Total job time:  17.73s(wall), 60.28s(cpu) 
 Thu Mar  3 06:55:27 2022

        *************************************************************
        *                                                           *
        *  Thank you very much for using Q-Chem.  Have a nice day.  *
        *                                                           *
        *************************************************************


