
Running Job 1 of 1 qcts1.in
qchem qcts1.in_47057.0 ./qcts1.d/ 1
/home/leeping/opt/qchem/5.0.2-openmp/exe/qcprog.exe_s qcts1.in_47057.0 ./qcts1.d/
Check license passed

                  Welcome to Q-Chem
     A Quantum Leap Into The Future Of Chemistry


 Q-Chem 5.0, Q-Chem, Inc., Pleasanton, CA (2017)

 Yihan Shao,  Zhengting Gan,  E. Epifanovsky,  A. T. B. Gilbert,  M. Wormit,  
 J. Kussmann,  A. W. Lange,  A. Behn,  Jia Deng,  Xintian Feng,  D. Ghosh,  
 M. Goldey,  P. R. Horn,  L. D. Jacobson,  I. Kaliman,  T. Kus,  A. Landau,  
 Jie Liu,  E. I. Proynov,  R. M. Richard,  R. P. Steele,  E. J. Sundstrom,  
 H. L. Woodcock III,  P. M. Zimmerman,  D. Zuev,  B. Albrecht,  E. Alguire,  
 S. A. Baeppler,  D. Barton,  Z. Benda,  Y. A. Bernard,  E. J. Berquist,  
 K. B. Bravaya,  H. Burton,  D. Casanova,  Chun-Min Chang,  Yunqing Chen,  
 A. Chien,  K. D. Closser,  M. P. Coons,  S. Dasgupta,  A. L. Dempwolff,  
 M. Diedenhofen,  Hainam Do,  R. G. Edgar,  Po-Tung Fang,  S. Fatehi,  
 Qingguo Feng,  J. Fosso-Tande,  Qinghui Ge,  A. Ghysels,  G. Gidofalvi,  
 J. Gomes,  J. Gonthier,  A. Gunina,  M. W. D. Hanson-Heine,  
 P. H. P. Harbach,  A. W. Hauser,  J. E. Herr,  E. G. Hohenstein,  
 Z. C. Holden,  Kerwin Hui,  T.-C. Jagau,  Hyunjun Ji,  B. Kaduk,  
 K. Khistyaev,  Jaehoon Kim,  P. Klunzinger,  K. Koh,  D. Kosenkov,  
 L. Koulias,  T. Kowalczyk,  C. M. Krauter,  A. Kunitsa,  Ka Un Lao,  
 A. Laurent,  K. V. Lawler,  Joonho Lee,  D. Lefrancois,  S. Lehtola,  
 D. S. Levine,  Yi-Pei Li,  You-Sheng Lin,  Fenglai Liu,  E. Livshits,  
 A. Luenser,  P. Manohar,  E. Mansoor,  S. F. Manzer,  Shan-Ping Mao,  
 Yuezhi Mao,  N. Mardirossian,  A. V. Marenich,  T. Markovich,  
 L. A. Martinez-Martinez,  S. A. Maurer,  N. J. Mayhall,  S. C. McKenzie,  
 J.-M. Mewes,  A. F. Morrison,  J. W. Mullinax,  K. Nanda,  
 T. S. Nguyen-Beck,  R. Olivares-Amaya,  J. A. Parkhill,  T. M. Perrine,  
 F. Plasser,  S. Prager,  A. Prociuk,  E. Ramos,  D. R. Rehn,  F. Rob,  
 M. Schneider,  N. Sergueev,  S. M. Sharada,  S. Sharma,  D. W. Small,  
 T. Stauch,  T. Stein,  Yu-Chuan Su,  A. J. W. Thom,  A. Tkatchenko,  
 T. Tsuchimochi,  L. Vogt,  O. Vydrov,  M. A. Watson,  J. Wenzel,  
 M. de Wergifosse,  T. A. Wesolowski,  A. White,  J. Witte,  A. Yamada,  
 Jun Yang,  K. Yao,  S. Yeganeh,  S. R. Yost,  Zhi-Qiang You,  A. Zech,  
 Igor Ying Zhang,  Xing Zhang,  Yan Zhao,  Ying Zhu,  B. R. Brooks,  
 G. K. L. Chan,  C. J. Cramer,  M. S. Gordon,  W. J. Hehre,  A. Klamt,  
 M. W. Schmidt,  C. D. Sherrill,  D. G. Truhlar,  A. Aspuru-Guzik,  R. Baer,  
 A. T. Bell,  N. A. Besley,  Jeng-Da Chai,  R. A. DiStasio Jr.,  A. Dreuw,  
 B. D. Dunietz,  T. R. Furlani,  Chao-Ping Hsu,  Yousung Jung,  Jing Kong,  
 D. S. Lambrecht,  WanZhen Liang,  C. Ochsenfeld,  V. A. Rassolov,  
 L. V. Slipchenko,  J. E. Subotnik,  T. Van Voorhis,  J. M. Herbert,  
 A. I. Krylov,  P. M. W. Gill,  M. Head-Gordon

 Contributors to earlier versions of Q-Chem not listed above: 
 R. D. Adamson,  B. Austin,  J. Baker,  G. J. O. Beran,  K. Brandhorst,  
 S. T. Brown,  E. F. C. Byrd,  A. K. Chakraborty,  C.-L. Cheng,  
 Siu Hung Chien,  D. M. Chipman,  D. L. Crittenden,  H. Dachsel,  
 R. J. Doerksen,  A. D. Dutoi,  L. Fusti-Molnar,  W. A. Goddard III,  
 A. Golubeva-Zadorozhnaya,  S. R. Gwaltney,  G. Hawkins,  A. Heyden,  
 S. Hirata,  G. Kedziora,  F. J. Keil,  C. Kelley,  Jihan Kim,  R. A. King,  
 R. Z. Khaliullin,  P. P. Korambath,  W. Kurlancheek,  A. M. Lee,  M. S. Lee,  
 S. V. Levchenko,  Ching Yeh Lin,  D. Liotard,  R. C. Lochan,  I. Lotan,  
 P. E. Maslen,  N. Nair,  D. P. O'Neill,  D. Neuhauser,  E. Neuscamman,  
 C. M. Oana,  R. Olson,  B. Peters,  R. Peverati,  P. A. Pieniazek,  
 Y. M. Rhee,  J. Ritchie,  M. A. Rohrdanz,  E. Rosta,  N. J. Russ,  
 H. F. Schaefer III,  N. E. Schultz,  N. Shenvi,  A. C. Simmonett,  A. Sodt,  
 D. Stuck,  K. S. Thanthiriwatte,  V. Vanovschi,  Tao Wang,  A. Warshel,  
 C. F. Williams,  Q. Wu,  X. Xu,  W. Zhang

 Please cite Q-Chem as follows:
 Y. Shao et al., Mol. Phys. 113, 184-215 (2015)
 DOI: 10.1080/00268976.2014.952696

 Q-Chem 5.0.2 for Intel X86 EM64T Linux

 Parts of Q-Chem use Armadillo 5.200.1 (Boston Tea Smuggler).
 http://arma.sourceforge.net/

 Q-Chem begins on Thu Mar  3 07:15:16 2022  

Host: 
0

     Scratch files written to ./qcts1.d//
 Dec517 15110_ 26548  26544 5633   
Processing $rem in /home/leeping/opt/qchem/5.0.2-openmp/config/preferences.
 MEM_STATIC 2000
 MEM_TOTAL  8000
 SYMMETRY   OFF
 SYM_IGNORE TRUE 

Checking the input file for inconsistencies... 	...done.

--------------------------------------------------------------
User input:
--------------------------------------------------------------
$molecule
0 2
C        1.5371975125    0.4849760156   -0.1473826323
C        0.7765565379   -0.8139159279   -0.0211928841
C       -0.3851787580   -0.5876266771   -0.9345417515
C       -1.0615347245    0.5517249280    0.8091120967
C       -0.5917514514    0.9076941355   -0.5968027692
N        0.7969573414    1.4696070609   -0.4959373572
H        2.5927641320    0.6097071519    0.0889906793
H        1.3005874190   -1.7671034501   -0.0093837896
H       -0.9489029151   -1.2722554163   -1.5510746172
H       -1.7621832170    1.0453255935    1.4677938260
H       -1.2397514975    1.5254240083   -1.2177701301
C       -0.4085492315   -0.6805143467    0.9405927094
H       -0.6275737134   -1.4752240640    1.6501261555
$end

$rem
method                b3lyp
basis                 6-31g(d)
unrestricted          true
symmetry              off
sym_ignore            true
incdft                false
incfock               0
scf_convergence       8
thresh                14
jobtype               sp
scf_guess             read
scf_algorithm         diis
max_scf_cycles        100
$end

--------------------------------------------------------------
 ----------------------------------------------------------------
             Standard Nuclear Orientation (Angstroms)
    I     Atom           X                Y                Z
 ----------------------------------------------------------------
    1      C       1.5371975125     0.4849760156    -0.1473826323
    2      C       0.7765565379    -0.8139159279    -0.0211928841
    3      C      -0.3851787580    -0.5876266771    -0.9345417515
    4      C      -1.0615347245     0.5517249280     0.8091120967
    5      C      -0.5917514514     0.9076941355    -0.5968027692
    6      N       0.7969573414     1.4696070609    -0.4959373572
    7      H       2.5927641320     0.6097071519     0.0889906793
    8      H       1.3005874190    -1.7671034501    -0.0093837896
    9      H      -0.9489029151    -1.2722554163    -1.5510746172
   10      H      -1.7621832170     1.0453255935     1.4677938260
   11      H      -1.2397514975     1.5254240083    -1.2177701301
   12      C      -0.4085492315    -0.6805143467     0.9405927094
   13      H      -0.6275737134    -1.4752240640     1.6501261555
 ----------------------------------------------------------------
 Nuclear Repulsion Energy =   280.6468617932 hartrees
 There are       25 alpha and       24 beta electrons
 Requested basis set is 6-31G(d)
 There are 40 shells and 117 basis functions

 Total QAlloc Memory Limit   8000 MB
 Mega-Array Size      1956 MB
 MEM_STATIC part      2000 MB

                       Distance Matrix (Angstroms)
             C (  1)   C (  2)   C (  3)   C (  4)   C (  5)   N (  6)
   C (  2)  1.510503
   C (  3)  2.337868  1.495006
   C (  4)  2.769972  2.435767  2.189956
   C (  5)  2.216550  2.273221  1.546843  1.524469
   N (  6)  1.280213  2.332440  2.412888  2.449419  1.501477
   H (  7)  1.088876  2.310293  3.368883  3.725028  3.271123  2.075209
   H (  8)  2.268676  1.087802  2.255857  3.409769  3.328746  3.311597
   H (  9)  3.352448  2.351132  1.080099  2.984974  2.406319  3.417478
   H ( 10)  3.716006  3.481244  3.214637  1.080931  2.377270  3.253530
   H ( 11)  3.152730  3.312070  2.296845  2.255682  1.089539  2.161560
   C ( 12)  2.515549  1.532091  1.877579  1.400747  2.218007  2.853049
   H ( 13)  3.429236  2.280837  2.743555  2.236996  3.275404  3.912404
             H (  7)   H (  8)   H (  9)   H ( 10)   H ( 11)   C ( 12)
   H (  8)  2.707144
   H (  9)  4.333013  2.771623
   H ( 10)  4.588728  4.412751  3.891808
   H ( 11)  4.151426  4.330618  2.832436  2.777712
   C ( 12)  3.376060  2.237025  2.617355  2.255835  3.196184
   H ( 13)  4.141818  2.560659  3.223683  2.770154  4.195650  1.087646

 
 A cutoff of  1.0D-14 yielded    813 shell pairs
 There are      7085 function pairs
 
 -------------------------------------------------------
 OpenMP Integral Computing Module                       
 Release: version 1.0, May 2013, Q-Chem Inc. Pittsburgh 
 -------------------------------------------------------
 Integral Job Info:
 Integral job number is                      11
 Integral operator is                         1
 short-range coefficients                     0
 long-range coefficients              100000000
 Omega coefficients                           0
 if combine SR and LR in K                    0
 Integral screening is                        0
 Integral computing path is                   2
 max size of driver memory is            800000
 size of driver memory is                593474
 size of scratch memory is              2361544
 max col of scratch BK array               1296
 max len of scratch array in speh3          155
 max len of scratch index in speh4           18
 max int batch size is                      520
 min int batch size is                       52
 fixed nKL is                                52
 max L of basis functions is                  2
 order of int derivative is                   0
 number of shells is                         40
 number of basis is                         117
 number of cartesian basis is               117
 number of contracted shell pairs           813
 number of primitive shell pairs           3598
 maxK2 (contraction) of shell pair           36
 max number of K2 of shell pair               1
 max number of CS2 of shell pair             84
 max number of PS2 of shell pair            402
 mem total for path MDJ                  535308
 -------------------------------------------------------
 Smallest overlap matrix eigenvalue = 1.15E-03

 Scale SEOQF with 1.000000e-01/1.000000e-01/1.000000e-01

 Standard Electronic Orientation quadrupole field applied
 Nucleus-field energy     =     0.0000000018 hartrees
 Guess MOs from SCF MO coefficient file
 Reading MOs from coefficient file
 Reading MOs from coefficient file
 An unrestricted hybrid HF-DFT SCF calculation will be
 performed using Pulay DIIS extrapolation
 Exchange:     0.2000 Hartree-Fock + 0.0800 Slater + 0.7200 B88
 Correlation:  0.1900 VWN1RPA + 0.8100 LYP
 Using SG-1 standard quadrature grid
 SCF converges when DIIS error is below 1.0E-08
Using Q-Chem read-in guess as SCF_GUESS READ specified.

 using 4 threads for integral computing
 -------------------------------------------------------
 OpenMP Integral computing Module                
 Release: version 1.0, May 2013, Q-Chem Inc. Pittsburgh 
 -------------------------------------------------------
 -------------------------------------------------------
 OpenMP BLAS3 based DFT computing Module                
 Release: version 1.0, May 2013, Q-Chem Inc. Pittsburgh 
 -------------------------------------------------------
 ---------------------------------------
  Cycle       Energy         DIIS Error
 ---------------------------------------
    1    -286.8208155680      3.41E-09
    2    -286.8208155681      6.21E-09 Convergence criterion met
 ---------------------------------------
 <S^2> = 0.7841
 SCF time:  CPU 5.21 s  wall 1.64 s
 SCF   energy in the final basis set = -286.82081557
 Total energy in the final basis set = -286.82081557
 
 --------------------------------------------------------------
 
                    Orbital Energies (a.u.)
 --------------------------------------------------------------
 
 Alpha MOs
 -- Occupied --
-14.318 -10.221 -10.220 -10.217 -10.214 -10.209 -10.186  -0.955
 -0.837  -0.739  -0.679  -0.590  -0.576  -0.536  -0.515  -0.463
 -0.425  -0.408  -0.397  -0.376  -0.340  -0.295  -0.274  -0.252
 -0.140
 -- Virtual --
 -0.001   0.016   0.095   0.141   0.145   0.154   0.158   0.165
  0.177   0.205   0.218   0.260   0.301   0.310   0.362   0.371
  0.486   0.496   0.517   0.543   0.576   0.585   0.603   0.615
  0.622   0.636   0.665   0.682   0.711   0.755   0.768   0.791
  0.813   0.828   0.848   0.856   0.858   0.879   0.897   0.926
  0.961   1.007   1.102   1.127   1.137   1.251   1.265   1.318
  1.390   1.451   1.497   1.520   1.577   1.638   1.670   1.757
  1.768   1.804   1.832   1.896   1.930   1.975   2.016   2.063
  2.071   2.158   2.183   2.227   2.252   2.303   2.334   2.409
  2.423   2.459   2.516   2.540   2.590   2.629   2.634   2.659
  2.724   2.797   2.850   2.917   2.951   3.936   4.161   4.263
  4.309   4.444   4.515   4.666
 
 Beta MOs
 -- Occupied --
-14.318 -10.224 -10.220 -10.216 -10.214 -10.200 -10.176  -0.952
 -0.832  -0.731  -0.669  -0.586  -0.567  -0.534  -0.507  -0.458
 -0.421  -0.403  -0.395  -0.374  -0.335  -0.279  -0.263  -0.248
 -- Virtual --
 -0.023   0.008   0.031   0.097   0.148   0.149   0.157   0.160
  0.167   0.180   0.210   0.224   0.264   0.305   0.315   0.365
  0.376   0.491   0.507   0.522   0.547   0.581   0.598   0.610
  0.619   0.639   0.649   0.675   0.686   0.719   0.759   0.773
  0.792   0.815   0.829   0.851   0.857   0.864   0.881   0.901
  0.930   0.964   1.014   1.108   1.132   1.147   1.254   1.268
  1.327   1.393   1.453   1.510   1.524   1.585   1.643   1.679
  1.765   1.775   1.811   1.836   1.914   1.939   1.977   2.029
  2.071   2.079   2.162   2.191   2.238   2.263   2.309   2.352
  2.418   2.432   2.472   2.519   2.547   2.593   2.631   2.643
  2.666   2.732   2.802   2.853   2.919   2.953   3.937   4.163
  4.274   4.326   4.447   4.519   4.668
 --------------------------------------------------------------
 
          Ground-State Mulliken Net Atomic Charges

     Atom                 Charge (a.u.)    Spin (a.u.)
  --------------------------------------------------------
      1 C                     0.098662       0.045191
      2 C                    -0.198583       0.004626
      3 C                    -0.133649       0.603422
      4 C                    -0.077546       0.684062
      5 C                    -0.095574      -0.069616
      6 N                    -0.338135      -0.005493
      7 H                     0.144908       0.001487
      8 H                     0.142472       0.003486
      9 H                     0.158263      -0.031086
     10 H                     0.141303      -0.029241
     11 H                     0.139905       0.008074
     12 C                    -0.130892      -0.229137
     13 H                     0.148867       0.014223
  --------------------------------------------------------
  Sum of atomic charges =    -0.000000
  Sum of spin   charges =     1.000000

 -----------------------------------------------------------------
                    Cartesian Multipole Moments
 -----------------------------------------------------------------
    Charge (ESU x 10^10)
                -0.0000
    Dipole Moment (Debye)
         X      -0.5778      Y      -2.5765      Z       0.5419
       Tot       2.6955
    Quadrupole Moments (Debye-Ang)
        XX     -38.0699     XY      -3.1532     YY     -42.8433
        XZ       1.1707     YZ       0.5743     ZZ     -40.0856
    Octopole Moments (Debye-Ang^2)
       XXX      -1.3961    XXY      -5.6308    XYY      -9.5217
       YYY     -32.7676    XXZ       3.5007    XYZ       0.9296
       YYZ       4.6883    XZZ      -8.4942    YZZ      -8.7049
       ZZZ       7.5946
    Hexadecapole Moments (Debye-Ang^3)
      XXXX    -249.7512   XXXY      -8.2390   XXYY     -84.4954
      XYYY     -21.8657   YYYY    -262.0304   XXXZ      20.7878
      XXYZ       9.5888   XYYZ      10.4441   YYYZ      20.3706
      XXZZ     -70.0920   XYZZ      -3.1314   YYZZ     -65.9845
      XZZZ      19.7810   YZZZ      15.8591   ZZZZ    -171.2892
 -----------------------------------------------------------------
Archival summary:
1\1\c8-66\SP\ProcedureUnspecified\6-31G*\166(2)\hpark21\ThuMar307:15:202022ThuMar307:15:202022\0\\#,ProcedureUnspecified,6-31G*,\\0,2\N\C,1,1.28021\H,2,1.08888,1,122.109\C,1,1.50148,2,105.382,3,-174.595,0\H,4,1.08954,1,112.098,2,-159.238,0\C,2,1.5105,1,113.138,3,176.424,0\H,6,1.0878,2,120.785,1,162.718,0\C,6,1.49501,2,102.129,1,25.0257,0\H,8,1.0801,6,131.175,2,147.676,0\C,4,1.52447,1,108.086,2,68.5719,0\H,10,1.08093,4,130.927,1,104.869,0\C,10,1.40075,4,98.5298,1,-80.5535,0\H,12,1.08765,10,127.599,4,-161.674,0\\\@

 Total job time:  3.37s(wall), 6.83s(cpu) 
 Thu Mar  3 07:15:20 2022

        *************************************************************
        *                                                           *
        *  Thank you very much for using Q-Chem.  Have a nice day.  *
        *                                                           *
        *************************************************************


