
Running Job 1 of 1 qcts2.in
qchem qcts2.in_48797.0 ./qcts2.d/ 1
/home/leeping/opt/qchem/5.0.2-openmp/exe/qcprog.exe_s qcts2.in_48797.0 ./qcts2.d/
Check license passed

                  Welcome to Q-Chem
     A Quantum Leap Into The Future Of Chemistry


 Q-Chem 5.0, Q-Chem, Inc., Pleasanton, CA (2017)

 Yihan Shao,  Zhengting Gan,  E. Epifanovsky,  A. T. B. Gilbert,  M. Wormit,  
 J. Kussmann,  A. W. Lange,  A. Behn,  Jia Deng,  Xintian Feng,  D. Ghosh,  
 M. Goldey,  P. R. Horn,  L. D. Jacobson,  I. Kaliman,  T. Kus,  A. Landau,  
 Jie Liu,  E. I. Proynov,  R. M. Richard,  R. P. Steele,  E. J. Sundstrom,  
 H. L. Woodcock III,  P. M. Zimmerman,  D. Zuev,  B. Albrecht,  E. Alguire,  
 S. A. Baeppler,  D. Barton,  Z. Benda,  Y. A. Bernard,  E. J. Berquist,  
 K. B. Bravaya,  H. Burton,  D. Casanova,  Chun-Min Chang,  Yunqing Chen,  
 A. Chien,  K. D. Closser,  M. P. Coons,  S. Dasgupta,  A. L. Dempwolff,  
 M. Diedenhofen,  Hainam Do,  R. G. Edgar,  Po-Tung Fang,  S. Fatehi,  
 Qingguo Feng,  J. Fosso-Tande,  Qinghui Ge,  A. Ghysels,  G. Gidofalvi,  
 J. Gomes,  J. Gonthier,  A. Gunina,  M. W. D. Hanson-Heine,  
 P. H. P. Harbach,  A. W. Hauser,  J. E. Herr,  E. G. Hohenstein,  
 Z. C. Holden,  Kerwin Hui,  T.-C. Jagau,  Hyunjun Ji,  B. Kaduk,  
 K. Khistyaev,  Jaehoon Kim,  P. Klunzinger,  K. Koh,  D. Kosenkov,  
 L. Koulias,  T. Kowalczyk,  C. M. Krauter,  A. Kunitsa,  Ka Un Lao,  
 A. Laurent,  K. V. Lawler,  Joonho Lee,  D. Lefrancois,  S. Lehtola,  
 D. S. Levine,  Yi-Pei Li,  You-Sheng Lin,  Fenglai Liu,  E. Livshits,  
 A. Luenser,  P. Manohar,  E. Mansoor,  S. F. Manzer,  Shan-Ping Mao,  
 Yuezhi Mao,  N. Mardirossian,  A. V. Marenich,  T. Markovich,  
 L. A. Martinez-Martinez,  S. A. Maurer,  N. J. Mayhall,  S. C. McKenzie,  
 J.-M. Mewes,  A. F. Morrison,  J. W. Mullinax,  K. Nanda,  
 T. S. Nguyen-Beck,  R. Olivares-Amaya,  J. A. Parkhill,  T. M. Perrine,  
 F. Plasser,  S. Prager,  A. Prociuk,  E. Ramos,  D. R. Rehn,  F. Rob,  
 M. Schneider,  N. Sergueev,  S. M. Sharada,  S. Sharma,  D. W. Small,  
 T. Stauch,  T. Stein,  Yu-Chuan Su,  A. J. W. Thom,  A. Tkatchenko,  
 T. Tsuchimochi,  L. Vogt,  O. Vydrov,  M. A. Watson,  J. Wenzel,  
 M. de Wergifosse,  T. A. Wesolowski,  A. White,  J. Witte,  A. Yamada,  
 Jun Yang,  K. Yao,  S. Yeganeh,  S. R. Yost,  Zhi-Qiang You,  A. Zech,  
 Igor Ying Zhang,  Xing Zhang,  Yan Zhao,  Ying Zhu,  B. R. Brooks,  
 G. K. L. Chan,  C. J. Cramer,  M. S. Gordon,  W. J. Hehre,  A. Klamt,  
 M. W. Schmidt,  C. D. Sherrill,  D. G. Truhlar,  A. Aspuru-Guzik,  R. Baer,  
 A. T. Bell,  N. A. Besley,  Jeng-Da Chai,  R. A. DiStasio Jr.,  A. Dreuw,  
 B. D. Dunietz,  T. R. Furlani,  Chao-Ping Hsu,  Yousung Jung,  Jing Kong,  
 D. S. Lambrecht,  WanZhen Liang,  C. Ochsenfeld,  V. A. Rassolov,  
 L. V. Slipchenko,  J. E. Subotnik,  T. Van Voorhis,  J. M. Herbert,  
 A. I. Krylov,  P. M. W. Gill,  M. Head-Gordon

 Contributors to earlier versions of Q-Chem not listed above: 
 R. D. Adamson,  B. Austin,  J. Baker,  G. J. O. Beran,  K. Brandhorst,  
 S. T. Brown,  E. F. C. Byrd,  A. K. Chakraborty,  C.-L. Cheng,  
 Siu Hung Chien,  D. M. Chipman,  D. L. Crittenden,  H. Dachsel,  
 R. J. Doerksen,  A. D. Dutoi,  L. Fusti-Molnar,  W. A. Goddard III,  
 A. Golubeva-Zadorozhnaya,  S. R. Gwaltney,  G. Hawkins,  A. Heyden,  
 S. Hirata,  G. Kedziora,  F. J. Keil,  C. Kelley,  Jihan Kim,  R. A. King,  
 R. Z. Khaliullin,  P. P. Korambath,  W. Kurlancheek,  A. M. Lee,  M. S. Lee,  
 S. V. Levchenko,  Ching Yeh Lin,  D. Liotard,  R. C. Lochan,  I. Lotan,  
 P. E. Maslen,  N. Nair,  D. P. O'Neill,  D. Neuhauser,  E. Neuscamman,  
 C. M. Oana,  R. Olson,  B. Peters,  R. Peverati,  P. A. Pieniazek,  
 Y. M. Rhee,  J. Ritchie,  M. A. Rohrdanz,  E. Rosta,  N. J. Russ,  
 H. F. Schaefer III,  N. E. Schultz,  N. Shenvi,  A. C. Simmonett,  A. Sodt,  
 D. Stuck,  K. S. Thanthiriwatte,  V. Vanovschi,  Tao Wang,  A. Warshel,  
 C. F. Williams,  Q. Wu,  X. Xu,  W. Zhang

 Please cite Q-Chem as follows:
 Y. Shao et al., Mol. Phys. 113, 184-215 (2015)
 DOI: 10.1080/00268976.2014.952696

 Q-Chem 5.0.2 for Intel X86 EM64T Linux

 Parts of Q-Chem use Armadillo 5.200.1 (Boston Tea Smuggler).
 http://arma.sourceforge.net/

 Q-Chem begins on Thu Mar  3 07:32:44 2022  

Host: 
0

     Scratch files written to ./qcts2.d//
 Dec517 15110_ 26548  26544 5633   
Processing $rem in /home/leeping/opt/qchem/5.0.2-openmp/config/preferences.
 MEM_STATIC 2000
 MEM_TOTAL  8000
 SYMMETRY   OFF
 SYM_IGNORE TRUE 

Checking the input file for inconsistencies... 	...done.

--------------------------------------------------------------
User input:
--------------------------------------------------------------
$molecule
0 2
C        1.5415221120    0.4811609243   -0.1516428458
C        0.7757010328   -0.8138899312   -0.0199200762
C       -0.3931485247   -0.5881292990   -0.9245051420
C       -1.0537328198    0.5590798266    0.8178551345
C       -0.5913378995    0.9110773054   -0.5923554280
N        0.7996500782    1.4661576944   -0.5016370191
H        2.5979180092    0.6041083537    0.0775732442
H        1.2968699087   -1.7679853500   -0.0090710642
H       -0.9357738055   -1.2673827131   -1.5658130234
H       -1.7871214331    1.0323573591    1.4543089084
H       -1.2412678854    1.5292213364   -1.2088125347
C       -0.4049654533   -0.6772187833    0.9488108791
H       -0.6256758852   -1.4707377116    1.6577385029
$end

$rem
method                b3lyp
basis                 6-31+g(d,p)
unrestricted          true
symmetry              off
sym_ignore            true
incdft                false
incfock               0
scf_convergence       8
thresh                14
jobtype               sp
scf_guess             read
scf_algorithm         diis
max_scf_cycles        100
$end

--------------------------------------------------------------
 ----------------------------------------------------------------
             Standard Nuclear Orientation (Angstroms)
    I     Atom           X                Y                Z
 ----------------------------------------------------------------
    1      C       1.5415221120     0.4811609243    -0.1516428458
    2      C       0.7757010328    -0.8138899312    -0.0199200762
    3      C      -0.3931485247    -0.5881292990    -0.9245051420
    4      C      -1.0537328198     0.5590798266     0.8178551345
    5      C      -0.5913378995     0.9110773054    -0.5923554280
    6      N       0.7996500782     1.4661576944    -0.5016370191
    7      H       2.5979180092     0.6041083537     0.0775732442
    8      H       1.2968699087    -1.7679853500    -0.0090710642
    9      H      -0.9357738055    -1.2673827131    -1.5658130234
   10      H      -1.7871214331     1.0323573591     1.4543089084
   11      H      -1.2412678854     1.5292213364    -1.2088125347
   12      C      -0.4049654533    -0.6772187833     0.9488108791
   13      H      -0.6256758852    -1.4707377116     1.6577385029
 ----------------------------------------------------------------
 Nuclear Repulsion Energy =   280.5491748937 hartrees
 There are       25 alpha and       24 beta electrons
 Requested basis set is 6-31+G(d,p)
 There are 53 shells and 163 basis functions

 Total QAlloc Memory Limit   8000 MB
 Mega-Array Size      1956 MB
 MEM_STATIC part      2000 MB

                       Distance Matrix (Angstroms)
             C (  1)   C (  2)   C (  3)   C (  4)   C (  5)   N (  6)
   C (  2)  1.510295
   C (  3)  2.341719  1.495143
   C (  4)  2.771524  2.435927  2.188214
   C (  5)  2.219943  2.274201  1.548297  1.525256
   N (  6)  1.281830  2.330503  2.412816  2.449261  1.500397
   H (  7)  1.087947  2.310995  3.372250  3.726204  3.273284  2.076627
   H (  8)  2.266901  1.087213  2.255270  3.409453  3.329103  3.309007
   H (  9)  3.345785  2.350444  1.080326  3.005288  2.410797  3.408285
   H ( 10)  3.736679  3.485691  3.198108  1.080243  2.373487  3.271895
   H ( 11)  3.155940  3.312371  2.298545  2.254712  1.088361  2.160884
   C ( 12)  2.518264  1.533327  1.875470  1.402313  2.220949  2.854638
   H ( 13)  3.432276  2.282508  2.738804  2.238034  3.276758  3.914053
             H (  7)   H (  8)   H (  9)   H ( 10)   H ( 11)   C ( 12)
   H (  8)  2.706855
   H (  9)  4.323214  2.767444
   H ( 10)  4.615991  4.415247  3.890339
   H ( 11)  4.153308  4.330484  2.835802  2.763521
   C ( 12)  3.379077  2.236862  2.636927  2.255778  3.197361
   H ( 13)  4.146500  2.561795  3.244811  2.766916  4.194737  1.086722

 
 A cutoff of  1.0D-14 yielded   1404 shell pairs
 There are     13506 function pairs
 
 -------------------------------------------------------
 OpenMP Integral Computing Module                       
 Release: version 1.0, May 2013, Q-Chem Inc. Pittsburgh 
 -------------------------------------------------------
 Integral Job Info:
 Integral job number is                      11
 Integral operator is                         1
 short-range coefficients                     0
 long-range coefficients              100000000
 Omega coefficients                           0
 if combine SR and LR in K                    0
 Integral screening is                        0
 Integral computing path is                   2
 max size of driver memory is            800000
 size of driver memory is                593474
 size of scratch memory is              2361544
 max col of scratch BK array               1296
 max len of scratch array in speh3          155
 max len of scratch index in speh4           18
 max int batch size is                      520
 min int batch size is                       52
 fixed nKL is                                52
 max L of basis functions is                  2
 order of int derivative is                   0
 number of shells is                         53
 number of basis is                         163
 number of cartesian basis is               163
 number of contracted shell pairs          1404
 number of primitive shell pairs           4827
 maxK2 (contraction) of shell pair           36
 max number of K2 of shell pair               1
 max number of CS2 of shell pair            126
 max number of PS2 of shell pair            696
 mem total for path MDJ                  535308
 -------------------------------------------------------
 Smallest overlap matrix eigenvalue = 2.31E-05

 Scale SEOQF with 1.000000e-01/1.000000e-01/1.000000e-01

 Standard Electronic Orientation quadrupole field applied
 Nucleus-field energy     =     0.0000000018 hartrees
 Guess MOs from SCF MO coefficient file
 Reading MOs from coefficient file
 Reading MOs from coefficient file
 An unrestricted hybrid HF-DFT SCF calculation will be
 performed using Pulay DIIS extrapolation
 Exchange:     0.2000 Hartree-Fock + 0.0800 Slater + 0.7200 B88
 Correlation:  0.1900 VWN1RPA + 0.8100 LYP
 Using SG-1 standard quadrature grid
 SCF converges when DIIS error is below 1.0E-08
Using Q-Chem read-in guess as SCF_GUESS READ specified.

 using 4 threads for integral computing
 -------------------------------------------------------
 OpenMP Integral computing Module                
 Release: version 1.0, May 2013, Q-Chem Inc. Pittsburgh 
 -------------------------------------------------------
 -------------------------------------------------------
 OpenMP BLAS3 based DFT computing Module                
 Release: version 1.0, May 2013, Q-Chem Inc. Pittsburgh 
 -------------------------------------------------------
 ---------------------------------------
  Cycle       Energy         DIIS Error
 ---------------------------------------
    1    -286.8438515908      1.76E-09
    2    -286.8438515908      2.19E-09 Convergence criterion met
 ---------------------------------------
 <S^2> = 0.7808
 SCF time:  CPU 10.39 s  wall 3.41 s
 SCF   energy in the final basis set = -286.84385159
 Total energy in the final basis set = -286.84385159
 
 --------------------------------------------------------------
 
                    Orbital Energies (a.u.)
 --------------------------------------------------------------
 
 Alpha MOs
 -- Occupied --
-14.334 -10.234 -10.231 -10.229 -10.225 -10.222 -10.199  -0.969
 -0.850  -0.750  -0.690  -0.601  -0.587  -0.546  -0.524  -0.474
 -0.436  -0.418  -0.409  -0.387  -0.351  -0.307  -0.287  -0.266
 -0.152
 -- Virtual --
 -0.025  -0.009   0.000   0.020   0.026   0.031   0.048   0.048
  0.068   0.071   0.074   0.091   0.103   0.106   0.109   0.115
  0.123   0.129   0.143   0.154   0.167   0.177   0.183   0.185
  0.190   0.199   0.208   0.211   0.228   0.233   0.240   0.246
  0.258   0.268   0.281   0.290   0.301   0.318   0.330   0.353
  0.373   0.385   0.414   0.459   0.617   0.654   0.691   0.698
  0.698   0.715   0.724   0.738   0.752   0.758   0.787   0.795
  0.799   0.816   0.863   0.899   0.912   0.934   0.973   0.986
  1.009   1.015   1.036   1.065   1.088   1.117   1.133   1.162
  1.187   1.256   1.287   1.298   1.382   1.418   1.436   1.517
  1.530   1.612   1.617   1.711   1.717   1.775   1.802   1.832
  1.887   1.915   1.945   1.990   1.999   2.078   2.117   2.138
  2.150   2.221   2.231   2.262   2.278   2.360   2.370   2.379
  2.403   2.419   2.472   2.488   2.499   2.517   2.525   2.554
  2.578   2.596   2.627   2.648   2.684   2.745   2.759   2.776
  2.825   2.875   2.956   3.059   3.110   3.293   3.311   3.337
  3.475   3.626   3.692   4.154   4.388   4.472   4.575   4.639
  4.713   4.852
 
 Beta MOs
 -- Occupied --
-14.334 -10.236 -10.232 -10.228 -10.225 -10.214 -10.189  -0.965
 -0.844  -0.743  -0.680  -0.597  -0.577  -0.544  -0.516  -0.469
 -0.432  -0.413  -0.407  -0.385  -0.346  -0.291  -0.277  -0.262
 -- Virtual --
 -0.043  -0.019  -0.001   0.002   0.020   0.027   0.035   0.048
  0.049   0.070   0.072   0.078   0.092   0.103   0.106   0.110
  0.116   0.128   0.130   0.144   0.155   0.167   0.177   0.184
  0.189   0.191   0.202   0.210   0.216   0.232   0.235   0.243
  0.247   0.261   0.272   0.281   0.291   0.304   0.322   0.332
  0.357   0.375   0.388   0.420   0.462   0.620   0.661   0.692
  0.703   0.708   0.734   0.742   0.745   0.753   0.768   0.791
  0.797   0.804   0.819   0.865   0.903   0.914   0.936   0.974
  0.988   1.010   1.020   1.038   1.069   1.091   1.122   1.140
  1.168   1.192   1.260   1.295   1.300   1.385   1.422   1.445
  1.521   1.538   1.618   1.622   1.718   1.723   1.781   1.807
  1.849   1.891   1.924   1.946   1.999   2.002   2.083   2.126
  2.139   2.158   2.229   2.235   2.270   2.285   2.362   2.373
  2.383   2.407   2.427   2.476   2.496   2.502   2.523   2.530
  2.558   2.588   2.602   2.631   2.654   2.690   2.749   2.763
  2.780   2.827   2.877   2.959   3.061   3.111   3.295   3.312
  3.338   3.477   3.630   3.696   4.154   4.394   4.478   4.588
  4.645   4.716   4.855
 --------------------------------------------------------------
 
          Ground-State Mulliken Net Atomic Charges

     Atom                 Charge (a.u.)    Spin (a.u.)
  --------------------------------------------------------
      1 C                    -0.064083       0.042030
      2 C                    -0.015952      -0.033633
      3 C                    -0.277704       0.641923
      4 C                    -0.131312       0.739135
      5 C                     0.012668      -0.123988
      6 N                    -0.206061      -0.003055
      7 H                     0.134959       0.001378
      8 H                     0.131535       0.003542
      9 H                     0.147090      -0.027868
     10 H                     0.138907      -0.030752
     11 H                     0.130408       0.008151
     12 C                    -0.141112      -0.229373
     13 H                     0.140658       0.012511
  --------------------------------------------------------
  Sum of atomic charges =    -0.000000
  Sum of spin   charges =     1.000000

 -----------------------------------------------------------------
                    Cartesian Multipole Moments
 -----------------------------------------------------------------
    Charge (ESU x 10^10)
                -0.0000
    Dipole Moment (Debye)
         X      -0.5817      Y      -2.8402      Z       0.5313
       Tot       2.9475
    Quadrupole Moments (Debye-Ang)
        XX     -38.9951     XY      -3.7527     YY     -44.6317
        XZ       1.4049     YZ       0.3200     ZZ     -41.7575
    Octopole Moments (Debye-Ang^2)
       XXX      -0.5466    XXY      -5.8552    XYY     -10.3003
       YYY     -36.3943    XXZ       3.6386    XYZ       1.3037
       YYZ       4.5391    XZZ      -9.2903    YZZ     -10.0019
       ZZZ       7.4281
    Hexadecapole Moments (Debye-Ang^3)
      XXXX    -262.5447   XXXY     -10.8137   XXYY     -90.0112
      XYYY     -26.4807   YYYY    -283.1807   XXXZ      22.8141
      XXYZ      10.0921   XYYZ      11.9057   YYYZ      19.8845
      XXZZ     -74.7331   XYZZ      -3.7773   YYZZ     -72.2650
      XZZZ      22.4370   YZZZ      13.8674   ZZZZ    -190.9530
 -----------------------------------------------------------------
Archival summary:
1\1\c8-66\SP\ProcedureUnspecified\6-31+G**\166(2)\hpark21\ThuMar307:32:502022ThuMar307:32:502022\0\\#,ProcedureUnspecified,6-31+G**,\\0,2\N\C,1,1.28183\H,2,1.08795,1,122.186\C,1,1.5004,2,105.592,3,-174.604,0\H,4,1.08836,1,112.194,2,-159.466,0\C,2,1.51029,1,112.908,3,176.636,0\H,6,1.08721,2,120.683,1,162.587,0\C,6,1.49514,2,102.366,1,24.7597,0\H,8,1.08033,6,131.062,2,144.739,0\C,4,1.52526,1,108.091,2,68.3499,0\H,10,1.08024,4,130.5,1,108.556,0\C,10,1.40231,4,98.6006,1,-80.5181,0\H,12,1.08672,10,127.641,4,-161.365,0\\\@

 Total job time:  5.88s(wall), 12.13s(cpu) 
 Thu Mar  3 07:32:50 2022

        *************************************************************
        *                                                           *
        *  Thank you very much for using Q-Chem.  Have a nice day.  *
        *                                                           *
        *************************************************************


