13   
From optimize.out: Frame 1 / 10, Energy=    -286.8274221311
C        1.0794514127    0.2310538929    0.4633299753
C        0.9289042621   -0.9674814235   -0.4057512860
C       -0.3899805699   -1.0340040545   -0.6664680716
C       -1.0639505014    0.2250613326    0.1294938497
C       -0.4291479966    1.4215180609   -0.5226731690
N        0.8464027053    1.4742767714   -0.3321849531
H        2.0277345769    0.4263136630    0.9769710731
H        1.7287085651   -1.5582246586   -0.8258977503
H       -1.0075493272   -1.8618957285   -0.9681904808
H       -2.1448701339    0.2210717848   -0.0510420056
H       -0.9888294263    2.1714836306   -1.0806540838
C       -0.2520621434    0.0573567834    1.3128449508
H       -0.3348114239   -0.8065300546    1.9702219512
13   
From optimize.out: Frame 2 / 10, Energy=    -286.8386978375
C        1.0970892396    0.2454198459    0.4791472335
C        0.9168775875   -0.9674041000   -0.4004950764
C       -0.3984469222   -1.0350772213   -0.6782556546
C       -1.0723044472    0.2094121275    0.1034326104
C       -0.4370578764    1.4279374227   -0.5335902791
N        0.8308792276    1.4846872812   -0.3307466915
H        2.0436662788    0.3966407212    1.0058269145
H        1.7145029433   -1.5755254546   -0.8063537018
H       -1.0049407891   -1.8580115682   -1.0297177464
H       -2.1607275258    0.1872472417   -0.0070472636
H       -0.9892542895    2.1822081162   -1.0929551946
C       -0.2283827078    0.0757315858    1.3072394343
H       -0.3119007193   -0.7732659983    1.9835154152
13   
From optimize.out: Frame 3 / 10, Energy=    -286.8455455059
C        1.0989358708    0.2562390201    0.4877268108
C        0.9061060609   -0.9655461106   -0.4014642295
C       -0.4061329764   -1.0319970730   -0.6806510197
C       -1.0749029569    0.1878969777    0.0823216524
C       -0.4375201860    1.4258460311   -0.5409817535
N        0.8208589132    1.4948529206   -0.3264109933
H        2.0451042531    0.3743038865    1.0159369035
H        1.7029535454   -1.5881851418   -0.7922493692
H       -0.9928075501   -1.8449217431   -1.0898903938
H       -2.1653512485    0.1599423032    0.0441465010
H       -0.9817197474    2.1812048795   -1.1054825552
C       -0.2104048729    0.0909743764    1.3047618481
H       -0.3051191058   -0.7406103266    2.0022365981
13   
From optimize.out: Frame 4 / 10, Energy=    -286.8493441340
C        1.1016949790    0.2597895299    0.4930015510
C        0.9015689688   -0.9692733989   -0.3988256584
C       -0.4110394929   -1.0290534599   -0.6782675872
C       -1.0773025333    0.1688785814    0.0673208788
C       -0.4438838923    1.4238789292   -0.5454671731
N        0.8105882231    1.4980970159   -0.3242957264
H        2.0515430651    0.3564119762    1.0174629896
H        1.6963070188   -1.6041786435   -0.7751681056
H       -0.9761713990   -1.8200190962   -1.1570661546
H       -2.1671561113    0.1449506486    0.0902646869
H       -0.9854392309    2.1762181505   -1.1170022662
C       -0.1965400446    0.1014680137    1.3025388796
H       -0.3041695508   -0.7071682469    2.0255036855
13   
From optimize.out: Frame 5 / 10, Energy=    -286.8511322306
C        1.1020007378    0.2601866163    0.4964525479
C        0.8975489863   -0.9711429093   -0.4003131733
C       -0.4166047132   -1.0341391223   -0.6720711308
C       -1.0792430647    0.1526417499    0.0594901099
C       -0.4465659763    1.4182870872   -0.5497608641
N        0.8045149115    1.5023361410   -0.3182068810
H        2.0562708124    0.3431909822    1.0146131193
H        1.6899223037   -1.6142240822   -0.7671523404
H       -0.9588676413   -1.7932966806   -1.2247768737
H       -2.1666753475    0.1323859204    0.1320193183
H       -0.9858974387    2.1651902580   -1.1300070898
C       -0.1884237081    0.1093630416    1.3039224526
H       -0.3079798625   -0.6707790024    2.0557908050
13   
From optimize.out: Frame 6 / 10, Energy=    -286.8516082808
C        1.1029812745    0.2563312078    0.4971276317
C        0.8965600874   -0.9791117413   -0.3939141166
C       -0.4169594867   -1.0381744016   -0.6701558633
C       -1.0813327019    0.1442669375    0.0593862538
C       -0.4545272312    1.4159788887   -0.5485498056
N        0.7990911900    1.4948711587   -0.3277825973
H        2.0606665367    0.3374227929    1.0094000651
H        1.6872039550   -1.6300366575   -0.7502442745
H       -0.9410171426   -1.7551106976   -1.2925992367
H       -2.1659482107    0.1219968533    0.1652648420
H       -0.9944341157    2.1569862445   -1.1357561460
C       -0.1826293148    0.1131626081    1.3047034066
H       -0.3096548406   -0.6385831935    2.0831198407
13   
From optimize.out: Frame 7 / 10, Energy=    -286.8516202451
C        1.1031079261    0.2542666160    0.5001544497
C        0.8952191720   -0.9719348804   -0.4036990644
C       -0.4204053497   -1.0446367685   -0.6645802241
C       -1.0815323914    0.1421418095    0.0600601749
C       -0.4502371026    1.4086344637   -0.5553722836
N        0.7991782466    1.5009855101   -0.3131618085
H        2.0612878048    0.3313447215    1.0121199320
H        1.6854352254   -1.6216109631   -0.7633493154
H       -0.9416958713   -1.7542719229   -1.2979465555
H       -2.1657424811    0.1178534296    0.1701362178
H       -0.9884847600    2.1496408301   -1.1439983454
C       -0.1829031894    0.1128583815    1.3047397118
H       -0.3132272299   -0.6252712271    2.0948971106
13   
From optimize.out: Frame 8 / 10, Energy=    -286.8516669333
C        1.1029163696    0.2539016805    0.4985050296
C        0.8960351734   -0.9755834904   -0.4002326606
C       -0.4182230005   -1.0427252860   -0.6685971886
C       -1.0809016363    0.1429633093    0.0608084227
C       -0.4525113996    1.4116352945   -0.5507403235
N        0.7997561697    1.4970795881   -0.3214770257
H        2.0604618945    0.3341333986    1.0110074142
H        1.6863997426   -1.6264388864   -0.7575890565
H       -0.9411007855   -1.7530195010   -1.2998706659
H       -2.1653668446    0.1174576209    0.1679489501
H       -0.9917781510    2.1528589597   -1.1380829641
C       -0.1831738019    0.1129458112    1.3040620213
H       -0.3125137309   -0.6252084992    2.0942580469
13   
From optimize.out: Frame 9 / 10, Energy=    -286.8516701831
C        1.1030750516    0.2531806621    0.4984432056
C        0.8963496700   -0.9760527209   -0.4003436869
C       -0.4177137077   -1.0422269276   -0.6696209273
C       -1.0805697987    0.1430142782    0.0613758349
C       -0.4529943674    1.4115206774   -0.5505327308
N        0.7995107947    1.4966839090   -0.3220509565
H        2.0604414015    0.3338840246    1.0111666601
H        1.6867061885   -1.6270479997   -0.7575397395
H       -0.9411106401   -1.7521448548   -1.3007557173
H       -2.1651157948    0.1168866147    0.1676736568
H       -0.9925392699    2.1529675838   -1.1374028384
C       -0.1830197872    0.1122953535    1.3034683201
H       -0.3130197409   -0.6229606004    2.0961189190
