13   
From optimize.out: Frame 2 / 3, Energy=    -286.8249551859
C        1.3118553965    0.3025645483    0.2420680501
C        0.6068016140   -1.0007437408   -0.1830377253
C       -0.6883432701   -0.4654887350   -0.8439833543
C       -1.0780816294    0.1914248105    0.4506992150
C       -0.5189778790    1.0592796455   -0.6927874810
N        0.8291126319    1.4230372465   -0.4714120611
H        2.3483758206    0.2894064774    0.5607696643
H        1.1233254710   -1.9344691093   -0.3753888304
H       -1.2958121827   -0.9367535784   -1.6085309573
H       -2.0520569287    0.3366788924    0.9044507955
H       -1.1651298397    1.7418607690   -1.2337022453
C        0.2167204484   -0.3451412793    1.1120381956
H        0.3622103476   -0.6616559464    2.1388167342
13   
From optimize.out: Frame 2 / 3, Energy=    -286.8755019532
C        1.6831453044    0.4587545760   -0.3392167030
C        1.1429896624   -0.8354919986   -0.4011608657
C       -0.3449165255   -0.7180911835   -0.4471978002
C       -1.2134761665    0.6460818054    0.9263898064
C       -0.5153496924    0.8525959529   -0.4181831336
N        0.8093529570    1.4601711812   -0.3450224016
H        2.7471040179    0.6792975566   -0.2637081979
H        1.7113625920   -1.7587928270   -0.3767725623
H       -0.8308086369   -1.2903499545   -1.2483563531
H       -1.6214309565    1.3566951813    1.6388101066
H       -1.1181864428    1.3182111313   -1.2075476608
C       -1.0839680141   -0.6847866488    0.9007669795
H       -1.3658180991   -1.4842947723    1.5811987857
